<event>
 7    1  0.2641045E-013  0.7246157E+02  0.7816164E-02  0.1226708E+00
        -11   -1    0    0    0    0  0.00000000000E+00  0.00000000000E+00  0.45593999997E+02  0.45594000000E+02  0.51100000000E-03 0. -1.
         11   -1    0    0    0    0 -0.00000000000E+00 -0.00000000000E+00 -0.45593999997E+02  0.45594000000E+02  0.51100000000E-03 0.  1.
    9900012    2    1    2    0    0 -0.53569055094E+01 -0.10091273084E+02  0.14837415283E+02  0.72461571581E+02  0.70000001676E+02 0.  0.
        -12    1    1    2    0    0  0.53569055094E+01  0.10091273084E+02 -0.14837415283E+02  0.18726428419E+02  0.00000000000E+00 0.  1.
         11    1    3    3    0    0 -0.51840810960E+01 -0.14967045135E+00 -0.63889843047E+01  0.82289864966E+01  0.51100000000E-03 0. -1.
        -11    1    3    3    0    0  0.74249197672E+01 -0.74419568551E+01 -0.19808640757E+02  0.22425307228E+02  0.51100000000E-03 0.  1.
         12    1    3    3    0    0 -0.75977441806E+01 -0.24996457770E+01  0.41035040344E+02  0.41807277856E+02  0.00000000000E+00 0. -1.
</event>
<event>
 7    1  0.2641045E-013  0.7246156E+02  0.7816164E-02  0.1226708E+00
        -11   -1    0    0    0    0  0.00000000000E+00  0.00000000000E+00  0.45593999997E+02  0.45594000000E+02  0.51100000000E-03 0. -1.
         11   -1    0    0    0    0 -0.00000000000E+00 -0.00000000000E+00 -0.45593999997E+02  0.45594000000E+02  0.51100000000E-03 0.  1.
    9900012    2    1    2    0    0 -0.91545989265E+01  0.91977349726E+01 -0.13500908642E+02  0.72461560288E+02  0.69999986965E+02 0.  0.
        -12    1    1    2    0    0  0.91545989265E+01 -0.91977349726E+01  0.13500908642E+02  0.18726439712E+02  0.00000000000E+00 0.  1.
         11    1    3    3    0    0  0.11697082176E+02  0.60770155399E+00 -0.27932773740E+01  0.12041321828E+02  0.51100000000E-03 0. -1.
        -11    1    3    3    0    0  0.94706247816E+00 -0.93734453105E+01 -0.26453696219E+02  0.28081247270E+02  0.51100000000E-03 0.  1.
        -12    1    3    3    0    0 -0.21798743580E+02  0.17963478729E+02  0.15746064951E+02  0.32338991190E+02  0.00000000000E+00 0.  1.
</event>
<event>
 7    1  0.2641045E-013  0.7246174E+02  0.7816164E-02  0.1226708E+00
        -11   -1    0    0    0    0  0.00000000000E+00  0.00000000000E+00  0.45593999997E+02  0.45594000000E+02  0.51100000000E-03 0.  1.
         11   -1    0    0    0    0 -0.00000000000E+00 -0.00000000000E+00 -0.45593999997E+02  0.45594000000E+02  0.51100000000E-03 0. -1.
    9900012    2    1    2    0    0 -0.25359995843E+01 -0.18155576897E+02  0.38231692841E+01  0.72461737967E+02  0.70000218424E+02 0.  0.
        -12    1    1    2    0    0  0.25359995843E+01  0.18155576897E+02 -0.38231692841E+01  0.18726262033E+02  0.00000000000E+00 0.  1.
         11    1    3    3    0    0 -0.10557474363E+02 -0.12096379877E+02 -0.11835645577E+02  0.19946558037E+02  0.51100000000E-03 0. -1.
        -11    1    3    3    0    0  0.12454686301E+01  0.44772070834E+01  0.31769296782E+02  0.32107394688E+02  0.51100000000E-03 0.  1.
         12    1    3    3    0    0  0.67760061483E+01 -0.10536404103E+02 -0.16110481920E+02  0.20407785241E+02  0.00000000000E+00 0. -1.
</event>
<event>
 7    1  0.2641045E-013  0.7246161E+02  0.7816164E-02  0.1226708E+00
        -11   -1    0    0    0    0  0.00000000000E+00  0.00000000000E+00  0.45593999997E+02  0.45594000000E+02  0.51100000000E-03 0. -1.
         11   -1    0    0    0    0 -0.00000000000E+00 -0.00000000000E+00 -0.45593999997E+02  0.45594000000E+02  0.51100000000E-03 0.  1.
    9900012    2    1    2    0    0 -0.18057895062E+02  0.47809221533E+01 -0.13163802275E+01  0.72461610930E+02  0.70000052936E+02 0.  0.
        -12    1    1    2    0    0  0.18057895062E+02 -0.47809221533E+01  0.13163802275E+01  0.18726389070E+02  0.00000000000E+00 0.  1.
         11    1    3    3    0    0 -0.18113147340E+02  0.25178054400E+02  0.11565332088E+02  0.33102529155E+02  0.51100000000E-03 0. -1.
        -11    1    3    3    0    0 -0.66089226127E+01  0.20522714483E+01 -0.14312536323E+02  0.15897747402E+02  0.51100000000E-03 0.  1.
        -12    1    3    3    0    0  0.66641748908E+01 -0.22449403695E+02  0.14308240070E+01  0.23461334373E+02  0.00000000000E+00 0.  1.
</event>
<event>
 7    1  0.2641045E-013  0.7246156E+02  0.7816164E-02  0.1226708E+00
        -11   -1    0    0    0    0  0.00000000000E+00  0.00000000000E+00  0.45593999997E+02  0.45594000000E+02  0.51100000000E-03 0. -1.
         11   -1    0    0    0    0 -0.00000000000E+00 -0.00000000000E+00 -0.45593999997E+02  0.45594000000E+02  0.51100000000E-03 0.  1.
    9900012    2    1    2    0    0  0.76412050877E+00 -0.94996472478E+01  0.16119932034E+02  0.72461564494E+02  0.69999992444E+02 0.  0.
        -12    1    1    2    0    0 -0.76412050877E+00  0.94996472478E+01 -0.16119932034E+02  0.18726435506E+02  0.00000000000E+00 0.  1.
         11    1    3    3    0    0 -0.88482181476E+01  0.12844374092E+02  0.94319919560E+01  0.18227215440E+02  0.51100000000E-03 0. -1.
        -11    1    3    3    0    0 -0.16046762610E+02  0.45084235470E+01  0.25902067150E+01  0.16868125095E+02  0.51100000000E-03 0.  1.
        -12    1    3    3    0    0  0.25659101266E+02 -0.26852444887E+02  0.40977333628E+01  0.37366223958E+02  0.00000000000E+00 0.  1.
</event>
<event>
 7    1  0.2641045E-013  0.7246155E+02  0.7816164E-02  0.1226708E+00
        -11   -1    0    0    0    0  0.00000000000E+00  0.00000000000E+00  0.45593999997E+02  0.45594000000E+02  0.51100000000E-03 0.  1.
         11   -1    0    0    0    0 -0.00000000000E+00 -0.00000000000E+00 -0.45593999997E+02  0.45594000000E+02  0.51100000000E-03 0. -1.
    9900012    2    1    2    0    0 -0.12514973404E+02 -0.42379623956E+01 -0.13270081738E+02  0.72461549351E+02  0.69999972718E+02 0.  0.
        -12    1    1    2    0    0  0.12514973404E+02  0.42379623956E+01  0.13270081738E+02  0.18726450649E+02  0.00000000000E+00 0.  1.
         11    1    3    3    0    0  0.25654566595E+01  0.18263980498E+02  0.29908238151E+00  0.18445704162E+02  0.51100000000E-03 0. -1.
        -11    1    3    3    0    0  0.97126822276E+01 -0.11692147887E+02 -0.21039676168E+02  0.25955933653E+02  0.51100000000E-03 0.  1.
        -12    1    3    3    0    0 -0.24793112291E+02 -0.10809795006E+02  0.74705120488E+01  0.28059911536E+02  0.00000000000E+00 0.  1.
</event>
<event>
 7    1  0.2641045E-013  0.7246160E+02  0.7816164E-02  0.1226708E+00
        -11   -1    0    0    0    0  0.00000000000E+00  0.00000000000E+00  0.45593999997E+02  0.45594000000E+02  0.51100000000E-03 0. -1.
         11   -1    0    0    0    0 -0.00000000000E+00 -0.00000000000E+00 -0.45593999997E+02  0.45594000000E+02  0.51100000000E-03 0.  1.
    9900012    2    1    2    0    0  0.37452180810E+01  0.12547901547E+02  0.13386614727E+02  0.72461602974E+02  0.70000042571E+02 0.  0.
        -12    1    1    2    0    0 -0.37452180810E+01 -0.12547901547E+02 -0.13386614727E+02  0.18726397026E+02  0.00000000000E+00 0.  1.
         11    1    3    3    0    0 -0.14665237095E+02 -0.20678829423E+01 -0.36393757275E+01  0.15250913903E+02  0.51100000000E-03 0. -1.
        -11    1    3    3    0    0  0.44144254299E+01 -0.64858298066E+01  0.28391566021E+02  0.29455630388E+02  0.51100000000E-03 0.  1.
         12    1    3    3    0    0  0.13996029746E+02  0.21101614296E+02 -0.11365575566E+02  0.27755058683E+02  0.00000000000E+00 0. -1.
</event>
<event>
 7    1  0.2641045E-013  0.7246160E+02  0.7816164E-02  0.1226708E+00
        -11   -1    0    0    0    0  0.00000000000E+00  0.00000000000E+00  0.45593999997E+02  0.45594000000E+02  0.51100000000E-03 0.  1.
         11   -1    0    0    0    0 -0.00000000000E+00 -0.00000000000E+00 -0.45593999997E+02  0.45594000000E+02  0.51100000000E-03 0. -1.
    9900012    2    1    2    0    0  0.72371553933E+01  0.73049940189E+01 -0.15650521003E+02  0.72461597156E+02  0.70000034993E+02 0.  0.
        -12    1    1    2    0    0 -0.72371553933E+01 -0.73049940189E+01  0.15650521003E+02  0.18726402844E+02  0.00000000000E+00 0.  1.
         11    1    3    3    0    0  0.56995073010E+01  0.24099445919E+02  0.18488590139E+01  0.24833162445E+02  0.51100000000E-03 0. -1.
        -11    1    3    3    0    0 -0.14572660687E+02  0.32630416941E+01  0.23726903143E+01  0.15120831332E+02  0.51100000000E-03 0.  1.
        -12    1    3    3    0    0  0.16110308779E+02 -0.20057493594E+02 -0.19872070331E+02  0.32507603380E+02  0.00000000000E+00 0.  1.
</event>
<event>
 7    1  0.2641045E-013  0.7246154E+02  0.7816164E-02  0.1226708E+00
        -11   -1    0    0    0    0  0.00000000000E+00  0.00000000000E+00  0.45593999997E+02  0.45594000000E+02  0.51100000000E-03 0.  1.
         11   -1    0    0    0    0 -0.00000000000E+00 -0.00000000000E+00 -0.45593999997E+02  0.45594000000E+02  0.51100000000E-03 0. -1.
    9900012    2    1    2    0    0 -0.98423645271E+00 -0.18016594382E+02 -0.50113873108E+01  0.72461537513E+02  0.69999957296E+02 0.  0.
        -12    1    1    2    0    0  0.98423645271E+00  0.18016594382E+02  0.50113873108E+01  0.18726462487E+02  0.00000000000E+00 0.  1.
         11    1    3    3    0    0  0.12015149534E+02 -0.38620092476E+02 -0.85237318625E+01  0.41334360601E+02  0.51100000000E-03 0. -1.
        -11    1    3    3    0    0  0.36968624762E+01  0.80092978311E+01 -0.28448675868E+01  0.92687062615E+01  0.51100000000E-03 0.  1.
        -12    1    3    3    0    0 -0.16696248463E+02  0.12594200263E+02  0.63572121384E+01  0.21858470650E+02  0.00000000000E+00 0.  1.
</event>
<event>
 7    1  0.2641045E-013  0.7246158E+02  0.7816164E-02  0.1226708E+00
        -11   -1    0    0    0    0  0.00000000000E+00  0.00000000000E+00  0.45593999997E+02  0.45594000000E+02  0.51100000000E-03 0. -1.
         11   -1    0    0    0    0 -0.00000000000E+00 -0.00000000000E+00 -0.45593999997E+02  0.45594000000E+02  0.51100000000E-03 0.  1.
    9900012    2    1    2    0    0  0.88753473643E+01 -0.81549256491E+01  0.14331927736E+02  0.72461581341E+02  0.70000014390E+02 0.  0.
        -12    1    1    2    0    0 -0.88753473643E+01  0.81549256491E+01 -0.14331927736E+02  0.18726418659E+02  0.00000000000E+00 0.  1.
         11    1    3    3    0    0 -0.31831907394E+01 -0.43281218873E+01  0.11852901510E+02  0.13013708804E+02  0.51100000000E-03 0. -1.
        -11    1    3    3    0    0  0.64693134806E+01 -0.10579629205E+02  0.28986961071E+02  0.31528153822E+02  0.51100000000E-03 0.  1.
        -12    1    3    3    0    0  0.55892246231E+01  0.67528254431E+01 -0.26507934846E+02  0.27919718715E+02  0.00000000000E+00 0.  1.
</event>
<event>
 7    1  0.2641045E-013  0.7246153E+02  0.7816164E-02  0.1226708E+00
        -11   -1    0    0    0    0  0.00000000000E+00  0.00000000000E+00  0.45593999997E+02  0.45594000000E+02  0.51100000000E-03 0.  1.
         11   -1    0    0    0    0 -0.00000000000E+00 -0.00000000000E+00 -0.45593999997E+02  0.45594000000E+02  0.51100000000E-03 0. -1.
    9900012    2    1    2    0    0 -0.67800543454E+01  0.15160233202E+02 -0.86532636812E+01  0.72461527294E+02  0.69999943984E+02 0.  0.
        -12    1    1    2    0    0  0.67800543454E+01 -0.15160233202E+02  0.86532636812E+01  0.18726472706E+02  0.00000000000E+00 0.  1.
         11    1    3    3    0    0 -0.15095436656E+02 -0.12751523330E+02 -0.16278256556E+02  0.25601859149E+02  0.51100000000E-03 0. -1.
        -11    1    3    3    0    0  0.66982274794E+01 -0.72726783827E+01 -0.25253250552E+01  0.10204673886E+02  0.51100000000E-03 0.  1.
        -12    1    3    3    0    0  0.16171548316E+01  0.35184434915E+02  0.10150317930E+02  0.36654994259E+02  0.00000000000E+00 0.  1.
</event>
<event>
 7    1  0.2641045E-013  0.7246160E+02  0.7816164E-02  0.1226708E+00
        -11   -1    0    0    0    0  0.00000000000E+00  0.00000000000E+00  0.45593999997E+02  0.45594000000E+02  0.51100000000E-03 0.  1.
         11   -1    0    0    0    0 -0.00000000000E+00 -0.00000000000E+00 -0.45593999997E+02  0.45594000000E+02  0.51100000000E-03 0. -1.
    9900012    2    1    2    0    0  0.23505575902E+01 -0.12877360024E+02 -0.13391278928E+02  0.72461604898E+02  0.70000045078E+02 0.  0.
        -12    1    1    2    0    0 -0.23505575902E+01  0.12877360024E+02  0.13391278928E+02  0.18726395102E+02  0.00000000000E+00 0.  1.
         11    1    3    3    0    0  0.71762960805E+01 -0.52813266269E+01 -0.26195456614E+02  0.27669361826E+02  0.51100000000E-03 0. -1.
        -11    1    3    3    0    0  0.59991185997E+01 -0.19338428771E+02 -0.50191694598E+01  0.20860400610E+02  0.51100000000E-03 0.  1.
        -12    1    3    3    0    0 -0.10824857090E+02  0.11742395374E+02  0.17823347146E+02  0.23931842462E+02  0.00000000000E+00 0.  1.
</event>
<event>
 7    1  0.2641045E-013  0.7246169E+02  0.7816164E-02  0.1226708E+00
        -11   -1    0    0    0    0  0.00000000000E+00  0.00000000000E+00  0.45593999997E+02  0.45594000000E+02  0.51100000000E-03 0.  1.
         11   -1    0    0    0    0 -0.00000000000E+00 -0.00000000000E+00 -0.45593999997E+02  0.45594000000E+02  0.51100000000E-03 0. -1.
    9900012    2    1    2    0    0  0.93711979210E+00  0.10822874689E+01 -0.18671508584E+02  0.72461687697E+02  0.70000152938E+02 0.  0.
        -12    1    1    2    0    0 -0.93711979210E+00 -0.10822874689E+01  0.18671508584E+02  0.18726312303E+02  0.00000000000E+00 0.  1.
         11    1    3    3    0    0  0.52543174988E+00 -0.12990708639E+02  0.17257294873E+02  0.21606684522E+02  0.51100000000E-03 0. -1.
        -11    1    3    3    0    0 -0.80401821363E+01  0.36781843940E+01  0.32723817669E+01  0.94277278233E+01  0.51100000000E-03 0.  1.
         12    1    3    3    0    0  0.84518701785E+01  0.10394811714E+02 -0.39201185224E+02  0.41427275351E+02  0.00000000000E+00 0. -1.
</event>
<event>
 7    1  0.2641045E-013  0.7246156E+02  0.7816164E-02  0.1226708E+00
        -11   -1    0    0    0    0  0.00000000000E+00  0.00000000000E+00  0.45593999997E+02  0.45594000000E+02  0.51100000000E-03 0. -1.
         11   -1    0    0    0    0 -0.00000000000E+00 -0.00000000000E+00 -0.45593999997E+02  0.45594000000E+02  0.51100000000E-03 0.  1.
    9900012    2    1    2    0    0 -0.13900560287E+01 -0.17003609616E+02  0.77216846664E+01  0.72461563878E+02  0.69999991642E+02 0.  0.
        -12    1    1    2    0    0  0.13900560287E+01  0.17003609616E+02 -0.77216846664E+01  0.18726436122E+02  0.00000000000E+00 0.  1.
         11    1    3    3    0    0 -0.49009815025E+01 -0.18982724209E+02  0.41045597089E+01  0.20030248345E+02  0.51100000000E-03 0. -1.
        -11    1    3    3    0    0 -0.16720577246E+02  0.31203354685E+01  0.20085200786E+02  0.26319754705E+02  0.51100000000E-03 0.  1.
        -12    1    3    3    0    0  0.20231502719E+02 -0.11412208755E+01 -0.16468075829E+02  0.26111560828E+02  0.00000000000E+00 0.  1.
</event>
<event>
 7    1  0.2641045E-013  0.7246154E+02  0.7816164E-02  0.1226708E+00
        -11   -1    0    0    0    0  0.00000000000E+00  0.00000000000E+00  0.45593999997E+02  0.45594000000E+02  0.51100000000E-03 0. -1.
         11   -1    0    0    0    0 -0.00000000000E+00 -0.00000000000E+00 -0.45593999997E+02  0.45594000000E+02  0.51100000000E-03 0.  1.
    9900012    2    1    2    0    0  0.12580768969E+02 -0.13373601556E+02  0.36811927865E+01  0.72461544202E+02  0.69999966009E+02 0.  0.
        -12    1    1    2    0    0 -0.12580768969E+02  0.13373601556E+02 -0.36811927865E+01  0.18726455798E+02  0.00000000000E+00 0.  1.
         11    1    3    3    0    0  0.32365241741E+01 -0.59139194540E+01  0.15722955526E+01  0.69225461793E+01  0.51100000000E-03 0. -1.
        -11    1    3    3    0    0  0.16950100065E+02 -0.10800378215E+01 -0.28601280633E+02  0.33264179353E+02  0.51100000000E-03 0.  1.
         12    1    3    3    0    0 -0.76058552697E+01 -0.63796442810E+01  0.30710177867E+02  0.32274818670E+02  0.00000000000E+00 0. -1.
</event>
<event>
 7    1  0.2641045E-013  0.7246226E+02  0.7816164E-02  0.1226706E+00
        -11   -1    0    0    0    0  0.00000000000E+00  0.00000000000E+00  0.45593999997E+02  0.45594000000E+02  0.51100000000E-03 0.  1.
         11   -1    0    0    0    0 -0.00000000000E+00 -0.00000000000E+00 -0.45593999997E+02  0.45594000000E+02  0.51100000000E-03 0. -1.
    9900012    2    1    2    0    0 -0.34330423151E+01  0.71594872749E+01 -0.16959042527E+02  0.72462264740E+02  0.70000904639E+02 0.  0.
        -12    1    1    2    0    0  0.34330423151E+01 -0.71594872749E+01  0.16959042527E+02  0.18725735260E+02  0.00000000000E+00 0.  1.
         11    1    3    3    0    0 -0.33278807551E+01 -0.12831458841E+02 -0.28811447759E+01  0.13565475362E+02  0.51100000000E-03 0. -1.
        -11    1    3    3    0    0 -0.12163140191E+02  0.95426867023E+01  0.17601250156E+02  0.23426669762E+02  0.51100000000E-03 0.  1.
        -12    1    3    3    0    0  0.12057978632E+02  0.10448259414E+02 -0.31679147908E+02  0.35470119616E+02  0.00000000000E+00 0.  1.
</event>
<event>
 7    1  0.2641045E-013  0.7246150E+02  0.7816164E-02  0.1226708E+00
        -11   -1    0    0    0    0  0.00000000000E+00  0.00000000000E+00  0.45593999997E+02  0.45594000000E+02  0.51100000000E-03 0.  1.
         11   -1    0    0    0    0 -0.00000000000E+00 -0.00000000000E+00 -0.45593999997E+02  0.45594000000E+02  0.51100000000E-03 0. -1.
    9900012    2    1    2    0    0 -0.81385654437E+01 -0.14778536842E+02 -0.81265324138E+01  0.72461496650E+02  0.69999904064E+02 0.  0.
        -12    1    1    2    0    0  0.81385654437E+01  0.14778536842E+02  0.81265324138E+01  0.18726503350E+02  0.00000000000E+00 0.  1.
         11    1    3    3    0    0 -0.60854795137E+01 -0.22500489340E+01  0.61104889506E+01  0.89125673402E+01  0.51100000000E-03 0. -1.
        -11    1    3    3    0    0 -0.32667318081E+01 -0.10400770375E+02  0.23409142588E+02  0.25823158561E+02  0.51100000000E-03 0.  1.
         12    1    3    3    0    0  0.12136458781E+01 -0.21277175327E+01 -0.37646163952E+02  0.37725770748E+02  0.00000000000E+00 0. -1.
</event>
<event>
 7    1  0.2641045E-013  0.7246154E+02  0.7816164E-02  0.1226708E+00
        -11   -1    0    0    0    0  0.00000000000E+00  0.00000000000E+00  0.45593999997E+02  0.45594000000E+02  0.51100000000E-03 0. -1.
         11   -1    0    0    0    0 -0.00000000000E+00 -0.00000000000E+00 -0.45593999997E+02  0.45594000000E+02  0.51100000000E-03 0.  1.
    9900012    2    1    2    0    0 -0.13624545716E+02 -0.12396005147E+02 -0.33750981527E+01  0.72461535382E+02  0.69999954520E+02 0.  0.
        -12    1    1    2    0    0  0.13624545716E+02  0.12396005147E+02  0.33750981527E+01  0.18726464618E+02  0.00000000000E+00 0.  1.
         11    1    3    3    0    0 -0.31252264066E+01  0.87135818784E+01  0.14905169604E+02  0.17545872176E+02  0.51100000000E-03 0. -1.
        -11    1    3    3    0    0 -0.23665451529E+02 -0.28044887472E+02 -0.10750055357E+02  0.38237847741E+02  0.51100000000E-03 0.  1.
         12    1    3    3    0    0  0.13166132220E+02  0.69353004473E+01 -0.75302123992E+01  0.16677815465E+02  0.00000000000E+00 0. -1.
</event>
<event>
 7    1  0.2641045E-013  0.7246159E+02  0.7816164E-02  0.1226708E+00
        -11   -1    0    0    0    0  0.00000000000E+00  0.00000000000E+00  0.45593999997E+02  0.45594000000E+02  0.51100000000E-03 0. -1.
         11   -1    0    0    0    0 -0.00000000000E+00 -0.00000000000E+00 -0.45593999997E+02  0.45594000000E+02  0.51100000000E-03 0.  1.
    9900012    2    1    2    0    0 -0.20431111076E+01 -0.58583167160E+01  0.17668734900E+02  0.72461591623E+02  0.70000027785E+02 0.  0.
        -12    1    1    2    0    0  0.20431111076E+01  0.58583167160E+01 -0.17668734900E+02  0.18726408377E+02  0.00000000000E+00 0.  1.
         11    1    3    3    0    0  0.25877403786E+02 -0.17694437867E+01 -0.20341013632E+01  0.26017465800E+02  0.51100000000E-03 0. -1.
        -11    1    3    3    0    0  0.20348165175E+01  0.84761442439E+01  0.55005137542E+00  0.87343034227E+01  0.51100000000E-03 0.  1.
        -12    1    3    3    0    0 -0.29955331412E+02 -0.12565017173E+02  0.19152784887E+02  0.37709822401E+02  0.00000000000E+00 0.  1.
</event>
<event>
 7    1  0.2641045E-013  0.7246154E+02  0.7816164E-02  0.1226708E+00
        -11   -1    0    0    0    0  0.00000000000E+00  0.00000000000E+00  0.45593999997E+02  0.45594000000E+02  0.51100000000E-03 0.  1.
         11   -1    0    0    0    0 -0.00000000000E+00 -0.00000000000E+00 -0.45593999997E+02  0.45594000000E+02  0.51100000000E-03 0. -1.
    9900012    2    1    2    0    0  0.11417138637E+01 -0.18417339837E+02 -0.31903342281E+01  0.72461544123E+02  0.69999965907E+02 0.  0.
        -12    1    1    2    0    0 -0.11417138637E+01  0.18417339837E+02  0.31903342281E+01  0.18726455877E+02  0.00000000000E+00 0.  1.
         11    1    3    3    0    0  0.15017772457E+02  0.27401454300E+01 -0.69414000275E+01  0.16769762108E+02  0.51100000000E-03 0. -1.
        -11    1    3    3    0    0 -0.13966691667E+02  0.14362545677E+02  0.18949758644E+01  0.20123173910E+02  0.51100000000E-03 0.  1.
         12    1    3    3    0    0  0.90633073747E-01 -0.35520030945E+02  0.18560899350E+01  0.35568608105E+02  0.00000000000E+00 0. -1.
</event>
<event>
 7    1  0.2641045E-013  0.7246146E+02  0.7816164E-02  0.1226708E+00
        -11   -1    0    0    0    0  0.00000000000E+00  0.00000000000E+00  0.45593999997E+02  0.45594000000E+02  0.51100000000E-03 0.  1.
         11   -1    0    0    0    0 -0.00000000000E+00 -0.00000000000E+00 -0.45593999997E+02  0.45594000000E+02  0.51100000000E-03 0. -1.
    9900012    2    1    2    0    0  0.17463119387E+02 -0.14732610383E+01 -0.65994220963E+01  0.72461457105E+02  0.69999852550E+02 0.  0.
        -12    1    1    2    0    0 -0.17463119387E+02  0.14732610383E+01  0.65994220963E+01  0.18726542895E+02  0.00000000000E+00 0.  1.
         11    1    3    3    0    0  0.74623448718E+01 -0.13011944246E+01  0.15764556402E+02  0.17490023920E+02  0.51100000000E-03 0. -1.
        -11    1    3    3    0    0 -0.11126410242E+02 -0.58735085407E+01  0.98840352201E+01  0.15999664370E+02  0.51100000000E-03 0.  1.
         12    1    3    3    0    0  0.21127184757E+02  0.57014419271E+01 -0.32248013719E+02  0.38971768815E+02  0.00000000000E+00 0. -1.
</event>
<event>
 7    1  0.2641045E-013  0.7246155E+02  0.7816164E-02  0.1226708E+00
        -11   -1    0    0    0    0  0.00000000000E+00  0.00000000000E+00  0.45593999997E+02  0.45594000000E+02  0.51100000000E-03 0. -1.
         11   -1    0    0    0    0 -0.00000000000E+00 -0.00000000000E+00 -0.45593999997E+02  0.45594000000E+02  0.51100000000E-03 0.  1.
    9900012    2    1    2    0    0  0.17989716403E+02 -0.51941145356E+01  0.26675080749E+00  0.72461551376E+02  0.69999975355E+02 0.  0.
        -12    1    1    2    0    0 -0.17989716403E+02  0.51941145356E+01 -0.26675080749E+00  0.18726448624E+02  0.00000000000E+00 0.  1.
         11    1    3    3    0    0  0.11906070867E+02  0.16361162809E+01  0.32758134918E+01  0.12456418196E+02  0.51100000000E-03 0. -1.
        -11    1    3    3    0    0  0.20498042447E+02 -0.74570742803E+01 -0.25329852110E+02  0.33427221080E+02  0.51100000000E-03 0.  1.
         12    1    3    3    0    0 -0.14414396911E+02  0.62684346377E+00  0.22320789425E+02  0.26577912100E+02  0.00000000000E+00 0. -1.
</event>
<event>
 7    1  0.2641045E-013  0.7246157E+02  0.7816164E-02  0.1226708E+00
        -11   -1    0    0    0    0  0.00000000000E+00  0.00000000000E+00  0.45593999997E+02  0.45594000000E+02  0.51100000000E-03 0.  1.
         11   -1    0    0    0    0 -0.00000000000E+00 -0.00000000000E+00 -0.45593999997E+02  0.45594000000E+02  0.51100000000E-03 0. -1.
    9900012    2    1    2    0    0 -0.16708286799E+02  0.84307570550E+01 -0.65926336823E+00  0.72461571070E+02  0.70000001010E+02 0.  0.
        -12    1    1    2    0    0  0.16708286799E+02 -0.84307570550E+01  0.65926336823E+00  0.18726428930E+02  0.00000000000E+00 0.  1.
         11    1    3    3    0    0 -0.43992462827E+01 -0.31756513616E+01  0.78118980826E+01  0.95112502512E+01  0.51100000000E-03 0. -1.
        -11    1    3    3    0    0 -0.81889158802E+01  0.31787030961E+02  0.10987806576E+02  0.34615106156E+02  0.51100000000E-03 0.  1.
         12    1    3    3    0    0 -0.41201246363E+01 -0.20180622544E+02 -0.19458968027E+02  0.28335214662E+02  0.00000000000E+00 0. -1.
</event>
<event>
 7    1  0.2641045E-013  0.7246193E+02  0.7816164E-02  0.1226707E+00
        -11   -1    0    0    0    0  0.00000000000E+00  0.00000000000E+00  0.45593999997E+02  0.45594000000E+02  0.51100000000E-03 0.  1.
         11   -1    0    0    0    0 -0.00000000000E+00 -0.00000000000E+00 -0.45593999997E+02  0.45594000000E+02  0.51100000000E-03 0. -1.
    9900012    2    1    2    0    0 -0.71782443729E+01  0.13649734034E+02 -0.10621826976E+02  0.72461931545E+02  0.70000470595E+02 0.  0.
        -12    1    1    2    0    0  0.71782443729E+01 -0.13649734034E+02  0.10621826976E+02  0.18726068455E+02  0.00000000000E+00 0.  1.
         11    1    3    3    0    0  0.12170230597E+02 -0.41449468644E+01 -0.22065073912E+02  0.25537474117E+02  0.51100000000E-03 0. -1.
        -11    1    3    3    0    0  0.94446387702E+00 -0.39952403230E+01 -0.96148573147E+01  0.10454637186E+02  0.51100000000E-03 0.  1.
        -12    1    3    3    0    0 -0.20292938847E+02  0.21789921221E+02  0.21058104251E+02  0.36469820242E+02  0.00000000000E+00 0.  1.
</event>
<event>
 7    1  0.2641045E-013  0.7246158E+02  0.7816164E-02  0.1226708E+00
        -11   -1    0    0    0    0  0.00000000000E+00  0.00000000000E+00  0.45593999997E+02  0.45594000000E+02  0.51100000000E-03 0.  1.
         11   -1    0    0    0    0 -0.00000000000E+00 -0.00000000000E+00 -0.45593999997E+02  0.45594000000E+02  0.51100000000E-03 0. -1.
    9900012    2    1    2    0    0 -0.31902187042E+00 -0.18651113713E+02  0.16471620104E+01  0.72461575879E+02  0.70000007275E+02 0.  0.
        -12    1    1    2    0    0  0.31902187042E+00  0.18651113713E+02 -0.16471620104E+01  0.18726424121E+02  0.00000000000E+00 0.  1.
         11    1    3    3    0    0 -0.88740009276E+01 -0.19796433206E+01 -0.17581604524E+02  0.19793425626E+02  0.51100000000E-03 0. -1.
        -11    1    3    3    0    0 -0.74403109810E+01 -0.22684515055E+02 -0.36092424692E+01  0.24144814810E+02  0.51100000000E-03 0.  1.
         12    1    3    3    0    0  0.15995290038E+02  0.60130446625E+01  0.22838009003E+02  0.28523335442E+02  0.00000000000E+00 0. -1.
</event>
<event>
 7    1  0.2641045E-013  0.7246160E+02  0.7816164E-02  0.1226708E+00
        -11   -1    0    0    0    0  0.00000000000E+00  0.00000000000E+00  0.45593999997E+02  0.45594000000E+02  0.51100000000E-03 0. -1.
         11   -1    0    0    0    0 -0.00000000000E+00 -0.00000000000E+00 -0.45593999997E+02  0.45594000000E+02  0.51100000000E-03 0.  1.
    9900012    2    1    2    0    0  0.15107150605E+02  0.11058113710E+01  0.11010419652E+02  0.72461597273E+02  0.70000035144E+02 0.  0.
        -12    1    1    2    0    0 -0.15107150605E+02 -0.11058113710E+01 -0.11010419652E+02  0.18726402727E+02  0.00000000000E+00 0.  1.
         11    1    3    3    0    0  0.10170810218E+02  0.76171565195E+01  0.65386050027E+00  0.12723756825E+02  0.51100000000E-03 0. -1.
        -11    1    3    3    0    0 -0.26754763043E+02 -0.34827850145E+01  0.40299437087E+01  0.27279801750E+02  0.51100000000E-03 0.  1.
         12    1    3    3    0    0  0.31691103430E+02 -0.30285601340E+01  0.63266154434E+01  0.32458038698E+02  0.00000000000E+00 0. -1.
</event>
<event>
 7    1  0.2641045E-013  0.7246156E+02  0.7816164E-02  0.1226708E+00
        -11   -1    0    0    0    0  0.00000000000E+00  0.00000000000E+00  0.45593999997E+02  0.45594000000E+02  0.51100000000E-03 0. -1.
         11   -1    0    0    0    0 -0.00000000000E+00 -0.00000000000E+00 -0.45593999997E+02  0.45594000000E+02  0.51100000000E-03 0.  1.
    9900012    2    1    2    0    0 -0.13931278293E+02  0.77428132913E+01  0.98309562778E+01  0.72461564838E+02  0.69999992892E+02 0.  0.
        -12    1    1    2    0    0  0.13931278293E+02 -0.77428132913E+01 -0.98309562778E+01  0.18726435162E+02  0.00000000000E+00 0.  1.
         11    1    3    3    0    0 -0.83135005754E+00 -0.54154258403E+01  0.27653181887E+00  0.54858408706E+01  0.51100000000E-03 0. -1.
        -11    1    3    3    0    0  0.22822882942E+02  0.15955628840E+01 -0.94130865390E+01  0.24739361454E+02  0.51100000000E-03 0.  1.
         12    1    3    3    0    0 -0.35922811177E+02  0.11562676248E+02  0.18967510998E+02  0.42236362513E+02  0.00000000000E+00 0. -1.
</event>
<event>
 7    1  0.2641045E-013  0.7246155E+02  0.7816164E-02  0.1226708E+00
        -11   -1    0    0    0    0  0.00000000000E+00  0.00000000000E+00  0.45593999997E+02  0.45594000000E+02  0.51100000000E-03 0.  1.
         11   -1    0    0    0    0 -0.00000000000E+00 -0.00000000000E+00 -0.45593999997E+02  0.45594000000E+02  0.51100000000E-03 0. -1.
    9900012    2    1    2    0    0  0.94724552412E+01  0.14918445080E+02 -0.61961712035E+01  0.72461549469E+02  0.69999972872E+02 0.  0.
        -12    1    1    2    0    0 -0.94724552412E+01 -0.14918445080E+02  0.61961712035E+01  0.18726450531E+02  0.00000000000E+00 0.  1.
         11    1    3    3    0    0  0.79312241111E+01 -0.62049169868E+01 -0.59804904861E+01  0.11712027042E+02  0.51100000000E-03 0. -1.
        -11    1    3    3    0    0  0.20825819090E+02 -0.58483892680E+01 -0.12972829079E+02  0.25223256973E+02  0.51100000000E-03 0.  1.
         12    1    3    3    0    0 -0.19284587959E+02  0.26971751334E+02  0.12757148361E+02  0.35526265454E+02  0.00000000000E+00 0. -1.
</event>
<event>
 7    1  0.2641045E-013  0.7246153E+02  0.7816164E-02  0.1226708E+00
        -11   -1    0    0    0    0  0.00000000000E+00  0.00000000000E+00  0.45593999997E+02  0.45594000000E+02  0.51100000000E-03 0.  1.
         11   -1    0    0    0    0 -0.00000000000E+00 -0.00000000000E+00 -0.45593999997E+02  0.45594000000E+02  0.51100000000E-03 0. -1.
    9900012    2    1    2    0    0 -0.16787756146E+02 -0.67927080681E+01 -0.47656077871E+01  0.72461530581E+02  0.69999948267E+02 0.  0.
        -12    1    1    2    0    0  0.16787756146E+02  0.67927080681E+01  0.47656077871E+01  0.18726469419E+02  0.00000000000E+00 0.  1.
         11    1    3    3    0    0 -0.17827212236E+02 -0.24824275298E+02  0.13486316139E+02  0.33405611256E+02  0.51100000000E-03 0. -1.
        -11    1    3    3    0    0 -0.44791917759E+01 -0.66847099866E+01 -0.37198152683E+00  0.80552391081E+01  0.51100000000E-03 0.  1.
        -12    1    3    3    0    0  0.55186478657E+01  0.24716277217E+02 -0.17879942399E+02  0.31000680217E+02  0.00000000000E+00 0.  1.
</event>
<event>
 7    1  0.2641045E-013  0.7246166E+02  0.7816164E-02  0.1226708E+00
        -11   -1    0    0    0    0  0.00000000000E+00  0.00000000000E+00  0.45593999997E+02  0.45594000000E+02  0.51100000000E-03 0. -1.
         11   -1    0    0    0    0 -0.00000000000E+00 -0.00000000000E+00 -0.45593999997E+02  0.45594000000E+02  0.51100000000E-03 0.  1.
    9900012    2    1    2    0    0 -0.12019873967E+02 -0.69696640253E+01  0.12554768097E+02  0.72461660561E+02  0.70000117589E+02 0.  0.
        -12    1    1    2    0    0  0.12019873967E+02  0.69696640253E+01 -0.12554768097E+02  0.18726339439E+02  0.00000000000E+00 0.  1.
         11    1    3    3    0    0  0.71104476349E+00 -0.12214055019E+02  0.80471925962E+01  0.14643976017E+02  0.51100000000E-03 0. -1.
        -11    1    3    3    0    0  0.15324786817E+02 -0.79523250367E+01  0.17149412469E+02  0.24334973039E+02  0.51100000000E-03 0.  1.
         12    1    3    3    0    0 -0.28055705548E+02  0.13196716030E+02 -0.12641836968E+02  0.33482711505E+02  0.00000000000E+00 0. -1.
</event>
<event>
 7    1  0.2641045E-013  0.7246159E+02  0.7816164E-02  0.1226708E+00
        -11   -1    0    0    0    0  0.00000000000E+00  0.00000000000E+00  0.45593999997E+02  0.45594000000E+02  0.51100000000E-03 0.  1.
         11   -1    0    0    0    0 -0.00000000000E+00 -0.00000000000E+00 -0.45593999997E+02  0.45594000000E+02  0.51100000000E-03 0. -1.
    9900012    2    1    2    0    0  0.15824207449E+02 -0.45073309288E+00 -0.10003492220E+02  0.72461586614E+02  0.70000021259E+02 0.  0.
        -12    1    1    2    0    0 -0.15824207449E+02  0.45073309288E+00  0.10003492220E+02  0.18726413386E+02  0.00000000000E+00 0.  1.
         11    1    3    3    0    0  0.61486524292E+01  0.18984717226E+02 -0.74410757883E+01  0.21297770400E+02  0.51100000000E-03 0. -1.
        -11    1    3    3    0    0 -0.20698225363E+00  0.13877296536E+02 -0.79598256654E+01  0.15999407042E+02  0.51100000000E-03 0.  1.
        -12    1    3    3    0    0  0.98825372737E+01 -0.33312746855E+02  0.53974092342E+01  0.35164409172E+02  0.00000000000E+00 0.  1.
</event>
<event>
 7    1  0.2641045E-013  0.7246156E+02  0.7816164E-02  0.1226708E+00
        -11   -1    0    0    0    0  0.00000000000E+00  0.00000000000E+00  0.45593999997E+02  0.45594000000E+02  0.51100000000E-03 0.  1.
         11   -1    0    0    0    0 -0.00000000000E+00 -0.00000000000E+00 -0.45593999997E+02  0.45594000000E+02  0.51100000000E-03 0. -1.
    9900012    2    1    2    0    0 -0.17826805563E+02 -0.38444303394E+01 -0.42550020539E+01  0.72461556565E+02  0.69999982115E+02 0.  0.
        -12    1    1    2    0    0  0.17826805563E+02  0.38444303394E+01  0.42550020539E+01  0.18726443435E+02  0.00000000000E+00 0.  1.
         11    1    3    3    0    0 -0.47331605504E+01 -0.10039388527E+02 -0.42276881479E+01  0.11877098894E+02  0.51100000000E-03 0. -1.
        -11    1    3    3    0    0  0.88580480158E+01 -0.86305800814E+01  0.22589585864E+02  0.25753471940E+02  0.51100000000E-03 0.  1.
         12    1    3    3    0    0 -0.21951693029E+02  0.14825538269E+02 -0.22616899770E+02  0.34830985731E+02  0.00000000000E+00 0. -1.
</event>
<event>
 7    1  0.2641045E-013  0.7246156E+02  0.7816164E-02  0.1226708E+00
        -11   -1    0    0    0    0  0.00000000000E+00  0.00000000000E+00  0.45593999997E+02  0.45594000000E+02  0.51100000000E-03 0. -1.
         11   -1    0    0    0    0 -0.00000000000E+00 -0.00000000000E+00 -0.45593999997E+02  0.45594000000E+02  0.51100000000E-03 0.  1.
    9900012    2    1    2    0    0  0.11141473932E+02 -0.12148034346E+02  0.88866322456E+01  0.72461563806E+02  0.69999991548E+02 0.  0.
        -12    1    1    2    0    0 -0.11141473932E+02  0.12148034346E+02 -0.88866322456E+01  0.18726436194E+02  0.00000000000E+00 0.  1.
         11    1    3    3    0    0  0.16036383633E+01  0.11651200768E+02  0.58559167522E+01  0.13138260790E+02  0.51100000000E-03 0. -1.
        -11    1    3    3    0    0  0.29621516422E+02 -0.11409929879E+02 -0.87801191998E+01  0.32934954508E+02  0.51100000000E-03 0.  1.
         12    1    3    3    0    0 -0.20083680854E+02 -0.12389305234E+02  0.11810834693E+02  0.26388348508E+02  0.00000000000E+00 0. -1.
</event>
<event>
 7    1  0.2641045E-013  0.7246161E+02  0.7816164E-02  0.1226708E+00
        -11   -1    0    0    0    0  0.00000000000E+00  0.00000000000E+00  0.45593999997E+02  0.45594000000E+02  0.51100000000E-03 0. -1.
         11   -1    0    0    0    0 -0.00000000000E+00 -0.00000000000E+00 -0.45593999997E+02  0.45594000000E+02  0.51100000000E-03 0.  1.
    9900012    2    1    2    0    0 -0.12245132560E+02 -0.14156103029E+02  0.58231233149E+00  0.72461611880E+02  0.70000054172E+02 0.  0.
        -12    1    1    2    0    0  0.12245132560E+02  0.14156103029E+02 -0.58231233149E+00  0.18726388120E+02  0.00000000000E+00 0.  1.
         11    1    3    3    0    0  0.77818486897E+01 -0.13457990241E+02 -0.37558570325E+01  0.15993158934E+02  0.51100000000E-03 0. -1.
        -11    1    3    3    0    0 -0.41857258865E+01  0.36953115329E+01 -0.23491559793E+02  0.24145993669E+02  0.51100000000E-03 0.  1.
         12    1    3    3    0    0 -0.15841255363E+02 -0.43934243207E+01  0.27829729157E+02  0.32322459277E+02  0.00000000000E+00 0. -1.
</event>
<event>
 7    1  0.2641045E-013  0.7246155E+02  0.7816164E-02  0.1226708E+00
        -11   -1    0    0    0    0  0.00000000000E+00  0.00000000000E+00  0.45593999997E+02  0.45594000000E+02  0.51100000000E-03 0.  1.
         11   -1    0    0    0    0 -0.00000000000E+00 -0.00000000000E+00 -0.45593999997E+02  0.45594000000E+02  0.51100000000E-03 0. -1.
    9900012    2    1    2    0    0 -0.34640701061E+01 -0.14008534634E+02 -0.11934869795E+02  0.72461549687E+02  0.69999973155E+02 0.  0.
        -12    1    1    2    0    0  0.34640701061E+01  0.14008534634E+02  0.11934869795E+02  0.18726450313E+02  0.00000000000E+00 0.  1.
         11    1    3    3    0    0  0.46123679586E+01 -0.31998566516E+01 -0.29938377326E+02  0.30460128988E+02  0.51100000000E-03 0. -1.
        -11    1    3    3    0    0 -0.58152085260E+01  0.11855911110E+02  0.39435499412E+00  0.13211161742E+02  0.51100000000E-03 0.  1.
         12    1    3    3    0    0 -0.22612295387E+01 -0.22664589093E+02  0.17609152537E+02  0.28790258957E+02  0.00000000000E+00 0. -1.
</event>
<event>
 7    1  0.2641045E-013  0.7246167E+02  0.7816164E-02  0.1226708E+00
        -11   -1    0    0    0    0  0.00000000000E+00  0.00000000000E+00  0.45593999997E+02  0.45594000000E+02  0.51100000000E-03 0. -1.
         11   -1    0    0    0    0 -0.00000000000E+00 -0.00000000000E+00 -0.45593999997E+02  0.45594000000E+02  0.51100000000E-03 0.  1.
    9900012    2    1    2    0    0 -0.10628075280E+02 -0.62401421617E+00 -0.15405517760E+02  0.72461672134E+02  0.70000132665E+02 0.  0.
        -12    1    1    2    0    0  0.10628075280E+02  0.62401421617E+00  0.15405517760E+02  0.18726327866E+02  0.00000000000E+00 0.  1.
         11    1    3    3    0    0 -0.13790729225E+02  0.43745639524E+01 -0.74653487083E+01  0.16280431626E+02  0.51100000000E-03 0. -1.
        -11    1    3    3    0    0  0.18038000896E+02 -0.12438116712E+02 -0.24391458178E+02  0.32787489321E+02  0.51100000000E-03 0.  1.
         12    1    3    3    0    0 -0.14875346950E+02  0.74395385439E+01  0.16451289127E+02  0.23393751186E+02  0.00000000000E+00 0. -1.
</event>
<event>
 7    1  0.2641045E-013  0.7246163E+02  0.7816164E-02  0.1226708E+00
        -11   -1    0    0    0    0  0.00000000000E+00  0.00000000000E+00  0.45593999997E+02  0.45594000000E+02  0.51100000000E-03 0. -1.
         11   -1    0    0    0    0 -0.00000000000E+00 -0.00000000000E+00 -0.45593999997E+02  0.45594000000E+02  0.51100000000E-03 0.  1.
    9900012    2    1    2    0    0 -0.48996463575E+01 -0.77910209743E+01  0.16308599762E+02  0.72461629064E+02  0.70000076558E+02 0.  0.
        -12    1    1    2    0    0  0.48996463575E+01  0.77910209743E+01 -0.16308599762E+02  0.18726370936E+02  0.00000000000E+00 0.  1.
         11    1    3    3    0    0  0.18897922706E+01  0.11544518702E+02  0.12489996535E+02  0.17112780037E+02  0.51100000000E-03 0. -1.
        -11    1    3    3    0    0  0.80862433368E+00  0.17197234390E+02 -0.28280742861E+01  0.17446969606E+02  0.51100000000E-03 0.  1.
         12    1    3    3    0    0 -0.75980629617E+01 -0.36532774066E+02  0.66466775129E+01  0.37901879422E+02  0.00000000000E+00 0. -1.
</event>
<event>
 7    1  0.2641045E-013  0.7246155E+02  0.7816164E-02  0.1226708E+00
        -11   -1    0    0    0    0  0.00000000000E+00  0.00000000000E+00  0.45593999997E+02  0.45594000000E+02  0.51100000000E-03 0.  1.
         11   -1    0    0    0    0 -0.00000000000E+00 -0.00000000000E+00 -0.45593999997E+02  0.45594000000E+02  0.51100000000E-03 0. -1.
    9900012    2    1    2    0    0 -0.13257575432E+02  0.37569438327E+01 -0.12680774315E+02  0.72461548907E+02  0.69999972139E+02 0.  0.
        -12    1    1    2    0    0  0.13257575432E+02 -0.37569438327E+01  0.12680774315E+02  0.18726451093E+02  0.00000000000E+00 0.  1.
         11    1    3    3    0    0 -0.61769055845E+01 -0.50076989276E+01 -0.76125363670E+01  0.11008266046E+02  0.51100000000E-03 0. -1.
        -11    1    3    3    0    0 -0.31631583501E+01 -0.15038684490E+02 -0.25544694567E+02  0.29811055377E+02  0.51100000000E-03 0.  1.
        -12    1    3    3    0    0 -0.39175114974E+01  0.23803327250E+02  0.20476456618E+02  0.31642227484E+02  0.00000000000E+00 0.  1.
</event>
<event>
 7    1  0.2641045E-013  0.7246160E+02  0.7816164E-02  0.1226708E+00
        -11   -1    0    0    0    0  0.00000000000E+00  0.00000000000E+00  0.45593999997E+02  0.45594000000E+02  0.51100000000E-03 0.  1.
         11   -1    0    0    0    0 -0.00000000000E+00 -0.00000000000E+00 -0.45593999997E+02  0.45594000000E+02  0.51100000000E-03 0. -1.
    9900012    2    1    2    0    0 -0.32700342710E+01  0.18415449782E+02 -0.92524198138E+00  0.72461601854E+02  0.70000041113E+02 0.  0.
        -12    1    1    2    0    0  0.32700342710E+01 -0.18415449782E+02  0.92524198138E+00  0.18726398146E+02  0.00000000000E+00 0.  1.
         11    1    3    3    0    0 -0.20917497516E+02 -0.13922740018E+02 -0.52652017845E+01  0.25673074261E+02  0.51100000000E-03 0. -1.
        -11    1    3    3    0    0  0.63340545302E+01 -0.58014224755E+00 -0.76722371901E+01  0.99659437877E+01  0.51100000000E-03 0.  1.
        -12    1    3    3    0    0  0.11313408715E+02  0.32918332047E+02  0.12012196993E+02  0.36822583805E+02  0.00000000000E+00 0.  1.
</event>
<event>
 7    1  0.2641045E-013  0.7246159E+02  0.7816164E-02  0.1226708E+00
        -11   -1    0    0    0    0  0.00000000000E+00  0.00000000000E+00  0.45593999997E+02  0.45594000000E+02  0.51100000000E-03 0.  1.
         11   -1    0    0    0    0 -0.00000000000E+00 -0.00000000000E+00 -0.45593999997E+02  0.45594000000E+02  0.51100000000E-03 0. -1.
    9900012    2    1    2    0    0  0.13677405883E+02  0.62821311768E+01 -0.11141902188E+02  0.72461585817E+02  0.70000020221E+02 0.  0.
        -12    1    1    2    0    0 -0.13677405883E+02 -0.62821311768E+01  0.11141902188E+02  0.18726414183E+02  0.00000000000E+00 0.  1.
         11    1    3    3    0    0 -0.18494695335E+02  0.35982213902E+01  0.18639722059E+01  0.18933445153E+02  0.51100000000E-03 0. -1.
        -11    1    3    3    0    0  0.24761388065E+02  0.77225426538E+01  0.10796286714E+02  0.28094907208E+02  0.51100000000E-03 0.  1.
         12    1    3    3    0    0  0.74107131530E+01 -0.50386328672E+01 -0.23802161108E+02  0.25433233456E+02  0.00000000000E+00 0. -1.
</event>
<event>
 7    1  0.2641045E-013  0.7246152E+02  0.7816164E-02  0.1226708E+00
        -11   -1    0    0    0    0  0.00000000000E+00  0.00000000000E+00  0.45593999997E+02  0.45594000000E+02  0.51100000000E-03 0. -1.
         11   -1    0    0    0    0 -0.00000000000E+00 -0.00000000000E+00 -0.45593999997E+02  0.45594000000E+02  0.51100000000E-03 0.  1.
    9900012    2    1    2    0    0 -0.48519775958E+01  0.17488310168E+02  0.46150308734E+01  0.72461516371E+02  0.69999929755E+02 0.  0.
        -12    1    1    2    0    0  0.48519775958E+01 -0.17488310168E+02 -0.46150308734E+01  0.18726483629E+02  0.00000000000E+00 0.  1.
         11    1    3    3    0    0 -0.16259957926E+01 -0.17600060271E+01  0.62607563189E+01  0.67036224147E+01  0.51100000000E-03 0. -1.
        -11    1    3    3    0    0  0.64616527090E+01 -0.21531874747E+02  0.57288376524E+01  0.23199012197E+02  0.51100000000E-03 0.  1.
         12    1    3    3    0    0 -0.96876345122E+01  0.40780190942E+02 -0.73745630979E+01  0.42558881759E+02  0.00000000000E+00 0. -1.
</event>
<event>
 7    1  0.2641045E-013  0.7246160E+02  0.7816164E-02  0.1226708E+00
        -11   -1    0    0    0    0  0.00000000000E+00  0.00000000000E+00  0.45593999997E+02  0.45594000000E+02  0.51100000000E-03 0.  1.
         11   -1    0    0    0    0 -0.00000000000E+00 -0.00000000000E+00 -0.45593999997E+02  0.45594000000E+02  0.51100000000E-03 0. -1.
    9900012    2    1    2    0    0 -0.70471530082E+01 -0.14338595898E+02 -0.97683400563E+01  0.72461597107E+02  0.70000034928E+02 0.  0.
        -12    1    1    2    0    0  0.70471530082E+01  0.14338595898E+02  0.97683400563E+01  0.18726402893E+02  0.00000000000E+00 0.  1.
         11    1    3    3    0    0 -0.26610704437E+02 -0.64170566948E+01 -0.15848762654E+02  0.31630546710E+02  0.51100000000E-03 0. -1.
        -11    1    3    3    0    0 -0.87636551395E+01 -0.78584900312E+01  0.39812703909E+01  0.12426102815E+02  0.51100000000E-03 0.  1.
        -12    1    3    3    0    0  0.28327206568E+02 -0.63049172232E-01  0.20991522071E+01  0.28404947582E+02  0.00000000000E+00 0.  1.
</event>
<event>
 7    1  0.2641045E-013  0.7246147E+02  0.7816164E-02  0.1226708E+00
        -11   -1    0    0    0    0  0.00000000000E+00  0.00000000000E+00  0.45593999997E+02  0.45594000000E+02  0.51100000000E-03 0. -1.
         11   -1    0    0    0    0 -0.00000000000E+00 -0.00000000000E+00 -0.45593999997E+02  0.45594000000E+02  0.51100000000E-03 0.  1.
    9900012    2    1    2    0    0  0.45770394436E+01  0.42093816445E+00  0.18153693745E+02  0.72461466002E+02  0.69999864139E+02 0.  0.
        -12    1    1    2    0    0 -0.45770394436E+01 -0.42093816445E+00 -0.18153693745E+02  0.18726533998E+02  0.00000000000E+00 0.  1.
         11    1    3    3    0    0  0.91143632894E+01 -0.97784793721E+01  0.29107883116E+01  0.13680751655E+02  0.51100000000E-03 0. -1.
        -11    1    3    3    0    0  0.73046907446E+01 -0.21330170644E+02  0.21624237551E+01  0.22649740911E+02  0.51100000000E-03 0.  1.
         12    1    3    3    0    0 -0.11842014590E+02  0.31529588181E+02  0.13080481678E+02  0.36130973435E+02  0.00000000000E+00 0. -1.
</event>
<event>
 7    1  0.2641045E-013  0.7246157E+02  0.7816164E-02  0.1226708E+00
        -11   -1    0    0    0    0  0.00000000000E+00  0.00000000000E+00  0.45593999997E+02  0.45594000000E+02  0.51100000000E-03 0. -1.
         11   -1    0    0    0    0 -0.00000000000E+00 -0.00000000000E+00 -0.45593999997E+02  0.45594000000E+02  0.51100000000E-03 0.  1.
    9900012    2    1    2    0    0  0.98328727333E+01 -0.15869024300E+02  0.14723860453E+01  0.72461568437E+02  0.69999997581E+02 0.  0.
        -12    1    1    2    0    0 -0.98328727333E+01  0.15869024300E+02 -0.14723860453E+01  0.18726431563E+02  0.00000000000E+00 0.  1.
         11    1    3    3    0    0  0.14853965457E+02  0.48517794289E+01 -0.14458270249E+02  0.21289002614E+02  0.51100000000E-03 0. -1.
        -11    1    3    3    0    0 -0.10342012846E+02 -0.17242370392E+02 -0.11399462384E+02  0.23112860259E+02  0.51100000000E-03 0.  1.
         12    1    3    3    0    0  0.53209201217E+01 -0.34784333365E+01  0.27330118678E+02  0.28059705565E+02  0.00000000000E+00 0. -1.
</event>
<event>
 7    1  0.2641045E-013  0.7246155E+02  0.7816164E-02  0.1226708E+00
        -11   -1    0    0    0    0  0.00000000000E+00  0.00000000000E+00  0.45593999997E+02  0.45594000000E+02  0.51100000000E-03 0.  1.
         11   -1    0    0    0    0 -0.00000000000E+00 -0.00000000000E+00 -0.45593999997E+02  0.45594000000E+02  0.51100000000E-03 0. -1.
    9900012    2    1    2    0    0  0.94230610457E+01  0.14824887581E+02 -0.64891135838E+01  0.72461549019E+02  0.69999972284E+02 0.  0.
        -12    1    1    2    0    0 -0.94230610457E+01 -0.14824887581E+02  0.64891135838E+01  0.18726450981E+02  0.00000000000E+00 0.  1.
         11    1    3    3    0    0  0.15844523802E+02 -0.12106100498E+01 -0.14312062956E+02  0.21385734907E+02  0.51100000000E-03 0. -1.
        -11    1    3    3    0    0  0.10550462316E+02  0.15702275849E+02  0.21960031555E+02  0.28984766829E+02  0.51100000000E-03 0.  1.
         12    1    3    3    0    0 -0.16971925072E+02  0.33322178131E+00 -0.14137082183E+02  0.22091047283E+02  0.00000000000E+00 0. -1.
</event>
<event>
 7    1  0.2641045E-013  0.7246154E+02  0.7816164E-02  0.1226708E+00
        -11   -1    0    0    0    0  0.00000000000E+00  0.00000000000E+00  0.45593999997E+02  0.45594000000E+02  0.51100000000E-03 0. -1.
         11   -1    0    0    0    0 -0.00000000000E+00 -0.00000000000E+00 -0.45593999997E+02  0.45594000000E+02  0.51100000000E-03 0.  1.
    9900012    2    1    2    0    0 -0.88883042870E+01  0.58547688096E+01  0.15407792199E+02  0.72461539273E+02  0.69999959588E+02 0.  0.
        -12    1    1    2    0    0  0.88883042870E+01 -0.58547688096E+01 -0.15407792199E+02  0.18726460727E+02  0.00000000000E+00 0.  1.
         11    1    3    3    0    0  0.58700993670E+01 -0.34052040889E+01  0.18100477811E+01  0.70235144121E+01  0.51100000000E-03 0. -1.
        -11    1    3    3    0    0  0.22432355876E+02 -0.56807803911E+01  0.99622889679E+01  0.25193829756E+02  0.51100000000E-03 0.  1.
         12    1    3    3    0    0 -0.37190759530E+02  0.14940753290E+02  0.36354554504E+01  0.40244195105E+02  0.00000000000E+00 0. -1.
</event>
<event>
 7    1  0.2641045E-013  0.7246146E+02  0.7816164E-02  0.1226708E+00
        -11   -1    0    0    0    0  0.00000000000E+00  0.00000000000E+00  0.45593999997E+02  0.45594000000E+02  0.51100000000E-03 0.  1.
         11   -1    0    0    0    0 -0.00000000000E+00 -0.00000000000E+00 -0.45593999997E+02  0.45594000000E+02  0.51100000000E-03 0. -1.
    9900012    2    1    2    0    0  0.70439458058E+01  0.17350195832E+02 -0.19217416019E+00  0.72461457371E+02  0.69999852896E+02 0.  0.
        -12    1    1    2    0    0 -0.70439458058E+01 -0.17350195832E+02  0.19217416019E+00  0.18726542629E+02  0.00000000000E+00 0.  1.
         11    1    3    3    0    0 -0.20901530191E+02 -0.36709604497E+01 -0.10491930104E+02  0.23673413622E+02  0.51100000000E-03 0. -1.
        -11    1    3    3    0    0  0.10271635825E+02 -0.84327570536E+01  0.18855988412E+01  0.13422867700E+02  0.51100000000E-03 0.  1.
        -12    1    3    3    0    0  0.17673840172E+02  0.29453913336E+02  0.84141571024E+01  0.35365176049E+02  0.00000000000E+00 0.  1.
</event>
<event>
 7    1  0.2641045E-013  0.7246155E+02  0.7816164E-02  0.1226708E+00
        -11   -1    0    0    0    0  0.00000000000E+00  0.00000000000E+00  0.45593999997E+02  0.45594000000E+02  0.51100000000E-03 0. -1.
         11   -1    0    0    0    0 -0.00000000000E+00 -0.00000000000E+00 -0.45593999997E+02  0.45594000000E+02  0.51100000000E-03 0.  1.
    9900012    2    1    2    0    0 -0.23293693100E+01  0.14938973000E+02  0.11049034888E+02  0.72461546849E+02  0.69999969457E+02 0.  0.
        -12    1    1    2    0    0  0.23293693100E+01 -0.14938973000E+02 -0.11049034888E+02  0.18726453151E+02  0.00000000000E+00 0.  1.
         11    1    3    3    0    0  0.15213262513E+01  0.15741189077E+02 -0.11259234370E+02  0.19413135398E+02  0.51100000000E-03 0.  1.
        -11    1    3    3    0    0 -0.25927894447E+02  0.63352120100E+00  0.10607598659E+02  0.28021031551E+02  0.51100000000E-03 0. -1.
         12    1    3    3    0    0  0.22077198886E+02 -0.14357372782E+01  0.11700670599E+02  0.25027379900E+02  0.00000000000E+00 0. -1.
</event>
<event>
 7    1  0.2641045E-013  0.7246154E+02  0.7816164E-02  0.1226708E+00
        -11   -1    0    0    0    0  0.00000000000E+00  0.00000000000E+00  0.45593999997E+02  0.45594000000E+02  0.51100000000E-03 0. -1.
         11   -1    0    0    0    0 -0.00000000000E+00 -0.00000000000E+00 -0.45593999997E+02  0.45594000000E+02  0.51100000000E-03 0.  1.
    9900012    2    1    2    0    0  0.86599899969E+01  0.15795170641E+02  0.51183432903E+01  0.72461540635E+02  0.69999961363E+02 0.  0.
        -12    1    1    2    0    0 -0.86599899969E+01 -0.15795170641E+02 -0.51183432903E+01  0.18726459365E+02  0.00000000000E+00 0.  1.
         11    1    3    3    0    0 -0.24746560006E+01  0.33120318568E+01 -0.63344784542E+01  0.75643304323E+01  0.51100000000E-03 0. -1.
        -11    1    3    3    0    0 -0.58489930544E+01  0.11170181777E+02 -0.23131814137E+02  0.26345104027E+02  0.51100000000E-03 0.  1.
         12    1    3    3    0    0  0.16983639052E+02  0.13129570068E+01  0.34584635881E+02  0.38552106176E+02  0.00000000000E+00 0. -1.
</event>
<event>
 7    1  0.2641045E-013  0.7246155E+02  0.7816164E-02  0.1226708E+00
        -11   -1    0    0    0    0  0.00000000000E+00  0.00000000000E+00  0.45593999997E+02  0.45594000000E+02  0.51100000000E-03 0.  1.
         11   -1    0    0    0    0 -0.00000000000E+00 -0.00000000000E+00 -0.45593999997E+02  0.45594000000E+02  0.51100000000E-03 0. -1.
    9900012    2    1    2    0    0  0.76073155843E+01  0.15181627985E+02  0.78947453144E+01  0.72461545924E+02  0.69999968253E+02 0.  0.
        -12    1    1    2    0    0 -0.76073155843E+01 -0.15181627985E+02 -0.78947453144E+01  0.18726454076E+02  0.00000000000E+00 0.  1.
         11    1    3    3    0    0 -0.23689073424E+02  0.20263617855E+02  0.99544435071E+01  0.32724262468E+02  0.51100000000E-03 0. -1.
        -11    1    3    3    0    0  0.19226079617E+02 -0.27262456244E+00 -0.12615143389E+02  0.22996919459E+02  0.51100000000E-03 0.  1.
        -12    1    3    3    0    0  0.12070309391E+02 -0.48093653075E+01  0.10555445196E+02  0.16740363997E+02  0.00000000000E+00 0.  1.
</event>
<event>
 7    1  0.2641045E-013  0.7246160E+02  0.7816164E-02  0.1226708E+00
        -11   -1    0    0    0    0  0.00000000000E+00  0.00000000000E+00  0.45593999997E+02  0.45594000000E+02  0.51100000000E-03 0.  1.
         11   -1    0    0    0    0 -0.00000000000E+00 -0.00000000000E+00 -0.45593999997E+02  0.45594000000E+02  0.51100000000E-03 0. -1.
    9900012    2    1    2    0    0 -0.15459870058E+02  0.40571739512E+01  0.97575577546E+01  0.72461596821E+02  0.70000034556E+02 0.  0.
        -12    1    1    2    0    0  0.15459870058E+02 -0.40571739512E+01 -0.97575577546E+01  0.18726403179E+02  0.00000000000E+00 0.  1.
         11    1    3    3    0    0  0.67618401873E+01  0.10247761704E+02  0.53175692744E+01  0.13379672863E+02  0.51100000000E-03 0. -1.
        -11    1    3    3    0    0  0.67991238516E+01  0.18558064675E+02 -0.36351366089E+01  0.20095871916E+02  0.51100000000E-03 0.  1.
        -12    1    3    3    0    0 -0.29020834097E+02 -0.24748652428E+02  0.80751250892E+01  0.38986052043E+02  0.00000000000E+00 0.  1.
</event>
<event>
 7    1  0.2641045E-013  0.7246155E+02  0.7816164E-02  0.1226708E+00
        -11   -1    0    0    0    0  0.00000000000E+00  0.00000000000E+00  0.45593999997E+02  0.45594000000E+02  0.51100000000E-03 0.  1.
         11   -1    0    0    0    0 -0.00000000000E+00 -0.00000000000E+00 -0.45593999997E+02  0.45594000000E+02  0.51100000000E-03 0. -1.
    9900012    2    1    2    0    0  0.12602012329E+02 -0.12179374558E+02  0.65978937901E+01  0.72461545936E+02  0.69999968269E+02 0.  0.
        -12    1    1    2    0    0 -0.12602012329E+02  0.12179374558E+02 -0.65978937901E+01  0.18726454064E+02  0.00000000000E+00 0.  1.
         11    1    3    3    0    0  0.25100110533E+01  0.27813894510E+01 -0.25500838726E+02  0.25774581641E+02  0.51100000000E-03 0. -1.
        -11    1    3    3    0    0 -0.24243254736E+01 -0.70009823363E+01 -0.34463016654E+01  0.81711751361E+01  0.51100000000E-03 0.  1.
        -12    1    3    3    0    0  0.12516326749E+02 -0.79597816723E+01  0.35545034182E+02  0.38515789159E+02  0.00000000000E+00 0.  1.
</event>
<event>
 7    1  0.2641045E-013  0.7246163E+02  0.7816164E-02  0.1226708E+00
        -11   -1    0    0    0    0  0.00000000000E+00  0.00000000000E+00  0.45593999997E+02  0.45594000000E+02  0.51100000000E-03 0.  1.
         11   -1    0    0    0    0 -0.00000000000E+00 -0.00000000000E+00 -0.45593999997E+02  0.45594000000E+02  0.51100000000E-03 0. -1.
    9900012    2    1    2    0    0  0.74161949007E+01 -0.10206901271E+02 -0.13838215383E+02  0.72461628612E+02  0.70000075970E+02 0.  0.
        -12    1    1    2    0    0 -0.74161949007E+01  0.10206901271E+02  0.13838215383E+02  0.18726371388E+02  0.00000000000E+00 0.  1.
         11    1    3    3    0    0  0.18365504572E+02 -0.27077979523E+02 -0.10891800393E+02  0.34483910006E+02  0.51100000000E-03 0. -1.
        -11    1    3    3    0    0  0.57864656723E+01 -0.64765945760E+01 -0.31845136009E+01  0.92504372553E+01  0.51100000000E-03 0.  1.
        -12    1    3    3    0    0 -0.16735775344E+02  0.23347672828E+02  0.23809861089E+00  0.28727281351E+02  0.00000000000E+00 0.  1.
</event>
<event>
 7    1  0.2641045E-013  0.7246157E+02  0.7816164E-02  0.1226708E+00
        -11   -1    0    0    0    0  0.00000000000E+00  0.00000000000E+00  0.45593999997E+02  0.45594000000E+02  0.51100000000E-03 0.  1.
         11   -1    0    0    0    0 -0.00000000000E+00 -0.00000000000E+00 -0.45593999997E+02  0.45594000000E+02  0.51100000000E-03 0. -1.
    9900012    2    1    2    0    0 -0.93497348312E+01  0.15099945739E+02 -0.59374527603E+01  0.72461568198E+02  0.69999997270E+02 0.  0.
        -12    1    1    2    0    0  0.93497348312E+01 -0.15099945739E+02  0.59374527603E+01  0.18726431802E+02  0.00000000000E+00 0.  1.
         11    1    3    3    0    0 -0.17925362799E+02  0.50423509466E+01 -0.94388381747E+01  0.20876676002E+02  0.51100000000E-03 0. -1.
        -11    1    3    3    0    0  0.20109560934E+02  0.14200754855E+02 -0.15414488955E+02  0.29045866305E+02  0.51100000000E-03 0.  1.
        -12    1    3    3    0    0 -0.11533932967E+02 -0.41431600620E+01  0.18915874369E+02  0.22539025891E+02  0.00000000000E+00 0.  1.
</event>
<event>
 7    1  0.2641045E-013  0.7246157E+02  0.7816164E-02  0.1226708E+00
        -11   -1    0    0    0    0  0.00000000000E+00  0.00000000000E+00  0.45593999997E+02  0.45594000000E+02  0.51100000000E-03 0. -1.
         11   -1    0    0    0    0 -0.00000000000E+00 -0.00000000000E+00 -0.45593999997E+02  0.45594000000E+02  0.51100000000E-03 0.  1.
    9900012    2    1    2    0    0 -0.10741584019E+02  0.13509742082E+02  0.72652864285E+01  0.72461570942E+02  0.70000000844E+02 0.  0.
        -12    1    1    2    0    0  0.10741584019E+02 -0.13509742082E+02 -0.72652864285E+01  0.18726429058E+02  0.00000000000E+00 0.  1.
         11    1    3    3    0    0  0.23324398749E+01  0.22818764025E+02  0.25154090612E+02  0.34042099556E+02  0.51100000000E-03 0. -1.
        -11    1    3    3    0    0  0.80471914432E+01  0.21751543237E+01 -0.10211515854E+02  0.13181943815E+02  0.51100000000E-03 0.  1.
        -12    1    3    3    0    0 -0.21121215337E+02 -0.11484176266E+02 -0.76772883296E+01  0.25237527571E+02  0.00000000000E+00 0.  1.
</event>
<event>
 7    1  0.2641045E-013  0.7246159E+02  0.7816164E-02  0.1226708E+00
        -11   -1    0    0    0    0  0.00000000000E+00  0.00000000000E+00  0.45593999997E+02  0.45594000000E+02  0.51100000000E-03 0.  1.
         11   -1    0    0    0    0 -0.00000000000E+00 -0.00000000000E+00 -0.45593999997E+02  0.45594000000E+02  0.51100000000E-03 0. -1.
    9900012    2    1    2    0    0 -0.47334712899E+01  0.15691403379E+02 -0.90582903436E+01  0.72461587786E+02  0.70000022786E+02 0.  0.
        -12    1    1    2    0    0  0.47334712899E+01 -0.15691403379E+02  0.90582903436E+01  0.18726412214E+02  0.00000000000E+00 0.  1.
         11    1    3    3    0    0 -0.84161083892E+01 -0.59413075520E+01 -0.45298143862E+01  0.11253854206E+02  0.51100000000E-03 0. -1.
        -11    1    3    3    0    0  0.15246960151E+02 -0.58337323732E+01  0.17662705795E+02  0.24051474040E+02  0.51100000000E-03 0.  1.
         12    1    3    3    0    0 -0.11564323051E+02  0.27466443305E+02 -0.22191181753E+02  0.37156259540E+02  0.00000000000E+00 0. -1.
</event>
<event>
 7    1  0.2641045E-013  0.7246154E+02  0.7816164E-02  0.1226708E+00
        -11   -1    0    0    0    0  0.00000000000E+00  0.00000000000E+00  0.45593999997E+02  0.45594000000E+02  0.51100000000E-03 0.  1.
         11   -1    0    0    0    0 -0.00000000000E+00 -0.00000000000E+00 -0.45593999997E+02  0.45594000000E+02  0.51100000000E-03 0. -1.
    9900012    2    1    2    0    0  0.78614557572E+01  0.13323136905E+02 -0.10553289432E+02  0.72461537935E+02  0.69999957847E+02 0.  0.
        -12    1    1    2    0    0 -0.78614557572E+01 -0.13323136905E+02  0.10553289432E+02  0.18726462065E+02  0.00000000000E+00 0.  1.
         11    1    3    3    0    0 -0.22423017834E+01 -0.58536423327E+01  0.33382658132E+01  0.71019057124E+01  0.51100000000E-03 0. -1.
        -11    1    3    3    0    0  0.15008357099E+02  0.29469887245E+02  0.13476154262E+02  0.35711787564E+02  0.51100000000E-03 0.  1.
         12    1    3    3    0    0 -0.49045995582E+01 -0.10293108007E+02 -0.27367709507E+02  0.29647844660E+02  0.00000000000E+00 0. -1.
</event>
<event>
 7    1  0.2641045E-013  0.7246142E+02  0.7816164E-02  0.1226708E+00
        -11   -1    0    0    0    0  0.00000000000E+00  0.00000000000E+00  0.45593999997E+02  0.45594000000E+02  0.51100000000E-03 0. -1.
         11   -1    0    0    0    0 -0.00000000000E+00 -0.00000000000E+00 -0.45593999997E+02  0.45594000000E+02  0.51100000000E-03 0.  1.
    9900012    2    1    2    0    0 -0.35877269278E+00  0.18263053551E+02  0.41251652212E+01  0.72461419134E+02  0.69999803085E+02 0.  0.
        -12    1    1    2    0    0  0.35877269278E+00 -0.18263053551E+02 -0.41251652212E+01  0.18726580866E+02  0.00000000000E+00 0.  1.
         11    1    3    3    0    0 -0.97668605835E+01 -0.74518287338E+01  0.12470773625E+02  0.17505470922E+02  0.51100000000E-03 0. -1.
        -11    1    3    3    0    0 -0.23413084503E+01 -0.10036093820E+02  0.88472975029E+01  0.13582325934E+02  0.51100000000E-03 0.  1.
        -12    1    3    3    0    0  0.11749396341E+02  0.35750976105E+02 -0.17192905907E+02  0.41373622277E+02  0.00000000000E+00 0.  1.
</event>
<event>
 7    1  0.2641045E-013  0.7246145E+02  0.7816164E-02  0.1226708E+00
        -11   -1    0    0    0    0  0.00000000000E+00  0.00000000000E+00  0.45593999997E+02  0.45594000000E+02  0.51100000000E-03 0. -1.
         11   -1    0    0    0    0 -0.00000000000E+00 -0.00000000000E+00 -0.45593999997E+02  0.45594000000E+02  0.51100000000E-03 0.  1.
    9900012    2    1    2    0    0 -0.65127666975E+01 -0.14711373457E+02  0.95834829819E+01  0.72461447057E+02  0.69999839461E+02 0.  0.
        -12    1    1    2    0    0  0.65127666975E+01  0.14711373457E+02 -0.95834829819E+01  0.18726552943E+02  0.00000000000E+00 0.  1.
         11    1    3    3    0    0 -0.16541491822E+02  0.47226258363E+01 -0.76180706211E+01  0.18813802027E+02  0.51100000000E-03 0. -1.
        -11    1    3    3    0    0 -0.11898599481E+02 -0.25193466951E+02  0.12282128768E+02  0.30448943068E+02  0.51100000000E-03 0.  1.
         12    1    3    3    0    0  0.21927324605E+02  0.57594676570E+01  0.49194248347E+01  0.23198701962E+02  0.00000000000E+00 0. -1.
</event>
<event>
 7    1  0.2641045E-013  0.7246173E+02  0.7816164E-02  0.1226708E+00
        -11   -1    0    0    0    0  0.00000000000E+00  0.00000000000E+00  0.45593999997E+02  0.45594000000E+02  0.51100000000E-03 0. -1.
         11   -1    0    0    0    0 -0.00000000000E+00 -0.00000000000E+00 -0.45593999997E+02  0.45594000000E+02  0.51100000000E-03 0.  1.
    9900012    2    1    2    0    0  0.34225093708E+01 -0.17992905484E+02 -0.39006186323E+01  0.72461733852E+02  0.70000213064E+02 0.  0.
        -12    1    1    2    0    0 -0.34225093708E+01  0.17992905484E+02  0.39006186323E+01  0.18726266148E+02  0.00000000000E+00 0.  1.
         11    1    3    3    0    0 -0.43432520594E+01  0.35255107327E+01  0.16315462885E+02  0.17247822871E+02  0.51100000000E-03 0. -1.
        -11    1    3    3    0    0  0.26358850589E+02 -0.86759298746E+01 -0.56220120352E+01  0.28313738417E+02  0.51100000000E-03 0.  1.
        -12    1    3    3    0    0 -0.18593089159E+02 -0.12842486342E+02 -0.14594069482E+02  0.26900172564E+02  0.00000000000E+00 0.  1.
</event>
<event>
 7    1  0.2641045E-013  0.7246155E+02  0.7816164E-02  0.1226708E+00
        -11   -1    0    0    0    0  0.00000000000E+00  0.00000000000E+00  0.45593999997E+02  0.45594000000E+02  0.51100000000E-03 0.  1.
         11   -1    0    0    0    0 -0.00000000000E+00 -0.00000000000E+00 -0.45593999997E+02  0.45594000000E+02  0.51100000000E-03 0. -1.
    9900012    2    1    2    0    0 -0.13573432959E+02 -0.93469470758E+01 -0.88924931878E+01  0.72461549802E+02  0.69999973305E+02 0.  0.
        -12    1    1    2    0    0  0.13573432959E+02  0.93469470758E+01  0.88924931878E+01  0.18726450198E+02  0.00000000000E+00 0.  1.
         11    1    3    3    0    0 -0.10602624433E+01  0.21622144026E+01  0.14579656679E+00  0.24125887490E+01  0.51100000000E-03 0. -1.
        -11    1    3    3    0    0  0.24411087798E+02  0.21829152592E+01  0.97985204422E+01  0.26394645851E+02  0.51100000000E-03 0.  1.
         12    1    3    3    0    0 -0.36924258313E+02 -0.13692076738E+02 -0.18836810197E+02  0.43654315202E+02  0.00000000000E+00 0. -1.
</event>
<event>
 7    1  0.2641045E-013  0.7246158E+02  0.7816164E-02  0.1226708E+00
        -11   -1    0    0    0    0  0.00000000000E+00  0.00000000000E+00  0.45593999997E+02  0.45594000000E+02  0.51100000000E-03 0. -1.
         11   -1    0    0    0    0 -0.00000000000E+00 -0.00000000000E+00 -0.45593999997E+02  0.45594000000E+02  0.51100000000E-03 0.  1.
    9900012    2    1    2    0    0 -0.12137212215E+02 -0.14231032453E+02 -0.91903526207E+00  0.72461579337E+02  0.70000011780E+02 0.  0.
        -12    1    1    2    0    0  0.12137212215E+02  0.14231032453E+02  0.91903526207E+00  0.18726420663E+02  0.00000000000E+00 0.  1.
         11    1    3    3    0    0  0.22083070921E+02 -0.30675027599E+01  0.97564570599E+01  0.24336393511E+02  0.51100000000E-03 0. -1.
        -11    1    3    3    0    0 -0.30357654168E+01 -0.10462258809E+02  0.63290285515E+01  0.12598862398E+02  0.51100000000E-03 0.  1.
        -12    1    3    3    0    0 -0.31184517719E+02 -0.70127088355E+00 -0.17004520873E+02  0.35526323429E+02  0.00000000000E+00 0.  1.
</event>
<event>
 7    1  0.2641045E-013  0.7246159E+02  0.7816164E-02  0.1226708E+00
        -11   -1    0    0    0    0  0.00000000000E+00  0.00000000000E+00  0.45593999997E+02  0.45594000000E+02  0.51100000000E-03 0.  1.
         11   -1    0    0    0    0 -0.00000000000E+00 -0.00000000000E+00 -0.45593999997E+02  0.45594000000E+02  0.51100000000E-03 0. -1.
    9900012    2    1    2    0    0  0.11375106811E+02 -0.11909052086E+02  0.89140361418E+01  0.72461585050E+02  0.70000019222E+02 0.  0.
        -12    1    1    2    0    0 -0.11375106811E+02  0.11909052086E+02 -0.89140361418E+01  0.18726414950E+02  0.00000000000E+00 0.  1.
         11    1    3    3    0    0  0.13456808591E+01  0.93710573656E+01  0.22027769762E+01  0.97200720055E+01  0.51100000000E-03 0. -1.
        -11    1    3    3    0    0  0.53366227191E+01  0.15100619189E+02  0.18255966894E+02  0.24285562984E+02  0.51100000000E-03 0.  1.
        -12    1    3    3    0    0  0.46928032327E+01 -0.36380728640E+02 -0.11544707728E+02  0.38455950061E+02  0.00000000000E+00 0.  1.
</event>
<event>
 7    1  0.2641045E-013  0.7246159E+02  0.7816164E-02  0.1226708E+00
        -11   -1    0    0    0    0  0.00000000000E+00  0.00000000000E+00  0.45593999997E+02  0.45594000000E+02  0.51100000000E-03 0.  1.
         11   -1    0    0    0    0 -0.00000000000E+00 -0.00000000000E+00 -0.45593999997E+02  0.45594000000E+02  0.51100000000E-03 0. -1.
    9900012    2    1    2    0    0  0.91262577682E+01 -0.75581249165E+01 -0.14500497987E+02  0.72461594179E+02  0.70000031114E+02 0.  0.
        -12    1    1    2    0    0 -0.91262577682E+01  0.75581249165E+01  0.14500497987E+02  0.18726405821E+02  0.00000000000E+00 0.  1.
         11    1    3    3    0    0 -0.19469836472E+02  0.10871385561E+02 -0.25991592026E+02  0.34246524094E+02  0.51100000000E-03 0. -1.
        -11    1    3    3    0    0  0.96281593669E+00 -0.35222049078E+01 -0.18583658004E+01  0.40971289520E+01  0.51100000000E-03 0.  1.
        -12    1    3    3    0    0  0.27633278303E+02 -0.14907305569E+02  0.13349459839E+02  0.34117941132E+02  0.00000000000E+00 0.  1.
</event>
<event>
 7    1  0.2641045E-013  0.7246154E+02  0.7816164E-02  0.1226708E+00
        -11   -1    0    0    0    0  0.00000000000E+00  0.00000000000E+00  0.45593999997E+02  0.45594000000E+02  0.51100000000E-03 0.  1.
         11   -1    0    0    0    0 -0.00000000000E+00 -0.00000000000E+00 -0.45593999997E+02  0.45594000000E+02  0.51100000000E-03 0. -1.
    9900012    2    1    2    0    0 -0.16953326714E+02  0.77981628824E+01 -0.15664363816E+01  0.72461538670E+02  0.69999958803E+02 0.  0.
        -12    1    1    2    0    0  0.16953326714E+02 -0.77981628824E+01  0.15664363816E+01  0.18726461330E+02  0.00000000000E+00 0.  1.
         11    1    3    3    0    0 -0.60044643038E+01 -0.99598403555E+01 -0.13704249378E+02  0.17973827160E+02  0.51100000000E-03 0. -1.
        -11    1    3    3    0    0  0.11709496874E+02 -0.90772710075E+01 -0.46931745584E+01  0.15541398060E+02  0.51100000000E-03 0.  1.
        -12    1    3    3    0    0 -0.22658359284E+02  0.26835274245E+02  0.16830987555E+02  0.38946313450E+02  0.00000000000E+00 0.  1.
</event>
<event>
 7    1  0.2641045E-013  0.7246161E+02  0.7816164E-02  0.1226708E+00
        -11   -1    0    0    0    0  0.00000000000E+00  0.00000000000E+00  0.45593999997E+02  0.45594000000E+02  0.51100000000E-03 0.  1.
         11   -1    0    0    0    0 -0.00000000000E+00 -0.00000000000E+00 -0.45593999997E+02  0.45594000000E+02  0.51100000000E-03 0. -1.
    9900012    2    1    2    0    0  0.10382051218E+02  0.82009931322E+00 -0.15563354120E+02  0.72461613754E+02  0.70000056614E+02 0.  0.
        -12    1    1    2    0    0 -0.10382051218E+02 -0.82009931322E+00  0.15563354120E+02  0.18726386246E+02  0.00000000000E+00 0.  1.
         11    1    3    3    0    0  0.57720361395E+01  0.13123009709E+02  0.11194573912E+02  0.18189235013E+02  0.51100000000E-03 0.  1.
        -11    1    3    3    0    0 -0.12768701511E+02  0.11555477848E+02 -0.62055196002E+01  0.18305116234E+02  0.51100000000E-03 0. -1.
         12    1    3    3    0    0  0.17378716590E+02 -0.23858388243E+02 -0.20552408432E+02  0.35967262507E+02  0.00000000000E+00 0. -1.
</event>
<event>
 7    1  0.2641045E-013  0.7246158E+02  0.7816164E-02  0.1226708E+00
        -11   -1    0    0    0    0  0.00000000000E+00  0.00000000000E+00  0.45593999997E+02  0.45594000000E+02  0.51100000000E-03 0. -1.
         11   -1    0    0    0    0 -0.00000000000E+00 -0.00000000000E+00 -0.45593999997E+02  0.45594000000E+02  0.51100000000E-03 0.  1.
    9900012    2    1    2    0    0  0.61661935511E+01  0.10230621827E+02 -0.14421903126E+02  0.72461578675E+02  0.70000010917E+02 0.  0.
        -12    1    1    2    0    0 -0.61661935511E+01 -0.10230621827E+02  0.14421903126E+02  0.18726421325E+02  0.00000000000E+00 0.  1.
         11    1    3    3    0    0  0.71201524424E+01  0.23734627868E+02 -0.71823751053E+01  0.25799527966E+02  0.51100000000E-03 0. -1.
        -11    1    3    3    0    0  0.18979854039E+02 -0.33377074256E-01 -0.11553462303E+02  0.22219776435E+02  0.51100000000E-03 0.  1.
        -12    1    3    3    0    0 -0.19933812930E+02 -0.13470628967E+02  0.43139342819E+01  0.24442274274E+02  0.00000000000E+00 0.  1.
</event>
<event>
 7    1  0.2641045E-013  0.7246132E+02  0.7816164E-02  0.1226709E+00
        -11   -1    0    0    0    0  0.00000000000E+00  0.00000000000E+00  0.45593999997E+02  0.45594000000E+02  0.51100000000E-03 0.  1.
         11   -1    0    0    0    0 -0.00000000000E+00 -0.00000000000E+00 -0.45593999997E+02  0.45594000000E+02  0.51100000000E-03 0. -1.
    9900012    2    1    2    0    0 -0.11307393738E+02  0.14371495452E+02 -0.40362607853E+01  0.72461322884E+02  0.69999677701E+02 0.  0.
        -12    1    1    2    0    0  0.11307393738E+02 -0.14371495452E+02  0.40362607853E+01  0.18726677116E+02  0.00000000000E+00 0.  1.
         11    1    3    3    0    0  0.67173559655E+01  0.18758968969E+02 -0.17329914240E+02  0.26407342081E+02  0.51100000000E-03 0. -1.
        -11    1    3    3    0    0  0.12468986806E+02  0.27237445256E+01  0.44599034910E+01  0.13519806050E+02  0.51100000000E-03 0.  1.
         12    1    3    3    0    0 -0.30493736510E+02 -0.71112180426E+01  0.88337499642E+01  0.32534174753E+02  0.00000000000E+00 0. -1.
</event>
<event>
 7    1  0.2641045E-013  0.7246153E+02  0.7816164E-02  0.1226708E+00
        -11   -1    0    0    0    0  0.00000000000E+00  0.00000000000E+00  0.45593999997E+02  0.45594000000E+02  0.51100000000E-03 0.  1.
         11   -1    0    0    0    0 -0.00000000000E+00 -0.00000000000E+00 -0.45593999997E+02  0.45594000000E+02  0.51100000000E-03 0. -1.
    9900012    2    1    2    0    0  0.12660912193E+02  0.34246436777E+00 -0.13793645806E+02  0.72461530925E+02  0.69999948714E+02 0.  0.
        -12    1    1    2    0    0 -0.12660912193E+02 -0.34246436777E+00  0.13793645806E+02  0.18726469075E+02  0.00000000000E+00 0.  1.
         11    1    3    3    0    0  0.10389065188E+02  0.11406121414E+02 -0.25510577159E+01  0.15637780435E+02  0.51100000000E-03 0. -1.
        -11    1    3    3    0    0  0.12068591015E+02 -0.18814117237E+02  0.15572354334E+02  0.27241881658E+02  0.51100000000E-03 0.  1.
         12    1    3    3    0    0 -0.97967440097E+01  0.77504601904E+01 -0.26814942425E+02  0.29581868832E+02  0.00000000000E+00 0. -1.
</event>
<event>
 7    1  0.2641045E-013  0.7246160E+02  0.7816164E-02  0.1226708E+00
        -11   -1    0    0    0    0  0.00000000000E+00  0.00000000000E+00  0.45593999997E+02  0.45594000000E+02  0.51100000000E-03 0.  1.
         11   -1    0    0    0    0 -0.00000000000E+00 -0.00000000000E+00 -0.45593999997E+02  0.45594000000E+02  0.51100000000E-03 0. -1.
    9900012    2    1    2    0    0  0.72962333050E+01 -0.62949547983E+01 -0.16056666536E+02  0.72461601078E+02  0.70000040101E+02 0.  0.
        -12    1    1    2    0    0 -0.72962333050E+01  0.62949547983E+01  0.16056666536E+02  0.18726398922E+02  0.00000000000E+00 0.  1.
         11    1    3    3    0    0  0.98789197529E+01  0.19305375797E+02 -0.18451337263E+02  0.28473539246E+02  0.51100000000E-03 0. -1.
        -11    1    3    3    0    0  0.10051830032E+02 -0.50086423099E+00 -0.91566116009E+01  0.13606384098E+02  0.51100000000E-03 0.  1.
        -12    1    3    3    0    0 -0.12634516479E+02 -0.25099466364E+02  0.11551282328E+02  0.30381677733E+02  0.00000000000E+00 0.  1.
</event>
<event>
 7    1  0.2641045E-013  0.7246148E+02  0.7816164E-02  0.1226708E+00
        -11   -1    0    0    0    0  0.00000000000E+00  0.00000000000E+00  0.45593999997E+02  0.45594000000E+02  0.51100000000E-03 0.  1.
         11   -1    0    0    0    0 -0.00000000000E+00 -0.00000000000E+00 -0.45593999997E+02  0.45594000000E+02  0.51100000000E-03 0. -1.
    9900012    2    1    2    0    0  0.13909566676E+02 -0.78377440809E+01 -0.97865440084E+01  0.72461475469E+02  0.69999876472E+02 0.  0.
        -12    1    1    2    0    0 -0.13909566676E+02  0.78377440809E+01  0.97865440084E+01  0.18726524531E+02  0.00000000000E+00 0.  1.
         11    1    3    3    0    0  0.59243471333E+00 -0.80557323128E+01 -0.20317720167E+01  0.83290995776E+01  0.51100000000E-03 0. -1.
        -11    1    3    3    0    0 -0.23465751136E+02  0.58112601820E+01  0.52152449673E+01  0.24730770340E+02  0.51100000000E-03 0.  1.
         12    1    3    3    0    0  0.36782883098E+02 -0.55932719501E+01 -0.12970016959E+02  0.39401605552E+02  0.00000000000E+00 0. -1.
</event>
<event>
 7    1  0.2641045E-013  0.7246159E+02  0.7816164E-02  0.1226708E+00
        -11   -1    0    0    0    0  0.00000000000E+00  0.00000000000E+00  0.45593999997E+02  0.45594000000E+02  0.51100000000E-03 0. -1.
         11   -1    0    0    0    0 -0.00000000000E+00 -0.00000000000E+00 -0.45593999997E+02  0.45594000000E+02  0.51100000000E-03 0.  1.
    9900012    2    1    2    0    0  0.66040807637E+01 -0.14121458105E+02  0.10375405043E+02  0.72461588396E+02  0.70000023581E+02 0.  0.
        -12    1    1    2    0    0 -0.66040807637E+01  0.14121458105E+02 -0.10375405043E+02  0.18726411604E+02  0.00000000000E+00 0.  1.
         11    1    3    3    0    0  0.97522018462E+01 -0.20757491849E+02  0.12529068410E+01  0.22968427994E+02  0.51100000000E-03 0. -1.
        -11    1    3    3    0    0  0.18656316282E+02  0.15543014488E+02  0.13433382864E+00  0.24282946330E+02  0.51100000000E-03 0.  1.
         12    1    3    3    0    0 -0.21804437365E+02 -0.89069807442E+01  0.89881643730E+01  0.25210214072E+02  0.00000000000E+00 0. -1.
</event>
<event>
 7    1  0.2641045E-013  0.7246153E+02  0.7816164E-02  0.1226708E+00
        -11   -1    0    0    0    0  0.00000000000E+00  0.00000000000E+00  0.45593999997E+02  0.45594000000E+02  0.51100000000E-03 0.  1.
         11   -1    0    0    0    0 -0.00000000000E+00 -0.00000000000E+00 -0.45593999997E+02  0.45594000000E+02  0.51100000000E-03 0. -1.
    9900012    2    1    2    0    0  0.90612215139E+01  0.14755907096E+02  0.71300825866E+01  0.72461531907E+02  0.69999949993E+02 0.  0.
        -12    1    1    2    0    0 -0.90612215139E+01 -0.14755907096E+02 -0.71300825866E+01  0.18726468093E+02  0.00000000000E+00 0.  1.
         11    1    3    3    0    0  0.79387830003E+01  0.24037084911E+02 -0.16669947953E+02  0.30309947073E+02  0.51100000000E-03 0. -1.
        -11    1    3    3    0    0  0.56780663541E+01  0.10751943684E+02  0.22276280851E+01  0.12361515185E+02  0.51100000000E-03 0.  1.
        -12    1    3    3    0    0 -0.45556278404E+01 -0.20033121500E+02  0.21572402454E+02  0.29790069649E+02  0.00000000000E+00 0.  1.
</event>
<event>
 7    1  0.2641045E-013  0.7246175E+02  0.7816164E-02  0.1226708E+00
        -11   -1    0    0    0    0  0.00000000000E+00  0.00000000000E+00  0.45593999997E+02  0.45594000000E+02  0.51100000000E-03 0. -1.
         11   -1    0    0    0    0 -0.00000000000E+00 -0.00000000000E+00 -0.45593999997E+02  0.45594000000E+02  0.51100000000E-03 0.  1.
    9900012    2    1    2    0    0 -0.24967988656E+01 -0.96695129411E+01  0.15841055927E+02  0.72461747359E+02  0.70000230660E+02 0.  0.
        -12    1    1    2    0    0  0.24967988656E+01  0.96695129411E+01 -0.15841055927E+02  0.18726252641E+02  0.00000000000E+00 0.  1.
         11    1    3    3    0    0  0.78220825547E+01 -0.23935667274E+02  0.14378639268E+02  0.28997351790E+02  0.51100000000E-03 0. -1.
        -11    1    3    3    0    0 -0.12856540412E+02 -0.11514100944E+02 -0.18110804232E+01  0.17353534640E+02  0.51100000000E-03 0.  1.
         12    1    3    3    0    0  0.25376589922E+01  0.25780255278E+02  0.32734970815E+01  0.26110860929E+02  0.00000000000E+00 0. -1.
</event>
<event>
 7    1  0.2641045E-013  0.7246159E+02  0.7816164E-02  0.1226708E+00
        -11   -1    0    0    0    0  0.00000000000E+00  0.00000000000E+00  0.45593999997E+02  0.45594000000E+02  0.51100000000E-03 0. -1.
         11   -1    0    0    0    0 -0.00000000000E+00 -0.00000000000E+00 -0.45593999997E+02  0.45594000000E+02  0.51100000000E-03 0.  1.
    9900012    2    1    2    0    0  0.91990050039E+01 -0.15349513685E+02  0.55180767450E+01  0.72461589923E+02  0.70000025569E+02 0.  0.
        -12    1    1    2    0    0 -0.91990050039E+01  0.15349513685E+02 -0.55180767450E+01  0.18726410077E+02  0.00000000000E+00 0.  1.
         11    1    3    3    0    0  0.11674823028E+02 -0.10983769014E+02  0.35356021968E+01  0.16414784727E+02  0.51100000000E-03 0. -1.
        -11    1    3    3    0    0 -0.16545143932E+02  0.46122110049E+00 -0.22178798555E+02  0.27674060386E+02  0.51100000000E-03 0.  1.
         12    1    3    3    0    0  0.14069325907E+02 -0.48269657716E+01  0.24161273103E+02  0.28372744809E+02  0.00000000000E+00 0. -1.
</event>
<event>
 7    1  0.2641045E-013  0.7246159E+02  0.7816164E-02  0.1226708E+00
        -11   -1    0    0    0    0  0.00000000000E+00  0.00000000000E+00  0.45593999997E+02  0.45594000000E+02  0.51100000000E-03 0.  1.
         11   -1    0    0    0    0 -0.00000000000E+00 -0.00000000000E+00 -0.45593999997E+02  0.45594000000E+02  0.51100000000E-03 0. -1.
    9900012    2    1    2    0    0 -0.18617686828E+02 -0.17566088799E+01  0.98716644125E+00  0.72461589902E+02  0.70000025543E+02 0.  0.
        -12    1    1    2    0    0  0.18617686828E+02  0.17566088799E+01 -0.98716644125E+00  0.18726410098E+02  0.00000000000E+00 0.  1.
         11    1    3    3    0    0 -0.10177584494E+02 -0.77629844701E+01  0.18008187821E+01  0.12926333686E+02  0.51100000000E-03 0. -1.
        -11    1    3    3    0    0  0.13611776986E+02 -0.79321820975E+01  0.20495413581E+02  0.25850763309E+02  0.51100000000E-03 0.  1.
         12    1    3    3    0    0 -0.22051879319E+02  0.13938557688E+02 -0.21309065922E+02  0.33684492907E+02  0.00000000000E+00 0. -1.
</event>
<event>
 7    1  0.2641045E-013  0.7246156E+02  0.7816164E-02  0.1226708E+00
        -11   -1    0    0    0    0  0.00000000000E+00  0.00000000000E+00  0.45593999997E+02  0.45594000000E+02  0.51100000000E-03 0. -1.
         11   -1    0    0    0    0 -0.00000000000E+00 -0.00000000000E+00 -0.45593999997E+02  0.45594000000E+02  0.51100000000E-03 0.  1.
    9900012    2    1    2    0    0  0.15311600857E+02 -0.84678177355E+01  0.66731079921E+01  0.72461563385E+02  0.69999990999E+02 0.  0.
        -12    1    1    2    0    0 -0.15311600857E+02  0.84678177355E+01 -0.66731079921E+01  0.18726436615E+02  0.00000000000E+00 0.  1.
         11    1    3    3    0    0  0.50671134021E+01 -0.13048806309E+02 -0.21881710816E+01  0.14168100693E+02  0.51100000000E-03 0. -1.
        -11    1    3    3    0    0  0.21455402546E+02 -0.68718147968E+01  0.26285776600E+02  0.34619332587E+02  0.51100000000E-03 0.  1.
        -12    1    3    3    0    0 -0.11210915091E+02  0.11452803370E+02 -0.17424497526E+02  0.23674130105E+02  0.00000000000E+00 0.  1.
</event>
<event>
 7    1  0.2641045E-013  0.7246161E+02  0.7816164E-02  0.1226708E+00
        -11   -1    0    0    0    0  0.00000000000E+00  0.00000000000E+00  0.45593999997E+02  0.45594000000E+02  0.51100000000E-03 0. -1.
         11   -1    0    0    0    0 -0.00000000000E+00 -0.00000000000E+00 -0.45593999997E+02  0.45594000000E+02  0.51100000000E-03 0.  1.
    9900012    2    1    2    0    0  0.17160626409E+02 -0.54042118801E+01  0.51947045614E+01  0.72461613262E+02  0.70000055973E+02 0.  0.
        -12    1    1    2    0    0 -0.17160626409E+02  0.54042118801E+01 -0.51947045614E+01  0.18726386738E+02  0.00000000000E+00 0.  1.
         11    1    3    3    0    0 -0.15300504990E+02  0.71878791791E+01 -0.34258083024E+01  0.17248397689E+02  0.51100000000E-03 0.  1.
        -11    1    3    3    0    0  0.13341323289E+02  0.15441139175E+02  0.97383102833E+00  0.20429587202E+02  0.51100000000E-03 0. -1.
         12    1    3    3    0    0  0.19119808110E+02 -0.28033230234E+02  0.76466818355E+01  0.34783628370E+02  0.00000000000E+00 0. -1.
</event>
<event>
 7    1  0.2641045E-013  0.7246155E+02  0.7816164E-02  0.1226708E+00
        -11   -1    0    0    0    0  0.00000000000E+00  0.00000000000E+00  0.45593999997E+02  0.45594000000E+02  0.51100000000E-03 0.  1.
         11   -1    0    0    0    0 -0.00000000000E+00 -0.00000000000E+00 -0.45593999997E+02  0.45594000000E+02  0.51100000000E-03 0. -1.
    9900012    2    1    2    0    0  0.74853975611E+01 -0.16830924292E+02 -0.33717332740E+01  0.72461554143E+02  0.69999978959E+02 0.  0.
        -12    1    1    2    0    0 -0.74853975611E+01  0.16830924292E+02  0.33717332740E+01  0.18726445857E+02  0.00000000000E+00 0.  1.
         11    1    3    3    0    0  0.14685861248E+02  0.83078084412E+01 -0.14944554773E+02  0.22539607790E+02  0.51100000000E-03 0. -1.
        -11    1    3    3    0    0  0.56414435309E+01 -0.38611573835E+01  0.21949969940E+02  0.22989902176E+02  0.51100000000E-03 0.  1.
        -12    1    3    3    0    0 -0.12841907218E+02 -0.21277575350E+02 -0.10377148441E+02  0.26932044177E+02  0.00000000000E+00 0.  1.
</event>
<event>
 7    1  0.2641045E-013  0.7246158E+02  0.7816164E-02  0.1226708E+00
        -11   -1    0    0    0    0  0.00000000000E+00  0.00000000000E+00  0.45593999997E+02  0.45594000000E+02  0.51100000000E-03 0. -1.
         11   -1    0    0    0    0 -0.00000000000E+00 -0.00000000000E+00 -0.45593999997E+02  0.45594000000E+02  0.51100000000E-03 0.  1.
    9900012    2    1    2    0    0  0.14887682688E+02 -0.72386852484E+01  0.87542715376E+01  0.72461576687E+02  0.70000008327E+02 0.  0.
        -12    1    1    2    0    0 -0.14887682688E+02  0.72386852484E+01 -0.87542715376E+01  0.18726423313E+02  0.00000000000E+00 0.  1.
         11    1    3    3    0    0  0.19355665204E+00  0.22078180074E+02  0.11104019760E+02  0.24714019394E+02  0.51100000000E-03 0. -1.
        -11    1    3    3    0    0  0.55252215780E+01  0.62170854584E+01  0.58198230645E+01  0.10151382460E+02  0.51100000000E-03 0.  1.
        -12    1    3    3    0    0  0.91689044581E+01 -0.35533950780E+02 -0.81695712870E+01  0.37596174833E+02  0.00000000000E+00 0.  1.
</event>
<event>
 7    1  0.2641045E-013  0.7246157E+02  0.7816164E-02  0.1226708E+00
        -11   -1    0    0    0    0  0.00000000000E+00  0.00000000000E+00  0.45593999997E+02  0.45594000000E+02  0.51100000000E-03 0.  1.
         11   -1    0    0    0    0 -0.00000000000E+00 -0.00000000000E+00 -0.45593999997E+02  0.45594000000E+02  0.51100000000E-03 0. -1.
    9900012    2    1    2    0    0 -0.77534483436E+01 -0.11932542412E+02 -0.12172825313E+02  0.72461569327E+02  0.69999998740E+02 0.  0.
        -12    1    1    2    0    0  0.77534483436E+01  0.11932542412E+02  0.12172825313E+02  0.18726430673E+02  0.00000000000E+00 0.  1.
         11    1    3    3    0    0  0.12745108972E+02  0.13441762010E+02 -0.23553005512E+02  0.29964359455E+02  0.51100000000E-03 0. -1.
        -11    1    3    3    0    0 -0.34672948180E+01 -0.15788428997E+02 -0.50814556619E+01  0.16944551202E+02  0.51100000000E-03 0.  1.
        -12    1    3    3    0    0 -0.17031262497E+02 -0.95858754254E+01  0.16461635861E+02  0.25552658671E+02  0.00000000000E+00 0.  1.
</event>
<event>
 7    1  0.2641045E-013  0.7246169E+02  0.7816164E-02  0.1226708E+00
        -11   -1    0    0    0    0  0.00000000000E+00  0.00000000000E+00  0.45593999997E+02  0.45594000000E+02  0.51100000000E-03 0.  1.
         11   -1    0    0    0    0 -0.00000000000E+00 -0.00000000000E+00 -0.45593999997E+02  0.45594000000E+02  0.51100000000E-03 0. -1.
    9900012    2    1    2    0    0  0.17956623863E+02  0.49975975601E+01  0.18050925533E+01  0.72461690137E+02  0.70000156118E+02 0.  0.
        -12    1    1    2    0    0 -0.17956623863E+02 -0.49975975601E+01 -0.18050925533E+01  0.18726309863E+02  0.00000000000E+00 0.  1.
         11    1    3    3    0    0  0.28209935118E+02  0.47933227464E+01 -0.14347373318E+02  0.32009740763E+02  0.51100000000E-03 0. -1.
        -11    1    3    3    0    0 -0.42889749675E+00  0.55378518493E+01 -0.10317853272E+02  0.11717928681E+02  0.51100000000E-03 0.  1.
        -12    1    3    3    0    0 -0.98244137582E+01 -0.53335770356E+01  0.26470319143E+02  0.28734020694E+02  0.00000000000E+00 0.  1.
</event>
<event>
 7    1  0.2641045E-013  0.7246161E+02  0.7816164E-02  0.1226708E+00
        -11   -1    0    0    0    0  0.00000000000E+00  0.00000000000E+00  0.45593999997E+02  0.45594000000E+02  0.51100000000E-03 0.  1.
         11   -1    0    0    0    0 -0.00000000000E+00 -0.00000000000E+00 -0.45593999997E+02  0.45594000000E+02  0.51100000000E-03 0. -1.
    9900012    2    1    2    0    0 -0.97662706991E+00  0.18637440245E+02 -0.15393271647E+01  0.72461614672E+02  0.70000057811E+02 0.  0.
        -12    1    1    2    0    0  0.97662706991E+00 -0.18637440245E+02  0.15393271647E+01  0.18726385328E+02  0.00000000000E+00 0.  1.
         11    1    3    3    0    0  0.65903235487E+01  0.28177426843E+02 -0.17219889515E+02  0.33673793120E+02  0.51100000000E-03 0. -1.
        -11    1    3    3    0    0 -0.18038790492E+02 -0.78328975674E+01 -0.22604400475E+00  0.19667316616E+02  0.51100000000E-03 0.  1.
        -12    1    3    3    0    0  0.10471839873E+02 -0.17070890302E+01  0.15906606355E+02  0.19120504936E+02  0.00000000000E+00 0.  1.
</event>
<event>
 7    1  0.2641045E-013  0.7246156E+02  0.7816164E-02  0.1226708E+00
        -11   -1    0    0    0    0  0.00000000000E+00  0.00000000000E+00  0.45593999997E+02  0.45594000000E+02  0.51100000000E-03 0.  1.
         11   -1    0    0    0    0 -0.00000000000E+00 -0.00000000000E+00 -0.45593999997E+02  0.45594000000E+02  0.51100000000E-03 0. -1.
    9900012    2    1    2    0    0 -0.14095687767E+01 -0.11997796592E+02 -0.14308935592E+02  0.72461557599E+02  0.69999983462E+02 0.  0.
        -12    1    1    2    0    0  0.14095687767E+01  0.11997796592E+02  0.14308935592E+02  0.18726442401E+02  0.00000000000E+00 0.  1.
         11    1    3    3    0    0  0.24242956521E+02 -0.18250964166E+01 -0.21376265937E+02  0.32372776580E+02  0.51100000000E-03 0. -1.
        -11    1    3    3    0    0  0.31024955311E+01 -0.47540061098E+01 -0.58068645225E+01  0.81206975351E+01  0.51100000000E-03 0.  1.
        -12    1    3    3    0    0 -0.28755020828E+02 -0.54186940653E+01  0.12874194867E+02  0.31968083485E+02  0.00000000000E+00 0.  1.
</event>
<event>
 7    1  0.2641045E-013  0.7246155E+02  0.7816164E-02  0.1226708E+00
        -11   -1    0    0    0    0  0.00000000000E+00  0.00000000000E+00  0.45593999997E+02  0.45594000000E+02  0.51100000000E-03 0. -1.
         11   -1    0    0    0    0 -0.00000000000E+00 -0.00000000000E+00 -0.45593999997E+02  0.45594000000E+02  0.51100000000E-03 0.  1.
    9900012    2    1    2    0    0  0.14770904250E+02  0.26616888111E+01 -0.11198918282E+02  0.72461548911E+02  0.69999972145E+02 0.  0.
        -12    1    1    2    0    0 -0.14770904250E+02 -0.26616888111E+01  0.11198918282E+02  0.18726451089E+02  0.00000000000E+00 0.  1.
         11    1    3    3    0    0  0.65088645023E+01 -0.97249619358E+01  0.12341740400E+02  0.17007608830E+02  0.51100000000E-03 0. -1.
        -11    1    3    3    0    0 -0.44817839993E+00 -0.96582351201E+01 -0.29474009785E+02  0.31019342716E+02  0.51100000000E-03 0.  1.
         12    1    3    3    0    0  0.87102181474E+01  0.22044885867E+02  0.59333511021E+01  0.24434597365E+02  0.00000000000E+00 0. -1.
</event>
<event>
 7    1  0.2641045E-013  0.7246156E+02  0.7816164E-02  0.1226708E+00
        -11   -1    0    0    0    0  0.00000000000E+00  0.00000000000E+00  0.45593999997E+02  0.45594000000E+02  0.51100000000E-03 0.  1.
         11   -1    0    0    0    0 -0.00000000000E+00 -0.00000000000E+00 -0.45593999997E+02  0.45594000000E+02  0.51100000000E-03 0. -1.
    9900012    2    1    2    0    0 -0.15420740747E+02  0.30062503564E+01 -0.10190326729E+02  0.72461560262E+02  0.69999986931E+02 0.  0.
        -12    1    1    2    0    0  0.15420740747E+02 -0.30062503564E+01  0.10190326729E+02  0.18726439738E+02  0.00000000000E+00 0.  1.
         11    1    3    3    0    0  0.92131261962E+01 -0.85368028364E+01  0.15563251900E+01  0.12656257161E+02  0.51100000000E-03 0. -1.
        -11    1    3    3    0    0  0.27547988084E+01 -0.16189597441E+02  0.53097119095E+01  0.17259345949E+02  0.51100000000E-03 0.  1.
         12    1    3    3    0    0 -0.27388665752E+02  0.27732650634E+02 -0.17056363829E+02  0.42545957151E+02  0.00000000000E+00 0. -1.
</event>
<event>
 7    1  0.2641045E-013  0.7246156E+02  0.7816164E-02  0.1226708E+00
        -11   -1    0    0    0    0  0.00000000000E+00  0.00000000000E+00  0.45593999997E+02  0.45594000000E+02  0.51100000000E-03 0.  1.
         11   -1    0    0    0    0 -0.00000000000E+00 -0.00000000000E+00 -0.45593999997E+02  0.45594000000E+02  0.51100000000E-03 0. -1.
    9900012    2    1    2    0    0  0.73787870732E+01  0.14302256332E+02  0.95748996222E+01  0.72461555125E+02  0.69999980240E+02 0.  0.
        -12    1    1    2    0    0 -0.73787870732E+01 -0.14302256332E+02 -0.95748996222E+01  0.18726444875E+02  0.00000000000E+00 0.  1.
         11    1    3    3    0    0  0.44538052003E+01 -0.19220171509E+01 -0.81204414246E+01  0.94589692822E+01  0.51100000000E-03 0. -1.
        -11    1    3    3    0    0  0.12278112934E+02 -0.18514773908E+02  0.15243941639E+02  0.26943026315E+02  0.51100000000E-03 0.  1.
         12    1    3    3    0    0 -0.93531310610E+01  0.34739047391E+02  0.24513994079E+01  0.36059559528E+02  0.00000000000E+00 0. -1.
</event>
<event>
 7    1  0.2641045E-013  0.7246156E+02  0.7816164E-02  0.1226708E+00
        -11   -1    0    0    0    0  0.00000000000E+00  0.00000000000E+00  0.45593999997E+02  0.45594000000E+02  0.51100000000E-03 0.  1.
         11   -1    0    0    0    0 -0.00000000000E+00 -0.00000000000E+00 -0.45593999997E+02  0.45594000000E+02  0.51100000000E-03 0. -1.
    9900012    2    1    2    0    0 -0.59704973571E+01  0.11888636573E+02  0.13179270112E+02  0.72461556693E+02  0.69999982282E+02 0.  0.
        -12    1    1    2    0    0  0.59704973571E+01 -0.11888636573E+02 -0.13179270112E+02  0.18726443307E+02  0.00000000000E+00 0.  1.
         11    1    3    3    0    0 -0.27627856900E+02 -0.13167246382E+02 -0.51414515976E+01  0.31034003593E+02  0.51100000000E-03 0. -1.
        -11    1    3    3    0    0 -0.12384147243E+00  0.77493941970E+01  0.94629187332E+01  0.12231732434E+02  0.51100000000E-03 0.  1.
        -12    1    3    3    0    0  0.21781201016E+02  0.17306488757E+02  0.88578029764E+01  0.29195820666E+02  0.00000000000E+00 0.  1.
</event>
<event>
 7    1  0.2641045E-013  0.7246156E+02  0.7816164E-02  0.1226708E+00
        -11   -1    0    0    0    0  0.00000000000E+00  0.00000000000E+00  0.45593999997E+02  0.45594000000E+02  0.51100000000E-03 0. -1.
         11   -1    0    0    0    0 -0.00000000000E+00 -0.00000000000E+00 -0.45593999997E+02  0.45594000000E+02  0.51100000000E-03 0.  1.
    9900012    2    1    2    0    0 -0.75165863812E+01  0.13748586085E+02  0.10254598424E+02  0.72461562031E+02  0.69999989236E+02 0.  0.
        -12    1    1    2    0    0  0.75165863812E+01 -0.13748586085E+02 -0.10254598424E+02  0.18726437969E+02  0.00000000000E+00 0.  1.
         11    1    3    3    0    0  0.14516640105E+01 -0.31255510595E+01  0.13728827733E+02  0.14154755703E+02  0.51100000000E-03 0. -1.
        -11    1    3    3    0    0  0.78928665155E+01  0.70602922519E+01  0.23058284740E+02  0.25373796798E+02  0.51100000000E-03 0.  1.
        -12    1    3    3    0    0 -0.16861116907E+02  0.98138448928E+01 -0.26532514049E+02  0.32933009530E+02  0.00000000000E+00 0.  1.
</event>
<event>
 7    1  0.2641045E-013  0.7246158E+02  0.7816164E-02  0.1226708E+00
        -11   -1    0    0    0    0  0.00000000000E+00  0.00000000000E+00  0.45593999997E+02  0.45594000000E+02  0.51100000000E-03 0.  1.
         11   -1    0    0    0    0 -0.00000000000E+00 -0.00000000000E+00 -0.45593999997E+02  0.45594000000E+02  0.51100000000E-03 0. -1.
    9900012    2    1    2    0    0  0.45269111965E+01 -0.17945672990E+02  0.28528279190E+01  0.72461581998E+02  0.70000015246E+02 0.  0.
        -12    1    1    2    0    0 -0.45269111965E+01  0.17945672990E+02 -0.28528279190E+01  0.18726418002E+02  0.00000000000E+00 0.  1.
         11    1    3    3    0    0  0.12366690183E+02 -0.92486746640E+01  0.13779950657E+02  0.20696860861E+02  0.51100000000E-03 0. -1.
        -11    1    3    3    0    0 -0.74177248620E+01 -0.27694086181E+02  0.20672341617E+01  0.28744712712E+02  0.51100000000E-03 0.  1.
         12    1    3    3    0    0 -0.42205412470E+00  0.18997087855E+02 -0.12994356900E+02  0.23020008425E+02  0.00000000000E+00 0. -1.
</event>
<event>
 7    1  0.2641045E-013  0.7246156E+02  0.7816164E-02  0.1226708E+00
        -11   -1    0    0    0    0  0.00000000000E+00  0.00000000000E+00  0.45593999997E+02  0.45594000000E+02  0.51100000000E-03 0.  1.
         11   -1    0    0    0    0 -0.00000000000E+00 -0.00000000000E+00 -0.45593999997E+02  0.45594000000E+02  0.51100000000E-03 0. -1.
    9900012    2    1    2    0    0  0.12792542068E+02  0.68289970710E+01 -0.11848846378E+02  0.72461561630E+02  0.69999988713E+02 0.  0.
        -12    1    1    2    0    0 -0.12792542068E+02 -0.68289970710E+01  0.11848846378E+02  0.18726438370E+02  0.00000000000E+00 0.  1.
         11    1    3    3    0    0 -0.90893239170E+01  0.12816456669E+02 -0.18231979728E+02  0.24068287348E+02  0.51100000000E-03 0. -1.
        -11    1    3    3    0    0 -0.10160318234E+02 -0.24289779468E+01  0.11736852362E+02  0.15712596988E+02  0.51100000000E-03 0.  1.
        -12    1    3    3    0    0  0.32042184218E+02 -0.35584816516E+01 -0.53537190115E+01  0.32680677294E+02  0.00000000000E+00 0.  1.
</event>
<event>
 7    1  0.2641045E-013  0.7246153E+02  0.7816164E-02  0.1226708E+00
        -11   -1    0    0    0    0  0.00000000000E+00  0.00000000000E+00  0.45593999997E+02  0.45594000000E+02  0.51100000000E-03 0.  1.
         11   -1    0    0    0    0 -0.00000000000E+00 -0.00000000000E+00 -0.45593999997E+02  0.45594000000E+02  0.51100000000E-03 0. -1.
    9900012    2    1    2    0    0  0.26464499352E+01 -0.62008382781E+01 -0.17470734291E+02  0.72461530785E+02  0.69999948532E+02 0.  0.
        -12    1    1    2    0    0 -0.26464499352E+01  0.62008382781E+01  0.17470734291E+02  0.18726469215E+02  0.00000000000E+00 0.  1.
         11    1    3    3    0    0 -0.56721282110E+01 -0.61135485267E+01 -0.42924273442E+01  0.93794161224E+01  0.51100000000E-03 0. -1.
        -11    1    3    3    0    0 -0.14874566231E+02  0.23786979072E+02 -0.26895350027E+01  0.28183447140E+02  0.51100000000E-03 0.  1.
         12    1    3    3    0    0  0.23193144377E+02 -0.23874268823E+02 -0.10488771944E+02  0.34898667522E+02  0.00000000000E+00 0. -1.
</event>
<event>
 7    1  0.2641045E-013  0.7246183E+02  0.7816164E-02  0.1226707E+00
        -11   -1    0    0    0    0  0.00000000000E+00  0.00000000000E+00  0.45593999997E+02  0.45594000000E+02  0.51100000000E-03 0. -1.
         11   -1    0    0    0    0 -0.00000000000E+00 -0.00000000000E+00 -0.45593999997E+02  0.45594000000E+02  0.51100000000E-03 0.  1.
    9900012    2    1    2    0    0  0.13459912683E+02  0.43295615038E+01 -0.12278232053E+02  0.72461832891E+02  0.70000342080E+02 0.  0.
        -12    1    1    2    0    0 -0.13459912683E+02 -0.43295615038E+01  0.12278232053E+02  0.18726167109E+02  0.00000000000E+00 0.  1.
         11    1    3    3    0    0  0.21542412291E+01 -0.19052304372E+02 -0.61747852732E+01  0.20143461237E+02  0.51100000000E-03 0. -1.
        -11    1    3    3    0    0 -0.31969962723E+01  0.14687909631E+02 -0.23603737078E+02  0.27983778851E+02  0.51100000000E-03 0.  1.
         12    1    3    3    0    0  0.14502667726E+02  0.86939562447E+01  0.17500290298E+02  0.24334592803E+02  0.00000000000E+00 0. -1.
</event>
<event>
 7    1  0.2641045E-013  0.7246155E+02  0.7816164E-02  0.1226708E+00
        -11   -1    0    0    0    0  0.00000000000E+00  0.00000000000E+00  0.45593999997E+02  0.45594000000E+02  0.51100000000E-03 0. -1.
         11   -1    0    0    0    0 -0.00000000000E+00 -0.00000000000E+00 -0.45593999997E+02  0.45594000000E+02  0.51100000000E-03 0.  1.
    9900012    2    1    2    0    0 -0.11639894585E+02  0.10534229123E+02  0.10208948904E+02  0.72461554344E+02  0.69999979222E+02 0.  0.
        -12    1    1    2    0    0  0.11639894585E+02 -0.10534229123E+02 -0.10208948904E+02  0.18726445656E+02  0.00000000000E+00 0.  1.
         11    1    3    3    0    0  0.12984427691E+02 -0.24189441515E+01  0.44409912297E+01  0.13934455735E+02  0.51100000000E-03 0. -1.
        -11    1    3    3    0    0 -0.17788563102E+02 -0.16814791303E+02 -0.69451128125E+01  0.25444150134E+02  0.51100000000E-03 0.  1.
         12    1    3    3    0    0 -0.68357591743E+01  0.29767964577E+02  0.12713070487E+02  0.33082948475E+02  0.00000000000E+00 0. -1.
</event>
<event>
 7    1  0.2641045E-013  0.7246158E+02  0.7816164E-02  0.1226708E+00
        -11   -1    0    0    0    0  0.00000000000E+00  0.00000000000E+00  0.45593999997E+02  0.45594000000E+02  0.51100000000E-03 0. -1.
         11   -1    0    0    0    0 -0.00000000000E+00 -0.00000000000E+00 -0.45593999997E+02  0.45594000000E+02  0.51100000000E-03 0.  1.
    9900012    2    1    2    0    0 -0.17271777581E+02 -0.69241763972E+01  0.21024835172E+01  0.72461575981E+02  0.70000007408E+02 0.  0.
        -12    1    1    2    0    0  0.17271777581E+02  0.69241763972E+01 -0.21024835172E+01  0.18726424019E+02  0.00000000000E+00 0.  1.
         11    1    3    3    0    0  0.59719581257E+01 -0.30613455779E+01 -0.29244846372E+02  0.30004952261E+02  0.51100000000E-03 0.  1.
        -11    1    3    3    0    0 -0.41113971137E+01 -0.68257585350E+01  0.15535458194E+02  0.17459811779E+02  0.51100000000E-03 0. -1.
        -12    1    3    3    0    0 -0.19132338593E+02  0.29629277157E+01  0.15811871696E+02  0.24996811941E+02  0.00000000000E+00 0.  1.
</event>
<event>
 7    1  0.3094085E-013  0.7246153E+02  0.7816164E-02  0.1226708E+00
        -11   -1    0    0    0    0  0.00000000000E+00  0.00000000000E+00  0.45593999997E+02  0.45594000000E+02  0.51100000000E-03 0. -1.
         11   -1    0    0    0    0 -0.00000000000E+00 -0.00000000000E+00 -0.45593999997E+02  0.45594000000E+02  0.51100000000E-03 0.  1.
    9900012    2    1    2    0    0 -0.11170520641E+02 -0.32905846441E+01  0.14665345318E+02  0.72461525906E+02  0.69999942176E+02 0.  0.
        -12    1    1    2    0    0  0.11170520641E+02  0.32905846441E+01 -0.14665345318E+02  0.18726474094E+02  0.00000000000E+00 0.  1.
         11    1    3    3    0    0  0.29063395879E+01 -0.10965505977E+02  0.33949753345E+02  0.35794900246E+02  0.51100000000E-03 0. -1.
        -11    1    3    3    0    0  0.44384544129E+01  0.58013503446E+01  0.27678517284E+01  0.78113089075E+01  0.51100000000E-03 0.  1.
        -12    1    3    3    0    0 -0.18515314642E+02  0.18735709883E+01 -0.22052259756E+02  0.28855316752E+02  0.00000000000E+00 0.  1.
</event>
<event>
 7    1  0.2641045E-013  0.7246159E+02  0.7816164E-02  0.1226708E+00
        -11   -1    0    0    0    0  0.00000000000E+00  0.00000000000E+00  0.45593999997E+02  0.45594000000E+02  0.51100000000E-03 0. -1.
         11   -1    0    0    0    0 -0.00000000000E+00 -0.00000000000E+00 -0.45593999997E+02  0.45594000000E+02  0.51100000000E-03 0.  1.
    9900012    2    1    2    0    0  0.15367991496E+02  0.73783397709E+01  0.77500671580E+01  0.72461585464E+02  0.70000019762E+02 0.  0.
        -12    1    1    2    0    0 -0.15367991496E+02 -0.73783397709E+01 -0.77500671580E+01  0.18726414536E+02  0.00000000000E+00 0.  1.
         11    1    3    3    0    0 -0.17805879118E+01 -0.58792611127E+01  0.35453650733E+01  0.70926594664E+01  0.51100000000E-03 0. -1.
        -11    1    3    3    0    0  0.23691507429E+02 -0.16318822501E+02  0.15933898228E+02  0.32885872424E+02  0.51100000000E-03 0.  1.
        -12    1    3    3    0    0 -0.65429280210E+01  0.29576423385E+02 -0.11729196143E+02  0.32483053574E+02  0.00000000000E+00 0.  1.
</event>
<event>
 7    1  0.2641045E-013  0.7246153E+02  0.7816164E-02  0.1226708E+00
        -11   -1    0    0    0    0  0.00000000000E+00  0.00000000000E+00  0.45593999997E+02  0.45594000000E+02  0.51100000000E-03 0.  1.
         11   -1    0    0    0    0 -0.00000000000E+00 -0.00000000000E+00 -0.45593999997E+02  0.45594000000E+02  0.51100000000E-03 0. -1.
    9900012    2    1    2    0    0 -0.89913404345E+01  0.16075204078E+02  0.33799695106E+01  0.72461532559E+02  0.69999950842E+02 0.  0.
        -12    1    1    2    0    0  0.89913404345E+01 -0.16075204078E+02 -0.33799695106E+01  0.18726467441E+02  0.00000000000E+00 0.  1.
         11    1    3    3    0    0  0.11419353141E+02  0.31481345734E+01 -0.63161665687E+01  0.13424095419E+02  0.51100000000E-03 0. -1.
        -11    1    3    3    0    0  0.16689344354E+02  0.54074690587E+01 -0.52912072395E+01  0.18324077354E+02  0.51100000000E-03 0.  1.
         12    1    3    3    0    0 -0.37100037929E+02  0.75196004455E+01  0.14987343319E+02  0.40713359785E+02  0.00000000000E+00 0. -1.
</event>
<event>
 7    1  0.2641045E-013  0.7246155E+02  0.7816164E-02  0.1226708E+00
        -11   -1    0    0    0    0  0.00000000000E+00  0.00000000000E+00  0.45593999997E+02  0.45594000000E+02  0.51100000000E-03 0.  1.
         11   -1    0    0    0    0 -0.00000000000E+00 -0.00000000000E+00 -0.45593999997E+02  0.45594000000E+02  0.51100000000E-03 0. -1.
    9900012    2    1    2    0    0  0.53774545440E+01  0.47923526379E+01 -0.17285727486E+02  0.72461547162E+02  0.69999969866E+02 0.  0.
        -12    1    1    2    0    0 -0.53774545440E+01 -0.47923526379E+01  0.17285727486E+02  0.18726452838E+02  0.00000000000E+00 0.  1.
         11    1    3    3    0    0 -0.12426426001E+02  0.60832263495E+01  0.45112063943E+01  0.14552411806E+02  0.51100000000E-03 0. -1.
        -11    1    3    3    0    0 -0.10350715705E+02  0.12926828407E+02  0.41441602248E+01  0.17070860333E+02  0.51100000000E-03 0.  1.
         12    1    3    3    0    0  0.28154596250E+02 -0.14217702119E+02 -0.25941094105E+02  0.40838275023E+02  0.00000000000E+00 0. -1.
</event>
<event>
 7    1  0.2641045E-013  0.7246157E+02  0.7816164E-02  0.1226708E+00
        -11   -1    0    0    0    0  0.00000000000E+00  0.00000000000E+00  0.45593999997E+02  0.45594000000E+02  0.51100000000E-03 0. -1.
         11   -1    0    0    0    0 -0.00000000000E+00 -0.00000000000E+00 -0.45593999997E+02  0.45594000000E+02  0.51100000000E-03 0.  1.
    9900012    2    1    2    0    0 -0.35811220994E+01  0.18369657181E+02 -0.64059040126E+00  0.72461572244E+02  0.70000002540E+02 0.  0.
        -12    1    1    2    0    0  0.35811220994E+01 -0.18369657181E+02  0.64059040126E+00  0.18726427756E+02  0.00000000000E+00 0.  1.
         11    1    3    3    0    0 -0.91598135623E+01  0.21551304372E+02 -0.49102113330E+01  0.23926367887E+02  0.51100000000E-03 0. -1.
        -11    1    3    3    0    0 -0.13271263200E+02  0.14589352608E+02 -0.60797271333E+01  0.20638282843E+02  0.51100000000E-03 0.  1.
         12    1    3    3    0    0  0.18849954662E+02 -0.17770999799E+02  0.10349348065E+02  0.27896921515E+02  0.00000000000E+00 0. -1.
</event>
<event>
 7    1  0.2641045E-013  0.7246158E+02  0.7816164E-02  0.1226708E+00
        -11   -1    0    0    0    0  0.00000000000E+00  0.00000000000E+00  0.45593999997E+02  0.45594000000E+02  0.51100000000E-03 0. -1.
         11   -1    0    0    0    0 -0.00000000000E+00 -0.00000000000E+00 -0.45593999997E+02  0.45594000000E+02  0.51100000000E-03 0.  1.
    9900012    2    1    2    0    0  0.11213509025E+02 -0.11520194576E+02  0.96031883637E+01  0.72461577638E+02  0.70000009567E+02 0.  0.
        -12    1    1    2    0    0 -0.11213509025E+02  0.11520194576E+02 -0.96031883637E+01  0.18726422362E+02  0.00000000000E+00 0.  1.
         11    1    3    3    0    0  0.28540363247E+02 -0.13432112867E+02  0.73477751678E+00  0.31551765222E+02  0.51100000000E-03 0. -1.
        -11    1    3    3    0    0  0.63620409743E+01 -0.68884066396E+01  0.12235936210E+02  0.15415701301E+02  0.51100000000E-03 0.  1.
        -12    1    3    3    0    0 -0.23688895196E+02  0.88003249305E+01 -0.33675253634E+01  0.25494111116E+02  0.00000000000E+00 0.  1.
</event>
<event>
 7    1  0.2641045E-013  0.7246157E+02  0.7816164E-02  0.1226708E+00
        -11   -1    0    0    0    0  0.00000000000E+00  0.00000000000E+00  0.45593999997E+02  0.45594000000E+02  0.51100000000E-03 0. -1.
         11   -1    0    0    0    0 -0.00000000000E+00 -0.00000000000E+00 -0.45593999997E+02  0.45594000000E+02  0.51100000000E-03 0.  1.
    9900012    2    1    2    0    0 -0.33066715759E+00 -0.11729502021E+02  0.14594133839E+02  0.72461566785E+02  0.69999995429E+02 0.  0.
        -12    1    1    2    0    0  0.33066715759E+00  0.11729502021E+02 -0.14594133839E+02  0.18726433215E+02  0.00000000000E+00 0.  1.
         11    1    3    3    0    0  0.44222168496E+00 -0.17337218838E+02  0.33793823322E+01  0.17669039088E+02  0.51100000000E-03 0. -1.
        -11    1    3    3    0    0 -0.90700942295E+01  0.77685548414E+01 -0.19520502002E+02  0.22883772685E+02  0.51100000000E-03 0.  1.
         12    1    3    3    0    0  0.82972053870E+01 -0.21608380245E+01  0.30735253508E+02  0.31908755012E+02  0.00000000000E+00 0. -1.
</event>
<event>
 7    1  0.2641045E-013  0.7246162E+02  0.7816164E-02  0.1226708E+00
        -11   -1    0    0    0    0  0.00000000000E+00  0.00000000000E+00  0.45593999997E+02  0.45594000000E+02  0.51100000000E-03 0.  1.
         11   -1    0    0    0    0 -0.00000000000E+00 -0.00000000000E+00 -0.45593999997E+02  0.45594000000E+02  0.51100000000E-03 0. -1.
    9900012    2    1    2    0    0  0.11067150603E+02 -0.93165777211E+01 -0.11891042909E+02  0.72461619026E+02  0.70000063483E+02 0.  0.
        -12    1    1    2    0    0 -0.11067150603E+02  0.93165777211E+01  0.11891042909E+02  0.18726380974E+02  0.00000000000E+00 0.  1.
         11    1    3    3    0    0 -0.43620956204E+01  0.15459693521E+02 -0.98204606953E+01  0.18827412209E+02  0.51100000000E-03 0. -1.
        -11    1    3    3    0    0  0.25572704577E+02  0.83803403120E+00 -0.44943495658E+01  0.25978158108E+02  0.51100000000E-03 0.  1.
         12    1    3    3    0    0 -0.10143458354E+02 -0.25614305273E+02  0.24237673519E+01  0.27656048709E+02  0.00000000000E+00 0. -1.
</event>
<event>
 7    1  0.2641045E-013  0.7246151E+02  0.7816164E-02  0.1226708E+00
        -11   -1    0    0    0    0  0.00000000000E+00  0.00000000000E+00  0.45593999997E+02  0.45594000000E+02  0.51100000000E-03 0.  1.
         11   -1    0    0    0    0 -0.00000000000E+00 -0.00000000000E+00 -0.45593999997E+02  0.45594000000E+02  0.51100000000E-03 0. -1.
    9900012    2    1    2    0    0 -0.96183714877E+01  0.39493660599E+01 -0.15574689193E+02  0.72461507915E+02  0.69999918740E+02 0.  0.
        -12    1    1    2    0    0  0.96183714877E+01 -0.39493660599E+01  0.15574689193E+02  0.18726492085E+02  0.00000000000E+00 0.  1.
         11    1    3    3    0    0 -0.30559181315E+02 -0.14782575949E+02 -0.14472950971E+02  0.36903311835E+02  0.51100000000E-03 0. -1.
        -11    1    3    3    0    0  0.31132206174E+01 -0.12818442153E+01 -0.73082394976E+01  0.80464670521E+01  0.51100000000E-03 0.  1.
        -12    1    3    3    0    0  0.17827589210E+02  0.20013786224E+02  0.62065012756E+01  0.27511729029E+02  0.00000000000E+00 0.  1.
</event>
<event>
 7    1  0.2641045E-013  0.7246211E+02  0.7816164E-02  0.1226707E+00
        -11   -1    0    0    0    0  0.00000000000E+00  0.00000000000E+00  0.45593999997E+02  0.45594000000E+02  0.51100000000E-03 0.  1.
         11   -1    0    0    0    0 -0.00000000000E+00 -0.00000000000E+00 -0.45593999997E+02  0.45594000000E+02  0.51100000000E-03 0. -1.
    9900012    2    1    2    0    0  0.13250497640E+02 -0.12466349803E+02 -0.44354520611E+01  0.72462114171E+02  0.70000708496E+02 0.  0.
        -12    1    1    2    0    0 -0.13250497640E+02  0.12466349803E+02  0.44354520611E+01  0.18725885829E+02  0.00000000000E+00 0.  1.
         11    1    3    3    0    0 -0.27659211030E+01 -0.29768217213E+02 -0.21661747832E+02  0.36919214442E+02  0.51100000000E-03 0. -1.
        -11    1    3    3    0    0 -0.47277228516E+01  0.25948958027E+01  0.13305406590E+01  0.55547444851E+01  0.51100000000E-03 0.  1.
        -12    1    3    3    0    0  0.20744141594E+02  0.14706971608E+02  0.15895755112E+02  0.29988155244E+02  0.00000000000E+00 0.  1.
</event>
<event>
 7    1  0.2641045E-013  0.7246159E+02  0.7816164E-02  0.1226708E+00
        -11   -1    0    0    0    0  0.00000000000E+00  0.00000000000E+00  0.45593999997E+02  0.45594000000E+02  0.51100000000E-03 0. -1.
         11   -1    0    0    0    0 -0.00000000000E+00 -0.00000000000E+00 -0.45593999997E+02  0.45594000000E+02  0.51100000000E-03 0.  1.
    9900012    2    1    2    0    0 -0.14479034693E+02 -0.11544556688E+02  0.27855296202E+01  0.72461590573E+02  0.70000026416E+02 0.  0.
        -12    1    1    2    0    0  0.14479034693E+02  0.11544556688E+02 -0.27855296202E+01  0.18726409427E+02  0.00000000000E+00 0.  1.
         11    1    3    3    0    0  0.17414698112E+01  0.21224677699E+01  0.52687358414E+00  0.27955648038E+01  0.51100000000E-03 0. -1.
        -11    1    3    3    0    0 -0.29181497831E+01  0.24495580101E+02  0.12949899996E+02  0.27861244639E+02  0.51100000000E-03 0.  1.
         12    1    3    3    0    0 -0.13302354721E+02 -0.38162604560E+02 -0.10691243960E+02  0.41804781130E+02  0.00000000000E+00 0. -1.
</event>
<event>
 7    1  0.2641045E-013  0.7246117E+02  0.7816164E-02  0.1226709E+00
        -11   -1    0    0    0    0  0.00000000000E+00  0.00000000000E+00  0.45593999997E+02  0.45594000000E+02  0.51100000000E-03 0.  1.
         11   -1    0    0    0    0 -0.00000000000E+00 -0.00000000000E+00 -0.45593999997E+02  0.45594000000E+02  0.51100000000E-03 0. -1.
    9900012    2    1    2    0    0 -0.95662815432E+01 -0.14775723797E+02 -0.63920435805E+01  0.72461174924E+02  0.69999484955E+02 0.  0.
        -12    1    1    2    0    0  0.95662815432E+01  0.14775723797E+02  0.63920435805E+01  0.18726825076E+02  0.00000000000E+00 0.  1.
         11    1    3    3    0    0 -0.52827096505E+01  0.81731915556E+01 -0.10218750810E+02  0.14111376610E+02  0.51100000000E-03 0. -1.
        -11    1    3    3    0    0 -0.34094709462E+01  0.15624329294E+02 -0.81520380679E+01  0.17949927101E+02  0.51100000000E-03 0.  1.
        -12    1    3    3    0    0 -0.87410094655E+00 -0.38573244647E+02  0.11978745297E+02  0.40399871212E+02  0.00000000000E+00 0.  1.
</event>
<event>
 7    1  0.2641045E-013  0.7246171E+02  0.7816164E-02  0.1226708E+00
        -11   -1    0    0    0    0  0.00000000000E+00  0.00000000000E+00  0.45593999997E+02  0.45594000000E+02  0.51100000000E-03 0. -1.
         11   -1    0    0    0    0 -0.00000000000E+00 -0.00000000000E+00 -0.45593999997E+02  0.45594000000E+02  0.51100000000E-03 0.  1.
    9900012    2    1    2    0    0 -0.33819780694E+01  0.15643776530E+02  0.97215446582E+01  0.72461709648E+02  0.70000181534E+02 0.  0.
        -12    1    1    2    0    0  0.33819780694E+01 -0.15643776530E+02 -0.97215446582E+01  0.18726290352E+02  0.00000000000E+00 0.  1.
         11    1    3    3    0    0  0.75106581430E+01  0.20597475857E+02  0.10325939774E+02  0.24234088179E+02  0.51100000000E-03 0. -1.
        -11    1    3    3    0    0  0.13872478782E+02 -0.88590418672E+01 -0.12314400496E+02  0.20556574379E+02  0.51100000000E-03 0.  1.
         12    1    3    3    0    0 -0.24765114995E+02  0.39053425407E+01  0.11710005380E+02  0.27671047090E+02  0.00000000000E+00 0. -1.
</event>
<event>
 7    1  0.2641045E-013  0.7246156E+02  0.7816164E-02  0.1226708E+00
        -11   -1    0    0    0    0  0.00000000000E+00  0.00000000000E+00  0.45593999997E+02  0.45594000000E+02  0.51100000000E-03 0.  1.
         11   -1    0    0    0    0 -0.00000000000E+00 -0.00000000000E+00 -0.45593999997E+02  0.45594000000E+02  0.51100000000E-03 0. -1.
    9900012    2    1    2    0    0  0.64744148207E-01 -0.35950850367E+00 -0.18722874087E+02  0.72461562745E+02  0.69999990166E+02 0.  0.
        -12    1    1    2    0    0 -0.64744148207E-01  0.35950850367E+00  0.18722874087E+02  0.18726437255E+02  0.00000000000E+00 0.  1.
         11    1    3    3    0    0 -0.57025978041E+01  0.33797208239E+01 -0.33618617721E+01  0.74326475363E+01  0.51100000000E-03 0. -1.
        -11    1    3    3    0    0 -0.25300689291E+02  0.13951534381E+01 -0.21157076427E+02  0.33010501586E+02  0.51100000000E-03 0.  1.
         12    1    3    3    0    0  0.31068031244E+02 -0.51343827657E+01  0.57960641118E+01  0.32018413623E+02  0.00000000000E+00 0. -1.
</event>
<event>
 7    1  0.2641045E-013  0.7246157E+02  0.7816164E-02  0.1226708E+00
        -11   -1    0    0    0    0  0.00000000000E+00  0.00000000000E+00  0.45593999997E+02  0.45594000000E+02  0.51100000000E-03 0. -1.
         11   -1    0    0    0    0 -0.00000000000E+00 -0.00000000000E+00 -0.45593999997E+02  0.45594000000E+02  0.51100000000E-03 0.  1.
    9900012    2    1    2    0    0  0.63609702481E+01 -0.14425212882E+02  0.10105960098E+02  0.72461571117E+02  0.70000001072E+02 0.  0.
        -12    1    1    2    0    0 -0.63609702481E+01  0.14425212882E+02 -0.10105960098E+02  0.18726428883E+02  0.00000000000E+00 0.  1.
         11    1    3    3    0    0 -0.71670745978E+01 -0.96640221941E+01 -0.74284401142E+01  0.14140085079E+02  0.51100000000E-03 0. -1.
        -11    1    3    3    0    0 -0.20564002277E+02 -0.49060904864E+01  0.33890619825E+01  0.21411063843E+02  0.51100000000E-03 0.  1.
        -12    1    3    3    0    0  0.34092047123E+02  0.14489979844E+00  0.14145338230E+02  0.36910422195E+02  0.00000000000E+00 0.  1.
</event>
<event>
 7    1  0.2641045E-013  0.7246165E+02  0.7816164E-02  0.1226708E+00
        -11   -1    0    0    0    0  0.00000000000E+00  0.00000000000E+00  0.45593999997E+02  0.45594000000E+02  0.51100000000E-03 0.  1.
         11   -1    0    0    0    0 -0.00000000000E+00 -0.00000000000E+00 -0.45593999997E+02  0.45594000000E+02  0.51100000000E-03 0. -1.
    9900012    2    1    2    0    0 -0.14039943213E+02 -0.19763597174E+01 -0.12233164071E+02  0.72461646742E+02  0.70000099587E+02 0.  0.
        -12    1    1    2    0    0  0.14039943213E+02  0.19763597174E+01  0.12233164071E+02  0.18726353258E+02  0.00000000000E+00 0.  1.
         11    1    3    3    0    0 -0.10339272334E+02 -0.49428838199E+01  0.31534320329E+01  0.11885991196E+02  0.51100000000E-03 0. -1.
        -11    1    3    3    0    0 -0.25323338731E+02 -0.15876910492E+02 -0.86177371261E+01  0.31106481072E+02  0.51100000000E-03 0.  1.
        -12    1    3    3    0    0  0.21622667852E+02  0.18843434594E+02 -0.67688589778E+01  0.29469174474E+02  0.00000000000E+00 0.  1.
</event>
<event>
 7    1  0.2641045E-013  0.7246153E+02  0.7816164E-02  0.1226708E+00
        -11   -1    0    0    0    0  0.00000000000E+00  0.00000000000E+00  0.45593999997E+02  0.45594000000E+02  0.51100000000E-03 0.  1.
         11   -1    0    0    0    0 -0.00000000000E+00 -0.00000000000E+00 -0.45593999997E+02  0.45594000000E+02  0.51100000000E-03 0. -1.
    9900012    2    1    2    0    0 -0.12189663412E+02  0.13893548479E+02  0.30103074625E+01  0.72461533850E+02  0.69999952525E+02 0.  0.
        -12    1    1    2    0    0  0.12189663412E+02 -0.13893548479E+02 -0.30103074625E+01  0.18726466150E+02  0.00000000000E+00 0.  1.
         11    1    3    3    0    0 -0.15648064167E+02  0.46354270995E+01  0.13210399448E+02  0.20996755711E+02  0.51100000000E-03 0. -1.
        -11    1    3    3    0    0 -0.16002704739E+01 -0.30332774258E+01  0.19039494832E+02  0.19345903992E+02  0.51100000000E-03 0.  1.
         12    1    3    3    0    0  0.50586712284E+01  0.12291398806E+02 -0.29239586818E+02  0.32118874147E+02  0.00000000000E+00 0. -1.
</event>
<event>
 7    1  0.2641045E-013  0.7246175E+02  0.7816164E-02  0.1226708E+00
        -11   -1    0    0    0    0  0.00000000000E+00  0.00000000000E+00  0.45593999997E+02  0.45594000000E+02  0.51100000000E-03 0.  1.
         11   -1    0    0    0    0 -0.00000000000E+00 -0.00000000000E+00 -0.45593999997E+02  0.45594000000E+02  0.51100000000E-03 0. -1.
    9900012    2    1    2    0    0  0.83196135807E+00 -0.10955957061E+02 -0.15164014666E+02  0.72461748490E+02  0.70000232133E+02 0.  0.
        -12    1    1    2    0    0 -0.83196135807E+00  0.10955957061E+02  0.15164014666E+02  0.18726251510E+02  0.00000000000E+00 0.  1.
         11    1    3    3    0    0  0.63408837104E+01  0.95781892814E+01 -0.49881494502E+00  0.11497709892E+02  0.51100000000E-03 0. -1.
        -11    1    3    3    0    0  0.24632521590E+02 -0.13822471417E+02 -0.82386964314E+01  0.29422745540E+02  0.51100000000E-03 0.  1.
         12    1    3    3    0    0 -0.30141443943E+02 -0.67116749260E+01 -0.64265032894E+01  0.31541293058E+02  0.00000000000E+00 0. -1.
</event>
<event>
 7    1  0.2641045E-013  0.7246184E+02  0.7816164E-02  0.1226707E+00
        -11   -1    0    0    0    0  0.00000000000E+00  0.00000000000E+00  0.45593999997E+02  0.45594000000E+02  0.51100000000E-03 0.  1.
         11   -1    0    0    0    0 -0.00000000000E+00 -0.00000000000E+00 -0.45593999997E+02  0.45594000000E+02  0.51100000000E-03 0. -1.
    9900012    2    1    2    0    0  0.17742211139E+02  0.88975454128E+00  0.59237886284E+01  0.72461842066E+02  0.70000354032E+02 0.  0.
        -12    1    1    2    0    0 -0.17742211139E+02 -0.88975454128E+00 -0.59237886284E+01  0.18726157934E+02  0.00000000000E+00 0.  1.
         11    1    3    3    0    0  0.31604512453E+01  0.10366083729E+02  0.20033270173E+00  0.10839016440E+02  0.51100000000E-03 0. -1.
        -11    1    3    3    0    0  0.49362688681E+01  0.23787194657E+02  0.10858901020E+02  0.26610394804E+02  0.51100000000E-03 0.  1.
         12    1    3    3    0    0  0.96454910260E+01 -0.33263523845E+02 -0.51354450938E+01  0.35012430821E+02  0.00000000000E+00 0. -1.
</event>
<event>
 7    1  0.2641045E-013  0.7246157E+02  0.7816164E-02  0.1226708E+00
        -11   -1    0    0    0    0  0.00000000000E+00  0.00000000000E+00  0.45593999997E+02  0.45594000000E+02  0.51100000000E-03 0.  1.
         11   -1    0    0    0    0 -0.00000000000E+00 -0.00000000000E+00 -0.45593999997E+02  0.45594000000E+02  0.51100000000E-03 0. -1.
    9900012    2    1    2    0    0  0.25975012375E+01 -0.18348378233E+02 -0.26961711836E+01  0.72461565862E+02  0.69999994226E+02 0.  0.
        -12    1    1    2    0    0 -0.25975012375E+01  0.18348378233E+02  0.26961711836E+01  0.18726434138E+02  0.00000000000E+00 0.  1.
         11    1    3    3    0    0  0.79761185594E+01 -0.18554207558E+01 -0.16878947321E+02  0.18760594777E+02  0.51100000000E-03 0. -1.
        -11    1    3    3    0    0  0.75459633127E+01  0.74171341823E+01 -0.11974222480E+02  0.15979281775E+02  0.51100000000E-03 0.  1.
        -12    1    3    3    0    0 -0.12924580635E+02 -0.23910091660E+02  0.26156998617E+02  0.37721689310E+02  0.00000000000E+00 0.  1.
</event>
<event>
 7    1  0.2641045E-013  0.7246158E+02  0.7816164E-02  0.1226708E+00
        -11   -1    0    0    0    0  0.00000000000E+00  0.00000000000E+00  0.45593999997E+02  0.45594000000E+02  0.51100000000E-03 0.  1.
         11   -1    0    0    0    0 -0.00000000000E+00 -0.00000000000E+00 -0.45593999997E+02  0.45594000000E+02  0.51100000000E-03 0. -1.
    9900012    2    1    2    0    0  0.78740436879E+01  0.31362108048E+01 -0.16698580836E+02  0.72461575244E+02  0.70000006448E+02 0.  0.
        -12    1    1    2    0    0 -0.78740436879E+01 -0.31362108048E+01  0.16698580836E+02  0.18726424756E+02  0.00000000000E+00 0.  1.
         11    1    3    3    0    0  0.27504540430E+02  0.54727520559E+01  0.31609837165E+01  0.28221314244E+02  0.51100000000E-03 0. -1.
        -11    1    3    3    0    0  0.41640418130E+01 -0.82455394917E+01  0.39664505429E+01  0.10052904849E+02  0.51100000000E-03 0.  1.
        -12    1    3    3    0    0 -0.23794538555E+02  0.59089982406E+01 -0.23826015096E+02  0.34187356151E+02  0.00000000000E+00 0.  1.
</event>
<event>
 7    1  0.2641045E-013  0.7246154E+02  0.7816164E-02  0.1226708E+00
        -11   -1    0    0    0    0  0.00000000000E+00  0.00000000000E+00  0.45593999997E+02  0.45594000000E+02  0.51100000000E-03 0. -1.
         11   -1    0    0    0    0 -0.00000000000E+00 -0.00000000000E+00 -0.45593999997E+02  0.45594000000E+02  0.51100000000E-03 0.  1.
    9900012    2    1    2    0    0 -0.60222502397E+01  0.11597512199E+02 -0.13413072862E+02  0.72461539823E+02  0.69999960306E+02 0.  0.
        -12    1    1    2    0    0  0.60222502397E+01 -0.11597512199E+02  0.13413072862E+02  0.18726460177E+02  0.00000000000E+00 0.  1.
         11    1    3    3    0    0  0.82555001854E+01  0.99175793669E+01  0.15162364216E+02  0.19910021414E+02  0.51100000000E-03 0. -1.
        -11    1    3    3    0    0  0.26351543473E+01 -0.69063493218E+01  0.82812652880E+01  0.11100497936E+02  0.51100000000E-03 0.  1.
         12    1    3    3    0    0 -0.16912904772E+02  0.85862821541E+01 -0.36856702366E+02  0.41451020474E+02  0.00000000000E+00 0. -1.
</event>
<event>
 7    1  0.2641045E-013  0.7246155E+02  0.7816164E-02  0.1226708E+00
        -11   -1    0    0    0    0  0.00000000000E+00  0.00000000000E+00  0.45593999997E+02  0.45594000000E+02  0.51100000000E-03 0.  1.
         11   -1    0    0    0    0 -0.00000000000E+00 -0.00000000000E+00 -0.45593999997E+02  0.45594000000E+02  0.51100000000E-03 0. -1.
    9900012    2    1    2    0    0 -0.11285527781E+02  0.14389800713E+02  0.40311877555E+01  0.72461548746E+02  0.69999971929E+02 0.  0.
        -12    1    1    2    0    0  0.11285527781E+02 -0.14389800713E+02 -0.40311877555E+01  0.18726451254E+02  0.00000000000E+00 0.  1.
         11    1    3    3    0    0 -0.22460536281E+02  0.30099231631E+02 -0.75205582482E+01  0.38301412917E+02  0.51100000000E-03 0. -1.
        -11    1    3    3    0    0 -0.35801024077E+01  0.50490033491E+01 -0.12484120301E-01  0.61894849692E+01  0.51100000000E-03 0.  1.
        -12    1    3    3    0    0  0.14755110908E+02 -0.20758434267E+02  0.11564230124E+02  0.27970650860E+02  0.00000000000E+00 0.  1.
</event>
<event>
 7    1  0.2641045E-013  0.7246165E+02  0.7816164E-02  0.1226708E+00
        -11   -1    0    0    0    0  0.00000000000E+00  0.00000000000E+00  0.45593999997E+02  0.45594000000E+02  0.51100000000E-03 0. -1.
         11   -1    0    0    0    0 -0.00000000000E+00 -0.00000000000E+00 -0.45593999997E+02  0.45594000000E+02  0.51100000000E-03 0.  1.
    9900012    2    1    2    0    0 -0.16712568018E+02  0.76291898932E+01  0.36278904134E+01  0.72461653399E+02  0.70000108259E+02 0.  0.
        -12    1    1    2    0    0  0.16712568018E+02 -0.76291898932E+01 -0.36278904134E+01  0.18726346601E+02  0.00000000000E+00 0.  1.
         11    1    3    3    0    0 -0.46332878139E+01 -0.97434204801E+01  0.17381742971E+02  0.20457922367E+02  0.51100000000E-03 0. -1.
        -11    1    3    3    0    0  0.11333395619E+02 -0.92926947751E+01 -0.45125778517E+01  0.15335038036E+02  0.51100000000E-03 0.  1.
         12    1    3    3    0    0 -0.23412675823E+02  0.26665305148E+02 -0.92412747055E+01  0.36668692996E+02  0.00000000000E+00 0. -1.
</event>
<event>
 7    1  0.2641045E-013  0.7246144E+02  0.7816164E-02  0.1226708E+00
        -11   -1    0    0    0    0  0.00000000000E+00  0.00000000000E+00  0.45593999997E+02  0.45594000000E+02  0.51100000000E-03 0. -1.
         11   -1    0    0    0    0 -0.00000000000E+00 -0.00000000000E+00 -0.45593999997E+02  0.45594000000E+02  0.51100000000E-03 0.  1.
    9900012    2    1    2    0    0  0.13666426131E+02  0.63807705691E+01  0.11099488767E+02  0.72461438994E+02  0.69999828956E+02 0.  0.
        -12    1    1    2    0    0 -0.13666426131E+02 -0.63807705691E+01 -0.11099488767E+02  0.18726561006E+02  0.00000000000E+00 0.  1.
         11    1    3    3    0    0  0.10942905487E+02  0.23441077377E+02  0.20966654191E+02  0.33299127275E+02  0.51100000000E-03 0. -1.
        -11    1    3    3    0    0  0.61287104857E+00  0.66678378680E+01  0.72191525661E+01  0.98464123817E+01  0.51100000000E-03 0.  1.
        -12    1    3    3    0    0  0.21106495955E+01 -0.23728144676E+02 -0.17086317990E+02  0.29315899337E+02  0.00000000000E+00 0.  1.
</event>
<event>
 7    1  0.2641045E-013  0.7246163E+02  0.7816164E-02  0.1226708E+00
        -11   -1    0    0    0    0  0.00000000000E+00  0.00000000000E+00  0.45593999997E+02  0.45594000000E+02  0.51100000000E-03 0. -1.
         11   -1    0    0    0    0 -0.00000000000E+00 -0.00000000000E+00 -0.45593999997E+02  0.45594000000E+02  0.51100000000E-03 0.  1.
    9900012    2    1    2    0    0  0.78559758044E+01  0.22861751811E+00  0.16997305177E+02  0.72461628086E+02  0.70000075284E+02 0.  0.
        -12    1    1    2    0    0 -0.78559758044E+01 -0.22861751811E+00 -0.16997305177E+02  0.18726371914E+02  0.00000000000E+00 0.  1.
         11    1    3    3    0    0  0.27606520987E+02 -0.16989793841E+01  0.47528541467E+01  0.28064143578E+02  0.51100000000E-03 0. -1.
        -11    1    3    3    0    0  0.55193593331E+01 -0.36987640234E+00 -0.94918940334E+01  0.10986181712E+02  0.51100000000E-03 0.  1.
         12    1    3    3    0    0 -0.25269904516E+02  0.22974733045E+01  0.21736345063E+02  0.33411302796E+02  0.00000000000E+00 0. -1.
</event>
<event>
 7    1  0.2641045E-013  0.7246158E+02  0.7816164E-02  0.1226708E+00
        -11   -1    0    0    0    0  0.00000000000E+00  0.00000000000E+00  0.45593999997E+02  0.45594000000E+02  0.51100000000E-03 0.  1.
         11   -1    0    0    0    0 -0.00000000000E+00 -0.00000000000E+00 -0.45593999997E+02  0.45594000000E+02  0.51100000000E-03 0. -1.
    9900012    2    1    2    0    0 -0.69632483118E+01 -0.17201999153E+02 -0.25066263771E+01  0.72461580755E+02  0.70000013628E+02 0.  0.
        -12    1    1    2    0    0  0.69632483118E+01  0.17201999153E+02  0.25066263771E+01  0.18726419245E+02  0.00000000000E+00 0.  1.
         11    1    3    3    0    0  0.11957863799E+01  0.58205779892E+01  0.49709493668E+01  0.77472169883E+01  0.51100000000E-03 0. -1.
        -11    1    3    3    0    0  0.17025401700E+02  0.93128494240E+01  0.78812128565E+01  0.20945333222E+02  0.51100000000E-03 0.  1.
         12    1    3    3    0    0 -0.25184436391E+02 -0.32335426567E+02 -0.15358788600E+02  0.43769030545E+02  0.00000000000E+00 0. -1.
</event>
<event>
 7    1  0.2641045E-013  0.7246130E+02  0.7816164E-02  0.1226709E+00
        -11   -1    0    0    0    0  0.00000000000E+00  0.00000000000E+00  0.45593999997E+02  0.45594000000E+02  0.51100000000E-03 0.  1.
         11   -1    0    0    0    0 -0.00000000000E+00 -0.00000000000E+00 -0.45593999997E+02  0.45594000000E+02  0.51100000000E-03 0. -1.
    9900012    2    1    2    0    0  0.17017787566E+02 -0.73586977483E+01  0.26332094002E+01  0.72461299331E+02  0.69999647019E+02 0.  0.
        -12    1    1    2    0    0 -0.17017787566E+02  0.73586977483E+01 -0.26332094002E+01  0.18726700669E+02  0.00000000000E+00 0.  1.
         11    1    3    3    0    0  0.17002943064E+01 -0.45505447842E+01  0.94935294751E+01  0.10664218711E+02  0.51100000000E-03 0. -1.
        -11    1    3    3    0    0 -0.18985064728E+02 -0.13799744708E+02 -0.10262723706E+02  0.25616188922E+02  0.51100000000E-03 0.  1.
         12    1    3    3    0    0  0.34302557988E+02  0.10991591744E+02  0.34024036314E+01  0.36180891698E+02  0.00000000000E+00 0. -1.
</event>
<event>
 7    1  0.2641045E-013  0.7246151E+02  0.7816164E-02  0.1226708E+00
        -11   -1    0    0    0    0  0.00000000000E+00  0.00000000000E+00  0.45593999997E+02  0.45594000000E+02  0.51100000000E-03 0. -1.
         11   -1    0    0    0    0 -0.00000000000E+00 -0.00000000000E+00 -0.45593999997E+02  0.45594000000E+02  0.51100000000E-03 0.  1.
    9900012    2    1    2    0    0 -0.62310052603E+01 -0.21348175933E+00  0.17658150229E+02  0.72461514197E+02  0.69999926923E+02 0.  0.
        -12    1    1    2    0    0  0.62310052603E+01  0.21348175933E+00 -0.17658150229E+02  0.18726485803E+02  0.00000000000E+00 0.  1.
         11    1    3    3    0    0 -0.35910174074E+01  0.12595167187E+02 -0.21066702290E+02  0.24806039348E+02  0.51100000000E-03 0. -1.
        -11    1    3    3    0    0 -0.33488472439E+00  0.68332132779E+01  0.46990171780E+01  0.82997418140E+01  0.51100000000E-03 0.  1.
        -12    1    3    3    0    0 -0.23051031285E+01 -0.19641862224E+02  0.34025835341E+02  0.39355733035E+02  0.00000000000E+00 0.  1.
</event>
<event>
 7    1  0.2641045E-013  0.7246180E+02  0.7816164E-02  0.1226707E+00
        -11   -1    0    0    0    0  0.00000000000E+00  0.00000000000E+00  0.45593999997E+02  0.45594000000E+02  0.51100000000E-03 0.  1.
         11   -1    0    0    0    0 -0.00000000000E+00 -0.00000000000E+00 -0.45593999997E+02  0.45594000000E+02  0.51100000000E-03 0. -1.
    9900012    2    1    2    0    0  0.74716234929E+01 -0.16538319954E+02 -0.46183789428E+01  0.72461798874E+02  0.70000297767E+02 0.  0.
        -12    1    1    2    0    0 -0.74716234929E+01  0.16538319954E+02  0.46183789428E+01  0.18726201126E+02  0.00000000000E+00 0.  1.
         11    1    3    3    0    0  0.12736287181E+02 -0.25848318379E+02 -0.71735140830E+01  0.29695250104E+02  0.51100000000E-03 0.  1.
        -11    1    3    3    0    0  0.12380662399E+02 -0.53684006780E+01 -0.98211850495E+01  0.16690003095E+02  0.51100000000E-03 0. -1.
        -12    1    3    3    0    0 -0.17645326087E+02  0.14678399102E+02  0.12376320190E+02  0.26076545675E+02  0.00000000000E+00 0.  1.
</event>
<event>
 7    1  0.2641045E-013  0.7246158E+02  0.7816164E-02  0.1226708E+00
        -11   -1    0    0    0    0  0.00000000000E+00  0.00000000000E+00  0.45593999997E+02  0.45594000000E+02  0.51100000000E-03 0. -1.
         11   -1    0    0    0    0 -0.00000000000E+00 -0.00000000000E+00 -0.45593999997E+02  0.45594000000E+02  0.51100000000E-03 0.  1.
    9900012    2    1    2    0    0 -0.15767402527E+02 -0.63819843818E+00 -0.10082681971E+02  0.72461581351E+02  0.70000014403E+02 0.  0.
        -12    1    1    2    0    0  0.15767402527E+02  0.63819843818E+00  0.10082681971E+02  0.18726418649E+02  0.00000000000E+00 0.  1.
         11    1    3    3    0    0 -0.92982806946E+01  0.20090816461E+02  0.10664210096E+01  0.22163848582E+02  0.51100000000E-03 0. -1.
        -11    1    3    3    0    0 -0.72843926173E+01  0.11278510521E+02  0.51373596277E+01  0.14375661361E+02  0.51100000000E-03 0.  1.
        -12    1    3    3    0    0  0.81527078521E+00 -0.32007525420E+02 -0.16286462609E+02  0.35922071408E+02  0.00000000000E+00 0.  1.
</event>
<event>
 7    1  0.2641045E-013  0.7246159E+02  0.7816164E-02  0.1226708E+00
        -11   -1    0    0    0    0  0.00000000000E+00  0.00000000000E+00  0.45593999997E+02  0.45594000000E+02  0.51100000000E-03 0.  1.
         11   -1    0    0    0    0 -0.00000000000E+00 -0.00000000000E+00 -0.45593999997E+02  0.45594000000E+02  0.51100000000E-03 0. -1.
    9900012    2    1    2    0    0  0.13581556726E+02 -0.11919905982E+02 -0.49127824077E+01  0.72461594240E+02  0.70000031194E+02 0.  0.
        -12    1    1    2    0    0 -0.13581556726E+02  0.11919905982E+02  0.49127824077E+01  0.18726405760E+02  0.00000000000E+00 0.  1.
         11    1    3    3    0    0  0.39658327192E+01  0.94663071567E+01 -0.40668619193E+01  0.11039844495E+02  0.51100000000E-03 0. -1.
        -11    1    3    3    0    0 -0.49467606109E+00  0.18053752146E+02 -0.85531234011E+01  0.19983457937E+02  0.51100000000E-03 0.  1.
         12    1    3    3    0    0  0.10110400067E+02 -0.39439965285E+02  0.77072029127E+01  0.41438291807E+02  0.00000000000E+00 0. -1.
</event>
<event>
 7    1  0.2641045E-013  0.7246166E+02  0.7816164E-02  0.1226708E+00
        -11   -1    0    0    0    0  0.00000000000E+00  0.00000000000E+00  0.45593999997E+02  0.45594000000E+02  0.51100000000E-03 0.  1.
         11   -1    0    0    0    0 -0.00000000000E+00 -0.00000000000E+00 -0.45593999997E+02  0.45594000000E+02  0.51100000000E-03 0. -1.
    9900012    2    1    2    0    0 -0.12071262937E+02  0.14256021120E+02  0.13139311895E+01  0.72461656464E+02  0.70000112251E+02 0.  0.
        -12    1    1    2    0    0  0.12071262937E+02 -0.14256021120E+02 -0.13139311895E+01  0.18726343536E+02  0.00000000000E+00 0.  1.
         11    1    3    3    0    0 -0.11572669324E+02 -0.10975712440E+02 -0.83930545040E+00  0.15971767990E+02  0.51100000000E-03 0.  1.
        -11    1    3    3    0    0 -0.21449281031E+02  0.23854007284E+02 -0.81553827524E+01  0.33099782301E+02  0.51100000000E-03 0. -1.
         12    1    3    3    0    0  0.20950687418E+02  0.13777262760E+01  0.10308619392E+02  0.23390106172E+02  0.00000000000E+00 0. -1.
</event>
<event>
 7    1  0.2641045E-013  0.7246156E+02  0.7816164E-02  0.1226708E+00
        -11   -1    0    0    0    0  0.00000000000E+00  0.00000000000E+00  0.45593999997E+02  0.45594000000E+02  0.51100000000E-03 0.  1.
         11   -1    0    0    0    0 -0.00000000000E+00 -0.00000000000E+00 -0.45593999997E+02  0.45594000000E+02  0.51100000000E-03 0. -1.
    9900012    2    1    2    0    0 -0.16514477471E+02 -0.87280774237E+01 -0.13312112615E+01  0.72461563471E+02  0.69999991111E+02 0.  0.
        -12    1    1    2    0    0  0.16514477471E+02  0.87280774237E+01  0.13312112615E+01  0.18726436529E+02  0.00000000000E+00 0.  1.
         11    1    3    3    0    0 -0.24588775245E+02  0.10544353110E+02 -0.86066398908E+01  0.28104545914E+02  0.51100000000E-03 0. -1.
        -11    1    3    3    0    0  0.80872938514E+01 -0.41362643319E+01 -0.14934350941E+02  0.17479926852E+02  0.51100000000E-03 0.  1.
        -12    1    3    3    0    0 -0.12996077462E-01 -0.15136166202E+02  0.22209779570E+02  0.26877090704E+02  0.00000000000E+00 0.  1.
</event>
<event>
 7    1  0.2641045E-013  0.7246159E+02  0.7816164E-02  0.1226708E+00
        -11   -1    0    0    0    0  0.00000000000E+00  0.00000000000E+00  0.45593999997E+02  0.45594000000E+02  0.51100000000E-03 0.  1.
         11   -1    0    0    0    0 -0.00000000000E+00 -0.00000000000E+00 -0.45593999997E+02  0.45594000000E+02  0.51100000000E-03 0. -1.
    9900012    2    1    2    0    0 -0.17764478060E+02 -0.59016723324E+01 -0.52161372370E+00  0.72461588225E+02  0.70000023358E+02 0.  0.
        -12    1    1    2    0    0  0.17764478060E+02  0.59016723324E+01  0.52161372370E+00  0.18726411775E+02  0.00000000000E+00 0.  1.
         11    1    3    3    0    0 -0.98443324770E+01 -0.62107520949E+01  0.17123505410E+02  0.20705041929E+02  0.51100000000E-03 0. -1.
        -11    1    3    3    0    0  0.15682470701E+02  0.39037008019E-02  0.74001988797E+01  0.17340785630E+02  0.51100000000E-03 0.  1.
         12    1    3    3    0    0 -0.23602616284E+02  0.30517606174E+00 -0.25045318013E+02  0.34415760667E+02  0.00000000000E+00 0. -1.
</event>
<event>
 7    1  0.2641045E-013  0.7246160E+02  0.7816164E-02  0.1226708E+00
        -11   -1    0    0    0    0  0.00000000000E+00  0.00000000000E+00  0.45593999997E+02  0.45594000000E+02  0.51100000000E-03 0. -1.
         11   -1    0    0    0    0 -0.00000000000E+00 -0.00000000000E+00 -0.45593999997E+02  0.45594000000E+02  0.51100000000E-03 0.  1.
    9900012    2    1    2    0    0  0.13816751304E+02 -0.11907330808E+02 -0.42415728183E+01  0.72461599290E+02  0.70000037772E+02 0.  0.
        -12    1    1    2    0    0 -0.13816751304E+02  0.11907330808E+02  0.42415728183E+01  0.18726400710E+02  0.00000000000E+00 0.  1.
         11    1    3    3    0    0  0.28511959121E+02 -0.57071446634E+01  0.64242200355E+01  0.29778749410E+02  0.51100000000E-03 0. -1.
        -11    1    3    3    0    0  0.18474053694E+01 -0.45002130160E+01 -0.22017219172E+02  0.22548231951E+02  0.51100000000E-03 0.  1.
         12    1    3    3    0    0 -0.16542613186E+02 -0.16999731285E+01  0.11351426319E+02  0.20134617928E+02  0.00000000000E+00 0. -1.
</event>
<event>
 7    1  0.2641045E-013  0.7246122E+02  0.7816164E-02  0.1226709E+00
        -11   -1    0    0    0    0  0.00000000000E+00  0.00000000000E+00  0.45593999997E+02  0.45594000000E+02  0.51100000000E-03 0.  1.
         11   -1    0    0    0    0 -0.00000000000E+00 -0.00000000000E+00 -0.45593999997E+02  0.45594000000E+02  0.51100000000E-03 0. -1.
    9900012    2    1    2    0    0 -0.11981500744E+02  0.77088362048E+01  0.12153598660E+02  0.72461215008E+02  0.69999537173E+02 0.  0.
        -12    1    1    2    0    0  0.11981500744E+02 -0.77088362048E+01 -0.12153598660E+02  0.18726784992E+02  0.00000000000E+00 0.  1.
         11    1    3    3    0    0  0.68002639763E+01  0.25277518930E+02  0.73273450158E+01  0.27182467486E+02  0.51100000000E-03 0. -1.
        -11    1    3    3    0    0 -0.84913932458E+01  0.96406907889E+01  0.92818488006E+01  0.15849271137E+02  0.51100000000E-03 0.  1.
        -12    1    3    3    0    0 -0.10290371475E+02 -0.27209373514E+02 -0.44555951561E+01  0.29429476385E+02  0.00000000000E+00 0.  1.
</event>
<event>
 7    1  0.2641045E-013  0.7246170E+02  0.7816164E-02  0.1226708E+00
        -11   -1    0    0    0    0  0.00000000000E+00  0.00000000000E+00  0.45593999997E+02  0.45594000000E+02  0.51100000000E-03 0. -1.
         11   -1    0    0    0    0 -0.00000000000E+00 -0.00000000000E+00 -0.45593999997E+02  0.45594000000E+02  0.51100000000E-03 0.  1.
    9900012    2    1    2    0    0  0.52563657411E+01 -0.11649804591E+02  0.13686745142E+02  0.72461699767E+02  0.70000168662E+02 0.  0.
        -12    1    1    2    0    0 -0.52563657411E+01  0.11649804591E+02 -0.13686745142E+02  0.18726300233E+02  0.00000000000E+00 0.  1.
         11    1    3    3    0    0  0.17093964344E+02 -0.66006946768E+01  0.23045400208E+01  0.18468451266E+02  0.51100000000E-03 0. -1.
        -11    1    3    3    0    0 -0.18295384950E+02 -0.22677255021E+02 -0.43993648551E+01  0.29467497640E+02  0.51100000000E-03 0.  1.
         12    1    3    3    0    0  0.64577863475E+01  0.17628145107E+02  0.15781569977E+02  0.24525750862E+02  0.00000000000E+00 0. -1.
</event>
<event>
 7    1  0.2641045E-013  0.7246155E+02  0.7816164E-02  0.1226708E+00
        -11   -1    0    0    0    0  0.00000000000E+00  0.00000000000E+00  0.45593999997E+02  0.45594000000E+02  0.51100000000E-03 0.  1.
         11   -1    0    0    0    0 -0.00000000000E+00 -0.00000000000E+00 -0.45593999997E+02  0.45594000000E+02  0.51100000000E-03 0. -1.
    9900012    2    1    2    0    0 -0.92702017608E+01  0.48156174151E+01 -0.15541981213E+02  0.72461548339E+02  0.69999971399E+02 0.  0.
        -12    1    1    2    0    0  0.92702017608E+01 -0.48156174151E+01  0.15541981213E+02  0.18726451661E+02  0.00000000000E+00 0.  1.
         11    1    3    3    0    0  0.50412833408E+01 -0.71910606045E+01 -0.81730390782E+01  0.11996852019E+02  0.51100000000E-03 0.  1.
        -11    1    3    3    0    0 -0.31003875578E+02  0.24107190258E+02 -0.29836809659E+01  0.39386536728E+02  0.51100000000E-03 0. -1.
         12    1    3    3    0    0  0.16692390477E+02 -0.12100512239E+02 -0.43852611691E+01  0.21078159592E+02  0.00000000000E+00 0. -1.
</event>
<event>
 7    1  0.2641045E-013  0.7246161E+02  0.7816164E-02  0.1226708E+00
        -11   -1    0    0    0    0  0.00000000000E+00  0.00000000000E+00  0.45593999997E+02  0.45594000000E+02  0.51100000000E-03 0. -1.
         11   -1    0    0    0    0 -0.00000000000E+00 -0.00000000000E+00 -0.45593999997E+02  0.45594000000E+02  0.51100000000E-03 0.  1.
    9900012    2    1    2    0    0 -0.10941917030E+02  0.97512739271E+01  0.11656098275E+02  0.72461614377E+02  0.70000057426E+02 0.  0.
        -12    1    1    2    0    0  0.10941917030E+02 -0.97512739271E+01 -0.11656098275E+02  0.18726385623E+02  0.00000000000E+00 0.  1.
         11    1    3    3    0    0 -0.23971567100E+01 -0.24635672851E+02  0.90957407270E+01  0.26370347680E+02  0.51100000000E-03 0. -1.
        -11    1    3    3    0    0  0.71001178410E+01  0.14921317652E+01 -0.51005381886E+01  0.88686876501E+01  0.51100000000E-03 0.  1.
        -12    1    3    3    0    0 -0.15644878161E+02  0.32894815013E+02  0.76608957367E+01  0.37222579047E+02  0.00000000000E+00 0.  1.
</event>
<event>
 7    1  0.2641045E-013  0.7246156E+02  0.7816164E-02  0.1226708E+00
        -11   -1    0    0    0    0  0.00000000000E+00  0.00000000000E+00  0.45593999997E+02  0.45594000000E+02  0.51100000000E-03 0. -1.
         11   -1    0    0    0    0 -0.00000000000E+00 -0.00000000000E+00 -0.45593999997E+02  0.45594000000E+02  0.51100000000E-03 0.  1.
    9900012    2    1    2    0    0 -0.91352728065E+01  0.12188868674E+02  0.10893024954E+02  0.72461555557E+02  0.69999980802E+02 0.  0.
        -12    1    1    2    0    0  0.91352728065E+01 -0.12188868674E+02 -0.10893024954E+02  0.18726444443E+02  0.00000000000E+00 0.  1.
         11    1    3    3    0    0 -0.18139456210E+02  0.13108395532E+01  0.70977184461E+01  0.19522699079E+02  0.51100000000E-03 0. -1.
        -11    1    3    3    0    0 -0.18547935365E+02  0.13618810376E+02 -0.56316597289E+01  0.23689944996E+02  0.51100000000E-03 0.  1.
         12    1    3    3    0    0  0.27552118768E+02 -0.27407812551E+01  0.94269662369E+01  0.29248911483E+02  0.00000000000E+00 0. -1.
</event>
<event>
 7    1  0.2641045E-013  0.7246155E+02  0.7816164E-02  0.1226708E+00
        -11   -1    0    0    0    0  0.00000000000E+00  0.00000000000E+00  0.45593999997E+02  0.45594000000E+02  0.51100000000E-03 0. -1.
         11   -1    0    0    0    0 -0.00000000000E+00 -0.00000000000E+00 -0.45593999997E+02  0.45594000000E+02  0.51100000000E-03 0.  1.
    9900012    2    1    2    0    0 -0.73042090177E+00  0.18106818027E+02  0.47211901525E+01  0.72461547848E+02  0.69999970759E+02 0.  0.
        -12    1    1    2    0    0  0.73042090177E+00 -0.18106818027E+02 -0.47211901525E+01  0.18726452152E+02  0.00000000000E+00 0.  1.
         11    1    3    3    0    0 -0.13595901447E+02  0.12784847199E+02  0.28607715272E+02  0.34157023105E+02  0.51100000000E-03 0. -1.
        -11    1    3    3    0    0  0.23512925748E+00 -0.60236133627E+01  0.28224127507E+01  0.66562164709E+01  0.51100000000E-03 0.  1.
        -12    1    3    3    0    0  0.12630351288E+02  0.11345584191E+02 -0.26708937870E+02  0.31648308271E+02  0.00000000000E+00 0.  1.
</event>
<event>
 7    1  0.2641045E-013  0.7246161E+02  0.7816164E-02  0.1226708E+00
        -11   -1    0    0    0    0  0.00000000000E+00  0.00000000000E+00  0.45593999997E+02  0.45594000000E+02  0.51100000000E-03 0. -1.
         11   -1    0    0    0    0 -0.00000000000E+00 -0.00000000000E+00 -0.45593999997E+02  0.45594000000E+02  0.51100000000E-03 0.  1.
    9900012    2    1    2    0    0 -0.62488615654E+01 -0.78450563690E+01  0.15814063963E+02  0.72461606879E+02  0.70000047658E+02 0.  0.
        -12    1    1    2    0    0  0.62488615654E+01  0.78450563690E+01 -0.15814063963E+02  0.18726393121E+02  0.00000000000E+00 0.  1.
         11    1    3    3    0    0  0.58868828795E+01 -0.95770688066E+01 -0.77484052112E+01  0.13653330017E+02  0.51100000000E-03 0. -1.
        -11    1    3    3    0    0  0.17259351455E+02  0.27320215871E+01 -0.46187535759E+01  0.18074347553E+02  0.51100000000E-03 0.  1.
         12    1    3    3    0    0 -0.29395095900E+02 -0.10000091495E+01  0.28181222750E+02  0.40733929309E+02  0.00000000000E+00 0. -1.
</event>
<event>
 7    1  0.2641045E-013  0.7246161E+02  0.7816164E-02  0.1226708E+00
        -11   -1    0    0    0    0  0.00000000000E+00  0.00000000000E+00  0.45593999997E+02  0.45594000000E+02  0.51100000000E-03 0.  1.
         11   -1    0    0    0    0 -0.00000000000E+00 -0.00000000000E+00 -0.45593999997E+02  0.45594000000E+02  0.51100000000E-03 0. -1.
    9900012    2    1    2    0    0  0.13990873564E+02  0.82116082119E+01 -0.93542863209E+01  0.72461608862E+02  0.70000050241E+02 0.  0.
        -12    1    1    2    0    0 -0.13990873564E+02 -0.82116082119E+01  0.93542863209E+01  0.18726391138E+02  0.00000000000E+00 0.  1.
         11    1    3    3    0    0 -0.71822129191E+01  0.18364625748E+01  0.14218345700E+01  0.75484032092E+01  0.51100000000E-03 0. -1.
        -11    1    3    3    0    0 -0.10493748440E+02  0.14602728348E+02  0.14875999005E+02  0.23337818625E+02  0.51100000000E-03 0.  1.
         12    1    3    3    0    0  0.31666834922E+02 -0.82275827111E+01 -0.25652119896E+02  0.41575387027E+02  0.00000000000E+00 0. -1.
</event>
<event>
 7    1  0.2641045E-013  0.7246184E+02  0.7816164E-02  0.1226707E+00
        -11   -1    0    0    0    0  0.00000000000E+00  0.00000000000E+00  0.45593999997E+02  0.45594000000E+02  0.51100000000E-03 0. -1.
         11   -1    0    0    0    0 -0.00000000000E+00 -0.00000000000E+00 -0.45593999997E+02  0.45594000000E+02  0.51100000000E-03 0.  1.
    9900012    2    1    2    0    0  0.28762955776E+01  0.16278971578E+02 -0.87972218814E+01  0.72461839029E+02  0.70000350076E+02 0.  0.
        -12    1    1    2    0    0 -0.28762955776E+01 -0.16278971578E+02  0.87972218814E+01  0.18726160971E+02  0.00000000000E+00 0.  1.
         11    1    3    3    0    0  0.78520513334E+01  0.47854013499E+01  0.29945133109E+02  0.31325161985E+02  0.51100000000E-03 0. -1.
        -11    1    3    3    0    0 -0.13603640993E+01  0.25747017505E+01 -0.32546472975E+01  0.43671969133E+01  0.51100000000E-03 0.  1.
        -12    1    3    3    0    0 -0.36153916564E+01  0.89188684771E+01 -0.35487707693E+02  0.36769480130E+02  0.00000000000E+00 0.  1.
</event>
<event>
 7    1  0.2641045E-013  0.7246157E+02  0.7816164E-02  0.1226708E+00
        -11   -1    0    0    0    0  0.00000000000E+00  0.00000000000E+00  0.45593999997E+02  0.45594000000E+02  0.51100000000E-03 0.  1.
         11   -1    0    0    0    0 -0.00000000000E+00 -0.00000000000E+00 -0.45593999997E+02  0.45594000000E+02  0.51100000000E-03 0. -1.
    9900012    2    1    2    0    0  0.95997970601E+01  0.98850188990E+01 -0.12681068284E+02  0.72461569613E+02  0.69999999112E+02 0.  0.
        -12    1    1    2    0    0 -0.95997970601E+01 -0.98850188990E+01  0.12681068284E+02  0.18726430387E+02  0.00000000000E+00 0.  1.
         11    1    3    3    0    0  0.71299606647E+01 -0.67106807389E+01 -0.69026126210E+01  0.11979801180E+02  0.51100000000E-03 0. -1.
        -11    1    3    3    0    0  0.27736004773E+02  0.98685293053E+01  0.85643724183E+01  0.30659783212E+02  0.51100000000E-03 0.  1.
         12    1    3    3    0    0 -0.25266168378E+02  0.67271703325E+01 -0.14342828081E+02  0.29821985221E+02  0.00000000000E+00 0. -1.
</event>
<event>
 7    1  0.2641045E-013  0.7246163E+02  0.7816164E-02  0.1226708E+00
        -11   -1    0    0    0    0  0.00000000000E+00  0.00000000000E+00  0.45593999997E+02  0.45594000000E+02  0.51100000000E-03 0.  1.
         11   -1    0    0    0    0 -0.00000000000E+00 -0.00000000000E+00 -0.45593999997E+02  0.45594000000E+02  0.51100000000E-03 0. -1.
    9900012    2    1    2    0    0 -0.16326612496E+02  0.88545333374E+01 -0.23908045180E+01  0.72461628690E+02  0.70000076071E+02 0.  0.
        -12    1    1    2    0    0  0.16326612496E+02 -0.88545333374E+01  0.23908045180E+01  0.18726371310E+02  0.00000000000E+00 0.  1.
         11    1    3    3    0    0  0.21853950535E+01 -0.11207374408E+01  0.23981626781E+02  0.24107061772E+02  0.51100000000E-03 0. -1.
        -11    1    3    3    0    0  0.57421418774E+01 -0.81931056847E+01 -0.44383000941E+01  0.10945212747E+02  0.51100000000E-03 0.  1.
         12    1    3    3    0    0 -0.24254149426E+02  0.18168376463E+02 -0.21934131205E+02  0.37409354170E+02  0.00000000000E+00 0. -1.
</event>
<event>
 7    1  0.2641045E-013  0.7246153E+02  0.7816164E-02  0.1226708E+00
        -11   -1    0    0    0    0  0.00000000000E+00  0.00000000000E+00  0.45593999997E+02  0.45594000000E+02  0.51100000000E-03 0.  1.
         11   -1    0    0    0    0 -0.00000000000E+00 -0.00000000000E+00 -0.45593999997E+02  0.45594000000E+02  0.51100000000E-03 0. -1.
    9900012    2    1    2    0    0 -0.48128455235E+01 -0.11217841140E+02 -0.14201305324E+02  0.72461534375E+02  0.69999953209E+02 0.  0.
        -12    1    1    2    0    0  0.48128455235E+01  0.11217841140E+02  0.14201305324E+02  0.18726465625E+02  0.00000000000E+00 0.  1.
         11    1    3    3    0    0 -0.26463244631E+02  0.12001750034E+01  0.83850175754E+01  0.27785828338E+02  0.51100000000E-03 0. -1.
        -11    1    3    3    0    0 -0.19697638468E+01  0.74050717874E+01 -0.36301781177E+01  0.84789888086E+01  0.51100000000E-03 0.  1.
         12    1    3    3    0    0  0.23620162954E+02 -0.19823087931E+02 -0.18956144782E+02  0.36196717228E+02  0.00000000000E+00 0. -1.
</event>
<event>
 7    1  0.2641045E-013  0.7246148E+02  0.7816164E-02  0.1226708E+00
        -11   -1    0    0    0    0  0.00000000000E+00  0.00000000000E+00  0.45593999997E+02  0.45594000000E+02  0.51100000000E-03 0.  1.
         11   -1    0    0    0    0 -0.00000000000E+00 -0.00000000000E+00 -0.45593999997E+02  0.45594000000E+02  0.51100000000E-03 0. -1.
    9900012    2    1    2    0    0  0.72969997040E+01 -0.71605403988E+01 -0.15689586751E+02  0.72461476674E+02  0.69999878042E+02 0.  0.
        -12    1    1    2    0    0 -0.72969997040E+01  0.71605403988E+01  0.15689586751E+02  0.18726523326E+02  0.00000000000E+00 0.  1.
         11    1    3    3    0    0  0.19102346840E+02  0.32336594962E+01 -0.18873266346E+01  0.19465821601E+02  0.51100000000E-03 0. -1.
        -11    1    3    3    0    0 -0.10836477262E+02 -0.26076621702E+02 -0.21506881024E+02  0.35495990907E+02  0.51100000000E-03 0.  1.
         12    1    3    3    0    0 -0.96886987376E+00  0.15682421807E+02  0.77046209079E+01  0.17499664165E+02  0.00000000000E+00 0. -1.
</event>
<event>
 7    1  0.2641045E-013  0.7246161E+02  0.7816164E-02  0.1226708E+00
        -11   -1    0    0    0    0  0.00000000000E+00  0.00000000000E+00  0.45593999997E+02  0.45594000000E+02  0.51100000000E-03 0. -1.
         11   -1    0    0    0    0 -0.00000000000E+00 -0.00000000000E+00 -0.45593999997E+02  0.45594000000E+02  0.51100000000E-03 0.  1.
    9900012    2    1    2    0    0 -0.11173278621E+01 -0.60572395580E+01  0.17684429003E+02  0.72461612154E+02  0.70000054530E+02 0.  0.
        -12    1    1    2    0    0  0.11173278621E+01  0.60572395580E+01 -0.17684429003E+02  0.18726387846E+02  0.00000000000E+00 0.  1.
         11    1    3    3    0    0 -0.26979744523E+02 -0.13387278860E+02  0.15176524816E+02  0.33726143503E+02  0.51100000000E-03 0. -1.
        -11    1    3    3    0    0  0.76694244403E+01  0.74298643922E+01  0.13704103391E+02  0.17373123097E+02  0.51100000000E-03 0.  1.
        -12    1    3    3    0    0  0.18192992220E+02 -0.99825089836E-01 -0.11196199204E+02  0.21362345555E+02  0.00000000000E+00 0.  1.
</event>
<event>
 7    1  0.2641045E-013  0.7246154E+02  0.7816164E-02  0.1226708E+00
        -11   -1    0    0    0    0  0.00000000000E+00  0.00000000000E+00  0.45593999997E+02  0.45594000000E+02  0.51100000000E-03 0. -1.
         11   -1    0    0    0    0 -0.00000000000E+00 -0.00000000000E+00 -0.45593999997E+02  0.45594000000E+02  0.51100000000E-03 0.  1.
    9900012    2    1    2    0    0  0.52516717252E+01  0.11047511501E+02  0.14179309471E+02  0.72461537885E+02  0.69999957780E+02 0.  0.
        -12    1    1    2    0    0 -0.52516717252E+01 -0.11047511501E+02 -0.14179309471E+02  0.18726462115E+02  0.00000000000E+00 0.  1.
         11    1    3    3    0    0  0.35804880114E+01  0.57756841447E+01 -0.55052366213E+01  0.87456304665E+01  0.51100000000E-03 0. -1.
        -11    1    3    3    0    0  0.28542947664E+02  0.12595921722E+02  0.17516448251E+02  0.35779645959E+02  0.51100000000E-03 0.  1.
         12    1    3    3    0    0 -0.26871763950E+02 -0.73240943650E+01  0.21680978416E+01  0.27936261459E+02  0.00000000000E+00 0. -1.
</event>
<event>
 7    1  0.2641045E-013  0.7246158E+02  0.7816164E-02  0.1226708E+00
        -11   -1    0    0    0    0  0.00000000000E+00  0.00000000000E+00  0.45593999997E+02  0.45594000000E+02  0.51100000000E-03 0. -1.
         11   -1    0    0    0    0 -0.00000000000E+00 -0.00000000000E+00 -0.45593999997E+02  0.45594000000E+02  0.51100000000E-03 0.  1.
    9900012    2    1    2    0    0 -0.18153010255E+02 -0.14973279082E+01 -0.43479837340E+01  0.72461581903E+02  0.70000015123E+02 0.  0.
        -12    1    1    2    0    0  0.18153010255E+02  0.14973279082E+01  0.43479837340E+01  0.18726418097E+02  0.00000000000E+00 0.  1.
         11    1    3    3    0    0  0.19650018695E+01 -0.48355764748E+01  0.27631601408E+01  0.59058518789E+01  0.51100000000E-03 0. -1.
        -11    1    3    3    0    0  0.15173617293E+02  0.16852317332E+02  0.10348844625E+02  0.24926649324E+02  0.51100000000E-03 0.  1.
         12    1    3    3    0    0 -0.35291629417E+02 -0.13514068765E+02 -0.17459988499E+02  0.41629080700E+02  0.00000000000E+00 0. -1.
</event>
<event>
 7    1  0.2641045E-013  0.7246156E+02  0.7816164E-02  0.1226708E+00
        -11   -1    0    0    0    0  0.00000000000E+00  0.00000000000E+00  0.45593999997E+02  0.45594000000E+02  0.51100000000E-03 0.  1.
         11   -1    0    0    0    0 -0.00000000000E+00 -0.00000000000E+00 -0.45593999997E+02  0.45594000000E+02  0.51100000000E-03 0. -1.
    9900012    2    1    2    0    0 -0.37108527613E+01  0.10366192705E+02 -0.15147639970E+02  0.72461564779E+02  0.69999992815E+02 0.  0.
        -12    1    1    2    0    0  0.37108527613E+01 -0.10366192705E+02  0.15147639970E+02  0.18726435221E+02  0.00000000000E+00 0.  1.
         11    1    3    3    0    0  0.70100442809E-01  0.22948487713E+01 -0.21928428050E+02  0.22048292495E+02  0.51100000000E-03 0. -1.
        -11    1    3    3    0    0 -0.21191717925E+00  0.28625523354E+02  0.51520492630E+00  0.28630943620E+02  0.51100000000E-03 0.  1.
         12    1    3    3    0    0 -0.35690360248E+01 -0.20554179420E+02  0.62655831536E+01  0.21782328664E+02  0.00000000000E+00 0. -1.
</event>
<event>
 7    1  0.2641045E-013  0.7246164E+02  0.7816164E-02  0.1226708E+00
        -11   -1    0    0    0    0  0.00000000000E+00  0.00000000000E+00  0.45593999997E+02  0.45594000000E+02  0.51100000000E-03 0.  1.
         11   -1    0    0    0    0 -0.00000000000E+00 -0.00000000000E+00 -0.45593999997E+02  0.45594000000E+02  0.51100000000E-03 0. -1.
    9900012    2    1    2    0    0 -0.15195743917E+02 -0.23888465775E+01 -0.10679849066E+02  0.72461644315E+02  0.70000096425E+02 0.  0.
        -12    1    1    2    0    0  0.15195743917E+02  0.23888465775E+01  0.10679849066E+02  0.18726355685E+02  0.00000000000E+00 0.  1.
         11    1    3    3    0    0 -0.63891256721E+01  0.39946935551E+01  0.71269885615E+01  0.10371714886E+02  0.51100000000E-03 0. -1.
        -11    1    3    3    0    0  0.86744938879E+01  0.19394609733E+01  0.18734501665E+02  0.20736197963E+02  0.51100000000E-03 0.  1.
         12    1    3    3    0    0 -0.17481112133E+02 -0.83230011059E+01 -0.36541339293E+02  0.41353731466E+02  0.00000000000E+00 0. -1.
</event>
<event>
 7    1  0.2641045E-013  0.7246172E+02  0.7816164E-02  0.1226708E+00
        -11   -1    0    0    0    0  0.00000000000E+00  0.00000000000E+00  0.45593999997E+02  0.45594000000E+02  0.51100000000E-03 0.  1.
         11   -1    0    0    0    0 -0.00000000000E+00 -0.00000000000E+00 -0.45593999997E+02  0.45594000000E+02  0.51100000000E-03 0. -1.
    9900012    2    1    2    0    0  0.57733176955E+01 -0.17771972321E+02 -0.12244359525E+01  0.72461723253E+02  0.70000199257E+02 0.  0.
        -12    1    1    2    0    0 -0.57733176955E+01  0.17771972321E+02  0.12244359525E+01  0.18726276747E+02  0.00000000000E+00 0.  1.
         11    1    3    3    0    0 -0.23416913738E+02 -0.93441302480E+01 -0.13941328042E+02  0.28810158746E+02  0.51100000000E-03 0. -1.
        -11    1    3    3    0    0  0.10999604719E+02  0.36040909251E+01 -0.75981827024E+01  0.13846052001E+02  0.51100000000E-03 0.  1.
         12    1    3    3    0    0  0.18190626715E+02 -0.12031932998E+02  0.20315074792E+02  0.29805512507E+02  0.00000000000E+00 0. -1.
</event>
<event>
 7    1  0.2641045E-013  0.7246159E+02  0.7816164E-02  0.1226708E+00
        -11   -1    0    0    0    0  0.00000000000E+00  0.00000000000E+00  0.45593999997E+02  0.45594000000E+02  0.51100000000E-03 0. -1.
         11   -1    0    0    0    0 -0.00000000000E+00 -0.00000000000E+00 -0.45593999997E+02  0.45594000000E+02  0.51100000000E-03 0.  1.
    9900012    2    1    2    0    0  0.23236136722E+01 -0.24202219012E+01  0.18423402160E+02  0.72461590796E+02  0.70000026707E+02 0.  0.
        -12    1    1    2    0    0 -0.23236136722E+01  0.24202219012E+01 -0.18423402160E+02  0.18726409204E+02  0.00000000000E+00 0.  1.
         11    1    3    3    0    0  0.19533019374E+02  0.73480022481E+01 -0.21798784890E+01  0.20982941962E+02  0.51100000000E-03 0. -1.
        -11    1    3    3    0    0 -0.80608846075E+01  0.15495708305E+02 -0.24653077654E+00  0.17468703850E+02  0.51100000000E-03 0.  1.
         12    1    3    3    0    0 -0.91485210944E+01 -0.25263932454E+02  0.20849811425E+02  0.34009944983E+02  0.00000000000E+00 0. -1.
</event>
<event>
 7    1  0.2641045E-013  0.7246157E+02  0.7816164E-02  0.1226708E+00
        -11   -1    0    0    0    0  0.00000000000E+00  0.00000000000E+00  0.45593999997E+02  0.45594000000E+02  0.51100000000E-03 0. -1.
         11   -1    0    0    0    0 -0.00000000000E+00 -0.00000000000E+00 -0.45593999997E+02  0.45594000000E+02  0.51100000000E-03 0.  1.
    9900012    2    1    2    0    0 -0.11723093681E+02 -0.10980001739E+02  0.96274507506E+01  0.72461570239E+02  0.69999999928E+02 0.  0.
        -12    1    1    2    0    0  0.11723093681E+02  0.10980001739E+02 -0.96274507506E+01  0.18726429761E+02  0.00000000000E+00 0.  1.
         11    1    3    3    0    0 -0.44978699779E+01 -0.16181130946E+02 -0.75956494813E+01  0.18432409618E+02  0.51100000000E-03 0.  1.
        -11    1    3    3    0    0 -0.10311939740E+02  0.66485854095E+00  0.34441200172E+02  0.35957953329E+02  0.51100000000E-03 0. -1.
         12    1    3    3    0    0  0.30867160367E+01  0.45362706659E+01 -0.17218099940E+02  0.18071207292E+02  0.00000000000E+00 0. -1.
</event>
<event>
 7    1  0.2641045E-013  0.7246158E+02  0.7816164E-02  0.1226708E+00
        -11   -1    0    0    0    0  0.00000000000E+00  0.00000000000E+00  0.45593999997E+02  0.45594000000E+02  0.51100000000E-03 0.  1.
         11   -1    0    0    0    0 -0.00000000000E+00 -0.00000000000E+00 -0.45593999997E+02  0.45594000000E+02  0.51100000000E-03 0. -1.
    9900012    2    1    2    0    0 -0.14246632970E+02 -0.11772968100E+02  0.30181763163E+01  0.72461582373E+02  0.70000015734E+02 0.  0.
        -12    1    1    2    0    0  0.14246632970E+02  0.11772968100E+02 -0.30181763163E+01  0.18726417627E+02  0.00000000000E+00 0.  1.
         11    1    3    3    0    0 -0.20874548561E+02  0.64009361250E+01  0.13238957088E+02  0.25534070297E+02  0.51100000000E-03 0. -1.
        -11    1    3    3    0    0 -0.72468142394E+01 -0.30829281120E+01  0.13467142861E+02  0.15600791629E+02  0.51100000000E-03 0.  1.
         12    1    3    3    0    0  0.13874729831E+02 -0.15090976113E+02 -0.23687923632E+02  0.31326720446E+02  0.00000000000E+00 0. -1.
</event>
<event>
 7    1  0.2641045E-013  0.7246158E+02  0.7816164E-02  0.1226708E+00
        -11   -1    0    0    0    0  0.00000000000E+00  0.00000000000E+00  0.45593999997E+02  0.45594000000E+02  0.51100000000E-03 0.  1.
         11   -1    0    0    0    0 -0.00000000000E+00 -0.00000000000E+00 -0.45593999997E+02  0.45594000000E+02  0.51100000000E-03 0. -1.
    9900012    2    1    2    0    0  0.25432892406E+01 -0.15064896257E+02 -0.10828638179E+02  0.72461579514E+02  0.70000012010E+02 0.  0.
        -12    1    1    2    0    0 -0.25432892406E+01  0.15064896257E+02  0.10828638179E+02  0.18726420486E+02  0.00000000000E+00 0.  1.
         11    1    3    3    0    0  0.77746638563E+01 -0.11869150165E+02  0.16787243539E+02  0.21980301855E+02  0.51100000000E-03 0. -1.
        -11    1    3    3    0    0 -0.11043928507E+02  0.14883395385E+02 -0.20679825440E+01  0.18648334165E+02  0.51100000000E-03 0.  1.
         12    1    3    3    0    0  0.58125538914E+01 -0.18079141477E+02 -0.25547899175E+02  0.31832943495E+02  0.00000000000E+00 0. -1.
</event>
<event>
 7    1  0.2641045E-013  0.7246166E+02  0.7816164E-02  0.1226708E+00
        -11   -1    0    0    0    0  0.00000000000E+00  0.00000000000E+00  0.45593999997E+02  0.45594000000E+02  0.51100000000E-03 0.  1.
         11   -1    0    0    0    0 -0.00000000000E+00 -0.00000000000E+00 -0.45593999997E+02  0.45594000000E+02  0.51100000000E-03 0. -1.
    9900012    2    1    2    0    0 -0.98201317563E+01  0.83417939244E+01  0.13588792662E+02  0.72461660272E+02  0.70000117213E+02 0.  0.
        -12    1    1    2    0    0  0.98201317563E+01 -0.83417939244E+01 -0.13588792662E+02  0.18726339728E+02  0.00000000000E+00 0.  1.
         11    1    3    3    0    0 -0.48918690606E+01 -0.92037370599E+01  0.33047600585E+01  0.10934376895E+02  0.51100000000E-03 0. -1.
        -11    1    3    3    0    0 -0.11731894240E+02 -0.19617009813E+02  0.47170364122E+01  0.23339127003E+02  0.51100000000E-03 0.  1.
         12    1    3    3    0    0  0.68036315446E+01  0.37162540797E+02  0.55669961915E+01  0.38188156375E+02  0.00000000000E+00 0. -1.
</event>
<event>
 7    1  0.2641045E-013  0.7246119E+02  0.7816164E-02  0.1226709E+00
        -11   -1    0    0    0    0  0.00000000000E+00  0.00000000000E+00  0.45593999997E+02  0.45594000000E+02  0.51100000000E-03 0.  1.
         11   -1    0    0    0    0 -0.00000000000E+00 -0.00000000000E+00 -0.45593999997E+02  0.45594000000E+02  0.51100000000E-03 0. -1.
    9900012    2    1    2    0    0 -0.21766835988E+01 -0.17061809374E+02 -0.74060933300E+01  0.72461187430E+02  0.69999501246E+02 0.  0.
        -12    1    1    2    0    0  0.21766835988E+01  0.17061809374E+02  0.74060933300E+01  0.18726812570E+02  0.00000000000E+00 0.  1.
         11    1    3    3    0    0  0.91775764966E+00  0.25969074089E+01 -0.58279404019E+01  0.64460140228E+01  0.51100000000E-03 0. -1.
        -11    1    3    3    0    0  0.27070239520E+02 -0.15074566732E+02 -0.12774644486E+02  0.33514653092E+02  0.51100000000E-03 0.  1.
        -12    1    3    3    0    0 -0.30164680769E+02 -0.45841500516E+01  0.11196491558E+02  0.32500520316E+02  0.00000000000E+00 0.  1.
</event>
<event>
 7    1  0.2641045E-013  0.7246165E+02  0.7816164E-02  0.1226708E+00
        -11   -1    0    0    0    0  0.00000000000E+00  0.00000000000E+00  0.45593999997E+02  0.45594000000E+02  0.51100000000E-03 0.  1.
         11   -1    0    0    0    0 -0.00000000000E+00 -0.00000000000E+00 -0.45593999997E+02  0.45594000000E+02  0.51100000000E-03 0. -1.
    9900012    2    1    2    0    0 -0.17051179344E+02  0.27934095086E+00 -0.77366230330E+01  0.72461652669E+02  0.70000107309E+02 0.  0.
        -12    1    1    2    0    0  0.17051179344E+02 -0.27934095086E+00  0.77366230330E+01  0.18726347331E+02  0.00000000000E+00 0.  1.
         11    1    3    3    0    0 -0.53342934515E+01  0.16541081516E+02 -0.19520650758E+02  0.26136523691E+02  0.51100000000E-03 0. -1.
        -11    1    3    3    0    0  0.10856703678E+02  0.62742730871E+01  0.70720481998E+00  0.12559245855E+02  0.51100000000E-03 0.  1.
         12    1    3    3    0    0 -0.22573589571E+02 -0.22536013652E+02  0.11076822905E+02  0.33765883124E+02  0.00000000000E+00 0. -1.
</event>
<event>
 7    1  0.2641045E-013  0.7246184E+02  0.7816164E-02  0.1226707E+00
        -11   -1    0    0    0    0  0.00000000000E+00  0.00000000000E+00  0.45593999997E+02  0.45594000000E+02  0.51100000000E-03 0.  1.
         11   -1    0    0    0    0 -0.00000000000E+00 -0.00000000000E+00 -0.45593999997E+02  0.45594000000E+02  0.51100000000E-03 0. -1.
    9900012    2    1    2    0    0 -0.29112174189E+01  0.16110361630E+02 -0.90912050219E+01  0.72461843227E+02  0.70000355545E+02 0.  0.
        -12    1    1    2    0    0  0.29112174189E+01 -0.16110361630E+02  0.90912050219E+01  0.18726156773E+02  0.00000000000E+00 0.  1.
         11    1    3    3    0    0 -0.12794330620E+02  0.13923337579E+01 -0.15459886284E+02  0.20115704648E+02  0.51100000000E-03 0. -1.
        -11    1    3    3    0    0 -0.18348448738E+02  0.39161879717E+01  0.11026296451E+02  0.21761923468E+02  0.51100000000E-03 0.  1.
        -12    1    3    3    0    0  0.28231561939E+02  0.10801839901E+02 -0.46576151886E+01  0.30584215112E+02  0.00000000000E+00 0.  1.
</event>
<event>
 7    1  0.2641045E-013  0.7246157E+02  0.7816164E-02  0.1226708E+00
        -11   -1    0    0    0    0  0.00000000000E+00  0.00000000000E+00  0.45593999997E+02  0.45594000000E+02  0.51100000000E-03 0.  1.
         11   -1    0    0    0    0 -0.00000000000E+00 -0.00000000000E+00 -0.45593999997E+02  0.45594000000E+02  0.51100000000E-03 0. -1.
    9900012    2    1    2    0    0 -0.32959883115E+01  0.10909759988E+02 -0.14859096384E+02  0.72461570888E+02  0.70000000774E+02 0.  0.
        -12    1    1    2    0    0  0.32959883115E+01 -0.10909759988E+02  0.14859096384E+02  0.18726429112E+02  0.00000000000E+00 0.  1.
         11    1    3    3    0    0 -0.10169468592E+02  0.16855023822E+02  0.22133209495E+01  0.19809308655E+02  0.51100000000E-03 0. -1.
        -11    1    3    3    0    0 -0.15831636974E+02  0.83656724121E+01  0.42158913759E+01  0.18395622972E+02  0.51100000000E-03 0.  1.
         12    1    3    3    0    0  0.22705117254E+02 -0.14310936247E+02 -0.21288308709E+02  0.34256639261E+02  0.00000000000E+00 0. -1.
</event>
<event>
 7    1  0.2641045E-013  0.7246159E+02  0.7816164E-02  0.1226708E+00
        -11   -1    0    0    0    0  0.00000000000E+00  0.00000000000E+00  0.45593999997E+02  0.45594000000E+02  0.51100000000E-03 0. -1.
         11   -1    0    0    0    0 -0.00000000000E+00 -0.00000000000E+00 -0.45593999997E+02  0.45594000000E+02  0.51100000000E-03 0.  1.
    9900012    2    1    2    0    0 -0.49850468248E+01 -0.12326139434E+01  0.18008567437E+02  0.72461587367E+02  0.70000022240E+02 0.  0.
        -12    1    1    2    0    0  0.49850468248E+01  0.12326139434E+01 -0.18008567437E+02  0.18726412633E+02  0.00000000000E+00 0.  1.
         11    1    3    3    0    0 -0.19743974625E+01 -0.45864631865E+01 -0.94173338439E+01  0.10659271405E+02  0.51100000000E-03 0. -1.
        -11    1    3    3    0    0  0.10010588387E+02  0.23508179618E+02  0.25372539483E+00  0.25552118614E+02  0.51100000000E-03 0.  1.
         12    1    3    3    0    0 -0.13021237749E+02 -0.20154330375E+02  0.27172175886E+02  0.36250197348E+02  0.00000000000E+00 0. -1.
</event>
<event>
 7    1  0.2641045E-013  0.7246159E+02  0.7816164E-02  0.1226708E+00
        -11   -1    0    0    0    0  0.00000000000E+00  0.00000000000E+00  0.45593999997E+02  0.45594000000E+02  0.51100000000E-03 0. -1.
         11   -1    0    0    0    0 -0.00000000000E+00 -0.00000000000E+00 -0.45593999997E+02  0.45594000000E+02  0.51100000000E-03 0.  1.
    9900012    2    1    2    0    0  0.18614687903E+02  0.20306058940E+01  0.21975025557E+00  0.72461594680E+02  0.70000031767E+02 0.  0.
        -12    1    1    2    0    0 -0.18614687903E+02 -0.20306058940E+01 -0.21975025557E+00  0.18726405320E+02  0.00000000000E+00 0.  1.
         11    1    3    3    0    0  0.97864680720E+01 -0.33095714255E+01 -0.73669188600E+01  0.12688566274E+02  0.51100000000E-03 0. -1.
        -11    1    3    3    0    0  0.15236644466E+02  0.21654685378E+02 -0.15580784311E+02  0.30722004710E+02  0.51100000000E-03 0.  1.
         12    1    3    3    0    0 -0.64084246348E+01 -0.16314508058E+02  0.23167453427E+02  0.29051023696E+02  0.00000000000E+00 0. -1.
</event>
<event>
 7    1  0.2641045E-013  0.7246229E+02  0.7816164E-02  0.1226706E+00
        -11   -1    0    0    0    0  0.00000000000E+00  0.00000000000E+00  0.45593999997E+02  0.45594000000E+02  0.51100000000E-03 0. -1.
         11   -1    0    0    0    0 -0.00000000000E+00 -0.00000000000E+00 -0.45593999997E+02  0.45594000000E+02  0.51100000000E-03 0.  1.
    9900012    2    1    2    0    0  0.56776391883E-01 -0.17788205043E+02  0.58505326460E+01  0.72462290549E+02  0.70000938259E+02 0.  0.
        -12    1    1    2    0    0 -0.56776391883E-01  0.17788205043E+02 -0.58505326460E+01  0.18725709451E+02  0.00000000000E+00 0.  1.
         11    1    3    3    0    0  0.12442466547E+02  0.10651267990E+02 -0.60014207450E+00  0.16389772858E+02  0.51100000000E-03 0. -1.
        -11    1    3    3    0    0  0.61385541409E+01  0.22927660444E+01 -0.13506923070E+02  0.15012514585E+02  0.51100000000E-03 0.  1.
         12    1    3    3    0    0 -0.18524244296E+02 -0.30732239078E+02  0.19957597790E+02  0.41060003106E+02  0.00000000000E+00 0. -1.
</event>
<event>
 7    1  0.2641045E-013  0.7246168E+02  0.7816164E-02  0.1226708E+00
        -11   -1    0    0    0    0  0.00000000000E+00  0.00000000000E+00  0.45593999997E+02  0.45594000000E+02  0.51100000000E-03 0.  1.
         11   -1    0    0    0    0 -0.00000000000E+00 -0.00000000000E+00 -0.45593999997E+02  0.45594000000E+02  0.51100000000E-03 0. -1.
    9900012    2    1    2    0    0 -0.81899871542E+01  0.12710588504E+02 -0.11047172637E+02  0.72461682343E+02  0.70000145965E+02 0.  0.
        -12    1    1    2    0    0  0.81899871542E+01 -0.12710588504E+02  0.11047172637E+02  0.18726317657E+02  0.00000000000E+00 0.  1.
         11    1    3    3    0    0 -0.43487557943E+01  0.57732099034E+01  0.91555029898E+01  0.11664684514E+02  0.51100000000E-03 0.  1.
        -11    1    3    3    0    0  0.25148802065E+02 -0.45537231851E+01 -0.47556044656E+01  0.25996430799E+02  0.51100000000E-03 0. -1.
         12    1    3    3    0    0 -0.28990033425E+02  0.11491101786E+02 -0.15447071161E+02  0.34800567031E+02  0.00000000000E+00 0. -1.
</event>
<event>
 7    1  0.2641045E-013  0.7246157E+02  0.7816164E-02  0.1226708E+00
        -11   -1    0    0    0    0  0.00000000000E+00  0.00000000000E+00  0.45593999997E+02  0.45594000000E+02  0.51100000000E-03 0. -1.
         11   -1    0    0    0    0 -0.00000000000E+00 -0.00000000000E+00 -0.45593999997E+02  0.45594000000E+02  0.51100000000E-03 0.  1.
    9900012    2    1    2    0    0  0.17414276818E+02 -0.38034556334E+01  0.57407209761E+01  0.72461569770E+02  0.69999999317E+02 0.  0.
        -12    1    1    2    0    0 -0.17414276818E+02  0.38034556334E+01 -0.57407209761E+01  0.18726430230E+02  0.00000000000E+00 0.  1.
         11    1    3    3    0    0  0.23700404229E+02  0.16042352928E+01  0.71328430501E+01  0.24802422900E+02  0.51100000000E-03 0. -1.
        -11    1    3    3    0    0  0.15098356078E+02  0.36393453331E+01  0.13074764113E+02  0.20301592243E+02  0.51100000000E-03 0.  1.
         12    1    3    3    0    0 -0.21384483489E+02 -0.90470362592E+01 -0.14466886187E+02  0.27357554626E+02  0.00000000000E+00 0. -1.
</event>
<event>
 7    1  0.2641045E-013  0.7246157E+02  0.7816164E-02  0.1226708E+00
        -11   -1    0    0    0    0  0.00000000000E+00  0.00000000000E+00  0.45593999997E+02  0.45594000000E+02  0.51100000000E-03 0.  1.
         11   -1    0    0    0    0 -0.00000000000E+00 -0.00000000000E+00 -0.45593999997E+02  0.45594000000E+02  0.51100000000E-03 0. -1.
    9900012    2    1    2    0    0  0.11597020514E+02  0.36712843696E+01 -0.14237619858E+02  0.72461573941E+02  0.70000004750E+02 0.  0.
        -12    1    1    2    0    0 -0.11597020514E+02 -0.36712843696E+01  0.14237619858E+02  0.18726426059E+02  0.00000000000E+00 0.  1.
         11    1    3    3    0    0  0.16907514397E+02 -0.24514747592E+02  0.32875590412E+01  0.29960723244E+02  0.51100000000E-03 0. -1.
        -11    1    3    3    0    0  0.58802290228E+01 -0.21815111188E+01 -0.18388718323E+01  0.65358652066E+01  0.51100000000E-03 0.  1.
        -12    1    3    3    0    0 -0.11190722906E+02  0.30367543080E+02 -0.15686307067E+02  0.35964985490E+02  0.00000000000E+00 0.  1.
</event>
<event>
 7    1  0.2641045E-013  0.7246153E+02  0.7816164E-02  0.1226708E+00
        -11   -1    0    0    0    0  0.00000000000E+00  0.00000000000E+00  0.45593999997E+02  0.45594000000E+02  0.51100000000E-03 0.  1.
         11   -1    0    0    0    0 -0.00000000000E+00 -0.00000000000E+00 -0.45593999997E+02  0.45594000000E+02  0.51100000000E-03 0. -1.
    9900012    2    1    2    0    0  0.35054287957E+01 -0.74667894017E+01 -0.16811886583E+02  0.72461534624E+02  0.69999953533E+02 0.  0.
        -12    1    1    2    0    0 -0.35054287957E+01  0.74667894017E+01  0.16811886583E+02  0.18726465376E+02  0.00000000000E+00 0.  1.
         11    1    3    3    0    0 -0.12706314237E+02 -0.12832092429E+02  0.25489581421E+01  0.18237604159E+02  0.51100000000E-03 0. -1.
        -11    1    3    3    0    0 -0.10114248286E+02 -0.88184080078E+01  0.62957129650E+01  0.14822224536E+02  0.51100000000E-03 0.  1.
         12    1    3    3    0    0  0.26325991319E+02  0.14183711035E+02 -0.25656557690E+02  0.39401705929E+02  0.00000000000E+00 0. -1.
</event>
<event>
 7    1  0.2641045E-013  0.7246159E+02  0.7816164E-02  0.1226708E+00
        -11   -1    0    0    0    0  0.00000000000E+00  0.00000000000E+00  0.45593999997E+02  0.45594000000E+02  0.51100000000E-03 0.  1.
         11   -1    0    0    0    0 -0.00000000000E+00 -0.00000000000E+00 -0.45593999997E+02  0.45594000000E+02  0.51100000000E-03 0. -1.
    9900012    2    1    2    0    0 -0.95935461258E+01  0.79923412576E+01 -0.13955820023E+02  0.72461586607E+02  0.70000021251E+02 0.  0.
        -12    1    1    2    0    0  0.95935461258E+01 -0.79923412576E+01  0.13955820023E+02  0.18726413393E+02  0.00000000000E+00 0.  1.
         11    1    3    3    0    0  0.24370285837E+01 -0.25585584526E+02 -0.16863351959E+02  0.30739776893E+02  0.51100000000E-03 0. -1.
        -11    1    3    3    0    0 -0.20334520666E+01  0.52197904250E+00 -0.57477174949E+01  0.61191213495E+01  0.51100000000E-03 0.  1.
        -12    1    3    3    0    0 -0.99971226429E+01  0.33055946742E+02  0.86552494309E+01  0.35602688365E+02  0.00000000000E+00 0.  1.
</event>
<event>
 7    1  0.2641045E-013  0.7246161E+02  0.7816164E-02  0.1226708E+00
        -11   -1    0    0    0    0  0.00000000000E+00  0.00000000000E+00  0.45593999997E+02  0.45594000000E+02  0.51100000000E-03 0.  1.
         11   -1    0    0    0    0 -0.00000000000E+00 -0.00000000000E+00 -0.45593999997E+02  0.45594000000E+02  0.51100000000E-03 0. -1.
    9900012    2    1    2    0    0 -0.11074398182E+02 -0.85498051639E+01 -0.12447330918E+02  0.72461614593E+02  0.70000057707E+02 0.  0.
        -12    1    1    2    0    0  0.11074398182E+02  0.85498051639E+01  0.12447330918E+02  0.18726385407E+02  0.00000000000E+00 0.  1.
         11    1    3    3    0    0  0.68485483530E+01 -0.11173132277E+02 -0.18334635893E+02  0.22536645115E+02  0.51100000000E-03 0. -1.
        -11    1    3    3    0    0 -0.17315174276E+01 -0.10023325518E+02  0.21722146446E+02  0.23985763559E+02  0.51100000000E-03 0.  1.
         12    1    3    3    0    0 -0.16191429107E+02  0.12646652632E+02 -0.15834841470E+02  0.25939205919E+02  0.00000000000E+00 0. -1.
</event>
<event>
 7    1  0.2641045E-013  0.7246160E+02  0.7816164E-02  0.1226708E+00
        -11   -1    0    0    0    0  0.00000000000E+00  0.00000000000E+00  0.45593999997E+02  0.45594000000E+02  0.51100000000E-03 0.  1.
         11   -1    0    0    0    0 -0.00000000000E+00 -0.00000000000E+00 -0.45593999997E+02  0.45594000000E+02  0.51100000000E-03 0. -1.
    9900012    2    1    2    0    0 -0.73334646667E+00  0.65605433391E+01 -0.17524256666E+02  0.72461598914E+02  0.70000037282E+02 0.  0.
        -12    1    1    2    0    0  0.73334646667E+00 -0.65605433391E+01  0.17524256666E+02  0.18726401086E+02  0.00000000000E+00 0.  1.
         11    1    3    3    0    0  0.13985619299E+02 -0.98239271056E+01  0.50278155098E+01  0.17815331039E+02  0.51100000000E-03 0. -1.
        -11    1    3    3    0    0  0.13222555588E+01  0.25452236217E+02  0.47504885703E-01  0.25486603250E+02  0.51100000000E-03 0.  1.
        -12    1    3    3    0    0 -0.16041221325E+02 -0.90677657727E+01 -0.22599577062E+02  0.29159664625E+02  0.00000000000E+00 0.  1.
</event>
<event>
 7    1  0.2641045E-013  0.7246146E+02  0.7816164E-02  0.1226708E+00
        -11   -1    0    0    0    0  0.00000000000E+00  0.00000000000E+00  0.45593999997E+02  0.45594000000E+02  0.51100000000E-03 0.  1.
         11   -1    0    0    0    0 -0.00000000000E+00 -0.00000000000E+00 -0.45593999997E+02  0.45594000000E+02  0.51100000000E-03 0. -1.
    9900012    2    1    2    0    0 -0.66417155379E+01 -0.94862400934E+01 -0.14716733122E+02  0.72461458136E+02  0.69999853893E+02 0.  0.
        -12    1    1    2    0    0  0.66417155379E+01  0.94862400934E+01  0.14716733122E+02  0.18726541864E+02  0.00000000000E+00 0.  1.
         11    1    3    3    0    0 -0.15937130895E+02  0.48649268707E+01 -0.17649310028E+02  0.24272572986E+02  0.51100000000E-03 0. -1.
        -11    1    3    3    0    0 -0.88085689733E+01  0.12369466945E+02  0.46086820425E+01  0.15869295835E+02  0.51100000000E-03 0.  1.
         12    1    3    3    0    0  0.18103984330E+02 -0.26720633909E+02 -0.16761051365E+01  0.32319589316E+02  0.00000000000E+00 0. -1.
</event>
<event>
 7    1  0.2641045E-013  0.7246162E+02  0.7816164E-02  0.1226708E+00
        -11   -1    0    0    0    0  0.00000000000E+00  0.00000000000E+00  0.45593999997E+02  0.45594000000E+02  0.51100000000E-03 0.  1.
         11   -1    0    0    0    0 -0.00000000000E+00 -0.00000000000E+00 -0.45593999997E+02  0.45594000000E+02  0.51100000000E-03 0. -1.
    9900012    2    1    2    0    0 -0.57548754974E+01  0.14806411437E+02 -0.99160858060E+01  0.72461623699E+02  0.70000069570E+02 0.  0.
        -12    1    1    2    0    0  0.57548754974E+01 -0.14806411437E+02  0.99160858060E+01  0.18726376301E+02  0.00000000000E+00 0.  1.
         11    1    3    3    0    0  0.82160176472E+01  0.18873466175E+01  0.27308334019E+01  0.88612907955E+01  0.51100000000E-03 0. -1.
        -11    1    3    3    0    0  0.20762974374E+02  0.20210681864E+01  0.72861244563E+01  0.22096909995E+02  0.51100000000E-03 0.  1.
         12    1    3    3    0    0 -0.34733867519E+02  0.10897996633E+02 -0.19933043664E+02  0.41503422909E+02  0.00000000000E+00 0. -1.
</event>
<event>
 7    1  0.2641045E-013  0.7246160E+02  0.7816164E-02  0.1226708E+00
        -11   -1    0    0    0    0  0.00000000000E+00  0.00000000000E+00  0.45593999997E+02  0.45594000000E+02  0.51100000000E-03 0. -1.
         11   -1    0    0    0    0 -0.00000000000E+00 -0.00000000000E+00 -0.45593999997E+02  0.45594000000E+02  0.51100000000E-03 0.  1.
    9900012    2    1    2    0    0  0.74643308251E+01  0.14435226261E+02  0.93051614094E+01  0.72461600968E+02  0.70000039958E+02 0.  0.
        -12    1    1    2    0    0 -0.74643308251E+01 -0.14435226261E+02 -0.93051614094E+01  0.18726399032E+02  0.00000000000E+00 0.  1.
         11    1    3    3    0    0 -0.37971549745E+00 -0.12111936955E+02 -0.18155113220E+02  0.21827765276E+02  0.51100000000E-03 0. -1.
        -11    1    3    3    0    0 -0.10410591455E+02  0.19187455435E+02  0.88799023239E+01  0.23566746192E+02  0.51100000000E-03 0.  1.
         12    1    3    3    0    0  0.18254637778E+02  0.73597077808E+01  0.18580372305E+02  0.27067089500E+02  0.00000000000E+00 0. -1.
</event>
<event>
 7    1  0.2641045E-013  0.7246156E+02  0.7816164E-02  0.1226708E+00
        -11   -1    0    0    0    0  0.00000000000E+00  0.00000000000E+00  0.45593999997E+02  0.45594000000E+02  0.51100000000E-03 0.  1.
         11   -1    0    0    0    0 -0.00000000000E+00 -0.00000000000E+00 -0.45593999997E+02  0.45594000000E+02  0.51100000000E-03 0. -1.
    9900012    2    1    2    0    0  0.45029799996E+01  0.40579582580E+01  0.17718227460E+02  0.72461563114E+02  0.69999990647E+02 0.  0.
        -12    1    1    2    0    0 -0.45029799996E+01 -0.40579582580E+01 -0.17718227460E+02  0.18726436886E+02  0.00000000000E+00 0.  1.
         11    1    3    3    0    0  0.16758982146E+02 -0.15228019155E+02 -0.58397490721E+01  0.23385010572E+02  0.51100000000E-03 0.  1.
        -11    1    3    3    0    0 -0.98581729397E+01 -0.97046021037E+01  0.58379901076E+01  0.15014826155E+02  0.51100000000E-03 0. -1.
        -12    1    3    3    0    0 -0.23978292072E+01  0.28990579516E+02  0.17719986425E+02  0.34061726388E+02  0.00000000000E+00 0.  1.
</event>
<event>
 7    1  0.2641045E-013  0.7246158E+02  0.7816164E-02  0.1226708E+00
        -11   -1    0    0    0    0  0.00000000000E+00  0.00000000000E+00  0.45593999997E+02  0.45594000000E+02  0.51100000000E-03 0. -1.
         11   -1    0    0    0    0 -0.00000000000E+00 -0.00000000000E+00 -0.45593999997E+02  0.45594000000E+02  0.51100000000E-03 0.  1.
    9900012    2    1    2    0    0  0.17169516661E+02 -0.13049533550E+00  0.74745994788E+01  0.72461575655E+02  0.70000006983E+02 0.  0.
        -12    1    1    2    0    0 -0.17169516661E+02  0.13049533550E+00 -0.74745994788E+01  0.18726424345E+02  0.00000000000E+00 0.  1.
         11    1    3    3    0    0  0.18761267078E+02 -0.12301163648E+02  0.32404485107E+02  0.39412617583E+02  0.51100000000E-03 0. -1.
        -11    1    3    3    0    0  0.80529426910E+01  0.45573724410E+01 -0.12691746752E+02  0.15706685374E+02  0.51100000000E-03 0.  1.
        -12    1    3    3    0    0 -0.96446931082E+01  0.76132958710E+01 -0.12238138876E+02  0.17342272698E+02  0.00000000000E+00 0.  1.
</event>
<event>
 7    1  0.2641045E-013  0.7246157E+02  0.7816164E-02  0.1226708E+00
        -11   -1    0    0    0    0  0.00000000000E+00  0.00000000000E+00  0.45593999997E+02  0.45594000000E+02  0.51100000000E-03 0.  1.
         11   -1    0    0    0    0 -0.00000000000E+00 -0.00000000000E+00 -0.45593999997E+02  0.45594000000E+02  0.51100000000E-03 0. -1.
    9900012    2    1    2    0    0  0.14459405043E+02  0.88042170063E+01 -0.80056539234E+01  0.72461571455E+02  0.70000001512E+02 0.  0.
        -12    1    1    2    0    0 -0.14459405043E+02 -0.88042170063E+01  0.80056539234E+01  0.18726428545E+02  0.00000000000E+00 0.  1.
         11    1    3    3    0    0  0.38252099059E+01  0.10757776987E+02 -0.49314276360E+00  0.11428262622E+02  0.51100000000E-03 0. -1.
        -11    1    3    3    0    0  0.22617393562E+02  0.22396018592E+02  0.29095739695E+01  0.31962380407E+02  0.51100000000E-03 0.  1.
         12    1    3    3    0    0 -0.11983198425E+02 -0.24349578572E+02 -0.10422085129E+02  0.29070928426E+02  0.00000000000E+00 0. -1.
</event>
<event>
 7    1  0.2641045E-013  0.7246159E+02  0.7816164E-02  0.1226708E+00
        -11   -1    0    0    0    0  0.00000000000E+00  0.00000000000E+00  0.45593999997E+02  0.45594000000E+02  0.51100000000E-03 0.  1.
         11   -1    0    0    0    0 -0.00000000000E+00 -0.00000000000E+00 -0.45593999997E+02  0.45594000000E+02  0.51100000000E-03 0. -1.
    9900012    2    1    2    0    0  0.15298970192E+02 -0.54257634143E+01 -0.93370775118E+01  0.72461590466E+02  0.70000026278E+02 0.  0.
        -12    1    1    2    0    0 -0.15298970192E+02  0.54257634143E+01  0.93370775118E+01  0.18726409534E+02  0.00000000000E+00 0.  1.
         11    1    3    3    0    0  0.39047861354E+01  0.29717615938E+01  0.12033878730E+02  0.12995882397E+02  0.51100000000E-03 0. -1.
        -11    1    3    3    0    0  0.19832138346E+00  0.72567245546E+01  0.15922333889E+02  0.17499145675E+02  0.51100000000E-03 0.  1.
         12    1    3    3    0    0  0.11195862673E+02 -0.15654249563E+02 -0.37293290131E+02  0.41966562394E+02  0.00000000000E+00 0. -1.
</event>
<event>
 7    1  0.2641045E-013  0.7246117E+02  0.7816164E-02  0.1226709E+00
        -11   -1    0    0    0    0  0.00000000000E+00  0.00000000000E+00  0.45593999997E+02  0.45594000000E+02  0.51100000000E-03 0. -1.
         11   -1    0    0    0    0 -0.00000000000E+00 -0.00000000000E+00 -0.45593999997E+02  0.45594000000E+02  0.51100000000E-03 0.  1.
    9900012    2    1    2    0    0 -0.93413622576E+01 -0.16188973760E+02  0.11619938933E+01  0.72461170316E+02  0.69999478952E+02 0.  0.
        -12    1    1    2    0    0  0.93413622576E+01  0.16188973760E+02 -0.11619938933E+01  0.18726829684E+02  0.00000000000E+00 0.  1.
         11    1    3    3    0    0  0.11483176706E+02  0.17513860734E+02  0.15700436484E+02  0.26174460283E+02  0.51100000000E-03 0. -1.
        -11    1    3    3    0    0 -0.97175128775E+01 -0.18791074617E+01 -0.94493629545E+00  0.99425352019E+01  0.51100000000E-03 0.  1.
        -12    1    3    3    0    0 -0.11107026086E+02 -0.31823727032E+02 -0.13593506295E+02  0.36344174830E+02  0.00000000000E+00 0.  1.
</event>
<event>
 7    1  0.2641045E-013  0.7246158E+02  0.7816164E-02  0.1226708E+00
        -11   -1    0    0    0    0  0.00000000000E+00  0.00000000000E+00  0.45593999997E+02  0.45594000000E+02  0.51100000000E-03 0.  1.
         11   -1    0    0    0    0 -0.00000000000E+00 -0.00000000000E+00 -0.45593999997E+02  0.45594000000E+02  0.51100000000E-03 0. -1.
    9900012    2    1    2    0    0 -0.50071528580E+01  0.83089119558E+01  0.16017781628E+02  0.72461576799E+02  0.70000008473E+02 0.  0.
        -12    1    1    2    0    0  0.50071528580E+01 -0.83089119558E+01 -0.16017781628E+02  0.18726423201E+02  0.00000000000E+00 0.  1.
         11    1    3    3    0    0  0.28019850158E+01  0.36717321940E+01 -0.20619471813E+02  0.21130436707E+02  0.51100000000E-03 0. -1.
        -11    1    3    3    0    0  0.87515710746E+01 -0.98628875209E+01  0.88431486741E+01  0.15876644017E+02  0.51100000000E-03 0.  1.
        -12    1    3    3    0    0 -0.16560708948E+02  0.14500067283E+02  0.27794104767E+02  0.35454496074E+02  0.00000000000E+00 0.  1.
</event>
<event>
 7    1  0.2641045E-013  0.7246157E+02  0.7816164E-02  0.1226708E+00
        -11   -1    0    0    0    0  0.00000000000E+00  0.00000000000E+00  0.45593999997E+02  0.45594000000E+02  0.51100000000E-03 0.  1.
         11   -1    0    0    0    0 -0.00000000000E+00 -0.00000000000E+00 -0.45593999997E+02  0.45594000000E+02  0.51100000000E-03 0. -1.
    9900012    2    1    2    0    0  0.18479886284E+02  0.90777280089E+00  0.28894640008E+01  0.72461568126E+02  0.69999997175E+02 0.  0.
        -12    1    1    2    0    0 -0.18479886284E+02 -0.90777280089E+00 -0.28894640008E+01  0.18726431874E+02  0.00000000000E+00 0.  1.
         11    1    3    3    0    0 -0.18317364494E+02 -0.15657492711E+01 -0.18927583073E+02  0.26386186046E+02  0.51100000000E-03 0. -1.
        -11    1    3    3    0    0  0.38937669268E+01  0.23077153519E+01  0.10237410534E+02  0.11193370615E+02  0.51100000000E-03 0.  1.
        -12    1    3    3    0    0  0.32903483851E+02  0.16580672002E+00  0.11579636540E+02  0.34882011465E+02  0.00000000000E+00 0.  1.
</event>
<event>
 7    1  0.2641045E-013  0.7246200E+02  0.7816164E-02  0.1226707E+00
        -11   -1    0    0    0    0  0.00000000000E+00  0.00000000000E+00  0.45593999997E+02  0.45594000000E+02  0.51100000000E-03 0. -1.
         11   -1    0    0    0    0 -0.00000000000E+00 -0.00000000000E+00 -0.45593999997E+02  0.45594000000E+02  0.51100000000E-03 0.  1.
    9900012    2    1    2    0    0  0.30239317123E+01  0.18282109735E+00  0.18479321847E+02  0.72462004099E+02  0.70000565109E+02 0.  0.
        -12    1    1    2    0    0 -0.30239317123E+01 -0.18282109735E+00 -0.18479321847E+02  0.18725995901E+02  0.00000000000E+00 0.  1.
         11    1    3    3    0    0  0.27456299536E+01  0.20772241553E+02  0.86581752329E+01  0.22671314510E+02  0.51100000000E-03 0. -1.
        -11    1    3    3    0    0 -0.48000521709E+01  0.13442051255E+02  0.12312457091E+01  0.14326381575E+02  0.51100000000E-03 0.  1.
        -12    1    3    3    0    0  0.50783539295E+01 -0.34031471710E+02  0.85899009049E+01  0.35464308015E+02  0.00000000000E+00 0.  1.
</event>
<event>
 7    1  0.2641045E-013  0.7246157E+02  0.7816164E-02  0.1226708E+00
        -11   -1    0    0    0    0  0.00000000000E+00  0.00000000000E+00  0.45593999997E+02  0.45594000000E+02  0.51100000000E-03 0.  1.
         11   -1    0    0    0    0 -0.00000000000E+00 -0.00000000000E+00 -0.45593999997E+02  0.45594000000E+02  0.51100000000E-03 0. -1.
    9900012    2    1    2    0    0  0.12495074152E+02 -0.13524721460E+02 -0.34108829161E+01  0.72461572393E+02  0.70000002734E+02 0.  0.
        -12    1    1    2    0    0 -0.12495074152E+02  0.13524721460E+02  0.34108829161E+01  0.18726427607E+02  0.00000000000E+00 0.  1.
         11    1    3    3    0    0  0.18294196625E+02 -0.21556792303E+02  0.26959321079E+02  0.39066327161E+02  0.51100000000E-03 0. -1.
        -11    1    3    3    0    0 -0.20174378585E+01  0.19981692467E+01 -0.75810335329E+00  0.29389550535E+01  0.51100000000E-03 0.  1.
        -12    1    3    3    0    0 -0.37816846139E+01  0.60339015957E+01 -0.29612100642E+02  0.30456290178E+02  0.00000000000E+00 0.  1.
</event>
<event>
 7    1  0.2641045E-013  0.7246155E+02  0.7816164E-02  0.1226708E+00
        -11   -1    0    0    0    0  0.00000000000E+00  0.00000000000E+00  0.45593999997E+02  0.45594000000E+02  0.51100000000E-03 0. -1.
         11   -1    0    0    0    0 -0.00000000000E+00 -0.00000000000E+00 -0.45593999997E+02  0.45594000000E+02  0.51100000000E-03 0.  1.
    9900012    2    1    2    0    0  0.15738575864E+02  0.83604443567E+01  0.57515490061E+01  0.72461545022E+02  0.69999967078E+02 0.  0.
        -12    1    1    2    0    0 -0.15738575864E+02 -0.83604443567E+01 -0.57515490061E+01  0.18726454978E+02  0.00000000000E+00 0.  1.
         11    1    3    3    0    0  0.11918001546E+02  0.13949381328E+02 -0.14721639313E+02  0.23523406739E+02  0.51100000000E-03 0.  1.
        -11    1    3    3    0    0 -0.13279455364E+02  0.75546444953E+01 -0.45133460397E+01  0.15930689908E+02  0.51100000000E-03 0. -1.
        -12    1    3    3    0    0  0.17100029682E+02 -0.13143581467E+02  0.24986534359E+02  0.33007448374E+02  0.00000000000E+00 0.  1.
</event>
<event>
 7    1  0.2641045E-013  0.7246162E+02  0.7816164E-02  0.1226708E+00
        -11   -1    0    0    0    0  0.00000000000E+00  0.00000000000E+00  0.45593999997E+02  0.45594000000E+02  0.51100000000E-03 0. -1.
         11   -1    0    0    0    0 -0.00000000000E+00 -0.00000000000E+00 -0.45593999997E+02  0.45594000000E+02  0.51100000000E-03 0.  1.
    9900012    2    1    2    0    0 -0.70339055537E+00  0.16522061170E+02  0.87865912728E+01  0.72461616212E+02  0.70000059817E+02 0.  0.
        -12    1    1    2    0    0  0.70339055537E+00 -0.16522061170E+02 -0.87865912728E+01  0.18726383788E+02  0.00000000000E+00 0.  1.
         11    1    3    3    0    0  0.12747742419E+02 -0.17061495306E+02 -0.35855138900E+01  0.21597580165E+02  0.51100000000E-03 0. -1.
        -11    1    3    3    0    0  0.14348827250E+01  0.80272056090E+01 -0.10629310338E+02  0.13396908481E+02  0.51100000000E-03 0.  1.
         12    1    3    3    0    0 -0.14886015700E+02  0.25556350866E+02  0.23001415501E+02  0.37467127566E+02  0.00000000000E+00 0. -1.
</event>
<event>
 7    1  0.2641045E-013  0.7246162E+02  0.7816164E-02  0.1226708E+00
        -11   -1    0    0    0    0  0.00000000000E+00  0.00000000000E+00  0.45593999997E+02  0.45594000000E+02  0.51100000000E-03 0.  1.
         11   -1    0    0    0    0 -0.00000000000E+00 -0.00000000000E+00 -0.45593999997E+02  0.45594000000E+02  0.51100000000E-03 0. -1.
    9900012    2    1    2    0    0 -0.11751659042E+02 -0.14579519524E+02  0.11629114426E+00  0.72461617450E+02  0.70000061429E+02 0.  0.
        -12    1    1    2    0    0  0.11751659042E+02  0.14579519524E+02 -0.11629114426E+00  0.18726382550E+02  0.00000000000E+00 0.  1.
         11    1    3    3    0    0  0.28131071384E+01 -0.16302601362E+02 -0.13887530138E+02  0.21599811956E+02  0.51100000000E-03 0. -1.
        -11    1    3    3    0    0 -0.28374569193E+02 -0.10694913857E+02  0.85425559680E+01  0.31503533485E+02  0.51100000000E-03 0.  1.
         12    1    3    3    0    0  0.13809803012E+02  0.12417995696E+02  0.54612653138E+01  0.19358272009E+02  0.00000000000E+00 0. -1.
</event>
<event>
 7    1  0.2641045E-013  0.7246157E+02  0.7816164E-02  0.1226708E+00
        -11   -1    0    0    0    0  0.00000000000E+00  0.00000000000E+00  0.45593999997E+02  0.45594000000E+02  0.51100000000E-03 0.  1.
         11   -1    0    0    0    0 -0.00000000000E+00 -0.00000000000E+00 -0.45593999997E+02  0.45594000000E+02  0.51100000000E-03 0. -1.
    9900012    2    1    2    0    0 -0.33803337995E+01 -0.14782804110E+02 -0.10987314425E+02  0.72461573960E+02  0.70000004776E+02 0.  0.
        -12    1    1    2    0    0  0.33803337995E+01  0.14782804110E+02  0.10987314425E+02  0.18726426040E+02  0.00000000000E+00 0.  1.
         11    1    3    3    0    0 -0.10142512064E+02 -0.20030099306E+02 -0.20640989793E+02  0.30497965327E+02  0.51100000000E-03 0. -1.
        -11    1    3    3    0    0 -0.16744646020E+02  0.22120322559E+00  0.29062041754E+01  0.16996415039E+02  0.51100000000E-03 0.  1.
         12    1    3    3    0    0  0.23506824285E+02  0.50260919709E+01  0.67474711924E+01  0.24967193594E+02  0.00000000000E+00 0. -1.
</event>
<event>
 7    1  0.2641045E-013  0.7246160E+02  0.7816164E-02  0.1226708E+00
        -11   -1    0    0    0    0  0.00000000000E+00  0.00000000000E+00  0.45593999997E+02  0.45594000000E+02  0.51100000000E-03 0. -1.
         11   -1    0    0    0    0 -0.00000000000E+00 -0.00000000000E+00 -0.45593999997E+02  0.45594000000E+02  0.51100000000E-03 0.  1.
    9900012    2    1    2    0    0 -0.60282790369E+01  0.13422539842E+02  0.11583322134E+02  0.72461599502E+02  0.70000038048E+02 0.  0.
        -12    1    1    2    0    0  0.60282790369E+01 -0.13422539842E+02 -0.11583322134E+02  0.18726400498E+02  0.00000000000E+00 0.  1.
         11    1    3    3    0    0 -0.21175686806E+02  0.10075996233E+02  0.56126978309E+01  0.24113021150E+02  0.51100000000E-03 0. -1.
        -11    1    3    3    0    0 -0.49963987053E+01 -0.12371998354E+01 -0.16819001536E+02  0.17589015787E+02  0.51100000000E-03 0.  1.
        -12    1    3    3    0    0  0.20143806475E+02  0.45837434452E+01  0.22789625839E+02  0.30759562564E+02  0.00000000000E+00 0.  1.
</event>
<event>
 7    1  0.2641045E-013  0.7246155E+02  0.7816164E-02  0.1226708E+00
        -11   -1    0    0    0    0  0.00000000000E+00  0.00000000000E+00  0.45593999997E+02  0.45594000000E+02  0.51100000000E-03 0.  1.
         11   -1    0    0    0    0 -0.00000000000E+00 -0.00000000000E+00 -0.45593999997E+02  0.45594000000E+02  0.51100000000E-03 0. -1.
    9900012    2    1    2    0    0 -0.11850730681E+02  0.14497688518E+02 -0.23936742991E+00  0.72461545803E+02  0.69999968095E+02 0.  0.
        -12    1    1    2    0    0  0.11850730681E+02 -0.14497688518E+02  0.23936742991E+00  0.18726454197E+02  0.00000000000E+00 0.  1.
         11    1    3    3    0    0 -0.14257888810E+02  0.14945931160E+02 -0.11682620681E+02  0.23730821263E+02  0.51100000000E-03 0. -1.
        -11    1    3    3    0    0 -0.11988747294E+02  0.18797194515E+02  0.10588568408E+02  0.24681619973E+02  0.51100000000E-03 0.  1.
        -12    1    3    3    0    0  0.14395905423E+02 -0.19245437157E+02  0.85468484349E+00  0.24049104567E+02  0.00000000000E+00 0.  1.
</event>
<event>
 7    1  0.2641045E-013  0.7246161E+02  0.7816164E-02  0.1226708E+00
        -11   -1    0    0    0    0  0.00000000000E+00  0.00000000000E+00  0.45593999997E+02  0.45594000000E+02  0.51100000000E-03 0.  1.
         11   -1    0    0    0    0 -0.00000000000E+00 -0.00000000000E+00 -0.45593999997E+02  0.45594000000E+02  0.51100000000E-03 0. -1.
    9900012    2    1    2    0    0  0.11702237817E+02  0.14548822449E+02  0.14377742460E+01  0.72461606878E+02  0.70000047657E+02 0.  0.
        -12    1    1    2    0    0 -0.11702237817E+02 -0.14548822449E+02 -0.14377742460E+01  0.18726393122E+02  0.00000000000E+00 0.  1.
         11    1    3    3    0    0  0.16909302411E+02  0.30545147793E+02 -0.15623281556E+02  0.38249411611E+02  0.51100000000E-03 0. -1.
        -11    1    3    3    0    0  0.15132298164E+01  0.51635778370E+01  0.92040609288E+01  0.10661479184E+02  0.51100000000E-03 0.  1.
        -12    1    3    3    0    0 -0.67202944104E+01 -0.21159903181E+02  0.78569948730E+01  0.23550716083E+02  0.00000000000E+00 0.  1.
</event>
<event>
 7    1  0.2641045E-013  0.7246157E+02  0.7816164E-02  0.1226708E+00
        -11   -1    0    0    0    0  0.00000000000E+00  0.00000000000E+00  0.45593999997E+02  0.45594000000E+02  0.51100000000E-03 0.  1.
         11   -1    0    0    0    0 -0.00000000000E+00 -0.00000000000E+00 -0.45593999997E+02  0.45594000000E+02  0.51100000000E-03 0. -1.
    9900012    2    1    2    0    0  0.18539406643E+02 -0.25339092061E+01 -0.74099344462E+00  0.72461565053E+02  0.69999993173E+02 0.  0.
        -12    1    1    2    0    0 -0.18539406643E+02  0.25339092061E+01  0.74099344462E+00  0.18726434947E+02  0.00000000000E+00 0.  1.
         11    1    3    3    0    0  0.18463719333E+02 -0.21108387475E+02  0.13404709434E+02  0.31083101336E+02  0.51100000000E-03 0. -1.
        -11    1    3    3    0    0  0.12134146138E+02 -0.89112353685E+00  0.32832150546E+01  0.12602027814E+02  0.51100000000E-03 0.  1.
        -12    1    3    3    0    0 -0.12058458829E+02  0.19465601805E+02 -0.17428917933E+02  0.28776435903E+02  0.00000000000E+00 0.  1.
</event>
<event>
 7    1  0.2641045E-013  0.7246154E+02  0.7816164E-02  0.1226708E+00
        -11   -1    0    0    0    0  0.00000000000E+00  0.00000000000E+00  0.45593999997E+02  0.45594000000E+02  0.51100000000E-03 0. -1.
         11   -1    0    0    0    0 -0.00000000000E+00 -0.00000000000E+00 -0.45593999997E+02  0.45594000000E+02  0.51100000000E-03 0.  1.
    9900012    2    1    2    0    0 -0.53356458634E+01 -0.17356526621E+02  0.45784563296E+01  0.72461537560E+02  0.69999957358E+02 0.  0.
        -12    1    1    2    0    0  0.53356458634E+01  0.17356526621E+02 -0.45784563296E+01  0.18726462440E+02  0.00000000000E+00 0.  1.
         11    1    3    3    0    0 -0.16039048661E+01  0.39728017145E+01  0.21737794269E+02  0.22155978070E+02  0.51100000000E-03 0. -1.
        -11    1    3    3    0    0 -0.86956784314E+01  0.11311661376E+02 -0.48591852233E+01  0.15072497728E+02  0.51100000000E-03 0.  1.
         12    1    3    3    0    0  0.49639374340E+01 -0.32640989712E+02 -0.12300152717E+02  0.35233061762E+02  0.00000000000E+00 0. -1.
</event>
<event>
 7    1  0.2641045E-013  0.7246152E+02  0.7816164E-02  0.1226708E+00
        -11   -1    0    0    0    0  0.00000000000E+00  0.00000000000E+00  0.45593999997E+02  0.45594000000E+02  0.51100000000E-03 0.  1.
         11   -1    0    0    0    0 -0.00000000000E+00 -0.00000000000E+00 -0.45593999997E+02  0.45594000000E+02  0.51100000000E-03 0. -1.
    9900012    2    1    2    0    0 -0.31776799949E+01 -0.50469345302E+01 -0.17751390301E+02  0.72461519927E+02  0.69999934387E+02 0.  0.
        -12    1    1    2    0    0  0.31776799949E+01  0.50469345302E+01  0.17751390301E+02  0.18726480073E+02  0.00000000000E+00 0.  1.
         11    1    3    3    0    0 -0.11027583925E+02 -0.13343243665E+02 -0.28906707698E+02  0.33693434211E+02  0.51100000000E-03 0. -1.
        -11    1    3    3    0    0 -0.13618787767E+02  0.27862586495E+01 -0.11798580501E+00  0.13901386204E+02  0.51100000000E-03 0.  1.
        -12    1    3    3    0    0  0.21468691696E+02  0.55100504856E+01  0.11273303202E+02  0.24866699511E+02  0.00000000000E+00 0.  1.
</event>
<event>
 7    1  0.2641045E-013  0.7246157E+02  0.7816164E-02  0.1226708E+00
        -11   -1    0    0    0    0  0.00000000000E+00  0.00000000000E+00  0.45593999997E+02  0.45594000000E+02  0.51100000000E-03 0. -1.
         11   -1    0    0    0    0 -0.00000000000E+00 -0.00000000000E+00 -0.45593999997E+02  0.45594000000E+02  0.51100000000E-03 0.  1.
    9900012    2    1    2    0    0 -0.42916951920E+01  0.16645469678E+02 -0.74289095181E+01  0.72461574686E+02  0.70000005721E+02 0.  0.
        -12    1    1    2    0    0  0.42916951920E+01 -0.16645469678E+02  0.74289095181E+01  0.18726425314E+02  0.00000000000E+00 0.  1.
         11    1    3    3    0    0  0.10922337525E+02  0.19163435754E+02 -0.19983510379E+02  0.29763659288E+02  0.51100000000E-03 0. -1.
        -11    1    3    3    0    0 -0.10329589626E+02  0.14044705666E+02 -0.49358924822E+01  0.18119525765E+02  0.51100000000E-03 0.  1.
        -12    1    3    3    0    0 -0.48844430908E+01 -0.16562671742E+02  0.17490493343E+02  0.24578389632E+02  0.00000000000E+00 0.  1.
</event>
<event>
 7    1  0.2641045E-013  0.7246158E+02  0.7816164E-02  0.1226708E+00
        -11   -1    0    0    0    0  0.00000000000E+00  0.00000000000E+00  0.45593999997E+02  0.45594000000E+02  0.51100000000E-03 0.  1.
         11   -1    0    0    0    0 -0.00000000000E+00 -0.00000000000E+00 -0.45593999997E+02  0.45594000000E+02  0.51100000000E-03 0. -1.
    9900012    2    1    2    0    0 -0.15338254778E+02  0.38708789966E+01 -0.10021621633E+02  0.72461583792E+02  0.70000017584E+02 0.  0.
        -12    1    1    2    0    0  0.15338254778E+02 -0.38708789966E+01  0.10021621633E+02  0.18726416208E+02  0.00000000000E+00 0.  1.
         11    1    3    3    0    0  0.25190964704E+01  0.87986315564E-01 -0.88155471276E+00  0.26703422237E+01  0.51100000000E-03 0. -1.
        -11    1    3    3    0    0  0.23772109764E+02 -0.83193271318E+01 -0.79909644705E+01  0.26423094444E+02  0.51100000000E-03 0.  1.
         12    1    3    3    0    0 -0.41629461012E+02  0.12102219813E+02 -0.11491024497E+01  0.43368147125E+02  0.00000000000E+00 0. -1.
</event>
<event>
 7    1  0.2641045E-013  0.7246146E+02  0.7816164E-02  0.1226708E+00
        -11   -1    0    0    0    0  0.00000000000E+00  0.00000000000E+00  0.45593999997E+02  0.45594000000E+02  0.51100000000E-03 0.  1.
         11   -1    0    0    0    0 -0.00000000000E+00 -0.00000000000E+00 -0.45593999997E+02  0.45594000000E+02  0.51100000000E-03 0. -1.
    9900012    2    1    2    0    0  0.16511170312E+02  0.71058885378E+01 -0.52508130776E+01  0.72461456406E+02  0.69999851639E+02 0.  0.
        -12    1    1    2    0    0 -0.16511170312E+02 -0.71058885378E+01  0.52508130776E+01  0.18726543594E+02  0.00000000000E+00 0.  1.
         11    1    3    3    0    0  0.10008455704E+02 -0.41884266002E+01 -0.91235084923E+00  0.10887813706E+02  0.51100000000E-03 0. -1.
        -11    1    3    3    0    0 -0.15531001422E+02 -0.38175315214E+01  0.19878669876E+02  0.25513664346E+02  0.51100000000E-03 0.  1.
         12    1    3    3    0    0  0.22033716030E+02  0.15111846659E+02 -0.24217132104E+02  0.36059978354E+02  0.00000000000E+00 0. -1.
</event>
<event>
 7    1  0.2641045E-013  0.7246158E+02  0.7816164E-02  0.1226708E+00
        -11   -1    0    0    0    0  0.00000000000E+00  0.00000000000E+00  0.45593999997E+02  0.45594000000E+02  0.51100000000E-03 0. -1.
         11   -1    0    0    0    0 -0.00000000000E+00 -0.00000000000E+00 -0.45593999997E+02  0.45594000000E+02  0.51100000000E-03 0.  1.
    9900012    2    1    2    0    0  0.13621247555E+02  0.10969514950E+02 -0.66940377375E+01  0.72461580577E+02  0.70000013395E+02 0.  0.
        -12    1    1    2    0    0 -0.13621247555E+02 -0.10969514950E+02  0.66940377375E+01  0.18726419423E+02  0.00000000000E+00 0.  1.
         11    1    3    3    0    0  0.82454282895E+00 -0.59377431092E+01  0.22044617206E+02  0.22845170433E+02  0.51100000000E-03 0. -1.
        -11    1    3    3    0    0 -0.83894793953E+01 -0.17213060482E+01  0.10034953734E+01  0.86228337721E+01  0.51100000000E-03 0.  1.
        -12    1    3    3    0    0  0.21186184121E+02  0.18628564107E+02 -0.29742150317E+02  0.40993576372E+02  0.00000000000E+00 0.  1.
</event>
<event>
 7    1  0.2641045E-013  0.7246161E+02  0.7816164E-02  0.1226708E+00
        -11   -1    0    0    0    0  0.00000000000E+00  0.00000000000E+00  0.45593999997E+02  0.45594000000E+02  0.51100000000E-03 0. -1.
         11   -1    0    0    0    0 -0.00000000000E+00 -0.00000000000E+00 -0.45593999997E+02  0.45594000000E+02  0.51100000000E-03 0.  1.
    9900012    2    1    2    0    0 -0.83302370829E+01 -0.61005336519E+00  0.16760453304E+02  0.72461606596E+02  0.70000047290E+02 0.  0.
        -12    1    1    2    0    0  0.83302370829E+01  0.61005336519E+00 -0.16760453304E+02  0.18726393404E+02  0.00000000000E+00 0.  1.
         11    1    3    3    0    0 -0.12243631203E+02 -0.15188538945E+01  0.13479178747E+02  0.18272976827E+02  0.51100000000E-03 0. -1.
        -11    1    3    3    0    0 -0.12310719453E+02 -0.11544579549E+02  0.21130199151E+02  0.27042863141E+02  0.51100000000E-03 0.  1.
         12    1    3    3    0    0  0.16224113573E+02  0.12453380079E+02 -0.17848924594E+02  0.27145766627E+02  0.00000000000E+00 0. -1.
</event>
<event>
 7    1  0.2641045E-013  0.7246167E+02  0.7816164E-02  0.1226708E+00
        -11   -1    0    0    0    0  0.00000000000E+00  0.00000000000E+00  0.45593999997E+02  0.45594000000E+02  0.51100000000E-03 0.  1.
         11   -1    0    0    0    0 -0.00000000000E+00 -0.00000000000E+00 -0.45593999997E+02  0.45594000000E+02  0.51100000000E-03 0. -1.
    9900012    2    1    2    0    0  0.14897910708E+02  0.89586252646E+01 -0.69620999341E+01  0.72461667055E+02  0.70000126048E+02 0.  0.
        -12    1    1    2    0    0 -0.14897910708E+02 -0.89586252646E+01  0.69620999341E+01  0.18726332945E+02  0.00000000000E+00 0.  1.
         11    1    3    3    0    0  0.61542538704E+01 -0.17844799711E+02 -0.23051794400E+01  0.19016455241E+02  0.51100000000E-03 0. -1.
        -11    1    3    3    0    0  0.34454431190E+01 -0.12505349619E+02  0.23053488366E+01  0.13174577067E+02  0.51100000000E-03 0.  1.
        -12    1    3    3    0    0  0.52982137186E+01  0.39308774594E+02 -0.69622693306E+01  0.40270634747E+02  0.00000000000E+00 0.  1.
</event>
<event>
 7    1  0.2641045E-013  0.7246162E+02  0.7816164E-02  0.1226708E+00
        -11   -1    0    0    0    0  0.00000000000E+00  0.00000000000E+00  0.45593999997E+02  0.45594000000E+02  0.51100000000E-03 0.  1.
         11   -1    0    0    0    0 -0.00000000000E+00 -0.00000000000E+00 -0.45593999997E+02  0.45594000000E+02  0.51100000000E-03 0. -1.
    9900012    2    1    2    0    0 -0.56532744861E+01  0.41559737550E+01 -0.17362191982E+02  0.72461619124E+02  0.70000063610E+02 0.  0.
        -12    1    1    2    0    0  0.56532744861E+01 -0.41559737550E+01  0.17362191982E+02  0.18726380876E+02  0.00000000000E+00 0.  1.
         11    1    3    3    0    0  0.64897893011E+00  0.60348136498E+01  0.43638963574E+01  0.74755428645E+01  0.51100000000E-03 0. -1.
        -11    1    3    3    0    0  0.31641582755E+01 -0.27473731350E+02  0.34345118756E+01  0.27867789363E+02  0.51100000000E-03 0.  1.
         12    1    3    3    0    0 -0.94664116917E+01  0.25594891456E+02 -0.25160600215E+02  0.37118286897E+02  0.00000000000E+00 0. -1.
</event>
<event>
 7    1  0.2641045E-013  0.7246155E+02  0.7816164E-02  0.1226708E+00
        -11   -1    0    0    0    0  0.00000000000E+00  0.00000000000E+00  0.45593999997E+02  0.45594000000E+02  0.51100000000E-03 0. -1.
         11   -1    0    0    0    0 -0.00000000000E+00 -0.00000000000E+00 -0.45593999997E+02  0.45594000000E+02  0.51100000000E-03 0.  1.
    9900012    2    1    2    0    0 -0.13247092173E+02 -0.14281011229E+01 -0.13158832649E+02  0.72461553446E+02  0.69999978052E+02 0.  0.
        -12    1    1    2    0    0  0.13247092173E+02  0.14281011229E+01  0.13158832649E+02  0.18726446554E+02  0.00000000000E+00 0.  1.
         11    1    3    3    0    0  0.15793399878E+02  0.12142972562E+02  0.16369930466E+02  0.25784838298E+02  0.51100000000E-03 0. -1.
        -11    1    3    3    0    0 -0.15201988408E+02  0.18162097627E+01 -0.10513246402E+02  0.18572221720E+02  0.51100000000E-03 0.  1.
        -12    1    3    3    0    0 -0.13838503643E+02 -0.15387283447E+02 -0.19015516713E+02  0.28104493428E+02  0.00000000000E+00 0.  1.
</event>
<event>
 7    1  0.2641045E-013  0.7246169E+02  0.7816164E-02  0.1226708E+00
        -11   -1    0    0    0    0  0.00000000000E+00  0.00000000000E+00  0.45593999997E+02  0.45594000000E+02  0.51100000000E-03 0.  1.
         11   -1    0    0    0    0 -0.00000000000E+00 -0.00000000000E+00 -0.45593999997E+02  0.45594000000E+02  0.51100000000E-03 0. -1.
    9900012    2    1    2    0    0 -0.10022728251E+02  0.11358516445E+02 -0.11009248310E+02  0.72461694284E+02  0.70000161519E+02 0.  0.
        -12    1    1    2    0    0  0.10022728251E+02 -0.11358516445E+02  0.11009248310E+02  0.18726305716E+02  0.00000000000E+00 0.  1.
         11    1    3    3    0    0  0.14711058394E+02 -0.72781357044E+01 -0.36423565333E+01  0.16812294899E+02  0.51100000000E-03 0. -1.
        -11    1    3    3    0    0 -0.12053426003E+02 -0.11161096615E+01  0.17613039082E+02  0.21371708522E+02  0.51100000000E-03 0.  1.
         12    1    3    3    0    0 -0.12680360642E+02  0.19752761810E+02 -0.24979930859E+02  0.34277690863E+02  0.00000000000E+00 0. -1.
</event>
<event>
 7    1  0.2641045E-013  0.7246158E+02  0.7816164E-02  0.1226708E+00
        -11   -1    0    0    0    0  0.00000000000E+00  0.00000000000E+00  0.45593999997E+02  0.45594000000E+02  0.51100000000E-03 0.  1.
         11   -1    0    0    0    0 -0.00000000000E+00 -0.00000000000E+00 -0.45593999997E+02  0.45594000000E+02  0.51100000000E-03 0. -1.
    9900012    2    1    2    0    0  0.39987422373E+01 -0.18273921044E+02 -0.86748781962E+00  0.72461583768E+02  0.70000017552E+02 0.  0.
        -12    1    1    2    0    0 -0.39987422373E+01  0.18273921044E+02  0.86748781962E+00  0.18726416232E+02  0.00000000000E+00 0.  1.
         11    1    3    3    0    0  0.13685123172E+02 -0.25082333766E+01 -0.14786422328E+02  0.20303007571E+02  0.51100000000E-03 0. -1.
        -11    1    3    3    0    0 -0.88278102316E+01 -0.16005337885E+02 -0.14742790847E+02  0.23482992921E+02  0.51100000000E-03 0.  1.
         12    1    3    3    0    0 -0.85857070307E+00  0.23965021812E+00  0.28661725355E+02  0.28675583276E+02  0.00000000000E+00 0. -1.
</event>
<event>
 7    1  0.2641045E-013  0.7246157E+02  0.7816164E-02  0.1226708E+00
        -11   -1    0    0    0    0  0.00000000000E+00  0.00000000000E+00  0.45593999997E+02  0.45594000000E+02  0.51100000000E-03 0.  1.
         11   -1    0    0    0    0 -0.00000000000E+00 -0.00000000000E+00 -0.45593999997E+02  0.45594000000E+02  0.51100000000E-03 0. -1.
    9900012    2    1    2    0    0  0.14531563120E+02  0.85582712131E+01 -0.81405567858E+01  0.72461574883E+02  0.70000005978E+02 0.  0.
        -12    1    1    2    0    0 -0.14531563120E+02 -0.85582712131E+01  0.81405567858E+01  0.18726425117E+02  0.00000000000E+00 0.  1.
         11    1    3    3    0    0  0.18396483135E+02  0.14896229696E+02 -0.33911070385E+02  0.41355639831E+02  0.51100000000E-03 0. -1.
        -11    1    3    3    0    0 -0.48838372549E+01 -0.57773562879E+01  0.27398061552E+01  0.80458840434E+01  0.51100000000E-03 0.  1.
        -12    1    3    3    0    0  0.10189172394E+01 -0.56060219490E+00  0.23030707444E+02  0.23060051009E+02  0.00000000000E+00 0.  1.
</event>
<event>
 7    1  0.2641045E-013  0.7246157E+02  0.7816164E-02  0.1226708E+00
        -11   -1    0    0    0    0  0.00000000000E+00  0.00000000000E+00  0.45593999997E+02  0.45594000000E+02  0.51100000000E-03 0. -1.
         11   -1    0    0    0    0 -0.00000000000E+00 -0.00000000000E+00 -0.45593999997E+02  0.45594000000E+02  0.51100000000E-03 0.  1.
    9900012    2    1    2    0    0  0.13588716400E+02  0.91343129177E+01 -0.90879210001E+01  0.72461569641E+02  0.69999999149E+02 0.  0.
        -12    1    1    2    0    0 -0.13588716400E+02 -0.91343129177E+01  0.90879210001E+01  0.18726430359E+02  0.00000000000E+00 0.  1.
         11    1    3    3    0    0 -0.17340386943E+02  0.36541931142E+01 -0.12862429803E+02  0.21897128746E+02  0.51100000000E-03 0. -1.
        -11    1    3    3    0    0 -0.80329745192E+01 -0.38725655224E+01 -0.39574256409E+01  0.97563651692E+01  0.51100000000E-03 0.  1.
         12    1    3    3    0    0  0.38962077862E+02  0.93526853259E+01  0.77319344437E+01  0.40808075725E+02  0.00000000000E+00 0. -1.
</event>
<event>
 7    1  0.2641045E-013  0.7246156E+02  0.7816164E-02  0.1226708E+00
        -11   -1    0    0    0    0  0.00000000000E+00  0.00000000000E+00  0.45593999997E+02  0.45594000000E+02  0.51100000000E-03 0. -1.
         11   -1    0    0    0    0 -0.00000000000E+00 -0.00000000000E+00 -0.45593999997E+02  0.45594000000E+02  0.51100000000E-03 0.  1.
    9900012    2    1    2    0    0  0.14464375146E+02  0.81178622607E+01  0.86926193442E+01  0.72461562349E+02  0.69999989649E+02 0.  0.
        -12    1    1    2    0    0 -0.14464375146E+02 -0.81178622607E+01 -0.86926193442E+01  0.18726437651E+02  0.00000000000E+00 0.  1.
         11    1    3    3    0    0 -0.10261323876E+01 -0.13131859245E+02 -0.16823504281E+02  0.21366538593E+02  0.51100000000E-03 0.  1.
        -11    1    3    3    0    0  0.80178066618E+01 -0.75295384674E+01  0.16853734139E+02  0.20125295721E+02  0.51100000000E-03 0. -1.
        -12    1    3    3    0    0  0.74727008717E+01  0.28779259973E+02  0.86623894867E+01  0.30969728034E+02  0.00000000000E+00 0.  1.
</event>
<event>
 7    1  0.2641045E-013  0.7246152E+02  0.7816164E-02  0.1226708E+00
        -11   -1    0    0    0    0  0.00000000000E+00  0.00000000000E+00  0.45593999997E+02  0.45594000000E+02  0.51100000000E-03 0. -1.
         11   -1    0    0    0    0 -0.00000000000E+00 -0.00000000000E+00 -0.45593999997E+02  0.45594000000E+02  0.51100000000E-03 0.  1.
    9900012    2    1    2    0    0 -0.71410528234E+01 -0.69788440018E+01  0.15842414086E+02  0.72461521872E+02  0.69999936920E+02 0.  0.
        -12    1    1    2    0    0  0.71410528234E+01  0.69788440018E+01 -0.15842414086E+02  0.18726478128E+02  0.00000000000E+00 0.  1.
         11    1    3    3    0    0 -0.18607921127E+02  0.15599597407E+02  0.16926356603E+02  0.29599049242E+02  0.51100000000E-03 0. -1.
        -11    1    3    3    0    0  0.28082635797E+01  0.88838733523E+01 -0.39183804641E+01  0.10107584073E+02  0.51100000000E-03 0.  1.
         12    1    3    3    0    0  0.86586047242E+01 -0.31462314761E+02  0.28344379468E+01  0.32754888556E+02  0.00000000000E+00 0. -1.
</event>
<event>
 7    1  0.2641045E-013  0.7246153E+02  0.7816164E-02  0.1226708E+00
        -11   -1    0    0    0    0  0.00000000000E+00  0.00000000000E+00  0.45593999997E+02  0.45594000000E+02  0.51100000000E-03 0. -1.
         11   -1    0    0    0    0 -0.00000000000E+00 -0.00000000000E+00 -0.45593999997E+02  0.45594000000E+02  0.51100000000E-03 0.  1.
    9900012    2    1    2    0    0  0.14432120178E+02 -0.11402145475E+02 -0.35193383606E+01  0.72461527914E+02  0.69999944792E+02 0.  0.
        -12    1    1    2    0    0 -0.14432120178E+02  0.11402145475E+02  0.35193383606E+01  0.18726472086E+02  0.00000000000E+00 0.  1.
         11    1    3    3    0    0  0.58858377302E+01  0.77600562759E+01 -0.22917173529E+02  0.24900971909E+02  0.51100000000E-03 0. -1.
        -11    1    3    3    0    0 -0.12554107067E+02  0.65000617336E+00  0.12663466621E+02  0.17843528222E+02  0.51100000000E-03 0.  1.
         12    1    3    3    0    0  0.21100389515E+02 -0.19812207925E+02  0.67343685469E+01  0.29717027783E+02  0.00000000000E+00 0. -1.
</event>
<event>
 7    1  0.2641045E-013  0.7246152E+02  0.7816164E-02  0.1226708E+00
        -11   -1    0    0    0    0  0.00000000000E+00  0.00000000000E+00  0.45593999997E+02  0.45594000000E+02  0.51100000000E-03 0.  1.
         11   -1    0    0    0    0 -0.00000000000E+00 -0.00000000000E+00 -0.45593999997E+02  0.45594000000E+02  0.51100000000E-03 0. -1.
    9900012    2    1    2    0    0  0.15092898046E+01  0.94744076195E+00 -0.18641494278E+02  0.72461523860E+02  0.69999939510E+02 0.  0.
        -12    1    1    2    0    0 -0.15092898046E+01 -0.94744076195E+00  0.18641494278E+02  0.18726476140E+02  0.00000000000E+00 0.  1.
         11    1    3    3    0    0  0.37115244528E+01  0.30615867301E+02 -0.93430843707E+01  0.32224214035E+02  0.51100000000E-03 0. -1.
        -11    1    3    3    0    0  0.98936101849E+01 -0.41192552978E+01 -0.93182248093E+00  0.10757326810E+02  0.51100000000E-03 0.  1.
        -12    1    3    3    0    0 -0.12095844833E+02 -0.25549171242E+02 -0.83665874265E+01  0.29479983014E+02  0.00000000000E+00 0.  1.
</event>
<event>
 7    1  0.2641045E-013  0.7246158E+02  0.7816164E-02  0.1226708E+00
        -11   -1    0    0    0    0  0.00000000000E+00  0.00000000000E+00  0.45593999997E+02  0.45594000000E+02  0.51100000000E-03 0.  1.
         11   -1    0    0    0    0 -0.00000000000E+00 -0.00000000000E+00 -0.45593999997E+02  0.45594000000E+02  0.51100000000E-03 0. -1.
    9900012    2    1    2    0    0 -0.33323192288E+01 -0.16403697086E+02 -0.83960175920E+01  0.72461581737E+02  0.70000014906E+02 0.  0.
        -12    1    1    2    0    0  0.33323192288E+01  0.16403697086E+02  0.83960175920E+01  0.18726418263E+02  0.00000000000E+00 0.  1.
         11    1    3    3    0    0 -0.11713045322E+02 -0.23205244116E+01 -0.28893025030E+02  0.31263191774E+02  0.51100000000E-03 0. -1.
        -11    1    3    3    0    0  0.17567048287E+02  0.88945190644E+00  0.65526748690E+01  0.18770451737E+02  0.51100000000E-03 0.  1.
        -12    1    3    3    0    0 -0.91863221935E+01 -0.14972624581E+02  0.13944332569E+02  0.22427938227E+02  0.00000000000E+00 0.  1.
</event>
<event>
 7    1  0.2641045E-013  0.7246155E+02  0.7816164E-02  0.1226708E+00
        -11   -1    0    0    0    0  0.00000000000E+00  0.00000000000E+00  0.45593999997E+02  0.45594000000E+02  0.51100000000E-03 0.  1.
         11   -1    0    0    0    0 -0.00000000000E+00 -0.00000000000E+00 -0.45593999997E+02  0.45594000000E+02  0.51100000000E-03 0. -1.
    9900012    2    1    2    0    0  0.12519274541E+02  0.12290819492E+02  0.65485560488E+01  0.72461546381E+02  0.69999968848E+02 0.  0.
        -12    1    1    2    0    0 -0.12519274541E+02 -0.12290819492E+02 -0.65485560488E+01  0.18726453619E+02  0.00000000000E+00 0.  1.
         11    1    3    3    0    0  0.96087353582E+01  0.97107083002E+01 -0.50967590609E+01  0.14580898603E+02  0.51100000000E-03 0. -1.
        -11    1    3    3    0    0 -0.18919721376E+02  0.20240843996E+02  0.10952040474E+02  0.29792529490E+02  0.51100000000E-03 0.  1.
         12    1    3    3    0    0  0.21830260559E+02 -0.17660732804E+02  0.69327463565E+00  0.28088118288E+02  0.00000000000E+00 0. -1.
</event>
<event>
 7    1  0.2641045E-013  0.7246158E+02  0.7816164E-02  0.1226708E+00
        -11   -1    0    0    0    0  0.00000000000E+00  0.00000000000E+00  0.45593999997E+02  0.45594000000E+02  0.51100000000E-03 0. -1.
         11   -1    0    0    0    0 -0.00000000000E+00 -0.00000000000E+00 -0.45593999997E+02  0.45594000000E+02  0.51100000000E-03 0.  1.
    9900012    2    1    2    0    0  0.61272178757E+01  0.86689868075E+01  0.15426747343E+02  0.72461583772E+02  0.70000017557E+02 0.  0.
        -12    1    1    2    0    0 -0.61272178757E+01 -0.86689868075E+01 -0.15426747343E+02  0.18726416228E+02  0.00000000000E+00 0.  1.
         11    1    3    3    0    0  0.22371333085E+01 -0.49640705180E+01  0.29183396840E+02  0.29686990634E+02  0.51100000000E-03 0. -1.
        -11    1    3    3    0    0  0.11729276031E+02  0.22365471489E+01  0.98065239822E+01  0.15451406804E+02  0.51100000000E-03 0.  1.
        -12    1    3    3    0    0 -0.78391914637E+01  0.11396510177E+02 -0.23563173479E+02  0.27323186333E+02  0.00000000000E+00 0.  1.
</event>
<event>
 7    1  0.2641045E-013  0.7246158E+02  0.7816164E-02  0.1226708E+00
        -11   -1    0    0    0    0  0.00000000000E+00  0.00000000000E+00  0.45593999997E+02  0.45594000000E+02  0.51100000000E-03 0. -1.
         11   -1    0    0    0    0 -0.00000000000E+00 -0.00000000000E+00 -0.45593999997E+02  0.45594000000E+02  0.51100000000E-03 0.  1.
    9900012    2    1    2    0    0  0.99504827010E+01  0.15674880906E+02 -0.24422900870E+01  0.72461580741E+02  0.70000013608E+02 0.  0.
        -12    1    1    2    0    0 -0.99504827010E+01 -0.15674880906E+02  0.24422900870E+01  0.18726419259E+02  0.00000000000E+00 0.  1.
         11    1    3    3    0    0  0.52826488222E+01 -0.18694070694E+02  0.20319185911E+01  0.19532110770E+02  0.51100000000E-03 0. -1.
        -11    1    3    3    0    0  0.70765611214E+01  0.13429664318E+02 -0.21163522410E+02  0.26044736168E+02  0.51100000000E-03 0.  1.
        -12    1    3    3    0    0 -0.24087272425E+01  0.20939287282E+02  0.16689313732E+02  0.26884733803E+02  0.00000000000E+00 0.  1.
</event>
<event>
 7    1  0.2641045E-013  0.7246159E+02  0.7816164E-02  0.1226708E+00
        -11   -1    0    0    0    0  0.00000000000E+00  0.00000000000E+00  0.45593999997E+02  0.45594000000E+02  0.51100000000E-03 0.  1.
         11   -1    0    0    0    0 -0.00000000000E+00 -0.00000000000E+00 -0.45593999997E+02  0.45594000000E+02  0.51100000000E-03 0. -1.
    9900012    2    1    2    0    0 -0.56157298716E+01  0.74365538884E+01 -0.16243147682E+02  0.72461585438E+02  0.70000019728E+02 0.  0.
        -12    1    1    2    0    0  0.56157298716E+01 -0.74365538884E+01  0.16243147682E+02  0.18726414562E+02  0.00000000000E+00 0.  1.
         11    1    3    3    0    0 -0.29925400932E+02 -0.69475423385E+01 -0.56151159762E+01  0.31230233640E+02  0.51100000000E-03 0. -1.
        -11    1    3    3    0    0  0.89577144039E+01 -0.64128326332E+01  0.37684433350E+01  0.11643291423E+02  0.51100000000E-03 0.  1.
        -12    1    3    3    0    0  0.15351956657E+02  0.20796928860E+02 -0.14396475041E+02  0.29588060376E+02  0.00000000000E+00 0.  1.
</event>
<event>
 7    1  0.2641045E-013  0.7246160E+02  0.7816164E-02  0.1226708E+00
        -11   -1    0    0    0    0  0.00000000000E+00  0.00000000000E+00  0.45593999997E+02  0.45594000000E+02  0.51100000000E-03 0. -1.
         11   -1    0    0    0    0 -0.00000000000E+00 -0.00000000000E+00 -0.45593999997E+02  0.45594000000E+02  0.51100000000E-03 0.  1.
    9900012    2    1    2    0    0  0.12095464408E+02 -0.13655014485E+02  0.42330050168E+01  0.72461601219E+02  0.70000040285E+02 0.  0.
        -12    1    1    2    0    0 -0.12095464408E+02  0.13655014485E+02 -0.42330050168E+01  0.18726398781E+02  0.00000000000E+00 0.  1.
         11    1    3    3    0    0  0.61578678049E+01  0.28057635471E-01 -0.17761041662E+00  0.61604925822E+01  0.51100000000E-03 0. -1.
        -11    1    3    3    0    0  0.29509703461E+02 -0.21734098990E+02 -0.93777851600E+01  0.37830364947E+02  0.51100000000E-03 0.  1.
         12    1    3    3    0    0 -0.23572106857E+02  0.80510268694E+01  0.13788400593E+02  0.28470743690E+02  0.00000000000E+00 0. -1.
</event>
<event>
 7    1  0.2641045E-013  0.7246157E+02  0.7816164E-02  0.1226708E+00
        -11   -1    0    0    0    0  0.00000000000E+00  0.00000000000E+00  0.45593999997E+02  0.45594000000E+02  0.51100000000E-03 0.  1.
         11   -1    0    0    0    0 -0.00000000000E+00 -0.00000000000E+00 -0.45593999997E+02  0.45594000000E+02  0.51100000000E-03 0. -1.
    9900012    2    1    2    0    0 -0.53927667194E+01  0.17676521848E+02 -0.30228692480E+01  0.72461572256E+02  0.70000002556E+02 0.  0.
        -12    1    1    2    0    0  0.53927667194E+01 -0.17676521848E+02  0.30228692480E+01  0.18726427744E+02  0.00000000000E+00 0.  1.
         11    1    3    3    0    0  0.39177380970E+01 -0.66144170668E+00  0.38107823537E+01  0.55052919393E+01  0.51100000000E-03 0. -1.
        -11    1    3    3    0    0  0.56746464478E+01 -0.90845293657E+01  0.21979445731E+02  0.24450487132E+02  0.51100000000E-03 0.  1.
         12    1    3    3    0    0 -0.14985151264E+02  0.27422492921E+02 -0.28813097333E+02  0.42505793185E+02  0.00000000000E+00 0. -1.
</event>
<event>
 7    1  0.2825142E-013  0.7246168E+02  0.7816164E-02  0.1226708E+00
        -11   -1    0    0    0    0  0.00000000000E+00  0.00000000000E+00  0.45593999997E+02  0.45594000000E+02  0.51100000000E-03 0. -1.
         11   -1    0    0    0    0 -0.00000000000E+00 -0.00000000000E+00 -0.45593999997E+02  0.45594000000E+02  0.51100000000E-03 0.  1.
    9900012    2    1    2    0    0  0.11801960024E+02 -0.11094971786E+02  0.93962971418E+01  0.72461680038E+02  0.70000142961E+02 0.  0.
        -12    1    1    2    0    0 -0.11801960024E+02  0.11094971786E+02 -0.93962971418E+01  0.18726319962E+02  0.00000000000E+00 0.  1.
         11    1    3    3    0    0  0.21224274514E+02 -0.11835288147E+02  0.25513494304E+02  0.35234674201E+02  0.51100000000E-03 0. -1.
        -11    1    3    3    0    0  0.10426778829E+02  0.28066259436E+01 -0.13207431845E+02  0.17059634291E+02  0.51100000000E-03 0.  1.
        -12    1    3    3    0    0 -0.19849093319E+02 -0.20663095829E+01 -0.29097653169E+01  0.20167371546E+02  0.00000000000E+00 0.  1.
</event>
<event>
 7    1  0.2641045E-013  0.7246159E+02  0.7816164E-02  0.1226708E+00
        -11   -1    0    0    0    0  0.00000000000E+00  0.00000000000E+00  0.45593999997E+02  0.45594000000E+02  0.51100000000E-03 0. -1.
         11   -1    0    0    0    0 -0.00000000000E+00 -0.00000000000E+00 -0.45593999997E+02  0.45594000000E+02  0.51100000000E-03 0.  1.
    9900012    2    1    2    0    0 -0.83279954016E+01  0.16093863874E+02  0.47233890811E+01  0.72461591743E+02  0.70000027940E+02 0.  0.
        -12    1    1    2    0    0  0.83279954016E+01 -0.16093863874E+02 -0.47233890811E+01  0.18726408257E+02  0.00000000000E+00 0.  1.
         11    1    3    3    0    0 -0.76552484534E+01  0.14449642111E+02 -0.12673342241E+02  0.20688368467E+02  0.51100000000E-03 0. -1.
        -11    1    3    3    0    0 -0.14596090197E+02  0.12866852775E+02 -0.77261376944E+01  0.20935495057E+02  0.51100000000E-03 0.  1.
         12    1    3    3    0    0  0.13923343249E+02 -0.11222631011E+02  0.25122869016E+02  0.30837728218E+02  0.00000000000E+00 0. -1.
</event>
<event>
 7    1  0.2641045E-013  0.7246158E+02  0.7816164E-02  0.1226708E+00
        -11   -1    0    0    0    0  0.00000000000E+00  0.00000000000E+00  0.45593999997E+02  0.45594000000E+02  0.51100000000E-03 0. -1.
         11   -1    0    0    0    0 -0.00000000000E+00 -0.00000000000E+00 -0.45593999997E+02  0.45594000000E+02  0.51100000000E-03 0.  1.
    9900012    2    1    2    0    0  0.17596733119E+02 -0.63847868954E+01  0.51812581335E+00  0.72461575501E+02  0.70000006783E+02 0.  0.
        -12    1    1    2    0    0 -0.17596733119E+02  0.63847868954E+01 -0.51812581335E+00  0.18726424499E+02  0.00000000000E+00 0.  1.
         11    1    3    3    0    0  0.21318767993E+02 -0.25670643568E+02  0.19440248372E+02  0.38618584477E+02  0.51100000000E-03 0. -1.
        -11    1    3    3    0    0  0.78859602307E+01  0.44505791917E+01 -0.44557943935E+01  0.10092082433E+02  0.51100000000E-03 0.  1.
        -12    1    3    3    0    0 -0.11607995105E+02  0.14835277481E+02 -0.14466328165E+02  0.23750908591E+02  0.00000000000E+00 0.  1.
</event>
<event>
 7    1  0.2641045E-013  0.7246157E+02  0.7816164E-02  0.1226708E+00
        -11   -1    0    0    0    0  0.00000000000E+00  0.00000000000E+00  0.45593999997E+02  0.45594000000E+02  0.51100000000E-03 0.  1.
         11   -1    0    0    0    0 -0.00000000000E+00 -0.00000000000E+00 -0.45593999997E+02  0.45594000000E+02  0.51100000000E-03 0. -1.
    9900012    2    1    2    0    0 -0.15964503079E+02 -0.79727139018E+01 -0.56788819970E+01  0.72461568779E+02  0.69999998026E+02 0.  0.
        -12    1    1    2    0    0  0.15964503079E+02  0.79727139018E+01  0.56788819970E+01  0.18726431221E+02  0.00000000000E+00 0.  1.
         11    1    3    3    0    0 -0.14392152149E+02 -0.67251338766E+01 -0.14870526928E+00  0.15886584991E+02  0.51100000000E-03 0. -1.
        -11    1    3    3    0    0  0.88074665489E+01  0.17463761695E+02  0.16700982779E+02  0.25719200330E+02  0.51100000000E-03 0.  1.
         12    1    3    3    0    0 -0.10379817479E+02 -0.18711341720E+02 -0.22231159506E+02  0.30855783459E+02  0.00000000000E+00 0. -1.
</event>
<event>
 7    1  0.2641045E-013  0.7246158E+02  0.7816164E-02  0.1226708E+00
        -11   -1    0    0    0    0  0.00000000000E+00  0.00000000000E+00  0.45593999997E+02  0.45594000000E+02  0.51100000000E-03 0.  1.
         11   -1    0    0    0    0 -0.00000000000E+00 -0.00000000000E+00 -0.45593999997E+02  0.45594000000E+02  0.51100000000E-03 0. -1.
    9900012    2    1    2    0    0 -0.18589006711E+02 -0.83154876518E+00  0.21062111709E+01  0.72461580979E+02  0.70000013919E+02 0.  0.
        -12    1    1    2    0    0  0.18589006711E+02  0.83154876518E+00 -0.21062111709E+01  0.18726419021E+02  0.00000000000E+00 0.  1.
         11    1    3    3    0    0  0.25347060150E+01 -0.27056666914E+01 -0.58259579390E+01  0.69055885336E+01  0.51100000000E-03 0. -1.
        -11    1    3    3    0    0 -0.93127421734E+01 -0.20764370794E+02  0.25791337343E+02  0.34395920448E+02  0.51100000000E-03 0.  1.
         12    1    3    3    0    0 -0.11810970552E+02  0.22638488720E+02 -0.17859168233E+02  0.31160071998E+02  0.00000000000E+00 0. -1.
</event>
<event>
 7    1  0.2641045E-013  0.7246153E+02  0.7816164E-02  0.1226708E+00
        -11   -1    0    0    0    0  0.00000000000E+00  0.00000000000E+00  0.45593999997E+02  0.45594000000E+02  0.51100000000E-03 0. -1.
         11   -1    0    0    0    0 -0.00000000000E+00 -0.00000000000E+00 -0.45593999997E+02  0.45594000000E+02  0.51100000000E-03 0.  1.
    9900012    2    1    2    0    0  0.13573253639E+02  0.64248341145E+01  0.11187886553E+02  0.72461534416E+02  0.69999953262E+02 0.  0.
        -12    1    1    2    0    0 -0.13573253639E+02 -0.64248341145E+01 -0.11187886553E+02  0.18726465584E+02  0.00000000000E+00 0.  1.
         11    1    3    3    0    0 -0.57360133181E+01  0.98272873011E+01 -0.90423520734E+00  0.11414686420E+02  0.51100000000E-03 0. -1.
        -11    1    3    3    0    0 -0.10460758187E+02  0.18369233851E+02  0.11704664906E+02  0.24163099862E+02  0.51100000000E-03 0.  1.
         12    1    3    3    0    0  0.29770025145E+02 -0.21771687038E+02  0.38745685375E+00  0.36883748134E+02  0.00000000000E+00 0. -1.
</event>
<event>
 7    1  0.2641045E-013  0.7246158E+02  0.7816164E-02  0.1226708E+00
        -11   -1    0    0    0    0  0.00000000000E+00  0.00000000000E+00  0.45593999997E+02  0.45594000000E+02  0.51100000000E-03 0. -1.
         11   -1    0    0    0    0 -0.00000000000E+00 -0.00000000000E+00 -0.45593999997E+02  0.45594000000E+02  0.51100000000E-03 0.  1.
    9900012    2    1    2    0    0  0.17429728361E+02  0.45565615827E+01 -0.51108896941E+01  0.72461578087E+02  0.70000010152E+02 0.  0.
        -12    1    1    2    0    0 -0.17429728361E+02 -0.45565615827E+01  0.51108896941E+01  0.18726421913E+02  0.00000000000E+00 0.  1.
         11    1    3    3    0    0 -0.95432468534E+01 -0.10625003210E+02  0.13665904861E+02  0.19766669159E+02  0.51100000000E-03 0. -1.
        -11    1    3    3    0    0 -0.35308842325E+01 -0.66136564911E+01  0.43281275858E+01  0.86568056641E+01  0.51100000000E-03 0.  1.
        -12    1    3    3    0    0  0.30503859447E+02  0.21795221284E+02 -0.23104922141E+02  0.44038103264E+02  0.00000000000E+00 0.  1.
</event>
<event>
 7    1  0.2641045E-013  0.7246158E+02  0.7816164E-02  0.1226708E+00
        -11   -1    0    0    0    0  0.00000000000E+00  0.00000000000E+00  0.45593999997E+02  0.45594000000E+02  0.51100000000E-03 0. -1.
         11   -1    0    0    0    0 -0.00000000000E+00 -0.00000000000E+00 -0.45593999997E+02  0.45594000000E+02  0.51100000000E-03 0.  1.
    9900012    2    1    2    0    0  0.10563604619E+02  0.34830939851E+01  0.15065095964E+02  0.72461580089E+02  0.70000012760E+02 0.  0.
        -12    1    1    2    0    0 -0.10563604619E+02 -0.34830939851E+01 -0.15065095964E+02  0.18726419911E+02  0.00000000000E+00 0.  1.
         11    1    3    3    0    0  0.12939519823E+02  0.20006106762E+02  0.68229417915E+01  0.24783623947E+02  0.51100000000E-03 0. -1.
        -11    1    3    3    0    0  0.19144945773E+02  0.44914153556E+00  0.64661648791E+01  0.20212421064E+02  0.51100000000E-03 0.  1.
        -12    1    3    3    0    0 -0.21520860976E+02 -0.16972154312E+02  0.17759892937E+01  0.27465535078E+02  0.00000000000E+00 0.  1.
</event>
<event>
 7    1  0.2641045E-013  0.7246156E+02  0.7816164E-02  0.1226708E+00
        -11   -1    0    0    0    0  0.00000000000E+00  0.00000000000E+00  0.45593999997E+02  0.45594000000E+02  0.51100000000E-03 0. -1.
         11   -1    0    0    0    0 -0.00000000000E+00 -0.00000000000E+00 -0.45593999997E+02  0.45594000000E+02  0.51100000000E-03 0.  1.
    9900012    2    1    2    0    0  0.60056690815E+01 -0.24082257912E+01  0.17573044129E+02  0.72461561670E+02  0.69999988765E+02 0.  0.
        -12    1    1    2    0    0 -0.60056690815E+01  0.24082257912E+01 -0.17573044129E+02  0.18726438330E+02  0.00000000000E+00 0.  1.
         11    1    3    3    0    0  0.21272136177E+02  0.13204637626E+02  0.15221731176E+02  0.29301319639E+02  0.51100000000E-03 0. -1.
        -11    1    3    3    0    0 -0.98354298986E+01  0.10173197533E+02  0.79351826033E+01  0.16223339747E+02  0.51100000000E-03 0.  1.
        -12    1    3    3    0    0 -0.54310371965E+01 -0.25786060950E+02 -0.55838696506E+01  0.26936902283E+02  0.00000000000E+00 0.  1.
</event>
<event>
 7    1  0.2641045E-013  0.7246152E+02  0.7816164E-02  0.1226708E+00
        -11   -1    0    0    0    0  0.00000000000E+00  0.00000000000E+00  0.45593999997E+02  0.45594000000E+02  0.51100000000E-03 0.  1.
         11   -1    0    0    0    0 -0.00000000000E+00 -0.00000000000E+00 -0.45593999997E+02  0.45594000000E+02  0.51100000000E-03 0. -1.
    9900012    2    1    2    0    0  0.56438805473E+00 -0.18281161910E+02 -0.40201439707E+01  0.72461522163E+02  0.69999937300E+02 0.  0.
        -12    1    1    2    0    0 -0.56438805473E+00  0.18281161910E+02  0.40201439707E+01  0.18726477837E+02  0.00000000000E+00 0.  1.
         11    1    3    3    0    0  0.38237560885E+01  0.57646397989E+01  0.17741236633E+01  0.71414072612E+01  0.51100000000E-03 0. -1.
        -11    1    3    3    0    0 -0.26872194766E+02 -0.14684770124E+02  0.13456223338E+02  0.33448875496E+02  0.51100000000E-03 0.  1.
         12    1    3    3    0    0  0.23612826732E+02 -0.93610315844E+01 -0.19250490972E+02  0.31871239406E+02  0.00000000000E+00 0. -1.
</event>
<event>
 7    1  0.2641045E-013  0.7246164E+02  0.7816164E-02  0.1226708E+00
        -11   -1    0    0    0    0  0.00000000000E+00  0.00000000000E+00  0.45593999997E+02  0.45594000000E+02  0.51100000000E-03 0. -1.
         11   -1    0    0    0    0 -0.00000000000E+00 -0.00000000000E+00 -0.45593999997E+02  0.45594000000E+02  0.51100000000E-03 0.  1.
    9900012    2    1    2    0    0  0.17273576971E+01 -0.12646286986E+02  0.13702706126E+02  0.72461641723E+02  0.70000093049E+02 0.  0.
        -12    1    1    2    0    0 -0.17273576971E+01  0.12646286986E+02 -0.13702706126E+02  0.18726358277E+02  0.00000000000E+00 0.  1.
         11    1    3    3    0    0  0.15263837642E+00 -0.36251975320E+01 -0.10647604933E+01  0.37814112166E+01  0.51100000000E-03 0. -1.
        -11    1    3    3    0    0 -0.18909220939E+02 -0.21882329481E+02 -0.13126777771E+02  0.31760152313E+02  0.51100000000E-03 0.  1.
         12    1    3    3    0    0  0.20483940260E+02  0.12861240027E+02  0.27894244391E+02  0.36920078193E+02  0.00000000000E+00 0. -1.
</event>
<event>
 7    1  0.2641045E-013  0.7246153E+02  0.7816164E-02  0.1226708E+00
        -11   -1    0    0    0    0  0.00000000000E+00  0.00000000000E+00  0.45593999997E+02  0.45594000000E+02  0.51100000000E-03 0.  1.
         11   -1    0    0    0    0 -0.00000000000E+00 -0.00000000000E+00 -0.45593999997E+02  0.45594000000E+02  0.51100000000E-03 0. -1.
    9900012    2    1    2    0    0  0.83303878614E+01  0.41759519047E+01 -0.16243360701E+02  0.72461529347E+02  0.69999946659E+02 0.  0.
        -12    1    1    2    0    0 -0.83303878614E+01 -0.41759519047E+01  0.16243360701E+02  0.18726470653E+02  0.00000000000E+00 0.  1.
         11    1    3    3    0    0  0.50403285384E+01 -0.85935473549E+00 -0.25903199299E+02  0.26403013778E+02  0.51100000000E-03 0. -1.
        -11    1    3    3    0    0 -0.12378903891E+02  0.13978761382E+02 -0.84504302184E+01  0.20495189739E+02  0.51100000000E-03 0.  1.
        -12    1    3    3    0    0  0.15668963214E+02 -0.89434547420E+01  0.18110268816E+02  0.25563325830E+02  0.00000000000E+00 0.  1.
</event>
<event>
 7    1  0.2641045E-013  0.7246176E+02  0.7816164E-02  0.1226708E+00
        -11   -1    0    0    0    0  0.00000000000E+00  0.00000000000E+00  0.45593999997E+02  0.45594000000E+02  0.51100000000E-03 0.  1.
         11   -1    0    0    0    0 -0.00000000000E+00 -0.00000000000E+00 -0.45593999997E+02  0.45594000000E+02  0.51100000000E-03 0. -1.
    9900012    2    1    2    0    0  0.39198568298E+01  0.15263699615E+02 -0.10115639924E+02  0.72461762403E+02  0.70000250256E+02 0.  0.
        -12    1    1    2    0    0 -0.39198568298E+01 -0.15263699615E+02  0.10115639924E+02  0.18726237597E+02  0.00000000000E+00 0.  1.
         11    1    3    3    0    0  0.16570189065E+02  0.14015238374E+02  0.31940680409E+01  0.21936274598E+02  0.51100000000E-03 0. -1.
        -11    1    3    3    0    0  0.13720075887E+02  0.64965999631E+01  0.71099895267E+01  0.16763002260E+02  0.51100000000E-03 0.  1.
         12    1    3    3    0    0 -0.26370408122E+02 -0.52481387225E+01 -0.20419697491E+02  0.33762485545E+02  0.00000000000E+00 0. -1.
</event>
<event>
 7    1  0.2641045E-013  0.7246157E+02  0.7816164E-02  0.1226708E+00
        -11   -1    0    0    0    0  0.00000000000E+00  0.00000000000E+00  0.45593999997E+02  0.45594000000E+02  0.51100000000E-03 0. -1.
         11   -1    0    0    0    0 -0.00000000000E+00 -0.00000000000E+00 -0.45593999997E+02  0.45594000000E+02  0.51100000000E-03 0.  1.
    9900012    2    1    2    0    0  0.11128563559E+02 -0.95346300096E+00  0.15030805033E+02  0.72461571656E+02  0.70000001774E+02 0.  0.
        -12    1    1    2    0    0 -0.11128563559E+02  0.95346300096E+00 -0.15030805033E+02  0.18726428344E+02  0.00000000000E+00 0.  1.
         11    1    3    3    0    0  0.21274187300E+02 -0.16328871986E+02  0.22214667916E+02  0.34824051696E+02  0.51100000000E-03 0. -1.
        -11    1    3    3    0    0  0.65910937538E+01 -0.54672949256E+01  0.29395118429E+01  0.90539803850E+01  0.51100000000E-03 0.  1.
        -12    1    3    3    0    0 -0.16736717495E+02  0.20842703911E+02 -0.10123374726E+02  0.28583539576E+02  0.00000000000E+00 0.  1.
</event>
<event>
 7    1  0.2641045E-013  0.7246156E+02  0.7816164E-02  0.1226708E+00
        -11   -1    0    0    0    0  0.00000000000E+00  0.00000000000E+00  0.45593999997E+02  0.45594000000E+02  0.51100000000E-03 0.  1.
         11   -1    0    0    0    0 -0.00000000000E+00 -0.00000000000E+00 -0.45593999997E+02  0.45594000000E+02  0.51100000000E-03 0. -1.
    9900012    2    1    2    0    0 -0.16082851459E+02 -0.95811383873E+01  0.47252141282E+00  0.72461558791E+02  0.69999985015E+02 0.  0.
        -12    1    1    2    0    0  0.16082851459E+02  0.95811383873E+01 -0.47252141282E+00  0.18726441209E+02  0.00000000000E+00 0.  1.
         11    1    3    3    0    0  0.42852005605E+01  0.25888456001E+01  0.10709242417E+02  0.11821714714E+02  0.51100000000E-03 0. -1.
        -11    1    3    3    0    0  0.11653193531E+02  0.23074267857E+00  0.14290710529E+02  0.18441110849E+02  0.51100000000E-03 0.  1.
         12    1    3    3    0    0 -0.32021245551E+02 -0.12400726666E+02 -0.24527431533E+02  0.42198733228E+02  0.00000000000E+00 0. -1.
</event>
<event>
 7    1  0.2641045E-013  0.7246147E+02  0.7816164E-02  0.1226708E+00
        -11   -1    0    0    0    0  0.00000000000E+00  0.00000000000E+00  0.45593999997E+02  0.45594000000E+02  0.51100000000E-03 0.  1.
         11   -1    0    0    0    0 -0.00000000000E+00 -0.00000000000E+00 -0.45593999997E+02  0.45594000000E+02  0.51100000000E-03 0. -1.
    9900012    2    1    2    0    0  0.15499162410E+02  0.71866780058E+01 -0.76687992221E+01  0.72461471820E+02  0.69999871719E+02 0.  0.
        -12    1    1    2    0    0 -0.15499162410E+02 -0.71866780058E+01  0.76687992221E+01  0.18726528180E+02  0.00000000000E+00 0.  1.
         11    1    3    3    0    0 -0.18940841385E+00  0.35338232456E+01 -0.72933771210E+01  0.81066104118E+01  0.51100000000E-03 0. -1.
        -11    1    3    3    0    0  0.21113605040E+02  0.19569307602E+02  0.22094716830E+02  0.36289373511E+02  0.51100000000E-03 0.  1.
         12    1    3    3    0    0 -0.54250342159E+01 -0.15916452841E+02 -0.22470138931E+02  0.28065487897E+02  0.00000000000E+00 0. -1.
</event>
<event>
 7    1  0.2641045E-013  0.7246157E+02  0.7816164E-02  0.1226708E+00
        -11   -1    0    0    0    0  0.00000000000E+00  0.00000000000E+00  0.45593999997E+02  0.45594000000E+02  0.51100000000E-03 0.  1.
         11   -1    0    0    0    0 -0.00000000000E+00 -0.00000000000E+00 -0.45593999997E+02  0.45594000000E+02  0.51100000000E-03 0. -1.
    9900012    2    1    2    0    0 -0.13626357174E+02  0.11944747281E+02 -0.47248921033E+01  0.72461569405E+02  0.69999998841E+02 0.  0.
        -12    1    1    2    0    0  0.13626357174E+02 -0.11944747281E+02  0.47248921033E+01  0.18726430595E+02  0.00000000000E+00 0.  1.
         11    1    3    3    0    0 -0.75100460068E+01  0.33722544370E+02 -0.14067082777E+02  0.37302729229E+02  0.51100000000E-03 0. -1.
        -11    1    3    3    0    0 -0.57371981077E+01 -0.18883415423E+01 -0.71205574171E+01  0.93372166141E+01  0.51100000000E-03 0.  1.
        -12    1    3    3    0    0 -0.37911305991E+00 -0.19889455547E+02  0.16462748091E+02  0.25821623562E+02  0.00000000000E+00 0.  1.
</event>
<event>
 7    1  0.2641045E-013  0.7246157E+02  0.7816164E-02  0.1226708E+00
        -11   -1    0    0    0    0  0.00000000000E+00  0.00000000000E+00  0.45593999997E+02  0.45594000000E+02  0.51100000000E-03 0.  1.
         11   -1    0    0    0    0 -0.00000000000E+00 -0.00000000000E+00 -0.45593999997E+02  0.45594000000E+02  0.51100000000E-03 0. -1.
    9900012    2    1    2    0    0  0.49495494757E+01 -0.17435658083E+02 -0.47094581625E+01  0.72461569241E+02  0.69999998628E+02 0.  0.
        -12    1    1    2    0    0 -0.49495494757E+01  0.17435658083E+02  0.47094581625E+01  0.18726430759E+02  0.00000000000E+00 0.  1.
         11    1    3    3    0    0  0.11164637869E+02 -0.33462657777E+01  0.41033549644E+01  0.12356543029E+02  0.51100000000E-03 0. -1.
        -11    1    3    3    0    0  0.12977288891E+02  0.34158630712E+01  0.18210733166E+02  0.22620984730E+02  0.51100000000E-03 0.  1.
         12    1    3    3    0    0 -0.19192377284E+02 -0.17505255376E+02 -0.27023546293E+02  0.37484041482E+02  0.00000000000E+00 0. -1.
</event>
<event>
 7    1  0.2641045E-013  0.7246157E+02  0.7816164E-02  0.1226708E+00
        -11   -1    0    0    0    0  0.00000000000E+00  0.00000000000E+00  0.45593999997E+02  0.45594000000E+02  0.51100000000E-03 0. -1.
         11   -1    0    0    0    0 -0.00000000000E+00 -0.00000000000E+00 -0.45593999997E+02  0.45594000000E+02  0.51100000000E-03 0.  1.
    9900012    2    1    2    0    0 -0.25810756221E+01 -0.13181426719E+02  0.13048646005E+02  0.72461571503E+02  0.70000001574E+02 0.  0.
        -12    1    1    2    0    0  0.25810756221E+01  0.13181426719E+02 -0.13048646005E+02  0.18726428497E+02  0.00000000000E+00 0.  1.
         11    1    3    3    0    0  0.75299438944E+01  0.64047056553E+01 -0.79915101724E+01  0.12711590958E+02  0.51100000000E-03 0. -1.
        -11    1    3    3    0    0  0.19069664998E+02  0.18551580403E+01  0.33557228527E+01  0.19451339558E+02  0.51100000000E-03 0.  1.
         12    1    3    3    0    0 -0.29180684514E+02 -0.21441290414E+02  0.17684433325E+02  0.40298640987E+02  0.00000000000E+00 0. -1.
</event>
<event>
 7    1  0.2641045E-013  0.7246156E+02  0.7816164E-02  0.1226708E+00
        -11   -1    0    0    0    0  0.00000000000E+00  0.00000000000E+00  0.45593999997E+02  0.45594000000E+02  0.51100000000E-03 0.  1.
         11   -1    0    0    0    0 -0.00000000000E+00 -0.00000000000E+00 -0.45593999997E+02  0.45594000000E+02  0.51100000000E-03 0. -1.
    9900012    2    1    2    0    0 -0.55577746777E+01  0.17841290029E+02  0.12162275689E+01  0.72461556163E+02  0.69999981591E+02 0.  0.
        -12    1    1    2    0    0  0.55577746777E+01 -0.17841290029E+02 -0.12162275689E+01  0.18726443837E+02  0.00000000000E+00 0.  1.
         11    1    3    3    0    0 -0.20750936267E+01  0.11760394505E+02 -0.37220537247E+00  0.11947862971E+02  0.51100000000E-03 0. -1.
        -11    1    3    3    0    0 -0.38599927184E+01  0.24170756173E+02  0.22229590691E+02  0.33064780360E+02  0.51100000000E-03 0.  1.
         12    1    3    3    0    0  0.37731166742E+00 -0.18089860649E+02 -0.20641157750E+02  0.27448912831E+02  0.00000000000E+00 0. -1.
</event>
<event>
 7    1  0.2641045E-013  0.7246161E+02  0.7816164E-02  0.1226708E+00
        -11   -1    0    0    0    0  0.00000000000E+00  0.00000000000E+00  0.45593999997E+02  0.45594000000E+02  0.51100000000E-03 0.  1.
         11   -1    0    0    0    0 -0.00000000000E+00 -0.00000000000E+00 -0.45593999997E+02  0.45594000000E+02  0.51100000000E-03 0. -1.
    9900012    2    1    2    0    0 -0.48687928570E+01  0.80457173239E+01 -0.16193796437E+02  0.72461608084E+02  0.70000049228E+02 0.  0.
        -12    1    1    2    0    0  0.48687928570E+01 -0.80457173239E+01  0.16193796437E+02  0.18726391916E+02  0.00000000000E+00 0.  1.
         11    1    3    3    0    0 -0.30878143646E+01 -0.91916619673E+01  0.10949036777E+01  0.97580767366E+01  0.51100000000E-03 0. -1.
        -11    1    3    3    0    0  0.10494081993E+02 -0.22105019882E+01  0.17781548769E+02  0.20765248682E+02  0.51100000000E-03 0.  1.
         12    1    3    3    0    0 -0.12275060485E+02  0.19447881279E+02 -0.35070248884E+02  0.41938282666E+02  0.00000000000E+00 0. -1.
</event>
<event>
 7    1  0.2641045E-013  0.7246155E+02  0.7816164E-02  0.1226708E+00
        -11   -1    0    0    0    0  0.00000000000E+00  0.00000000000E+00  0.45593999997E+02  0.45594000000E+02  0.51100000000E-03 0. -1.
         11   -1    0    0    0    0 -0.00000000000E+00 -0.00000000000E+00 -0.45593999997E+02  0.45594000000E+02  0.51100000000E-03 0.  1.
    9900012    2    1    2    0    0 -0.15912491853E+02  0.97454348834E+01 -0.15808712066E+01  0.72461546737E+02  0.69999969312E+02 0.  0.
        -12    1    1    2    0    0  0.15912491853E+02 -0.97454348834E+01  0.15808712066E+01  0.18726453263E+02  0.00000000000E+00 0.  1.
         11    1    3    3    0    0  0.11710596314E+02  0.33040567132E+00  0.99362163817E+01  0.15361498306E+02  0.51100000000E-03 0. -1.
        -11    1    3    3    0    0  0.86639032943E+00 -0.59604076183E+01 -0.22205283836E+02  0.23007644853E+02  0.51100000000E-03 0.  1.
         12    1    3    3    0    0 -0.28489478497E+02  0.15375436830E+02  0.10688196248E+02  0.34092403579E+02  0.00000000000E+00 0. -1.
</event>
<event>
 7    1  0.2641045E-013  0.7246166E+02  0.7816164E-02  0.1226708E+00
        -11   -1    0    0    0    0  0.00000000000E+00  0.00000000000E+00  0.45593999997E+02  0.45594000000E+02  0.51100000000E-03 0.  1.
         11   -1    0    0    0    0 -0.00000000000E+00 -0.00000000000E+00 -0.45593999997E+02  0.45594000000E+02  0.51100000000E-03 0. -1.
    9900012    2    1    2    0    0 -0.56748143364E+01  0.11777591616E+01 -0.17806884763E+02  0.72461660813E+02  0.70000117917E+02 0.  0.
        -12    1    1    2    0    0  0.56748143364E+01 -0.11777591616E+01  0.17806884763E+02  0.18726339187E+02  0.00000000000E+00 0.  1.
         11    1    3    3    0    0  0.15269822608E+02  0.13928059497E+02 -0.51015079311E+01  0.21288111877E+02  0.51100000000E-03 0. -1.
        -11    1    3    3    0    0 -0.28126953929E+02  0.57611683046E+01 -0.12506429372E+02  0.31316567076E+02  0.51100000000E-03 0.  1.
        -12    1    3    3    0    0  0.71823169844E+01 -0.18511468640E+02 -0.19894745978E+00  0.19856981860E+02  0.00000000000E+00 0.  1.
</event>
<event>
 7    1  0.2641045E-013  0.7246161E+02  0.7816164E-02  0.1226708E+00
        -11   -1    0    0    0    0  0.00000000000E+00  0.00000000000E+00  0.45593999997E+02  0.45594000000E+02  0.51100000000E-03 0.  1.
         11   -1    0    0    0    0 -0.00000000000E+00 -0.00000000000E+00 -0.45593999997E+02  0.45594000000E+02  0.51100000000E-03 0. -1.
    9900012    2    1    2    0    0  0.47486685478E+01 -0.12875100556E+02 -0.12742040579E+02  0.72461610455E+02  0.70000052316E+02 0.  0.
        -12    1    1    2    0    0 -0.47486685478E+01  0.12875100556E+02  0.12742040579E+02  0.18726389545E+02  0.00000000000E+00 0.  1.
         11    1    3    3    0    0 -0.26118049636E+00 -0.17119120130E+02 -0.10354223189E+02  0.20008558853E+02  0.51100000000E-03 0. -1.
        -11    1    3    3    0    0  0.46189255374E+01 -0.23449270226E+02 -0.56699490584E+01  0.24563205610E+02  0.51100000000E-03 0.  1.
         12    1    3    3    0    0  0.39092350673E+00  0.27693289800E+02  0.32821316690E+01  0.27889845991E+02  0.00000000000E+00 0. -1.
</event>
<event>
 7    1  0.2641045E-013  0.7246158E+02  0.7816164E-02  0.1226708E+00
        -11   -1    0    0    0    0  0.00000000000E+00  0.00000000000E+00  0.45593999997E+02  0.45594000000E+02  0.51100000000E-03 0.  1.
         11   -1    0    0    0    0 -0.00000000000E+00 -0.00000000000E+00 -0.45593999997E+02  0.45594000000E+02  0.51100000000E-03 0. -1.
    9900012    2    1    2    0    0 -0.14275685753E+02 -0.48059013730E+01 -0.11125962143E+02  0.72461576815E+02  0.70000008494E+02 0.  0.
        -12    1    1    2    0    0  0.14275685753E+02  0.48059013730E+01  0.11125962143E+02  0.18726423185E+02  0.00000000000E+00 0.  1.
         11    1    3    3    0    0 -0.24031783541E+02 -0.77989057970E+01  0.48679600663E+01  0.25730265978E+02  0.51100000000E-03 0. -1.
        -11    1    3    3    0    0 -0.27614920183E+01 -0.16380710724E+02  0.29642689584E+01  0.16874252952E+02  0.51100000000E-03 0.  1.
         12    1    3    3    0    0  0.12517589807E+02  0.19373715148E+02 -0.18958191167E+02  0.29857057885E+02  0.00000000000E+00 0. -1.
</event>
<event>
 7    1  0.2641045E-013  0.7246159E+02  0.7816164E-02  0.1226708E+00
        -11   -1    0    0    0    0  0.00000000000E+00  0.00000000000E+00  0.45593999997E+02  0.45594000000E+02  0.51100000000E-03 0.  1.
         11   -1    0    0    0    0 -0.00000000000E+00 -0.00000000000E+00 -0.45593999997E+02  0.45594000000E+02  0.51100000000E-03 0. -1.
    9900012    2    1    2    0    0  0.59413324418E+01  0.17492749451E+02 -0.30631515435E+01  0.72461585182E+02  0.70000019394E+02 0.  0.
        -12    1    1    2    0    0 -0.59413324418E+01 -0.17492749451E+02  0.30631515435E+01  0.18726414818E+02  0.00000000000E+00 0.  1.
         11    1    3    3    0    0 -0.24555834311E+02  0.10035322616E+02 -0.22479706264E+02  0.34771164673E+02  0.51100000000E-03 0. -1.
        -11    1    3    3    0    0  0.40648903914E+01  0.28365791512E+01  0.77395772690E+00  0.50168242943E+01  0.51100000000E-03 0.  1.
        -12    1    3    3    0    0  0.26432276361E+02  0.46208476842E+01  0.18642596994E+02  0.32673596215E+02  0.00000000000E+00 0.  1.
</event>
<event>
 7    1  0.2641045E-013  0.7246161E+02  0.7816164E-02  0.1226708E+00
        -11   -1    0    0    0    0  0.00000000000E+00  0.00000000000E+00  0.45593999997E+02  0.45594000000E+02  0.51100000000E-03 0.  1.
         11   -1    0    0    0    0 -0.00000000000E+00 -0.00000000000E+00 -0.45593999997E+02  0.45594000000E+02  0.51100000000E-03 0. -1.
    9900012    2    1    2    0    0  0.16373285007E+02 -0.65754913398E+01 -0.62734561647E+01  0.72461606847E+02  0.70000047616E+02 0.  0.
        -12    1    1    2    0    0 -0.16373285007E+02  0.65754913398E+01  0.62734561647E+01  0.18726393153E+02  0.00000000000E+00 0.  1.
         11    1    3    3    0    0 -0.50820420389E+01 -0.11975426200E+01 -0.14394071493E+02  0.15311778278E+02  0.51100000000E-03 0. -1.
        -11    1    3    3    0    0 -0.10112640636E+02 -0.12593503852E+02  0.17124203660E+02  0.23539332853E+02  0.51100000000E-03 0.  1.
         12    1    3    3    0    0  0.31567967682E+02  0.72155551326E+01 -0.90035883312E+01  0.33610495716E+02  0.00000000000E+00 0. -1.
</event>
<event>
 7    1  0.2641045E-013  0.7246157E+02  0.7816164E-02  0.1226708E+00
        -11   -1    0    0    0    0  0.00000000000E+00  0.00000000000E+00  0.45593999997E+02  0.45594000000E+02  0.51100000000E-03 0.  1.
         11   -1    0    0    0    0 -0.00000000000E+00 -0.00000000000E+00 -0.45593999997E+02  0.45594000000E+02  0.51100000000E-03 0. -1.
    9900012    2    1    2    0    0 -0.31107992987E+01  0.90345533190E+01 -0.16105245775E+02  0.72461570350E+02  0.70000000072E+02 0.  0.
        -12    1    1    2    0    0  0.31107992987E+01 -0.90345533190E+01  0.16105245775E+02  0.18726429650E+02  0.00000000000E+00 0.  1.
         11    1    3    3    0    0  0.27602729943E+02 -0.16387554738E+01 -0.13833705381E+02  0.30918726116E+02  0.51100000000E-03 0. -1.
        -11    1    3    3    0    0 -0.25343379118E+01 -0.14385802436E+01 -0.95790085497E+01  0.10012481552E+02  0.51100000000E-03 0.  1.
        -12    1    3    3    0    0 -0.28179191330E+02  0.12111889036E+02  0.73074681557E+01  0.31530362682E+02  0.00000000000E+00 0.  1.
</event>
<event>
 7    1  0.2641045E-013  0.7246159E+02  0.7816164E-02  0.1226708E+00
        -11   -1    0    0    0    0  0.00000000000E+00  0.00000000000E+00  0.45593999997E+02  0.45594000000E+02  0.51100000000E-03 0. -1.
         11   -1    0    0    0    0 -0.00000000000E+00 -0.00000000000E+00 -0.45593999997E+02  0.45594000000E+02  0.51100000000E-03 0.  1.
    9900012    2    1    2    0    0 -0.28841079546E+01  0.17233064108E+02 -0.67366106702E+01  0.72461588156E+02  0.70000023268E+02 0.  0.
        -12    1    1    2    0    0  0.28841079546E+01 -0.17233064108E+02  0.67366106702E+01  0.18726411844E+02  0.00000000000E+00 0.  1.
         11    1    3    3    0    0  0.10111321129E+02 -0.85194415767E+01  0.56266094215E+01  0.14369357453E+02  0.51100000000E-03 0. -1.
        -11    1    3    3    0    0  0.80150052455E+01 -0.30930010261E+01  0.12090203975E+02  0.14831722653E+02  0.51100000000E-03 0.  1.
        -12    1    3    3    0    0 -0.21010434329E+02  0.28845506711E+02 -0.24453424067E+02  0.43260508050E+02  0.00000000000E+00 0.  1.
</event>
<event>
 7    1  0.2641045E-013  0.7246158E+02  0.7816164E-02  0.1226708E+00
        -11   -1    0    0    0    0  0.00000000000E+00  0.00000000000E+00  0.45593999997E+02  0.45594000000E+02  0.51100000000E-03 0.  1.
         11   -1    0    0    0    0 -0.00000000000E+00 -0.00000000000E+00 -0.45593999997E+02  0.45594000000E+02  0.51100000000E-03 0. -1.
    9900012    2    1    2    0    0  0.95690852017E+01  0.60023252816E+01 -0.14935978643E+02  0.72461581271E+02  0.70000014299E+02 0.  0.
        -12    1    1    2    0    0 -0.95690852017E+01 -0.60023252816E+01  0.14935978643E+02  0.18726418729E+02  0.00000000000E+00 0.  1.
         11    1    3    3    0    0  0.28015184269E+01  0.54666307061E+01  0.82487812583E+00  0.61978206619E+01  0.51100000000E-03 0. -1.
        -11    1    3    3    0    0  0.15697874131E+02 -0.23612477235E+02  0.97839993230E+01  0.29994982521E+02  0.51100000000E-03 0.  1.
         12    1    3    3    0    0 -0.89303073567E+01  0.24148171811E+02 -0.25544856092E+02  0.36268778088E+02  0.00000000000E+00 0. -1.
</event>
<event>
 7    1  0.2641045E-013  0.7246155E+02  0.7816164E-02  0.1226708E+00
        -11   -1    0    0    0    0  0.00000000000E+00  0.00000000000E+00  0.45593999997E+02  0.45594000000E+02  0.51100000000E-03 0.  1.
         11   -1    0    0    0    0 -0.00000000000E+00 -0.00000000000E+00 -0.45593999997E+02  0.45594000000E+02  0.51100000000E-03 0. -1.
    9900012    2    1    2    0    0 -0.28642646623E+01  0.18469085951E+02 -0.11699720515E+01  0.72461548587E+02  0.69999971723E+02 0.  0.
        -12    1    1    2    0    0  0.28642646623E+01 -0.18469085951E+02  0.11699720515E+01  0.18726451413E+02  0.00000000000E+00 0.  1.
         11    1    3    3    0    0  0.16060233008E+02  0.12291295479E+02 -0.16080234042E+02  0.25837588044E+02  0.51100000000E-03 0. -1.
        -11    1    3    3    0    0  0.71536245099E+01  0.14758462022E+02  0.83202209696E+01  0.18390557962E+02  0.51100000000E-03 0.  1.
        -12    1    3    3    0    0 -0.26078122180E+02 -0.85806715509E+01  0.65900410213E+01  0.28233402582E+02  0.00000000000E+00 0.  1.
</event>
<event>
 7    1  0.2641045E-013  0.7246155E+02  0.7816164E-02  0.1226708E+00
        -11   -1    0    0    0    0  0.00000000000E+00  0.00000000000E+00  0.45593999997E+02  0.45594000000E+02  0.51100000000E-03 0.  1.
         11   -1    0    0    0    0 -0.00000000000E+00 -0.00000000000E+00 -0.45593999997E+02  0.45594000000E+02  0.51100000000E-03 0. -1.
    9900012    2    1    2    0    0  0.77150090277E+01 -0.17048746388E+02  0.70628695606E+00  0.72461549216E+02  0.69999972542E+02 0.  0.
        -12    1    1    2    0    0 -0.77150090277E+01  0.17048746388E+02 -0.70628695606E+00  0.18726450784E+02  0.00000000000E+00 0.  1.
         11    1    3    3    0    0  0.91185165284E+01 -0.21771653505E+02 -0.67275110753E+01  0.24544075569E+02  0.51100000000E-03 0. -1.
        -11    1    3    3    0    0 -0.11558054667E+02 -0.16351069693E+02 -0.60488178779E+01  0.20917320712E+02  0.51100000000E-03 0.  1.
        -12    1    3    3    0    0  0.10154547166E+02  0.21073976810E+02  0.13482615909E+02  0.27000152935E+02  0.00000000000E+00 0.  1.
</event>
<event>
 7    1  0.2641045E-013  0.7246158E+02  0.7816164E-02  0.1226708E+00
        -11   -1    0    0    0    0  0.00000000000E+00  0.00000000000E+00  0.45593999997E+02  0.45594000000E+02  0.51100000000E-03 0.  1.
         11   -1    0    0    0    0 -0.00000000000E+00 -0.00000000000E+00 -0.45593999997E+02  0.45594000000E+02  0.51100000000E-03 0. -1.
    9900012    2    1    2    0    0 -0.80209845167E+01  0.71675467981E+01 -0.15328694466E+02  0.72461580327E+02  0.70000013070E+02 0.  0.
        -12    1    1    2    0    0  0.80209845167E+01 -0.71675467981E+01  0.15328694466E+02  0.18726419673E+02  0.00000000000E+00 0.  1.
         11    1    3    3    0    0 -0.25379440734E+02 -0.12605983238E+02 -0.10246735074E+00  0.28337913212E+02  0.51100000000E-03 0. -1.
        -11    1    3    3    0    0  0.13925928091E+02  0.19203462542E+01 -0.20802946616E+02  0.25107405105E+02  0.51100000000E-03 0.  1.
        -12    1    3    3    0    0  0.34325281265E+01  0.17853183782E+02  0.55767195003E+01  0.19016262011E+02  0.00000000000E+00 0.  1.
</event>
<event>
 7    1  0.2641045E-013  0.7246156E+02  0.7816164E-02  0.1226708E+00
        -11   -1    0    0    0    0  0.00000000000E+00  0.00000000000E+00  0.45593999997E+02  0.45594000000E+02  0.51100000000E-03 0.  1.
         11   -1    0    0    0    0 -0.00000000000E+00 -0.00000000000E+00 -0.45593999997E+02  0.45594000000E+02  0.51100000000E-03 0. -1.
    9900012    2    1    2    0    0 -0.18427100707E+02 -0.17252412165E+00  0.33304542110E+01  0.72461555321E+02  0.69999980495E+02 0.  0.
        -12    1    1    2    0    0  0.18427100707E+02  0.17252412165E+00 -0.33304542110E+01  0.18726444679E+02  0.00000000000E+00 0.  1.
         11    1    3    3    0    0 -0.14075641733E+02  0.13529855705E+02  0.10997320778E+02  0.22408073325E+02  0.51100000000E-03 0. -1.
        -11    1    3    3    0    0  0.14064980279E+02  0.11402422134E+02 -0.54826219860E+00  0.18114620958E+02  0.51100000000E-03 0.  1.
         12    1    3    3    0    0 -0.18416439253E+02 -0.25104801960E+02 -0.71186043684E+01  0.31938861038E+02  0.00000000000E+00 0. -1.
</event>
<event>
 7    1  0.2641045E-013  0.7246152E+02  0.7816164E-02  0.1226708E+00
        -11   -1    0    0    0    0  0.00000000000E+00  0.00000000000E+00  0.45593999997E+02  0.45594000000E+02  0.51100000000E-03 0. -1.
         11   -1    0    0    0    0 -0.00000000000E+00 -0.00000000000E+00 -0.45593999997E+02  0.45594000000E+02  0.51100000000E-03 0.  1.
    9900012    2    1    2    0    0 -0.14015567834E+02  0.86915778963E+01 -0.88713804160E+01  0.72461519857E+02  0.69999934297E+02 0.  0.
        -12    1    1    2    0    0  0.14015567834E+02 -0.86915778963E+01  0.88713804160E+01  0.18726480143E+02  0.00000000000E+00 0.  1.
         11    1    3    3    0    0  0.87547417401E+01 -0.10919097237E+01 -0.28335829358E+01  0.92664428071E+01  0.51100000000E-03 0. -1.
        -11    1    3    3    0    0  0.14963353350E+02 -0.10429602837E+02 -0.88959119030E+01  0.20293245370E+02  0.51100000000E-03 0.  1.
         12    1    3    3    0    0 -0.37733662924E+02  0.20213090457E+02  0.28581144228E+01  0.42901831680E+02  0.00000000000E+00 0. -1.
</event>
<event>
 7    1  0.2641045E-013  0.7246155E+02  0.7816164E-02  0.1226708E+00
        -11   -1    0    0    0    0  0.00000000000E+00  0.00000000000E+00  0.45593999997E+02  0.45594000000E+02  0.51100000000E-03 0. -1.
         11   -1    0    0    0    0 -0.00000000000E+00 -0.00000000000E+00 -0.45593999997E+02  0.45594000000E+02  0.51100000000E-03 0.  1.
    9900012    2    1    2    0    0 -0.48063850791E+01  0.15962516238E+02  0.85309324468E+01  0.72461546236E+02  0.69999968659E+02 0.  0.
        -12    1    1    2    0    0  0.48063850791E+01 -0.15962516238E+02 -0.85309324468E+01  0.18726453764E+02  0.00000000000E+00 0.  1.
         11    1    3    3    0    0  0.74119897285E+01  0.49454871241E+00 -0.12870690701E+02  0.14860580390E+02  0.51100000000E-03 0. -1.
        -11    1    3    3    0    0  0.16878484129E+02 -0.50362066528E+01  0.98329899831E+01  0.20172612529E+02  0.51100000000E-03 0.  1.
         12    1    3    3    0    0 -0.29096858937E+02  0.20504174178E+02  0.11568633164E+02  0.37428353317E+02  0.00000000000E+00 0. -1.
</event>
<event>
 7    1  0.2641045E-013  0.7246153E+02  0.7816164E-02  0.1226708E+00
        -11   -1    0    0    0    0  0.00000000000E+00  0.00000000000E+00  0.45593999997E+02  0.45594000000E+02  0.51100000000E-03 0. -1.
         11   -1    0    0    0    0 -0.00000000000E+00 -0.00000000000E+00 -0.45593999997E+02  0.45594000000E+02  0.51100000000E-03 0.  1.
    9900012    2    1    2    0    0  0.39195540952E+01  0.17990623455E+02  0.34139788686E+01  0.72461529742E+02  0.69999947173E+02 0.  0.
        -12    1    1    2    0    0 -0.39195540952E+01 -0.17990623455E+02 -0.34139788686E+01  0.18726470258E+02  0.00000000000E+00 0.  1.
         11    1    3    3    0    0 -0.29413706581E+01 -0.14345275532E+02 -0.14121427346E+02  0.20343384723E+02  0.51100000000E-03 0. -1.
        -11    1    3    3    0    0  0.99826467460E+01 -0.51609777736E+01  0.20189157564E+01  0.11417747095E+02  0.51100000000E-03 0.  1.
         12    1    3    3    0    0 -0.31217219928E+01  0.37496876761E+02  0.15516490458E+02  0.40700397924E+02  0.00000000000E+00 0. -1.
</event>
<event>
 7    1  0.2641045E-013  0.7246184E+02  0.7816164E-02  0.1226707E+00
        -11   -1    0    0    0    0  0.00000000000E+00  0.00000000000E+00  0.45593999997E+02  0.45594000000E+02  0.51100000000E-03 0.  1.
         11   -1    0    0    0    0 -0.00000000000E+00 -0.00000000000E+00 -0.45593999997E+02  0.45594000000E+02  0.51100000000E-03 0. -1.
    9900012    2    1    2    0    0 -0.11286693708E+02 -0.14622651697E+02  0.30753626871E+01  0.72461835065E+02  0.70000344912E+02 0.  0.
        -12    1    1    2    0    0  0.11286693708E+02  0.14622651697E+02 -0.30753626871E+01  0.18726164935E+02  0.00000000000E+00 0.  1.
         11    1    3    3    0    0 -0.17641895741E+01 -0.20105360627E+02  0.47871428447E+01  0.20742580064E+02  0.51100000000E-03 0. -1.
        -11    1    3    3    0    0 -0.29035911256E+02 -0.38797278111E+01  0.33708350790E+01  0.29487267756E+02  0.51100000000E-03 0.  1.
         12    1    3    3    0    0  0.19513407122E+02  0.93624367416E+01 -0.50826152366E+01  0.22231987245E+02  0.00000000000E+00 0. -1.
</event>
<event>
 7    1  0.2641045E-013  0.7246159E+02  0.7816164E-02  0.1226708E+00
        -11   -1    0    0    0    0  0.00000000000E+00  0.00000000000E+00  0.45593999997E+02  0.45594000000E+02  0.51100000000E-03 0. -1.
         11   -1    0    0    0    0 -0.00000000000E+00 -0.00000000000E+00 -0.45593999997E+02  0.45594000000E+02  0.51100000000E-03 0.  1.
    9900012    2    1    2    0    0  0.17612350187E+02 -0.61334514277E+01  0.16924195576E+01  0.72461591122E+02  0.70000027131E+02 0.  0.
        -12    1    1    2    0    0 -0.17612350187E+02  0.61334514277E+01 -0.16924195576E+01  0.18726408878E+02  0.00000000000E+00 0.  1.
         11    1    3    3    0    0  0.24210467900E+02  0.21826857374E+02  0.12150228182E+02  0.34787734964E+02  0.51100000000E-03 0. -1.
        -11    1    3    3    0    0  0.61077124647E+01 -0.18879991204E+01 -0.51038161376E+01  0.81803197773E+01  0.51100000000E-03 0.  1.
        -12    1    3    3    0    0 -0.12705830178E+02 -0.26072309682E+02 -0.53539924870E+01  0.29493536380E+02  0.00000000000E+00 0.  1.
</event>
<event>
 7    1  0.2641045E-013  0.7246143E+02  0.7816164E-02  0.1226708E+00
        -11   -1    0    0    0    0  0.00000000000E+00  0.00000000000E+00  0.45593999997E+02  0.45594000000E+02  0.51100000000E-03 0.  1.
         11   -1    0    0    0    0 -0.00000000000E+00 -0.00000000000E+00 -0.45593999997E+02  0.45594000000E+02  0.51100000000E-03 0. -1.
    9900012    2    1    2    0    0 -0.23787335752E+01  0.17658386238E+02  0.57625739963E+01  0.72461434991E+02  0.69999823742E+02 0.  0.
        -12    1    1    2    0    0  0.23787335752E+01 -0.17658386238E+02 -0.57625739963E+01  0.18726565009E+02  0.00000000000E+00 0.  1.
         11    1    3    3    0    0 -0.22392141687E+02  0.95796888439E+01  0.99495482876E+01  0.26309161124E+02  0.51100000000E-03 0. -1.
        -11    1    3    3    0    0 -0.87039962440E+01  0.86518101347E+00  0.10028520889E+02  0.13307115400E+02  0.51100000000E-03 0.  1.
        -12    1    3    3    0    0  0.28717404355E+02  0.72135163810E+01 -0.14215495180E+02  0.32845158467E+02  0.00000000000E+00 0.  1.
</event>
<event>
 7    1  0.2641045E-013  0.7246145E+02  0.7816164E-02  0.1226708E+00
        -11   -1    0    0    0    0  0.00000000000E+00  0.00000000000E+00  0.45593999997E+02  0.45594000000E+02  0.51100000000E-03 0. -1.
         11   -1    0    0    0    0 -0.00000000000E+00 -0.00000000000E+00 -0.45593999997E+02  0.45594000000E+02  0.51100000000E-03 0.  1.
    9900012    2    1    2    0    0  0.72534139950E+01  0.17261879682E+02  0.31490089968E+00  0.72461450202E+02  0.69999843558E+02 0.  0.
        -12    1    1    2    0    0 -0.72534139950E+01 -0.17261879682E+02 -0.31490089968E+00  0.18726549798E+02  0.00000000000E+00 0.  1.
         11    1    3    3    0    0  0.16284905932E+01 -0.13989485347E+02  0.21208120172E+02  0.25458633965E+02  0.51100000000E-03 0. -1.
        -11    1    3    3    0    0 -0.10177779459E+02  0.17697606771E+02 -0.55975127496E+01  0.21168954376E+02  0.51100000000E-03 0.  1.
        -12    1    3    3    0    0  0.15802702861E+02  0.13553758258E+02 -0.15295706523E+02  0.25833861861E+02  0.00000000000E+00 0.  1.
</event>
<event>
 7    1  0.2641045E-013  0.7246154E+02  0.7816164E-02  0.1226708E+00
        -11   -1    0    0    0    0  0.00000000000E+00  0.00000000000E+00  0.45593999997E+02  0.45594000000E+02  0.51100000000E-03 0.  1.
         11   -1    0    0    0    0 -0.00000000000E+00 -0.00000000000E+00 -0.45593999997E+02  0.45594000000E+02  0.51100000000E-03 0. -1.
    9900012    2    1    2    0    0 -0.42054464720E+01  0.51036853194E+01 -0.17519899547E+02  0.72461541071E+02  0.69999961931E+02 0.  0.
        -12    1    1    2    0    0  0.42054464720E+01 -0.51036853194E+01  0.17519899547E+02  0.18726458929E+02  0.00000000000E+00 0.  1.
         11    1    3    3    0    0 -0.23420510127E+02  0.16177039410E+02 -0.26490612868E+01  0.28587312302E+02  0.51100000000E-03 0. -1.
        -11    1    3    3    0    0 -0.62898009612E+01  0.69966653908E+01 -0.36599855775E+00  0.94153533087E+01  0.51100000000E-03 0.  1.
         12    1    3    3    0    0  0.25504864616E+02 -0.18070019482E+02 -0.14504839703E+02  0.34458875460E+02  0.00000000000E+00 0. -1.
</event>
<event>
 7    1  0.2641045E-013  0.7246157E+02  0.7816164E-02  0.1226708E+00
        -11   -1    0    0    0    0  0.00000000000E+00  0.00000000000E+00  0.45593999997E+02  0.45594000000E+02  0.51100000000E-03 0. -1.
         11   -1    0    0    0    0 -0.00000000000E+00 -0.00000000000E+00 -0.45593999997E+02  0.45594000000E+02  0.51100000000E-03 0.  1.
    9900012    2    1    2    0    0 -0.12707818291E+02  0.49980468765E+01  0.12814452974E+02  0.72461566188E+02  0.69999994650E+02 0.  0.
        -12    1    1    2    0    0  0.12707818291E+02 -0.49980468765E+01 -0.12814452974E+02  0.18726433812E+02  0.00000000000E+00 0.  1.
         11    1    3    3    0    0 -0.59888872112E+01 -0.94103118496E+01 -0.30099807071E+01  0.11553385792E+02  0.51100000000E-03 0. -1.
        -11    1    3    3    0    0  0.22250172212E+02  0.40435085846E+01 -0.57453353026E+01  0.23333002446E+02  0.51100000000E-03 0.  1.
         12    1    3    3    0    0 -0.28969103292E+02  0.10364850142E+02  0.21569768984E+02  0.37575177950E+02  0.00000000000E+00 0. -1.
</event>
<event>
 7    1  0.2641045E-013  0.7246160E+02  0.7816164E-02  0.1226708E+00
        -11   -1    0    0    0    0  0.00000000000E+00  0.00000000000E+00  0.45593999997E+02  0.45594000000E+02  0.51100000000E-03 0.  1.
         11   -1    0    0    0    0 -0.00000000000E+00 -0.00000000000E+00 -0.45593999997E+02  0.45594000000E+02  0.51100000000E-03 0. -1.
    9900012    2    1    2    0    0 -0.96382916762E+01 -0.13930580454E+02  0.79824952440E+01  0.72461602360E+02  0.70000041772E+02 0.  0.
        -12    1    1    2    0    0  0.96382916762E+01  0.13930580454E+02 -0.79824952440E+01  0.18726397640E+02  0.00000000000E+00 0.  1.
         11    1    3    3    0    0  0.16279048318E+01 -0.23728201909E+02 -0.14045364894E+02  0.27621548024E+02  0.51100000000E-03 0.  1.
        -11    1    3    3    0    0 -0.29859726257E+01  0.11304613819E+02 -0.76628006533E+01  0.13979586555E+02  0.51100000000E-03 0. -1.
        -12    1    3    3    0    0 -0.82802238823E+01 -0.15069923649E+01  0.29690660791E+02  0.30860467782E+02  0.00000000000E+00 0.  1.
</event>
<event>
 7    1  0.2641045E-013  0.7246158E+02  0.7816164E-02  0.1226708E+00
        -11   -1    0    0    0    0  0.00000000000E+00  0.00000000000E+00  0.45593999997E+02  0.45594000000E+02  0.51100000000E-03 0. -1.
         11   -1    0    0    0    0 -0.00000000000E+00 -0.00000000000E+00 -0.45593999997E+02  0.45594000000E+02  0.51100000000E-03 0.  1.
    9900012    2    1    2    0    0 -0.84096391982E+01 -0.30006320093E+01  0.16460648643E+02  0.72461580757E+02  0.70000013630E+02 0.  0.
        -12    1    1    2    0    0  0.84096391982E+01  0.30006320093E+01 -0.16460648643E+02  0.18726419243E+02  0.00000000000E+00 0.  1.
         11    1    3    3    0    0  0.65595122327E+01  0.22279577921E+02 -0.96020329501E+01  0.25131769339E+02  0.51100000000E-03 0. -1.
        -11    1    3    3    0    0  0.21237774933E+01 -0.65821612077E+01 -0.40210265110E+01  0.80002457130E+01  0.51100000000E-03 0.  1.
        -12    1    3    3    0    0 -0.17092928924E+02 -0.18698048723E+02  0.30083708104E+02  0.39329565705E+02  0.00000000000E+00 0.  1.
</event>
<event>
 7    1  0.2641045E-013  0.7246154E+02  0.7816164E-02  0.1226708E+00
        -11   -1    0    0    0    0  0.00000000000E+00  0.00000000000E+00  0.45593999997E+02  0.45594000000E+02  0.51100000000E-03 0.  1.
         11   -1    0    0    0    0 -0.00000000000E+00 -0.00000000000E+00 -0.45593999997E+02  0.45594000000E+02  0.51100000000E-03 0. -1.
    9900012    2    1    2    0    0 -0.10856448928E+02 -0.15247626051E+02  0.57255541416E+00  0.72461537354E+02  0.69999957089E+02 0.  0.
        -12    1    1    2    0    0  0.10856448928E+02  0.15247626051E+02 -0.57255541416E+00  0.18726462646E+02  0.00000000000E+00 0.  1.
         11    1    3    3    0    0 -0.24462370254E+02 -0.19935867530E+02  0.10895407946E+02  0.33384970978E+02  0.51100000000E-03 0. -1.
        -11    1    3    3    0    0 -0.10319425342E+02  0.60131576280E+01 -0.92215746297E+01  0.15089269133E+02  0.51100000000E-03 0.  1.
        -12    1    3    3    0    0  0.23925346668E+02 -0.13249161491E+01 -0.11012779022E+01  0.23987297243E+02  0.00000000000E+00 0.  1.
</event>
<event>
 7    1  0.2641045E-013  0.7246156E+02  0.7816164E-02  0.1226708E+00
        -11   -1    0    0    0    0  0.00000000000E+00  0.00000000000E+00  0.45593999997E+02  0.45594000000E+02  0.51100000000E-03 0.  1.
         11   -1    0    0    0    0 -0.00000000000E+00 -0.00000000000E+00 -0.45593999997E+02  0.45594000000E+02  0.51100000000E-03 0. -1.
    9900012    2    1    2    0    0 -0.12875481905E+02  0.13029186993E+02  0.38912585066E+01  0.72461557712E+02  0.69999983609E+02 0.  0.
        -12    1    1    2    0    0  0.12875481905E+02 -0.13029186993E+02 -0.38912585066E+01  0.18726442288E+02  0.00000000000E+00 0.  1.
         11    1    3    3    0    0 -0.16960496848E+02  0.38209662162E+02 -0.60836834370E+01  0.42245093683E+02  0.51100000000E-03 0. -1.
        -11    1    3    3    0    0 -0.14887205228E+01 -0.17503558453E+01 -0.22426015471E+01  0.32108092968E+01  0.51100000000E-03 0.  1.
        -12    1    3    3    0    0  0.55737354657E+01 -0.23430119324E+02  0.12217543491E+02  0.27005654732E+02  0.00000000000E+00 0.  1.
</event>
<event>
 7    1  0.2641045E-013  0.7246158E+02  0.7816164E-02  0.1226708E+00
        -11   -1    0    0    0    0  0.00000000000E+00  0.00000000000E+00  0.45593999997E+02  0.45594000000E+02  0.51100000000E-03 0.  1.
         11   -1    0    0    0    0 -0.00000000000E+00 -0.00000000000E+00 -0.45593999997E+02  0.45594000000E+02  0.51100000000E-03 0. -1.
    9900012    2    1    2    0    0  0.40996125665E+01 -0.17074518814E+02 -0.65063611075E+01  0.72461581475E+02  0.70000014565E+02 0.  0.
        -12    1    1    2    0    0 -0.40996125665E+01  0.17074518814E+02  0.65063611075E+01  0.18726418525E+02  0.00000000000E+00 0.  1.
         11    1    3    3    0    0 -0.19086588938E+01 -0.20057799017E+02 -0.21694637767E+02  0.29607694747E+02  0.51100000000E-03 0. -1.
        -11    1    3    3    0    0 -0.48885673353E+01  0.18747216268E+02  0.17600667519E+01  0.19453895333E+02  0.51100000000E-03 0.  1.
        -12    1    3    3    0    0  0.10896838796E+02 -0.15763936064E+02  0.13428209907E+02  0.23399991395E+02  0.00000000000E+00 0.  1.
</event>
<event>
 7    1  0.2641045E-013  0.7246157E+02  0.7816164E-02  0.1226708E+00
        -11   -1    0    0    0    0  0.00000000000E+00  0.00000000000E+00  0.45593999997E+02  0.45594000000E+02  0.51100000000E-03 0. -1.
         11   -1    0    0    0    0 -0.00000000000E+00 -0.00000000000E+00 -0.45593999997E+02  0.45594000000E+02  0.51100000000E-03 0.  1.
    9900012    2    1    2    0    0 -0.18458134181E+02 -0.17264402846E+01  0.26449783543E+01  0.72461568840E+02  0.69999998105E+02 0.  0.
        -12    1    1    2    0    0  0.18458134181E+02  0.17264402846E+01 -0.26449783543E+01  0.18726431160E+02  0.00000000000E+00 0.  1.
         11    1    3    3    0    0 -0.82350423568E+01 -0.94172833848E+00  0.20766466649E+02  0.22359537389E+02  0.51100000000E-03 0. -1.
        -11    1    3    3    0    0  0.11800698859E+02 -0.14907254618E+02 -0.14261364408E+01  0.19066111276E+02  0.51100000000E-03 0.  1.
        -12    1    3    3    0    0 -0.22023790683E+02  0.14122542672E+02 -0.16695351854E+02  0.31035920175E+02  0.00000000000E+00 0.  1.
</event>
<event>
 7    1  0.2641045E-013  0.7246160E+02  0.7816164E-02  0.1226708E+00
        -11   -1    0    0    0    0  0.00000000000E+00  0.00000000000E+00  0.45593999997E+02  0.45594000000E+02  0.51100000000E-03 0.  1.
         11   -1    0    0    0    0 -0.00000000000E+00 -0.00000000000E+00 -0.45593999997E+02  0.45594000000E+02  0.51100000000E-03 0. -1.
    9900012    2    1    2    0    0  0.15640271957E+02  0.90665707349E+01 -0.48844008137E+01  0.72461596632E+02  0.70000034310E+02 0.  0.
        -12    1    1    2    0    0 -0.15640271957E+02 -0.90665707349E+01  0.48844008137E+01  0.18726403368E+02  0.00000000000E+00 0.  1.
         11    1    3    3    0    0  0.11881516495E+02 -0.16588699798E+02 -0.28351376039E+02  0.34930730292E+02  0.51100000000E-03 0. -1.
        -11    1    3    3    0    0  0.88306861121E+01  0.14853851075E+02  0.12543206031E+02  0.21352984025E+02  0.51100000000E-03 0.  1.
        -12    1    3    3    0    0 -0.50719306500E+01  0.10801419457E+02  0.10923769194E+02  0.16177882315E+02  0.00000000000E+00 0.  1.
</event>
<event>
 7    1  0.2641045E-013  0.7246158E+02  0.7816164E-02  0.1226708E+00
        -11   -1    0    0    0    0  0.00000000000E+00  0.00000000000E+00  0.45593999997E+02  0.45594000000E+02  0.51100000000E-03 0. -1.
         11   -1    0    0    0    0 -0.00000000000E+00 -0.00000000000E+00 -0.45593999997E+02  0.45594000000E+02  0.51100000000E-03 0.  1.
    9900012    2    1    2    0    0 -0.89106378858E+01  0.79950177997E+01  0.14399971497E+02  0.72461575988E+02  0.70000007417E+02 0.  0.
        -12    1    1    2    0    0  0.89106378858E+01 -0.79950177997E+01 -0.14399971497E+02  0.18726424012E+02  0.00000000000E+00 0.  1.
         11    1    3    3    0    0 -0.66610656849E+01  0.10730456522E+02  0.10682945728E+02  0.16542001781E+02  0.51100000000E-03 0. -1.
        -11    1    3    3    0    0  0.60763701983E+01  0.16923862584E+02  0.21574929990E+02  0.28085886205E+02  0.51100000000E-03 0.  1.
        -12    1    3    3    0    0 -0.83259423991E+01 -0.19659301306E+02 -0.17857904221E+02  0.27833688003E+02  0.00000000000E+00 0.  1.
</event>
<event>
 7    1  0.2641045E-013  0.7246151E+02  0.7816164E-02  0.1226708E+00
        -11   -1    0    0    0    0  0.00000000000E+00  0.00000000000E+00  0.45593999997E+02  0.45594000000E+02  0.51100000000E-03 0.  1.
         11   -1    0    0    0    0 -0.00000000000E+00 -0.00000000000E+00 -0.45593999997E+02  0.45594000000E+02  0.51100000000E-03 0. -1.
    9900012    2    1    2    0    0 -0.46492674346E+01  0.11509619877E+02 -0.14021214992E+02  0.72461507876E+02  0.69999918689E+02 0.  0.
        -12    1    1    2    0    0  0.46492674346E+01 -0.11509619877E+02  0.14021214992E+02  0.18726492124E+02  0.00000000000E+00 0.  1.
         11    1    3    3    0    0  0.44124847606E+01 -0.15846399569E+02 -0.15251039081E+02  0.22431508963E+02  0.51100000000E-03 0. -1.
        -11    1    3    3    0    0 -0.44527509997E+01  0.12622155717E+01  0.18057054994E+02  0.18640746093E+02  0.51100000000E-03 0.  1.
         12    1    3    3    0    0 -0.46090011955E+01  0.26093803874E+02 -0.16827230906E+02  0.31389252820E+02  0.00000000000E+00 0. -1.
</event>
<event>
 7    1  0.2641045E-013  0.7246157E+02  0.7816164E-02  0.1226708E+00
        -11   -1    0    0    0    0  0.00000000000E+00  0.00000000000E+00  0.45593999997E+02  0.45594000000E+02  0.51100000000E-03 0. -1.
         11   -1    0    0    0    0 -0.00000000000E+00 -0.00000000000E+00 -0.45593999997E+02  0.45594000000E+02  0.51100000000E-03 0.  1.
    9900012    2    1    2    0    0  0.11762257739E+02 -0.13390526601E+02  0.57465028607E+01  0.72461569350E+02  0.69999998770E+02 0.  0.
        -12    1    1    2    0    0 -0.11762257739E+02  0.13390526601E+02 -0.57465028607E+01  0.18726430650E+02  0.00000000000E+00 0.  1.
         11    1    3    3    0    0  0.24490973732E+02  0.51252508580E+01  0.18242318811E+02  0.30965435352E+02  0.51100000000E-03 0. -1.
        -11    1    3    3    0    0  0.10437958640E+02 -0.81305022342E+01 -0.71435805381E-01  0.13231067625E+02  0.51100000000E-03 0.  1.
        -12    1    3    3    0    0 -0.23166674634E+02 -0.10385275225E+02 -0.12424380145E+02  0.28265066373E+02  0.00000000000E+00 0.  1.
</event>
<event>
 7    1  0.2641045E-013  0.7246159E+02  0.7816164E-02  0.1226708E+00
        -11   -1    0    0    0    0  0.00000000000E+00  0.00000000000E+00  0.45593999997E+02  0.45594000000E+02  0.51100000000E-03 0.  1.
         11   -1    0    0    0    0 -0.00000000000E+00 -0.00000000000E+00 -0.45593999997E+02  0.45594000000E+02  0.51100000000E-03 0. -1.
    9900012    2    1    2    0    0  0.15333972783E+02 -0.10249000572E+02 -0.32412715428E+01  0.72461586161E+02  0.70000020670E+02 0.  0.
        -12    1    1    2    0    0 -0.15333972783E+02  0.10249000572E+02  0.32412715428E+01  0.18726413839E+02  0.00000000000E+00 0.  1.
         11    1    3    3    0    0 -0.31955882127E+00 -0.28556713949E+02  0.11965608262E+02  0.30963911425E+02  0.51100000000E-03 0. -1.
        -11    1    3    3    0    0 -0.59117222460E+01  0.57763648562E+01  0.47690864212E+01  0.95424858616E+01  0.51100000000E-03 0.  1.
         12    1    3    3    0    0  0.21565253851E+02  0.12531348521E+02 -0.19975966225E+02  0.31955188875E+02  0.00000000000E+00 0. -1.
</event>
<event>
 7    1  0.2641045E-013  0.7246137E+02  0.7816164E-02  0.1226709E+00
        -11   -1    0    0    0    0  0.00000000000E+00  0.00000000000E+00  0.45593999997E+02  0.45594000000E+02  0.51100000000E-03 0. -1.
         11   -1    0    0    0    0 -0.00000000000E+00 -0.00000000000E+00 -0.45593999997E+02  0.45594000000E+02  0.51100000000E-03 0.  1.
    9900012    2    1    2    0    0  0.21428120965E+01  0.69814674527E+01  0.17243959270E+02  0.72461370224E+02  0.69999739371E+02 0.  0.
        -12    1    1    2    0    0 -0.21428120965E+01 -0.69814674527E+01 -0.17243959270E+02  0.18726629776E+02  0.00000000000E+00 0.  1.
         11    1    3    3    0    0 -0.63266916226E+01 -0.16035195998E+02  0.21542994616E+02  0.27590852740E+02  0.51100000000E-03 0. -1.
        -11    1    3    3    0    0 -0.84925043417E+01  0.68900468598E+01  0.12086909220E+02  0.16299961671E+02  0.51100000000E-03 0.  1.
        -12    1    3    3    0    0  0.16962008061E+02  0.16126616591E+02 -0.16385944567E+02  0.28570555813E+02  0.00000000000E+00 0.  1.
</event>
<event>
 7    1  0.2641045E-013  0.7246156E+02  0.7816164E-02  0.1226708E+00
        -11   -1    0    0    0    0  0.00000000000E+00  0.00000000000E+00  0.45593999997E+02  0.45594000000E+02  0.51100000000E-03 0.  1.
         11   -1    0    0    0    0 -0.00000000000E+00 -0.00000000000E+00 -0.45593999997E+02  0.45594000000E+02  0.51100000000E-03 0. -1.
    9900012    2    1    2    0    0  0.34571732683E+00  0.94566080364E+00 -0.18699348158E+02  0.72461563704E+02  0.69999991414E+02 0.  0.
        -12    1    1    2    0    0 -0.34571732683E+00 -0.94566080364E+00  0.18699348158E+02  0.18726436296E+02  0.00000000000E+00 0.  1.
         11    1    3    3    0    0 -0.22534856048E+01  0.64680945409E+01 -0.54943827116E+01  0.87808135161E+01  0.51100000000E-03 0. -1.
        -11    1    3    3    0    0 -0.24467216298E+02  0.33914542329E+01  0.10279016012E+02  0.26754528694E+02  0.51100000000E-03 0.  1.
         12    1    3    3    0    0  0.27066419230E+02 -0.89138879701E+01 -0.23483981459E+02  0.36926221494E+02  0.00000000000E+00 0. -1.
</event>
<event>
 7    1  0.2641045E-013  0.7246154E+02  0.7816164E-02  0.1226708E+00
        -11   -1    0    0    0    0  0.00000000000E+00  0.00000000000E+00  0.45593999997E+02  0.45594000000E+02  0.51100000000E-03 0. -1.
         11   -1    0    0    0    0 -0.00000000000E+00 -0.00000000000E+00 -0.45593999997E+02  0.45594000000E+02  0.51100000000E-03 0.  1.
    9900012    2    1    2    0    0  0.11781787738E+01 -0.13862575171E+02  0.12534796514E+02  0.72461542266E+02  0.69999963488E+02 0.  0.
        -12    1    1    2    0    0 -0.11781787738E+01  0.13862575171E+02 -0.12534796514E+02  0.18726457734E+02  0.00000000000E+00 0.  1.
         11    1    3    3    0    0 -0.21370650884E+02  0.82140069720E+00  0.59780700035E+01  0.22206231998E+02  0.51100000000E-03 0. -1.
        -11    1    3    3    0    0  0.10889201202E+02 -0.18796305020E+02 -0.14301721285E+02  0.26007979875E+02  0.51100000000E-03 0.  1.
         12    1    3    3    0    0  0.11659628456E+02  0.41123291520E+01  0.20858447795E+02  0.24247330393E+02  0.00000000000E+00 0. -1.
</event>
<event>
 7    1  0.2641045E-013  0.7246164E+02  0.7816164E-02  0.1226708E+00
        -11   -1    0    0    0    0  0.00000000000E+00  0.00000000000E+00  0.45593999997E+02  0.45594000000E+02  0.51100000000E-03 0. -1.
         11   -1    0    0    0    0 -0.00000000000E+00 -0.00000000000E+00 -0.45593999997E+02  0.45594000000E+02  0.51100000000E-03 0.  1.
    9900012    2    1    2    0    0 -0.91065022579E+01  0.15603285545E+02 -0.49280342892E+01  0.72461643570E+02  0.70000095455E+02 0.  0.
        -12    1    1    2    0    0  0.91065022579E+01 -0.15603285545E+02  0.49280342892E+01  0.18726356430E+02  0.00000000000E+00 0.  1.
         11    1    3    3    0    0 -0.32702963249E+01  0.21339760146E+02  0.60322286351E+01  0.22415797637E+02  0.51100000000E-03 0. -1.
        -11    1    3    3    0    0 -0.45414721933E+01 -0.24525574673E+00 -0.29920413570E+02  0.30264108586E+02  0.51100000000E-03 0.  1.
        -12    1    3    3    0    0 -0.12947337397E+01 -0.54912188544E+01  0.18960150645E+02  0.19781737347E+02  0.00000000000E+00 0.  1.
</event>
<event>
 7    1  0.2641045E-013  0.7246157E+02  0.7816164E-02  0.1226708E+00
        -11   -1    0    0    0    0  0.00000000000E+00  0.00000000000E+00  0.45593999997E+02  0.45594000000E+02  0.51100000000E-03 0.  1.
         11   -1    0    0    0    0 -0.00000000000E+00 -0.00000000000E+00 -0.45593999997E+02  0.45594000000E+02  0.51100000000E-03 0. -1.
    9900012    2    1    2    0    0  0.14765073873E+01 -0.17639773572E+02  0.61104443119E+01  0.72461569069E+02  0.69999998403E+02 0.  0.
        -12    1    1    2    0    0 -0.14765073873E+01  0.17639773572E+02 -0.61104443119E+01  0.18726430931E+02  0.00000000000E+00 0.  1.
         11    1    3    3    0    0  0.13833523119E+02 -0.11301816035E+02  0.18500124132E+02  0.25716764974E+02  0.51100000000E-03 0. -1.
        -11    1    3    3    0    0  0.10195206718E+01  0.11400530707E+02  0.10002900682E+02  0.15200971848E+02  0.51100000000E-03 0.  1.
        -12    1    3    3    0    0 -0.13376536403E+02 -0.17738488244E+02 -0.22392580502E+02  0.31543832247E+02  0.00000000000E+00 0.  1.
</event>
<event>
 7    1  0.2641045E-013  0.7246156E+02  0.7816164E-02  0.1226708E+00
        -11   -1    0    0    0    0  0.00000000000E+00  0.00000000000E+00  0.45593999997E+02  0.45594000000E+02  0.51100000000E-03 0. -1.
         11   -1    0    0    0    0 -0.00000000000E+00 -0.00000000000E+00 -0.45593999997E+02  0.45594000000E+02  0.51100000000E-03 0.  1.
    9900012    2    1    2    0    0 -0.16371136866E+02 -0.37871864855E+01  0.82657428419E+01  0.72461563914E+02  0.69999991689E+02 0.  0.
        -12    1    1    2    0    0  0.16371136866E+02  0.37871864855E+01 -0.82657428419E+01  0.18726436086E+02  0.00000000000E+00 0.  1.
         11    1    3    3    0    0 -0.20037015528E+01  0.11438907634E+01 -0.48409370340E+01  0.53626465126E+01  0.51100000000E-03 0. -1.
        -11    1    3    3    0    0 -0.20052024235E+02  0.45476588818E+01 -0.22107361389E+02  0.30191063331E+02  0.51100000000E-03 0.  1.
         12    1    3    3    0    0  0.56845889225E+01 -0.94787361308E+01  0.35214041265E+02  0.36907854070E+02  0.00000000000E+00 0. -1.
</event>
<event>
 7    1  0.2641045E-013  0.7246158E+02  0.7816164E-02  0.1226708E+00
        -11   -1    0    0    0    0  0.00000000000E+00  0.00000000000E+00  0.45593999997E+02  0.45594000000E+02  0.51100000000E-03 0.  1.
         11   -1    0    0    0    0 -0.00000000000E+00 -0.00000000000E+00 -0.45593999997E+02  0.45594000000E+02  0.51100000000E-03 0. -1.
    9900012    2    1    2    0    0  0.16601185838E+02 -0.31410887944E+01 -0.80754508945E+01  0.72461582371E+02  0.70000015732E+02 0.  0.
        -12    1    1    2    0    0 -0.16601185838E+02  0.31410887944E+01  0.80754508945E+01  0.18726417629E+02  0.00000000000E+00 0.  1.
         11    1    3    3    0    0  0.16405917129E+02  0.52035121401E+01 -0.81411288979E+00  0.17230595913E+02  0.51100000000E-03 0. -1.
        -11    1    3    3    0    0  0.19946121993E+02  0.70364391604E+01 -0.18208177881E+02  0.27908726246E+02  0.51100000000E-03 0.  1.
         12    1    3    3    0    0 -0.19750853284E+02 -0.15381040095E+02  0.10946839877E+02  0.27322260213E+02  0.00000000000E+00 0. -1.
</event>
<event>
 7    1  0.2641045E-013  0.7246166E+02  0.7816164E-02  0.1226708E+00
        -11   -1    0    0    0    0  0.00000000000E+00  0.00000000000E+00  0.45593999997E+02  0.45594000000E+02  0.51100000000E-03 0. -1.
         11   -1    0    0    0    0 -0.00000000000E+00 -0.00000000000E+00 -0.45593999997E+02  0.45594000000E+02  0.51100000000E-03 0.  1.
    9900012    2    1    2    0    0 -0.26204900516E+01  0.12151162719E+02  0.14005648692E+02  0.72461657089E+02  0.70000113066E+02 0.  0.
        -12    1    1    2    0    0  0.26204900516E+01 -0.12151162719E+02 -0.14005648692E+02  0.18726342911E+02  0.00000000000E+00 0.  1.
         11    1    3    3    0    0  0.91237509832E+01 -0.13314821944E+01 -0.84505240340E+01  0.12507079337E+02  0.51100000000E-03 0.  1.
        -11    1    3    3    0    0 -0.29084244090E+01  0.33400310844E+02  0.10681680522E+02  0.35187185111E+02  0.51100000000E-03 0. -1.
         12    1    3    3    0    0 -0.88358166258E+01 -0.19917665930E+02  0.11774492204E+02  0.24767392640E+02  0.00000000000E+00 0. -1.
</event>
<event>
 7    1  0.2641045E-013  0.7246156E+02  0.7816164E-02  0.1226708E+00
        -11   -1    0    0    0    0  0.00000000000E+00  0.00000000000E+00  0.45593999997E+02  0.45594000000E+02  0.51100000000E-03 0. -1.
         11   -1    0    0    0    0 -0.00000000000E+00 -0.00000000000E+00 -0.45593999997E+02  0.45594000000E+02  0.51100000000E-03 0.  1.
    9900012    2    1    2    0    0 -0.34758326445E+01 -0.18310781074E+02  0.18202413344E+01  0.72461564284E+02  0.69999992171E+02 0.  0.
        -12    1    1    2    0    0  0.34758326445E+01  0.18310781074E+02 -0.18202413344E+01  0.18726435716E+02  0.00000000000E+00 0.  1.
         11    1    3    3    0    0 -0.12161841990E+02 -0.13516915096E+02  0.10124752103E+02  0.20811727456E+02  0.51100000000E-03 0. -1.
        -11    1    3    3    0    0 -0.15143527433E+02  0.64758177274E+01 -0.17214756484E+02  0.23824577214E+02  0.51100000000E-03 0.  1.
        -12    1    3    3    0    0  0.23829536778E+02 -0.11269683705E+02  0.89102457154E+01  0.27825259614E+02  0.00000000000E+00 0.  1.
</event>
<event>
 7    1  0.2641045E-013  0.7246143E+02  0.7816164E-02  0.1226708E+00
        -11   -1    0    0    0    0  0.00000000000E+00  0.00000000000E+00  0.45593999997E+02  0.45594000000E+02  0.51100000000E-03 0. -1.
         11   -1    0    0    0    0 -0.00000000000E+00 -0.00000000000E+00 -0.45593999997E+02  0.45594000000E+02  0.51100000000E-03 0.  1.
    9900012    2    1    2    0    0 -0.10142471040E+02  0.13964827303E+02 -0.72662508669E+01  0.72461427381E+02  0.69999813829E+02 0.  0.
        -12    1    1    2    0    0  0.10142471040E+02 -0.13964827303E+02  0.72662508669E+01  0.18726572619E+02  0.00000000000E+00 0.  1.
         11    1    3    3    0    0 -0.61185305261E+01 -0.10556721670E+02  0.18343941142E+02  0.22031363215E+02  0.51100000000E-03 0. -1.
        -11    1    3    3    0    0 -0.13208150442E+02 -0.37260881010E+01 -0.87397263803E+01  0.16270273142E+02  0.51100000000E-03 0.  1.
        -12    1    3    3    0    0  0.91842099283E+01  0.28247637074E+02 -0.16870465629E+02  0.34159791024E+02  0.00000000000E+00 0.  1.
</event>
<event>
 7    1  0.2641045E-013  0.7246158E+02  0.7816164E-02  0.1226708E+00
        -11   -1    0    0    0    0  0.00000000000E+00  0.00000000000E+00  0.45593999997E+02  0.45594000000E+02  0.51100000000E-03 0. -1.
         11   -1    0    0    0    0 -0.00000000000E+00 -0.00000000000E+00 -0.45593999997E+02  0.45594000000E+02  0.51100000000E-03 0.  1.
    9900012    2    1    2    0    0  0.17369304759E+02  0.66710951798E+01  0.21172111000E+01  0.72461579051E+02  0.70000011407E+02 0.  0.
        -12    1    1    2    0    0 -0.17369304759E+02 -0.66710951798E+01 -0.21172111000E+01  0.18726420949E+02  0.00000000000E+00 0.  1.
         11    1    3    3    0    0 -0.72572357563E+01 -0.74718130963E+01  0.12254293751E+02  0.16083008965E+02  0.51100000000E-03 0. -1.
        -11    1    3    3    0    0  0.24819977955E+02  0.11722737401E+02  0.14894313421E+02  0.31229704616E+02  0.51100000000E-03 0.  1.
        -12    1    3    3    0    0 -0.19343743926E+00  0.24201708753E+01 -0.25031396072E+02  0.25148865470E+02  0.00000000000E+00 0.  1.
</event>
<event>
 7    1  0.2641045E-013  0.7246157E+02  0.7816164E-02  0.1226708E+00
        -11   -1    0    0    0    0  0.00000000000E+00  0.00000000000E+00  0.45593999997E+02  0.45594000000E+02  0.51100000000E-03 0. -1.
         11   -1    0    0    0    0 -0.00000000000E+00 -0.00000000000E+00 -0.45593999997E+02  0.45594000000E+02  0.51100000000E-03 0.  1.
    9900012    2    1    2    0    0 -0.67397581603E+01  0.16723812932E+02  0.50565611970E+01  0.72461572947E+02  0.70000003455E+02 0.  0.
        -12    1    1    2    0    0  0.67397581603E+01 -0.16723812932E+02 -0.50565611970E+01  0.18726427053E+02  0.00000000000E+00 0.  1.
         11    1    3    3    0    0 -0.10495293497E+01 -0.17192531895E+02  0.17393139769E+01  0.17312130954E+02  0.51100000000E-03 0. -1.
        -11    1    3    3    0    0  0.13320836049E+02 -0.26641915394E+01  0.30503536525E+01  0.13922903694E+02  0.51100000000E-03 0.  1.
         12    1    3    3    0    0 -0.19011064859E+02  0.36580536366E+02  0.26689356771E+00  0.41226538299E+02  0.00000000000E+00 0. -1.
</event>
<event>
 7    1  0.2641045E-013  0.7246160E+02  0.7816164E-02  0.1226708E+00
        -11   -1    0    0    0    0  0.00000000000E+00  0.00000000000E+00  0.45593999997E+02  0.45594000000E+02  0.51100000000E-03 0. -1.
         11   -1    0    0    0    0 -0.00000000000E+00 -0.00000000000E+00 -0.45593999997E+02  0.45594000000E+02  0.51100000000E-03 0.  1.
    9900012    2    1    2    0    0  0.99893865288E+01  0.10289019239E+02  0.12042688676E+02  0.72461598566E+02  0.70000036829E+02 0.  0.
        -12    1    1    2    0    0 -0.99893865288E+01 -0.10289019239E+02 -0.12042688676E+02  0.18726401434E+02  0.00000000000E+00 0.  1.
         11    1    3    3    0    0 -0.52405318316E+01 -0.18969834697E+01  0.10607032029E+02  0.11982105361E+02  0.51100000000E-03 0. -1.
        -11    1    3    3    0    0  0.20796282007E+02 -0.18520239699E+02  0.71573480031E+01  0.28752604309E+02  0.51100000000E-03 0.  1.
         12    1    3    3    0    0 -0.55663636466E+01  0.30706242408E+02 -0.57216913555E+01  0.31726888896E+02  0.00000000000E+00 0. -1.
</event>
<event>
 7    1  0.2641045E-013  0.7246155E+02  0.7816164E-02  0.1226708E+00
        -11   -1    0    0    0    0  0.00000000000E+00  0.00000000000E+00  0.45593999997E+02  0.45594000000E+02  0.51100000000E-03 0.  1.
         11   -1    0    0    0    0 -0.00000000000E+00 -0.00000000000E+00 -0.45593999997E+02  0.45594000000E+02  0.51100000000E-03 0. -1.
    9900012    2    1    2    0    0 -0.61814034976E+01 -0.10461414921E+02 -0.14248817678E+02  0.72461554621E+02  0.69999979582E+02 0.  0.
        -12    1    1    2    0    0  0.61814034976E+01  0.10461414921E+02  0.14248817678E+02  0.18726445379E+02  0.00000000000E+00 0.  1.
         11    1    3    3    0    0  0.11183675189E+02 -0.18126705808E+02 -0.23141244213E+02  0.31451061002E+02  0.51100000000E-03 0. -1.
        -11    1    3    3    0    0  0.94838361314E+01  0.35007223828E+01  0.94449008696E+01  0.13834896374E+02  0.51100000000E-03 0.  1.
         12    1    3    3    0    0 -0.26848914818E+02  0.41645685042E+01 -0.55247433390E+00  0.27175597245E+02  0.00000000000E+00 0. -1.
</event>
<event>
 7    1  0.2641045E-013  0.7246157E+02  0.7816164E-02  0.1226708E+00
        -11   -1    0    0    0    0  0.00000000000E+00  0.00000000000E+00  0.45593999997E+02  0.45594000000E+02  0.51100000000E-03 0. -1.
         11   -1    0    0    0    0 -0.00000000000E+00 -0.00000000000E+00 -0.45593999997E+02  0.45594000000E+02  0.51100000000E-03 0.  1.
    9900012    2    1    2    0    0 -0.93983689905E+01  0.15688041930E+02  0.40293090142E+01  0.72461565998E+02  0.69999994404E+02 0.  0.
        -12    1    1    2    0    0  0.93983689905E+01 -0.15688041930E+02 -0.40293090142E+01  0.18726434002E+02  0.00000000000E+00 0.  1.
         11    1    3    3    0    0 -0.29123351677E+01  0.11086397994E+02  0.41643396452E+01  0.12195558272E+02  0.51100000000E-03 0. -1.
        -11    1    3    3    0    0 -0.16885131277E+02  0.26800447636E+02 -0.10891295789E+02  0.33496148673E+02  0.51100000000E-03 0.  1.
         12    1    3    3    0    0  0.10399097454E+02 -0.22198803700E+02  0.10756265158E+02  0.26769859053E+02  0.00000000000E+00 0. -1.
</event>
<event>
 7    1  0.2641045E-013  0.7246153E+02  0.7816164E-02  0.1226708E+00
        -11   -1    0    0    0    0  0.00000000000E+00  0.00000000000E+00  0.45593999997E+02  0.45594000000E+02  0.51100000000E-03 0.  1.
         11   -1    0    0    0    0 -0.00000000000E+00 -0.00000000000E+00 -0.45593999997E+02  0.45594000000E+02  0.51100000000E-03 0. -1.
    9900012    2    1    2    0    0  0.13107826328E+02  0.13269155797E+02  0.16718711416E+01  0.72461527835E+02  0.69999944689E+02 0.  0.
        -12    1    1    2    0    0 -0.13107826328E+02 -0.13269155797E+02 -0.16718711416E+01  0.18726472165E+02  0.00000000000E+00 0.  1.
         11    1    3    3    0    0  0.29857750089E+01  0.10143761630E+02  0.76715789532E+01  0.13063838498E+02  0.51100000000E-03 0.  1.
        -11    1    3    3    0    0 -0.23315887816E+02  0.68672739869E+01  0.32002230422E+01  0.24515943883E+02  0.51100000000E-03 0. -1.
        -12    1    3    3    0    0  0.33437939136E+02 -0.37418798199E+01 -0.91999308538E+01  0.34881745455E+02  0.00000000000E+00 0.  1.
</event>
<event>
 7    1  0.2641045E-013  0.7246155E+02  0.7816164E-02  0.1226708E+00
        -11   -1    0    0    0    0  0.00000000000E+00  0.00000000000E+00  0.45593999997E+02  0.45594000000E+02  0.51100000000E-03 0. -1.
         11   -1    0    0    0    0 -0.00000000000E+00 -0.00000000000E+00 -0.45593999997E+02  0.45594000000E+02  0.51100000000E-03 0.  1.
    9900012    2    1    2    0    0 -0.16245707502E+02 -0.56422742008E+01  0.74109177105E+01  0.72461548876E+02  0.69999972098E+02 0.  0.
        -12    1    1    2    0    0  0.16245707502E+02  0.56422742008E+01 -0.74109177105E+01  0.18726451124E+02  0.00000000000E+00 0.  1.
         11    1    3    3    0    0  0.50204237256E+01  0.92362297313E+00 -0.39001164179E+01  0.64240674121E+01  0.51100000000E-03 0. -1.
        -11    1    3    3    0    0 -0.24567383035E+02 -0.91237702269E+01 -0.20922632539E+02  0.33534400919E+02  0.51100000000E-03 0.  1.
        -12    1    3    3    0    0  0.33012518074E+01  0.25578730529E+01  0.32233666668E+02  0.32503080545E+02  0.00000000000E+00 0.  1.
</event>
<event>
 7    1  0.2641045E-013  0.7246159E+02  0.7816164E-02  0.1226708E+00
        -11   -1    0    0    0    0  0.00000000000E+00  0.00000000000E+00  0.45593999997E+02  0.45594000000E+02  0.51100000000E-03 0.  1.
         11   -1    0    0    0    0 -0.00000000000E+00 -0.00000000000E+00 -0.45593999997E+02  0.45594000000E+02  0.51100000000E-03 0. -1.
    9900012    2    1    2    0    0  0.93320204172E+01  0.55598239269E+01 -0.15253852587E+02  0.72461594421E+02  0.70000031429E+02 0.  0.
        -12    1    1    2    0    0 -0.93320204172E+01 -0.55598239269E+01  0.15253852587E+02  0.18726405579E+02  0.00000000000E+00 0.  1.
         11    1    3    3    0    0 -0.39227966893E+00 -0.18775566407E+02  0.10112093232E+02  0.21329092973E+02  0.51100000000E-03 0. -1.
        -11    1    3    3    0    0 -0.18198001159E+01 -0.54270925478E+01  0.46039974551E+01  0.73458695068E+01  0.51100000000E-03 0.  1.
         12    1    3    3    0    0  0.11544100202E+02  0.29762482882E+02 -0.29969943275E+02  0.43786631940E+02  0.00000000000E+00 0. -1.
</event>
<event>
 7    1  0.2641045E-013  0.7246153E+02  0.7816164E-02  0.1226708E+00
        -11   -1    0    0    0    0  0.00000000000E+00  0.00000000000E+00  0.45593999997E+02  0.45594000000E+02  0.51100000000E-03 0. -1.
         11   -1    0    0    0    0 -0.00000000000E+00 -0.00000000000E+00 -0.45593999997E+02  0.45594000000E+02  0.51100000000E-03 0.  1.
    9900012    2    1    2    0    0  0.17157516593E+02  0.63469842044E+01  0.40020328753E+01  0.72461525391E+02  0.69999941506E+02 0.  0.
        -12    1    1    2    0    0 -0.17157516593E+02 -0.63469842044E+01 -0.40020328753E+01  0.18726474609E+02  0.00000000000E+00 0.  1.
         11    1    3    3    0    0 -0.11271412684E+01 -0.26691496627E+01  0.38991413378E+01  0.48577886733E+01  0.51100000000E-03 0. -1.
        -11    1    3    3    0    0  0.31003753371E+02 -0.19328866665E+02  0.16017133458E+00  0.36535783346E+02  0.51100000000E-03 0.  1.
        -12    1    3    3    0    0 -0.12719095509E+02  0.28345000532E+02 -0.57279797049E-01  0.31067953372E+02  0.00000000000E+00 0.  1.
</event>
<event>
 7    1  0.2641045E-013  0.7246159E+02  0.7816164E-02  0.1226708E+00
        -11   -1    0    0    0    0  0.00000000000E+00  0.00000000000E+00  0.45593999997E+02  0.45594000000E+02  0.51100000000E-03 0.  1.
         11   -1    0    0    0    0 -0.00000000000E+00 -0.00000000000E+00 -0.45593999997E+02  0.45594000000E+02  0.51100000000E-03 0. -1.
    9900012    2    1    2    0    0 -0.14125253609E+02  0.12227428526E+02 -0.12827926676E+01  0.72461592045E+02  0.70000028334E+02 0.  0.
        -12    1    1    2    0    0  0.14125253609E+02 -0.12227428526E+02  0.12827926676E+01  0.18726407955E+02  0.00000000000E+00 0.  1.
         11    1    3    3    0    0  0.12546924773E+02 -0.18788476374E+01 -0.17704714811E+02  0.21781008161E+02  0.51100000000E-03 0. -1.
        -11    1    3    3    0    0  0.36958239421E+01 -0.43257772420E+01 -0.63175375755E+01  0.85019259370E+01  0.51100000000E-03 0.  1.
         12    1    3    3    0    0 -0.30368002325E+02  0.18432053405E+02  0.22739459719E+02  0.42178657947E+02  0.00000000000E+00 0. -1.
</event>
<event>
 7    1  0.2641045E-013  0.7246139E+02  0.7816164E-02  0.1226708E+00
        -11   -1    0    0    0    0  0.00000000000E+00  0.00000000000E+00  0.45593999997E+02  0.45594000000E+02  0.51100000000E-03 0.  1.
         11   -1    0    0    0    0 -0.00000000000E+00 -0.00000000000E+00 -0.45593999997E+02  0.45594000000E+02  0.51100000000E-03 0. -1.
    9900012    2    1    2    0    0  0.98766431566E+01  0.15544301532E+02  0.33930075713E+01  0.72461390843E+02  0.69999766230E+02 0.  0.
        -12    1    1    2    0    0 -0.98766431566E+01 -0.15544301532E+02 -0.33930075713E+01  0.18726609157E+02  0.00000000000E+00 0.  1.
         11    1    3    3    0    0  0.19090114281E+01 -0.97959187772E+01  0.76059177808E+01  0.12548080924E+02  0.51100000000E-03 0.  1.
        -11    1    3    3    0    0 -0.85922245994E+01 -0.14271017784E+02 -0.32323543516E+01  0.16968688432E+02  0.51100000000E-03 0. -1.
        -12    1    3    3    0    0  0.16559856328E+02  0.39611238093E+02 -0.98055585791E+00  0.42944621487E+02  0.00000000000E+00 0.  1.
</event>
<event>
 7    1  0.2641045E-013  0.7246160E+02  0.7816164E-02  0.1226708E+00
        -11   -1    0    0    0    0  0.00000000000E+00  0.00000000000E+00  0.45593999997E+02  0.45594000000E+02  0.51100000000E-03 0.  1.
         11   -1    0    0    0    0 -0.00000000000E+00 -0.00000000000E+00 -0.45593999997E+02  0.45594000000E+02  0.51100000000E-03 0. -1.
    9900012    2    1    2    0    0 -0.15202851997E+01  0.18017042300E+02  0.48737122213E+01  0.72461597485E+02  0.70000035421E+02 0.  0.
        -12    1    1    2    0    0  0.15202851997E+01 -0.18017042300E+02 -0.48737122213E+01  0.18726402515E+02  0.00000000000E+00 0.  1.
         11    1    3    3    0    0  0.41525773999E+01 -0.38328509052E+01 -0.94009855081E+01  0.10968736204E+02  0.51100000000E-03 0. -1.
        -11    1    3    3    0    0 -0.24085083540E+02  0.20282367637E+02 -0.80620379270E+01  0.32503263558E+02  0.51100000000E-03 0.  1.
         12    1    3    3    0    0  0.18412220941E+02  0.15675255678E+01  0.22336735656E+02  0.28989597723E+02  0.00000000000E+00 0. -1.
</event>
<event>
 7    1  0.2641045E-013  0.7246155E+02  0.7816164E-02  0.1226708E+00
        -11   -1    0    0    0    0  0.00000000000E+00  0.00000000000E+00  0.45593999997E+02  0.45594000000E+02  0.51100000000E-03 0.  1.
         11   -1    0    0    0    0 -0.00000000000E+00 -0.00000000000E+00 -0.45593999997E+02  0.45594000000E+02  0.51100000000E-03 0. -1.
    9900012    2    1    2    0    0 -0.16156282136E+02  0.94627540432E+00 -0.94211958766E+01  0.72461552890E+02  0.69999977328E+02 0.  0.
        -12    1    1    2    0    0  0.16156282136E+02 -0.94627540432E+00  0.94211958766E+01  0.18726447110E+02  0.00000000000E+00 0.  1.
         11    1    3    3    0    0  0.64948921359E+01  0.40029309147E+01  0.12044842489E+02  0.14257815773E+02  0.51100000000E-03 0. -1.
        -11    1    3    3    0    0 -0.59043773172E+01  0.51280901693E+00  0.15971800026E+02  0.17035933815E+02  0.51100000000E-03 0.  1.
         12    1    3    3    0    0 -0.16746796955E+02 -0.35694645273E+01 -0.37437838393E+02  0.41167803303E+02  0.00000000000E+00 0. -1.
</event>
<event>
 7    1  0.2641045E-013  0.7246197E+02  0.7816164E-02  0.1226707E+00
        -11   -1    0    0    0    0  0.00000000000E+00  0.00000000000E+00  0.45593999997E+02  0.45594000000E+02  0.51100000000E-03 0.  1.
         11   -1    0    0    0    0 -0.00000000000E+00 -0.00000000000E+00 -0.45593999997E+02  0.45594000000E+02  0.51100000000E-03 0. -1.
    9900012    2    1    2    0    0 -0.39199009172E+01  0.16042165995E+02 -0.88287911551E+01  0.72461968219E+02  0.70000518369E+02 0.  0.
        -12    1    1    2    0    0  0.39199009172E+01 -0.16042165995E+02  0.88287911551E+01  0.18726031781E+02  0.00000000000E+00 0.  1.
         11    1    3    3    0    0 -0.79848099523E+00  0.20746613356E+02 -0.15382721556E+01  0.20818881313E+02  0.51100000000E-03 0. -1.
        -11    1    3    3    0    0 -0.14023973437E+02  0.71089075319E+01  0.16589397863E+02  0.22856432770E+02  0.51100000000E-03 0.  1.
        -12    1    3    3    0    0  0.10902553515E+02 -0.11813354893E+02 -0.23879916862E+02  0.28786654136E+02  0.00000000000E+00 0.  1.
</event>
<event>
 7    1  0.2641045E-013  0.7246160E+02  0.7816164E-02  0.1226708E+00
        -11   -1    0    0    0    0  0.00000000000E+00  0.00000000000E+00  0.45593999997E+02  0.45594000000E+02  0.51100000000E-03 0. -1.
         11   -1    0    0    0    0 -0.00000000000E+00 -0.00000000000E+00 -0.45593999997E+02  0.45594000000E+02  0.51100000000E-03 0.  1.
    9900012    2    1    2    0    0 -0.14555700842E+02  0.89922693860E+01  0.76124114510E+01  0.72461597681E+02  0.70000035677E+02 0.  0.
        -12    1    1    2    0    0  0.14555700842E+02 -0.89922693860E+01 -0.76124114510E+01  0.18726402319E+02  0.00000000000E+00 0.  1.
         11    1    3    3    0    0  0.13305054382E+02  0.11625884314E+02  0.37257975529E+01  0.18057331637E+02  0.51100000000E-03 0. -1.
        -11    1    3    3    0    0  0.26127619627E+01  0.16787496877E+02 -0.39168042782E+01  0.17435249711E+02  0.51100000000E-03 0.  1.
        -12    1    3    3    0    0 -0.30473517187E+02 -0.19421111804E+02  0.78034181763E+01  0.36969016334E+02  0.00000000000E+00 0.  1.
</event>
<event>
 7    1  0.2641045E-013  0.7246157E+02  0.7816164E-02  0.1226708E+00
        -11   -1    0    0    0    0  0.00000000000E+00  0.00000000000E+00  0.45593999997E+02  0.45594000000E+02  0.51100000000E-03 0. -1.
         11   -1    0    0    0    0 -0.00000000000E+00 -0.00000000000E+00 -0.45593999997E+02  0.45594000000E+02  0.51100000000E-03 0.  1.
    9900012    2    1    2    0    0  0.10951530752E+02  0.23889321650E+01  0.15001206865E+02  0.72461568677E+02  0.69999997893E+02 0.  0.
        -12    1    1    2    0    0 -0.10951530752E+02 -0.23889321650E+01 -0.15001206865E+02  0.18726431323E+02  0.00000000000E+00 0.  1.
         11    1    3    3    0    0  0.16691882474E+02  0.50118160449E+01  0.69360413904E+01  0.18757556105E+02  0.51100000000E-03 0. -1.
        -11    1    3    3    0    0  0.91825593936E+01  0.65754369583E+01  0.26170004649E+02  0.28503068463E+02  0.51100000000E-03 0.  1.
        -12    1    3    3    0    0 -0.14922911116E+02 -0.91983208383E+01 -0.18104839174E+02  0.25200944108E+02  0.00000000000E+00 0.  1.
</event>
<event>
 7    1  0.2641045E-013  0.7246166E+02  0.7816164E-02  0.1226708E+00
        -11   -1    0    0    0    0  0.00000000000E+00  0.00000000000E+00  0.45593999997E+02  0.45594000000E+02  0.51100000000E-03 0.  1.
         11   -1    0    0    0    0 -0.00000000000E+00 -0.00000000000E+00 -0.45593999997E+02  0.45594000000E+02  0.51100000000E-03 0. -1.
    9900012    2    1    2    0    0 -0.18521572865E+02 -0.26836603773E+01  0.65209915407E+00  0.72461656852E+02  0.70000112757E+02 0.  0.
        -12    1    1    2    0    0  0.18521572865E+02  0.26836603773E+01 -0.65209915407E+00  0.18726343148E+02  0.00000000000E+00 0.  1.
         11    1    3    3    0    0  0.98302591364E+01  0.95784885367E+00  0.28163395238E+01  0.10270503283E+02  0.51100000000E-03 0. -1.
        -11    1    3    3    0    0  0.25723196035E+00 -0.23986087941E+02  0.85843281392E+01  0.25477230479E+02  0.51100000000E-03 0.  1.
         12    1    3    3    0    0 -0.28609063961E+02  0.20344578710E+02 -0.10748568509E+02  0.36713923090E+02  0.00000000000E+00 0. -1.
</event>
<event>
 7    1  0.2641045E-013  0.7246156E+02  0.7816164E-02  0.1226708E+00
        -11   -1    0    0    0    0  0.00000000000E+00  0.00000000000E+00  0.45593999997E+02  0.45594000000E+02  0.51100000000E-03 0.  1.
         11   -1    0    0    0    0 -0.00000000000E+00 -0.00000000000E+00 -0.45593999997E+02  0.45594000000E+02  0.51100000000E-03 0. -1.
    9900012    2    1    2    0    0  0.16652125913E+02 -0.40456586213E+01 -0.75510752635E+01  0.72461564442E+02  0.69999992376E+02 0.  0.
        -12    1    1    2    0    0 -0.16652125913E+02  0.40456586213E+01  0.75510752635E+01  0.18726435558E+02  0.00000000000E+00 0.  1.
         11    1    3    3    0    0 -0.10477630992E+02  0.49396798770E+01  0.91202458399E+00  0.11619508492E+02  0.51100000000E-03 0. -1.
        -11    1    3    3    0    0 -0.56141139275E+01  0.23943414390E+01  0.16848313569E+02  0.17919732601E+02  0.51100000000E-03 0.  1.
         12    1    3    3    0    0  0.32743870832E+02 -0.11379679937E+02 -0.25311413416E+02  0.42922323349E+02  0.00000000000E+00 0. -1.
</event>
<event>
 7    1  0.2641045E-013  0.7246153E+02  0.7816164E-02  0.1226708E+00
        -11   -1    0    0    0    0  0.00000000000E+00  0.00000000000E+00  0.45593999997E+02  0.45594000000E+02  0.51100000000E-03 0.  1.
         11   -1    0    0    0    0 -0.00000000000E+00 -0.00000000000E+00 -0.45593999997E+02  0.45594000000E+02  0.51100000000E-03 0. -1.
    9900012    2    1    2    0    0 -0.14898339357E+01  0.18480233655E+02 -0.26347482198E+01  0.72461533722E+02  0.69999952357E+02 0.  0.
        -12    1    1    2    0    0  0.14898339357E+01 -0.18480233655E+02  0.26347482198E+01  0.18726466278E+02  0.00000000000E+00 0.  1.
         11    1    3    3    0    0 -0.13141524542E+01  0.22482535892E+01 -0.20708562139E+02  0.20871659900E+02  0.51100000000E-03 0. -1.
        -11    1    3    3    0    0  0.43233179837E+01 -0.10156540014E+02 -0.84531704243E+01  0.13903326002E+02  0.51100000000E-03 0.  1.
        -12    1    3    3    0    0 -0.44989994652E+01  0.26388520079E+02  0.26526984343E+02  0.37686547819E+02  0.00000000000E+00 0.  1.
</event>
<event>
 7    1  0.2641045E-013  0.7246160E+02  0.7816164E-02  0.1226708E+00
        -11   -1    0    0    0    0  0.00000000000E+00  0.00000000000E+00  0.45593999997E+02  0.45594000000E+02  0.51100000000E-03 0. -1.
         11   -1    0    0    0    0 -0.00000000000E+00 -0.00000000000E+00 -0.45593999997E+02  0.45594000000E+02  0.51100000000E-03 0.  1.
    9900012    2    1    2    0    0  0.13446295049E+01 -0.15656453558E+02  0.10185550387E+02  0.72461601435E+02  0.70000040567E+02 0.  0.
        -12    1    1    2    0    0 -0.13446295049E+01  0.15656453558E+02 -0.10185550387E+02  0.18726398565E+02  0.00000000000E+00 0.  1.
         11    1    3    3    0    0  0.11236332363E+02 -0.28217202839E+01 -0.16819261185E+02  0.20423144160E+02  0.51100000000E-03 0. -1.
        -11    1    3    3    0    0 -0.28584382156E+00  0.12976894630E+01 -0.10626431340E+02  0.10709189881E+02  0.51100000000E-03 0.  1.
         12    1    3    3    0    0 -0.96058590361E+01 -0.14132422737E+02  0.37631242911E+02  0.41329267394E+02  0.00000000000E+00 0. -1.
</event>
<event>
 7    1  0.2641045E-013  0.7246158E+02  0.7816164E-02  0.1226708E+00
        -11   -1    0    0    0    0  0.00000000000E+00  0.00000000000E+00  0.45593999997E+02  0.45594000000E+02  0.51100000000E-03 0.  1.
         11   -1    0    0    0    0 -0.00000000000E+00 -0.00000000000E+00 -0.45593999997E+02  0.45594000000E+02  0.51100000000E-03 0. -1.
    9900012    2    1    2    0    0  0.34739426335E+01  0.14222916381E+02 -0.11675577945E+02  0.72461581545E+02  0.70000014656E+02 0.  0.
        -12    1    1    2    0    0 -0.34739426335E+01 -0.14222916381E+02  0.11675577945E+02  0.18726418455E+02  0.00000000000E+00 0.  1.
         11    1    3    3    0    0  0.12046466117E+02  0.26202278328E+02  0.11182742348E+02  0.30931059830E+02  0.51100000000E-03 0. -1.
        -11    1    3    3    0    0  0.61882933235E+01  0.63614852676E+01 -0.23259101199E+00  0.88779258787E+01  0.51100000000E-03 0.  1.
        -12    1    3    3    0    0 -0.14760816807E+02 -0.18340847215E+02 -0.22625729281E+02  0.32652595837E+02  0.00000000000E+00 0.  1.
</event>
<event>
 7    1  0.2641045E-013  0.7246155E+02  0.7816164E-02  0.1226708E+00
        -11   -1    0    0    0    0  0.00000000000E+00  0.00000000000E+00  0.45593999997E+02  0.45594000000E+02  0.51100000000E-03 0. -1.
         11   -1    0    0    0    0 -0.00000000000E+00 -0.00000000000E+00 -0.45593999997E+02  0.45594000000E+02  0.51100000000E-03 0.  1.
    9900012    2    1    2    0    0 -0.17051840095E+02  0.62534094794E+01 -0.45617357843E+01  0.72461553084E+02  0.69999977580E+02 0.  0.
        -12    1    1    2    0    0  0.17051840095E+02 -0.62534094794E+01  0.45617357843E+01  0.18726446916E+02  0.00000000000E+00 0.  1.
         11    1    3    3    0    0 -0.92290273863E+01 -0.29424324218E+01 -0.57340545812E+01  0.11256653022E+02  0.51100000000E-03 0. -1.
        -11    1    3    3    0    0 -0.28112506135E+01 -0.18119664726E+02 -0.19361747435E+02  0.26666507903E+02  0.51100000000E-03 0.  1.
         12    1    3    3    0    0 -0.50115620949E+01  0.27315506627E+02  0.20534066232E+02  0.34538392159E+02  0.00000000000E+00 0. -1.
</event>
<event>
 7    1  0.2641045E-013  0.7246159E+02  0.7816164E-02  0.1226708E+00
        -11   -1    0    0    0    0  0.00000000000E+00  0.00000000000E+00  0.45593999997E+02  0.45594000000E+02  0.51100000000E-03 0.  1.
         11   -1    0    0    0    0 -0.00000000000E+00 -0.00000000000E+00 -0.45593999997E+02  0.45594000000E+02  0.51100000000E-03 0. -1.
    9900012    2    1    2    0    0  0.16219741155E+02 -0.14428233152E+01 -0.92475242840E+01  0.72461589569E+02  0.70000025108E+02 0.  0.
        -12    1    1    2    0    0 -0.16219741155E+02  0.14428233152E+01  0.92475242840E+01  0.18726410431E+02  0.00000000000E+00 0.  1.
         11    1    3    3    0    0  0.14757650111E+02 -0.72950920103E+00 -0.21953989638E+02  0.26463145726E+02  0.51100000000E-03 0. -1.
        -11    1    3    3    0    0  0.19943190780E+02  0.10515424412E+02  0.74401390639E+01  0.23741539095E+02  0.51100000000E-03 0.  1.
         12    1    3    3    0    0 -0.18481099735E+02 -0.11228738526E+02  0.52663262898E+01  0.22256904747E+02  0.00000000000E+00 0. -1.
</event>
<event>
 7    1  0.2641045E-013  0.7246158E+02  0.7816164E-02  0.1226708E+00
        -11   -1    0    0    0    0  0.00000000000E+00  0.00000000000E+00  0.45593999997E+02  0.45594000000E+02  0.51100000000E-03 0.  1.
         11   -1    0    0    0    0 -0.00000000000E+00 -0.00000000000E+00 -0.45593999997E+02  0.45594000000E+02  0.51100000000E-03 0. -1.
    9900012    2    1    2    0    0 -0.14932766028E+02 -0.49371677371E-01  0.11299957304E+02  0.72461575518E+02  0.70000006805E+02 0.  0.
        -12    1    1    2    0    0  0.14932766028E+02  0.49371677371E-01 -0.11299957304E+02  0.18726424482E+02  0.00000000000E+00 0.  1.
         11    1    3    3    0    0 -0.11120391023E+01  0.18711463213E+02  0.13287909701E+02  0.22976597464E+02  0.51100000000E-03 0. -1.
        -11    1    3    3    0    0  0.82283357757E+01 -0.35899327133E+01  0.15217074965E+02  0.17667837934E+02  0.51100000000E-03 0.  1.
         12    1    3    3    0    0 -0.22049062701E+02 -0.15170902177E+02 -0.17205027362E+02  0.31817140120E+02  0.00000000000E+00 0. -1.
</event>
<event>
 7    1  0.2641045E-013  0.7246156E+02  0.7816164E-02  0.1226708E+00
        -11   -1    0    0    0    0  0.00000000000E+00  0.00000000000E+00  0.45593999997E+02  0.45594000000E+02  0.51100000000E-03 0. -1.
         11   -1    0    0    0    0 -0.00000000000E+00 -0.00000000000E+00 -0.45593999997E+02  0.45594000000E+02  0.51100000000E-03 0.  1.
    9900012    2    1    2    0    0  0.95592974613E+01  0.13791022270E+02  0.83130777652E+01  0.72461555459E+02  0.69999980674E+02 0.  0.
        -12    1    1    2    0    0 -0.95592974613E+01 -0.13791022270E+02 -0.83130777652E+01  0.18726444541E+02  0.00000000000E+00 0.  1.
         11    1    3    3    0    0 -0.82482379289E+01  0.39230261721E+01  0.31381398373E+01  0.96577163542E+01  0.51100000000E-03 0. -1.
        -11    1    3    3    0    0  0.11106275184E+02 -0.17471743456E+02  0.21838733155E+02  0.30092215504E+02  0.51100000000E-03 0.  1.
         12    1    3    3    0    0  0.67012602059E+01  0.27339739554E+02 -0.16663795227E+02  0.32711623601E+02  0.00000000000E+00 0. -1.
</event>
<event>
 7    1  0.2641045E-013  0.7246155E+02  0.7816164E-02  0.1226708E+00
        -11   -1    0    0    0    0  0.00000000000E+00  0.00000000000E+00  0.45593999997E+02  0.45594000000E+02  0.51100000000E-03 0.  1.
         11   -1    0    0    0    0 -0.00000000000E+00 -0.00000000000E+00 -0.45593999997E+02  0.45594000000E+02  0.51100000000E-03 0. -1.
    9900012    2    1    2    0    0 -0.11017203256E+02 -0.86609775787E+01  0.12421291785E+02  0.72461553733E+02  0.69999978425E+02 0.  0.
        -12    1    1    2    0    0  0.11017203256E+02  0.86609775787E+01 -0.12421291785E+02  0.18726446267E+02  0.00000000000E+00 0.  1.
         11    1    3    3    0    0  0.26824728748E+00 -0.80440481340E+01 -0.12835117717E+01  0.81502189982E+01  0.51100000000E-03 0. -1.
        -11    1    3    3    0    0 -0.16776612316E+02 -0.18853609618E+02  0.30030142785E+02  0.39226557233E+02  0.51100000000E-03 0.  1.
         12    1    3    3    0    0  0.54911617725E+01  0.18236680174E+02 -0.16325339228E+02  0.25084777501E+02  0.00000000000E+00 0. -1.
</event>
<event>
 7    1  0.2641045E-013  0.7246154E+02  0.7816164E-02  0.1226708E+00
        -11   -1    0    0    0    0  0.00000000000E+00  0.00000000000E+00  0.45593999997E+02  0.45594000000E+02  0.51100000000E-03 0.  1.
         11   -1    0    0    0    0 -0.00000000000E+00 -0.00000000000E+00 -0.45593999997E+02  0.45594000000E+02  0.51100000000E-03 0. -1.
    9900012    2    1    2    0    0  0.87033241005E+01  0.13457936940E+02 -0.96858894052E+01  0.72461538224E+02  0.69999958223E+02 0.  0.
        -12    1    1    2    0    0 -0.87033241005E+01 -0.13457936940E+02  0.96858894052E+01  0.18726461776E+02  0.00000000000E+00 0.  1.
         11    1    3    3    0    0  0.23235212242E+02  0.28110849405E+02 -0.21643047947E+02  0.42408919662E+02  0.51100000000E-03 0. -1.
        -11    1    3    3    0    0 -0.11379165274E+01 -0.50030337438E+01 -0.44398070508E+01  0.67850635645E+01  0.51100000000E-03 0.  1.
        -12    1    3    3    0    0 -0.13393971614E+02 -0.96498787216E+01  0.16396965593E+02  0.23267554998E+02  0.00000000000E+00 0.  1.
</event>
<event>
 7    1  0.2641045E-013  0.7246157E+02  0.7816164E-02  0.1226708E+00
        -11   -1    0    0    0    0  0.00000000000E+00  0.00000000000E+00  0.45593999997E+02  0.45594000000E+02  0.51100000000E-03 0.  1.
         11   -1    0    0    0    0 -0.00000000000E+00 -0.00000000000E+00 -0.45593999997E+02  0.45594000000E+02  0.51100000000E-03 0. -1.
    9900012    2    1    2    0    0  0.13815236079E+02  0.96975437895E+01  0.81102515344E+01  0.72461567253E+02  0.69999996038E+02 0.  0.
        -12    1    1    2    0    0 -0.13815236079E+02 -0.96975437895E+01 -0.81102515344E+01  0.18726432747E+02  0.00000000000E+00 0.  1.
         11    1    3    3    0    0 -0.14647084433E+00 -0.30995492127E+00  0.12050817805E+01  0.12528958936E+01  0.51100000000E-03 0. -1.
        -11    1    3    3    0    0  0.74186442168E+01 -0.28152071515E+02 -0.72215929488E+01  0.29995446614E+02  0.51100000000E-03 0.  1.
         12    1    3    3    0    0  0.65430627067E+01  0.38159570226E+02  0.14126762703E+02  0.41213224745E+02  0.00000000000E+00 0. -1.
</event>
<event>
 7    1  0.2641045E-013  0.7246153E+02  0.7816164E-02  0.1226708E+00
        -11   -1    0    0    0    0  0.00000000000E+00  0.00000000000E+00  0.45593999997E+02  0.45594000000E+02  0.51100000000E-03 0. -1.
         11   -1    0    0    0    0 -0.00000000000E+00 -0.00000000000E+00 -0.45593999997E+02  0.45594000000E+02  0.51100000000E-03 0.  1.
    9900012    2    1    2    0    0 -0.13810214179E+02 -0.63618894739E+01  0.10930923528E+02  0.72461528295E+02  0.69999945288E+02 0.  0.
        -12    1    1    2    0    0  0.13810214179E+02  0.63618894739E+01 -0.10930923528E+02  0.18726471705E+02  0.00000000000E+00 0.  1.
         11    1    3    3    0    0 -0.20792117127E+00 -0.14221477516E+02 -0.25054578184E+01  0.14441986466E+02  0.51100000000E-03 0. -1.
        -11    1    3    3    0    0 -0.32911508832E+02  0.13962919378E+02  0.50705791595E+01  0.36108742770E+02  0.51100000000E-03 0.  1.
         12    1    3    3    0    0  0.19309215825E+02 -0.61033313357E+01  0.83658021870E+01  0.21910799059E+02  0.00000000000E+00 0. -1.
</event>
<event>
 7    1  0.2641045E-013  0.7246156E+02  0.7816164E-02  0.1226708E+00
        -11   -1    0    0    0    0  0.00000000000E+00  0.00000000000E+00  0.45593999997E+02  0.45594000000E+02  0.51100000000E-03 0.  1.
         11   -1    0    0    0    0 -0.00000000000E+00 -0.00000000000E+00 -0.45593999997E+02  0.45594000000E+02  0.51100000000E-03 0. -1.
    9900012    2    1    2    0    0  0.69963548289E+01 -0.17827978707E+01  0.17278660217E+02  0.72461562858E+02  0.69999990313E+02 0.  0.
        -12    1    1    2    0    0 -0.69963548289E+01  0.17827978707E+01 -0.17278660217E+02  0.18726437142E+02  0.00000000000E+00 0.  1.
         11    1    3    3    0    0  0.15964232731E+02  0.17664898847E+02 -0.89879725406E+01  0.25449735335E+02  0.51100000000E-03 0. -1.
        -11    1    3    3    0    0  0.61059070123E+01  0.18280888611E+01 -0.36357629167E+01  0.73377640719E+01  0.51100000000E-03 0.  1.
        -12    1    3    3    0    0 -0.15073784915E+02 -0.21275785579E+02  0.29902395674E+02  0.39674063451E+02  0.00000000000E+00 0.  1.
</event>
<event>
 7    1  0.2641045E-013  0.7246157E+02  0.7816164E-02  0.1226708E+00
        -11   -1    0    0    0    0  0.00000000000E+00  0.00000000000E+00  0.45593999997E+02  0.45594000000E+02  0.51100000000E-03 0.  1.
         11   -1    0    0    0    0 -0.00000000000E+00 -0.00000000000E+00 -0.45593999997E+02  0.45594000000E+02  0.51100000000E-03 0. -1.
    9900012    2    1    2    0    0 -0.17771435827E+02  0.39032120228E+01 -0.44294600931E+01  0.72461571826E+02  0.70000001995E+02 0.  0.
        -12    1    1    2    0    0  0.17771435827E+02 -0.39032120228E+01  0.44294600931E+01  0.18726428174E+02  0.00000000000E+00 0.  1.
         11    1    3    3    0    0 -0.66999079357E+01  0.91349348180E+01 -0.16737157038E+01  0.11451511909E+02  0.51100000000E-03 0. -1.
        -11    1    3    3    0    0  0.14294885902E+02 -0.30020241968E+00  0.21333716957E+02  0.25681926795E+02  0.51100000000E-03 0.  1.
         12    1    3    3    0    0 -0.25366413793E+02 -0.49315203755E+01 -0.24089461346E+02  0.35328133122E+02  0.00000000000E+00 0. -1.
</event>
<event>
 7    1  0.2641045E-013  0.7246158E+02  0.7816164E-02  0.1226708E+00
        -11   -1    0    0    0    0  0.00000000000E+00  0.00000000000E+00  0.45593999997E+02  0.45594000000E+02  0.51100000000E-03 0.  1.
         11   -1    0    0    0    0 -0.00000000000E+00 -0.00000000000E+00 -0.45593999997E+02  0.45594000000E+02  0.51100000000E-03 0. -1.
    9900012    2    1    2    0    0  0.18405565096E+00 -0.33226054891E+01 -0.18428376889E+02  0.72461583939E+02  0.70000017774E+02 0.  0.
        -12    1    1    2    0    0 -0.18405565096E+00  0.33226054891E+01  0.18428376889E+02  0.18726416061E+02  0.00000000000E+00 0.  1.
         11    1    3    3    0    0 -0.61004142620E+00 -0.30195464696E+01 -0.37016523718E+02  0.37144485995E+02  0.51100000000E-03 0. -1.
        -11    1    3    3    0    0  0.74297008519E+01  0.88316909558E+01 -0.21169250817E+01  0.11733737339E+02  0.51100000000E-03 0.  1.
        -12    1    3    3    0    0 -0.66356037747E+01 -0.91347499752E+01  0.20705071910E+02  0.23583360604E+02  0.00000000000E+00 0.  1.
</event>
<event>
 7    1  0.2641045E-013  0.7246158E+02  0.7816164E-02  0.1226708E+00
        -11   -1    0    0    0    0  0.00000000000E+00  0.00000000000E+00  0.45593999997E+02  0.45594000000E+02  0.51100000000E-03 0. -1.
         11   -1    0    0    0    0 -0.00000000000E+00 -0.00000000000E+00 -0.45593999997E+02  0.45594000000E+02  0.51100000000E-03 0.  1.
    9900012    2    1    2    0    0  0.10679130128E+01  0.54310396809E+01  0.17889719390E+02  0.72461583096E+02  0.70000016677E+02 0.  0.
        -12    1    1    2    0    0 -0.10679130128E+01 -0.54310396809E+01 -0.17889719390E+02  0.18726416904E+02  0.00000000000E+00 0.  1.
         11    1    3    3    0    0 -0.44291694106E+01 -0.95274708026E+01 -0.77867684942E+00  0.10535491420E+02  0.51100000000E-03 0. -1.
        -11    1    3    3    0    0  0.14907098971E+02  0.17220348610E+02 -0.14749480740E+02  0.27135017750E+02  0.51100000000E-03 0.  1.
         12    1    3    3    0    0 -0.94100165471E+01 -0.22618381264E+01  0.33417876979E+02  0.34791073926E+02  0.00000000000E+00 0. -1.
</event>
<event>
 7    1  0.2641045E-013  0.7246159E+02  0.7816164E-02  0.1226708E+00
        -11   -1    0    0    0    0  0.00000000000E+00  0.00000000000E+00  0.45593999997E+02  0.45594000000E+02  0.51100000000E-03 0. -1.
         11   -1    0    0    0    0 -0.00000000000E+00 -0.00000000000E+00 -0.45593999997E+02  0.45594000000E+02  0.51100000000E-03 0.  1.
    9900012    2    1    2    0    0  0.25607870762E+01  0.17899676002E+02 -0.48705833300E+01  0.72461585143E+02  0.70000019343E+02 0.  0.
        -12    1    1    2    0    0 -0.25607870762E+01 -0.17899676002E+02  0.48705833300E+01  0.18726414857E+02  0.00000000000E+00 0.  1.
         11    1    3    3    0    0  0.42424315260E+01  0.26707240096E+02  0.78147267433E+01  0.28148620803E+02  0.51100000000E-03 0. -1.
        -11    1    3    3    0    0  0.49744294973E+01  0.10146602188E+02 -0.19968742416E+02  0.22944479918E+02  0.51100000000E-03 0.  1.
         12    1    3    3    0    0 -0.66560739472E+01 -0.18954166282E+02  0.72834323423E+01  0.21368484422E+02  0.00000000000E+00 0. -1.
</event>
<event>
 7    1  0.2641045E-013  0.7246148E+02  0.7816164E-02  0.1226708E+00
        -11   -1    0    0    0    0  0.00000000000E+00  0.00000000000E+00  0.45593999997E+02  0.45594000000E+02  0.51100000000E-03 0.  1.
         11   -1    0    0    0    0 -0.00000000000E+00 -0.00000000000E+00 -0.45593999997E+02  0.45594000000E+02  0.51100000000E-03 0. -1.
    9900012    2    1    2    0    0 -0.58613841691E+01  0.17244268288E+02 -0.43545188193E+01  0.72461482777E+02  0.69999885992E+02 0.  0.
        -12    1    1    2    0    0  0.58613841691E+01 -0.17244268288E+02  0.43545188193E+01  0.18726517223E+02  0.00000000000E+00 0.  1.
         11    1    3    3    0    0 -0.55093798050E+01  0.35494392571E+01  0.67911755526E+01  0.94377884339E+01  0.51100000000E-03 0. -1.
        -11    1    3    3    0    0  0.78335954895E+01 -0.67921317827E+01  0.21357079150E+02  0.23740747725E+02  0.51100000000E-03 0.  1.
         12    1    3    3    0    0 -0.81855998536E+01  0.20486960813E+02 -0.32502773522E+02  0.39282946618E+02  0.00000000000E+00 0. -1.
</event>
<event>
 7    1  0.2641045E-013  0.7246174E+02  0.7816164E-02  0.1226708E+00
        -11   -1    0    0    0    0  0.00000000000E+00  0.00000000000E+00  0.45593999997E+02  0.45594000000E+02  0.51100000000E-03 0.  1.
         11   -1    0    0    0    0 -0.00000000000E+00 -0.00000000000E+00 -0.45593999997E+02  0.45594000000E+02  0.51100000000E-03 0. -1.
    9900012    2    1    2    0    0 -0.92005412898E+01 -0.10504534598E+02 -0.12477077081E+02  0.72461744111E+02  0.70000226428E+02 0.  0.
        -12    1    1    2    0    0  0.92005412898E+01  0.10504534598E+02  0.12477077081E+02  0.18726255889E+02  0.00000000000E+00 0.  1.
         11    1    3    3    0    0  0.14692675778E+02  0.18757410174E+02 -0.16479945128E+02  0.28970739543E+02  0.51100000000E-03 0. -1.
        -11    1    3    3    0    0 -0.13163923709E+02 -0.59386165503E+01 -0.63929209854E+01  0.15793210343E+02  0.51100000000E-03 0.  1.
        -12    1    3    3    0    0 -0.10729293359E+02 -0.23323328222E+02  0.10395789032E+02  0.27697794225E+02  0.00000000000E+00 0.  1.
</event>
<event>
 7    1  0.2641045E-013  0.7246159E+02  0.7816164E-02  0.1226708E+00
        -11   -1    0    0    0    0  0.00000000000E+00  0.00000000000E+00  0.45593999997E+02  0.45594000000E+02  0.51100000000E-03 0.  1.
         11   -1    0    0    0    0 -0.00000000000E+00 -0.00000000000E+00 -0.45593999997E+02  0.45594000000E+02  0.51100000000E-03 0. -1.
    9900012    2    1    2    0    0  0.12826471584E+02 -0.48938287506E+01 -0.12736184062E+02  0.72461593041E+02  0.70000029631E+02 0.  0.
        -12    1    1    2    0    0 -0.12826471584E+02  0.48938287506E+01  0.12736184062E+02  0.18726406959E+02  0.00000000000E+00 0.  1.
         11    1    3    3    0    0  0.27312124699E+02 -0.57960651732E+01 -0.21857147599E+02  0.35458164483E+02  0.51100000000E-03 0. -1.
        -11    1    3    3    0    0  0.71921098884E+01 -0.76448962732E+01 -0.27520788837E+01  0.10851028620E+02  0.51100000000E-03 0.  1.
        -12    1    3    3    0    0 -0.21677763004E+02  0.85471326958E+01  0.11873042420E+02  0.26152399937E+02  0.00000000000E+00 0.  1.
</event>
<event>
 7    1  0.2641045E-013  0.7246156E+02  0.7816164E-02  0.1226708E+00
        -11   -1    0    0    0    0  0.00000000000E+00  0.00000000000E+00  0.45593999997E+02  0.45594000000E+02  0.51100000000E-03 0.  1.
         11   -1    0    0    0    0 -0.00000000000E+00 -0.00000000000E+00 -0.45593999997E+02  0.45594000000E+02  0.51100000000E-03 0. -1.
    9900012    2    1    2    0    0  0.96971078695E+00  0.47116204691E+01 -0.18098067119E+02  0.72461555065E+02  0.69999980161E+02 0.  0.
        -12    1    1    2    0    0 -0.96971078695E+00 -0.47116204691E+01  0.18098067119E+02  0.18726444935E+02  0.00000000000E+00 0.  1.
         11    1    3    3    0    0 -0.21277982402E+00 -0.38053893768E+01  0.21716504664E+02  0.22048420321E+02  0.51100000000E-03 0. -1.
        -11    1    3    3    0    0 -0.15355758950E+01 -0.56881046574E+01  0.19573087352E+01  0.62083480628E+01  0.51100000000E-03 0.  1.
         12    1    3    3    0    0  0.27180665060E+01  0.14205114503E+02 -0.41771880518E+02  0.44204786682E+02  0.00000000000E+00 0. -1.
</event>
<event>
 7    1  0.2641045E-013  0.7246156E+02  0.7816164E-02  0.1226708E+00
        -11   -1    0    0    0    0  0.00000000000E+00  0.00000000000E+00  0.45593999997E+02  0.45594000000E+02  0.51100000000E-03 0. -1.
         11   -1    0    0    0    0 -0.00000000000E+00 -0.00000000000E+00 -0.45593999997E+02  0.45594000000E+02  0.51100000000E-03 0.  1.
    9900012    2    1    2    0    0 -0.87303910212E+01 -0.15251039466E+02  0.64703638195E+01  0.72461560399E+02  0.69999987109E+02 0.  0.
        -12    1    1    2    0    0  0.87303910212E+01  0.15251039466E+02 -0.64703638195E+01  0.18726439601E+02  0.00000000000E+00 0.  1.
         11    1    3    3    0    0 -0.81594170801E+01 -0.23008229955E+02  0.11113533419E+02  0.26822851416E+02  0.51100000000E-03 0. -1.
        -11    1    3    3    0    0  0.16113802875E+02 -0.54795659141E+01  0.10048743296E+02  0.19765058254E+02  0.51100000000E-03 0.  1.
        -12    1    3    3    0    0 -0.16684776816E+02  0.13236756403E+02 -0.14691912896E+02  0.25873650729E+02  0.00000000000E+00 0.  1.
</event>
<event>
 7    1  0.2641045E-013  0.7246159E+02  0.7816164E-02  0.1226708E+00
        -11   -1    0    0    0    0  0.00000000000E+00  0.00000000000E+00  0.45593999997E+02  0.45594000000E+02  0.51100000000E-03 0.  1.
         11   -1    0    0    0    0 -0.00000000000E+00 -0.00000000000E+00 -0.45593999997E+02  0.45594000000E+02  0.51100000000E-03 0. -1.
    9900012    2    1    2    0    0  0.10040294598E+02 -0.15628738898E+02 -0.23692836799E+01  0.72461588162E+02  0.70000023277E+02 0.  0.
        -12    1    1    2    0    0 -0.10040294598E+02  0.15628738898E+02  0.23692836799E+01  0.18726411838E+02  0.00000000000E+00 0.  1.
         11    1    3    3    0    0  0.30719032871E+01  0.16041548144E+02 -0.17673724223E+02  0.24065086429E+02  0.51100000000E-03 0. -1.
        -11    1    3    3    0    0 -0.83376715801E+01  0.22730614459E+01  0.36421330538E+01  0.93780973101E+01  0.51100000000E-03 0.  1.
        -12    1    3    3    0    0  0.15306062892E+02 -0.33943348488E+02  0.11662307489E+02  0.39018404424E+02  0.00000000000E+00 0.  1.
</event>
<event>
 7    1  0.2641045E-013  0.7246174E+02  0.7816164E-02  0.1226708E+00
        -11   -1    0    0    0    0  0.00000000000E+00  0.00000000000E+00  0.45593999997E+02  0.45594000000E+02  0.51100000000E-03 0.  1.
         11   -1    0    0    0    0 -0.00000000000E+00 -0.00000000000E+00 -0.45593999997E+02  0.45594000000E+02  0.51100000000E-03 0. -1.
    9900012    2    1    2    0    0 -0.16817851801E+02  0.81746674122E+01 -0.10037073992E+01  0.72461741563E+02  0.70000223109E+02 0.  0.
        -12    1    1    2    0    0  0.16817851801E+02 -0.81746674122E+01  0.10037073992E+01  0.18726258437E+02  0.00000000000E+00 0.  1.
         11    1    3    3    0    0  0.16559072662E+02  0.43165402406E+01 -0.69010673998E+01  0.18451561955E+02  0.51100000000E-03 0. -1.
        -11    1    3    3    0    0 -0.12452264635E+02 -0.13911839154E+01  0.23192204093E+02  0.26360436608E+02  0.51100000000E-03 0.  1.
         12    1    3    3    0    0 -0.20924659828E+02  0.52493110871E+01 -0.17294844092E+02  0.27649743000E+02  0.00000000000E+00 0. -1.
</event>
<event>
 7    1  0.2641045E-013  0.7246158E+02  0.7816164E-02  0.1226708E+00
        -11   -1    0    0    0    0  0.00000000000E+00  0.00000000000E+00  0.45593999997E+02  0.45594000000E+02  0.51100000000E-03 0.  1.
         11   -1    0    0    0    0 -0.00000000000E+00 -0.00000000000E+00 -0.45593999997E+02  0.45594000000E+02  0.51100000000E-03 0. -1.
    9900012    2    1    2    0    0  0.11035675093E+02  0.83655337952E+01  0.12605966130E+02  0.72461583832E+02  0.70000017636E+02 0.  0.
        -12    1    1    2    0    0 -0.11035675093E+02 -0.83655337952E+01 -0.12605966130E+02  0.18726416168E+02  0.00000000000E+00 0.  1.
         11    1    3    3    0    0  0.37691501742E+00  0.79933524705E+00 -0.21214036044E+02  0.21232435736E+02  0.51100000000E-03 0. -1.
        -11    1    3    3    0    0  0.33390071635E+01 -0.14681275964E+02  0.12972381167E+02  0.19873890061E+02  0.51100000000E-03 0.  1.
        -12    1    3    3    0    0  0.73197529117E+01  0.22247474512E+02  0.20847621006E+02  0.31355258035E+02  0.00000000000E+00 0.  1.
</event>
<event>
 7    1  0.2641045E-013  0.7246157E+02  0.7816164E-02  0.1226708E+00
        -11   -1    0    0    0    0  0.00000000000E+00  0.00000000000E+00  0.45593999997E+02  0.45594000000E+02  0.51100000000E-03 0.  1.
         11   -1    0    0    0    0 -0.00000000000E+00 -0.00000000000E+00 -0.45593999997E+02  0.45594000000E+02  0.51100000000E-03 0. -1.
    9900012    2    1    2    0    0  0.90634372212E+01  0.11084374741E+02 -0.12069375575E+02  0.72461572566E+02  0.70000002960E+02 0.  0.
        -12    1    1    2    0    0 -0.90634372212E+01 -0.11084374741E+02  0.12069375575E+02  0.18726427434E+02  0.00000000000E+00 0.  1.
         11    1    3    3    0    0  0.88237495306E+01  0.36054510609E+01  0.62704517451E+01  0.11409487214E+02  0.51100000000E-03 0. -1.
        -11    1    3    3    0    0  0.63454152657E+01 -0.83746331454E+01  0.18053694021E+02  0.20888624734E+02  0.51100000000E-03 0.  1.
         12    1    3    3    0    0 -0.61057275751E+01  0.15853556826E+02 -0.36393521341E+02  0.40163460618E+02  0.00000000000E+00 0. -1.
</event>
<event>
 7    1  0.2641045E-013  0.7246161E+02  0.7816164E-02  0.1226708E+00
        -11   -1    0    0    0    0  0.00000000000E+00  0.00000000000E+00  0.45593999997E+02  0.45594000000E+02  0.51100000000E-03 0. -1.
         11   -1    0    0    0    0 -0.00000000000E+00 -0.00000000000E+00 -0.45593999997E+02  0.45594000000E+02  0.51100000000E-03 0.  1.
    9900012    2    1    2    0    0 -0.15488110273E+02 -0.51361667286E+01  0.91878047294E+01  0.72461614224E+02  0.70000057226E+02 0.  0.
        -12    1    1    2    0    0  0.15488110273E+02  0.51361667286E+01 -0.91878047294E+01  0.18726385776E+02  0.00000000000E+00 0.  1.
         11    1    3    3    0    0 -0.29573023272E+01  0.46476464904E+01 -0.13696030479E+02  0.14762367903E+02  0.51100000000E-03 0. -1.
        -11    1    3    3    0    0  0.13529731895E+02  0.35108938219E+01 -0.72106209982E+01  0.15728098296E+02  0.51100000000E-03 0.  1.
         12    1    3    3    0    0 -0.26060539841E+02 -0.13294707041E+02  0.30094456207E+02  0.41971148024E+02  0.00000000000E+00 0. -1.
</event>
<event>
 7    1  0.2641045E-013  0.7246156E+02  0.7816164E-02  0.1226708E+00
        -11   -1    0    0    0    0  0.00000000000E+00  0.00000000000E+00  0.45593999997E+02  0.45594000000E+02  0.51100000000E-03 0.  1.
         11   -1    0    0    0    0 -0.00000000000E+00 -0.00000000000E+00 -0.45593999997E+02  0.45594000000E+02  0.51100000000E-03 0. -1.
    9900012    2    1    2    0    0  0.10706201984E+02 -0.16233978598E+01  0.15278131173E+02  0.72461562174E+02  0.69999989421E+02 0.  0.
        -12    1    1    2    0    0 -0.10706201984E+02  0.16233978598E+01 -0.15278131173E+02  0.18726437826E+02  0.00000000000E+00 0.  1.
         11    1    3    3    0    0  0.97764408086E+00  0.16110643484E+02  0.12387566902E+02  0.20346017680E+02  0.51100000000E-03 0. -1.
        -11    1    3    3    0    0 -0.93419803518E+01 -0.99690541377E+01  0.20759905683E+02  0.24852129114E+02  0.51100000000E-03 0.  1.
         12    1    3    3    0    0  0.19070538255E+02 -0.77649872061E+01 -0.17869341412E+02  0.27263415379E+02  0.00000000000E+00 0. -1.
</event>
<event>
 7    1  0.2641045E-013  0.7246160E+02  0.7816164E-02  0.1226708E+00
        -11   -1    0    0    0    0  0.00000000000E+00  0.00000000000E+00  0.45593999997E+02  0.45594000000E+02  0.51100000000E-03 0.  1.
         11   -1    0    0    0    0 -0.00000000000E+00 -0.00000000000E+00 -0.45593999997E+02  0.45594000000E+02  0.51100000000E-03 0. -1.
    9900012    2    1    2    0    0  0.76682614044E+01  0.79652841539E+01 -0.15113899912E+02  0.72461602718E+02  0.70000042238E+02 0.  0.
        -12    1    1    2    0    0 -0.76682614044E+01 -0.79652841539E+01  0.15113899912E+02  0.18726397282E+02  0.00000000000E+00 0.  1.
         11    1    3    3    0    0  0.26158331600E+02 -0.99002425025E+01 -0.20497615036E+02  0.34676005193E+02  0.51100000000E-03 0. -1.
        -11    1    3    3    0    0  0.68255871985E+01  0.47603930033E+01  0.40318821434E+01  0.92469484712E+01  0.51100000000E-03 0.  1.
        -12    1    3    3    0    0 -0.25315657395E+02  0.13105133653E+02  0.13518329812E+01  0.28538649053E+02  0.00000000000E+00 0.  1.
</event>
<event>
 7    1  0.2641045E-013  0.7246152E+02  0.7816164E-02  0.1226708E+00
        -11   -1    0    0    0    0  0.00000000000E+00  0.00000000000E+00  0.45593999997E+02  0.45594000000E+02  0.51100000000E-03 0. -1.
         11   -1    0    0    0    0 -0.00000000000E+00 -0.00000000000E+00 -0.45593999997E+02  0.45594000000E+02  0.51100000000E-03 0.  1.
    9900012    2    1    2    0    0  0.95273976816E+01  0.11062575413E+02  0.11727282934E+02  0.72461520182E+02  0.69999934720E+02 0.  0.
        -12    1    1    2    0    0 -0.95273976816E+01 -0.11062575413E+02 -0.11727282934E+02  0.18726479818E+02  0.00000000000E+00 0.  1.
         11    1    3    3    0    0  0.15675851398E+02 -0.65398601291E+01  0.23821095772E+02  0.29256566640E+02  0.51100000000E-03 0. -1.
        -11    1    3    3    0    0  0.29992921682E+01  0.18864741300E+02  0.82930085749E+01  0.20824221697E+02  0.51100000000E-03 0.  1.
        -12    1    3    3    0    0 -0.91477458843E+01 -0.12623057576E+01 -0.20386821413E+02  0.22380731845E+02  0.00000000000E+00 0.  1.
</event>
<event>
 7    1  0.2641045E-013  0.7246154E+02  0.7816164E-02  0.1226708E+00
        -11   -1    0    0    0    0  0.00000000000E+00  0.00000000000E+00  0.45593999997E+02  0.45594000000E+02  0.51100000000E-03 0. -1.
         11   -1    0    0    0    0 -0.00000000000E+00 -0.00000000000E+00 -0.45593999997E+02  0.45594000000E+02  0.51100000000E-03 0.  1.
    9900012    2    1    2    0    0  0.85435737972E+01 -0.15492433919E+02  0.61377543464E+01  0.72461543037E+02  0.69999964493E+02 0.  0.
        -12    1    1    2    0    0 -0.85435737972E+01  0.15492433919E+02 -0.61377543464E+01  0.18726456963E+02  0.00000000000E+00 0.  1.
         11    1    3    3    0    0  0.26426793378E+02 -0.15721390168E+01 -0.73657269401E+01  0.27479100475E+02  0.51100000000E-03 0. -1.
        -11    1    3    3    0    0 -0.88724195582E-01 -0.15105622598E+02 -0.79615312634E+01  0.17075528875E+02  0.51100000000E-03 0.  1.
        -12    1    3    3    0    0 -0.17794495385E+02  0.11853276956E+01  0.21465012550E+02  0.27906913687E+02  0.00000000000E+00 0.  1.
</event>
<event>
 7    1  0.2641045E-013  0.7246157E+02  0.7816164E-02  0.1226708E+00
        -11   -1    0    0    0    0  0.00000000000E+00  0.00000000000E+00  0.45593999997E+02  0.45594000000E+02  0.51100000000E-03 0.  1.
         11   -1    0    0    0    0 -0.00000000000E+00 -0.00000000000E+00 -0.45593999997E+02  0.45594000000E+02  0.51100000000E-03 0. -1.
    9900012    2    1    2    0    0 -0.47756010794E+01  0.17254967030E+02 -0.54898993997E+01  0.72461568191E+02  0.69999997260E+02 0.  0.
        -12    1    1    2    0    0  0.47756010794E+01 -0.17254967030E+02  0.54898993997E+01  0.18726431809E+02  0.00000000000E+00 0.  1.
         11    1    3    3    0    0  0.75803159773E+01  0.14223595458E+02 -0.15310114034E+02  0.22229967388E+02  0.51100000000E-03 0. -1.
        -11    1    3    3    0    0 -0.29592127001E+02 -0.23217272285E+01 -0.32105167382E-02  0.29683066020E+02  0.51100000000E-03 0.  1.
         12    1    3    3    0    0  0.17236209944E+02  0.53530988006E+01  0.98234251512E+01  0.20548534783E+02  0.00000000000E+00 0. -1.
</event>
<event>
 7    1  0.2641045E-013  0.7246146E+02  0.7816164E-02  0.1226708E+00
        -11   -1    0    0    0    0  0.00000000000E+00  0.00000000000E+00  0.45593999997E+02  0.45594000000E+02  0.51100000000E-03 0. -1.
         11   -1    0    0    0    0 -0.00000000000E+00 -0.00000000000E+00 -0.45593999997E+02  0.45594000000E+02  0.51100000000E-03 0.  1.
    9900012    2    1    2    0    0  0.54208567718E+01  0.14085613607E+02  0.11085722134E+02  0.72461456431E+02  0.69999851671E+02 0.  0.
        -12    1    1    2    0    0 -0.54208567718E+01 -0.14085613607E+02 -0.11085722134E+02  0.18726543569E+02  0.00000000000E+00 0.  1.
         11    1    3    3    0    0  0.58388439107E+01  0.29480296738E+01  0.64034626174E+01  0.91535408955E+01  0.51100000000E-03 0. -1.
        -11    1    3    3    0    0  0.12152638695E+02  0.20235528715E+02  0.27166600824E+02  0.35988712817E+02  0.51100000000E-03 0.  1.
        -12    1    3    3    0    0 -0.12570625834E+02 -0.90979447820E+01 -0.22484341308E+02  0.27319202718E+02  0.00000000000E+00 0.  1.
</event>
<event>
 7    1  0.2641045E-013  0.7246165E+02  0.7816164E-02  0.1226708E+00
        -11   -1    0    0    0    0  0.00000000000E+00  0.00000000000E+00  0.45593999997E+02  0.45594000000E+02  0.51100000000E-03 0.  1.
         11   -1    0    0    0    0 -0.00000000000E+00 -0.00000000000E+00 -0.45593999997E+02  0.45594000000E+02  0.51100000000E-03 0. -1.
    9900012    2    1    2    0    0  0.23075344776E+01 -0.86199896076E+00 -0.18563636681E+02  0.72461645192E+02  0.70000097568E+02 0.  0.
        -12    1    1    2    0    0 -0.23075344776E+01  0.86199896076E+00  0.18563636681E+02  0.18726354808E+02  0.00000000000E+00 0.  1.
         11    1    3    3    0    0 -0.16743812250E+02 -0.12416579581E+02 -0.12151251469E+02  0.24128398406E+02  0.51100000000E-03 0. -1.
        -11    1    3    3    0    0 -0.74597875332E+01 -0.10526088247E+02 -0.48915794270E+01  0.13797627092E+02  0.51100000000E-03 0.  1.
         12    1    3    3    0    0  0.26511134260E+02  0.22080668867E+02 -0.15208057852E+01  0.34535619694E+02  0.00000000000E+00 0. -1.
</event>
<event>
 7    1  0.2641045E-013  0.7246158E+02  0.7816164E-02  0.1226708E+00
        -11   -1    0    0    0    0  0.00000000000E+00  0.00000000000E+00  0.45593999997E+02  0.45594000000E+02  0.51100000000E-03 0. -1.
         11   -1    0    0    0    0 -0.00000000000E+00 -0.00000000000E+00 -0.45593999997E+02  0.45594000000E+02  0.51100000000E-03 0.  1.
    9900012    2    1    2    0    0  0.40713542679E+01  0.15955772061E+02  0.89171867695E+01  0.72461579960E+02  0.70000012591E+02 0.  0.
        -12    1    1    2    0    0 -0.40713542679E+01 -0.15955772061E+02 -0.89171867695E+01  0.18726420040E+02  0.00000000000E+00 0.  1.
         11    1    3    3    0    0 -0.76823968342E+01 -0.29770187648E+01 -0.13370498135E+01  0.83468295962E+01  0.51100000000E-03 0. -1.
        -11    1    3    3    0    0  0.86970793826E+01  0.33043552844E+02 -0.13152801497E+02  0.36612999902E+02  0.51100000000E-03 0.  1.
         12    1    3    3    0    0  0.30566717195E+01 -0.14110762018E+02  0.23407038080E+02  0.27501750461E+02  0.00000000000E+00 0. -1.
</event>
<event>
 7    1  0.2641045E-013  0.7246144E+02  0.7816164E-02  0.1226708E+00
        -11   -1    0    0    0    0  0.00000000000E+00  0.00000000000E+00  0.45593999997E+02  0.45594000000E+02  0.51100000000E-03 0. -1.
         11   -1    0    0    0    0 -0.00000000000E+00 -0.00000000000E+00 -0.45593999997E+02  0.45594000000E+02  0.51100000000E-03 0.  1.
    9900012    2    1    2    0    0 -0.18711580204E+00 -0.16514616541E+02 -0.88270370993E+01  0.72461437161E+02  0.69999826569E+02 0.  0.
        -12    1    1    2    0    0  0.18711580204E+00  0.16514616541E+02  0.88270370993E+01  0.18726562839E+02  0.00000000000E+00 0.  1.
         11    1    3    3    0    0  0.82171810243E+01  0.45575401968E+01  0.15441383773E+02  0.18075662359E+02  0.51100000000E-03 0. -1.
        -11    1    3    3    0    0 -0.21949851944E+02 -0.11462421629E+02  0.25965786604E+00  0.24763895744E+02  0.51100000000E-03 0.  1.
        -12    1    3    3    0    0  0.13545555118E+02 -0.96097351087E+01 -0.24528078738E+02  0.29621879058E+02  0.00000000000E+00 0.  1.
</event>
<event>
 7    1  0.2641045E-013  0.7246162E+02  0.7816164E-02  0.1226708E+00
        -11   -1    0    0    0    0  0.00000000000E+00  0.00000000000E+00  0.45593999997E+02  0.45594000000E+02  0.51100000000E-03 0.  1.
         11   -1    0    0    0    0 -0.00000000000E+00 -0.00000000000E+00 -0.45593999997E+02  0.45594000000E+02  0.51100000000E-03 0. -1.
    9900012    2    1    2    0    0  0.67059282246E+01  0.11915551729E+02 -0.12795609032E+02  0.72461616022E+02  0.70000059569E+02 0.  0.
        -12    1    1    2    0    0 -0.67059282246E+01 -0.11915551729E+02  0.12795609032E+02  0.18726383978E+02  0.00000000000E+00 0.  1.
         11    1    3    3    0    0 -0.29591375312E+01  0.21318161595E+02  0.45132232498E+01  0.21990672866E+02  0.51100000000E-03 0. -1.
        -11    1    3    3    0    0 -0.47770095434E+01  0.10709321505E+02 -0.22316203106E+02  0.25209567798E+02  0.51100000000E-03 0.  1.
        -12    1    3    3    0    0  0.14442075299E+02 -0.20111931371E+02  0.50073708236E+01  0.25261375358E+02  0.00000000000E+00 0.  1.
</event>
<event>
 7    1  0.2641045E-013  0.7246158E+02  0.7816164E-02  0.1226708E+00
        -11   -1    0    0    0    0  0.00000000000E+00  0.00000000000E+00  0.45593999997E+02  0.45594000000E+02  0.51100000000E-03 0.  1.
         11   -1    0    0    0    0 -0.00000000000E+00 -0.00000000000E+00 -0.45593999997E+02  0.45594000000E+02  0.51100000000E-03 0. -1.
    9900012    2    1    2    0    0  0.18541806772E+02 -0.12030898764E+01  0.23308629700E+01  0.72461576268E+02  0.70000007781E+02 0.  0.
        -12    1    1    2    0    0 -0.18541806772E+02  0.12030898764E+01 -0.23308629700E+01  0.18726423732E+02  0.00000000000E+00 0.  1.
         11    1    3    3    0    0  0.14009072214E+02  0.17923151634E+02  0.82946527018E+01  0.24213523752E+02  0.51100000000E-03 0. -1.
        -11    1    3    3    0    0 -0.16876271291E+02  0.23201272859E+01  0.13056815339E+01  0.17084973745E+02  0.51100000000E-03 0.  1.
         12    1    3    3    0    0  0.21409005849E+02 -0.21446368796E+02 -0.72694712657E+01  0.31163078771E+02  0.00000000000E+00 0. -1.
</event>
<event>
 7    1  0.2641045E-013  0.7246160E+02  0.7816164E-02  0.1226708E+00
        -11   -1    0    0    0    0  0.00000000000E+00  0.00000000000E+00  0.45593999997E+02  0.45594000000E+02  0.51100000000E-03 0. -1.
         11   -1    0    0    0    0 -0.00000000000E+00 -0.00000000000E+00 -0.45593999997E+02  0.45594000000E+02  0.51100000000E-03 0.  1.
    9900012    2    1    2    0    0 -0.59862246587E+01 -0.83983081585E+01  0.15630473785E+02  0.72461596813E+02  0.70000034545E+02 0.  0.
        -12    1    1    2    0    0  0.59862246587E+01  0.83983081585E+01 -0.15630473785E+02  0.18726403187E+02  0.00000000000E+00 0.  1.
         11    1    3    3    0    0 -0.59480766234E+01  0.12487780599E+01  0.91531346516E+01  0.10987216953E+02  0.51100000000E-03 0. -1.
        -11    1    3    3    0    0  0.81329791591E+01  0.24600853130E+02  0.33628176124E+01  0.26127683925E+02  0.51100000000E-03 0.  1.
         12    1    3    3    0    0 -0.81711271944E+01 -0.34247939348E+02  0.31145215206E+01  0.35346695935E+02  0.00000000000E+00 0. -1.
</event>
<event>
 7    1  0.2641045E-013  0.7246161E+02  0.7816164E-02  0.1226708E+00
        -11   -1    0    0    0    0  0.00000000000E+00  0.00000000000E+00  0.45593999997E+02  0.45594000000E+02  0.51100000000E-03 0.  1.
         11   -1    0    0    0    0 -0.00000000000E+00 -0.00000000000E+00 -0.45593999997E+02  0.45594000000E+02  0.51100000000E-03 0. -1.
    9900012    2    1    2    0    0  0.15942362074E+02 -0.76358154312E+01  0.61816636285E+01  0.72461613509E+02  0.70000056296E+02 0.  0.
        -12    1    1    2    0    0 -0.15942362074E+02  0.76358154312E+01 -0.61816636285E+01  0.18726386491E+02  0.00000000000E+00 0.  1.
         11    1    3    3    0    0  0.16899078608E+02  0.59709719133E+01 -0.14008300263E+02  0.22747831543E+02  0.51100000000E-03 0. -1.
        -11    1    3    3    0    0  0.19647823481E+02  0.94535847159E+00  0.12645131648E+02  0.23384397038E+02  0.51100000000E-03 0.  1.
         12    1    3    3    0    0 -0.20604540016E+02 -0.14552145816E+02  0.75448322432E+01  0.26329384928E+02  0.00000000000E+00 0. -1.
</event>
<event>
 7    1  0.2641045E-013  0.7246158E+02  0.7816164E-02  0.1226708E+00
        -11   -1    0    0    0    0  0.00000000000E+00  0.00000000000E+00  0.45593999997E+02  0.45594000000E+02  0.51100000000E-03 0.  1.
         11   -1    0    0    0    0 -0.00000000000E+00 -0.00000000000E+00 -0.45593999997E+02  0.45594000000E+02  0.51100000000E-03 0. -1.
    9900012    2    1    2    0    0  0.14158394806E+02 -0.12047058127E+01 -0.12197016747E+02  0.72461583442E+02  0.70000017127E+02 0.  0.
        -12    1    1    2    0    0 -0.14158394806E+02  0.12047058127E+01  0.12197016747E+02  0.18726416558E+02  0.00000000000E+00 0.  1.
         11    1    3    3    0    0  0.10494686375E+02  0.17804219503E+02  0.25125710304E+01  0.20819262418E+02  0.51100000000E-03 0.  1.
        -11    1    3    3    0    0  0.36775238805E+01  0.13501184680E+02 -0.12979903533E+02  0.19086227119E+02  0.51100000000E-03 0. -1.
         12    1    3    3    0    0 -0.13815449556E-01 -0.32510109995E+02 -0.17296842451E+01  0.32556093905E+02  0.00000000000E+00 0. -1.
</event>
<event>
 7    1  0.2641045E-013  0.7246158E+02  0.7816164E-02  0.1226708E+00
        -11   -1    0    0    0    0  0.00000000000E+00  0.00000000000E+00  0.45593999997E+02  0.45594000000E+02  0.51100000000E-03 0.  1.
         11   -1    0    0    0    0 -0.00000000000E+00 -0.00000000000E+00 -0.45593999997E+02  0.45594000000E+02  0.51100000000E-03 0. -1.
    9900012    2    1    2    0    0 -0.19449151936E+01  0.64642570408E+01 -0.17467383741E+02  0.72461579922E+02  0.70000012542E+02 0.  0.
        -12    1    1    2    0    0  0.19449151936E+01 -0.64642570408E+01  0.17467383741E+02  0.18726420078E+02  0.00000000000E+00 0.  1.
         11    1    3    3    0    0  0.14283440552E+02 -0.16335608894E+01 -0.34869454183E+02  0.37716893170E+02  0.51100000000E-03 0. -1.
        -11    1    3    3    0    0 -0.83776555468E+01  0.10374789742E+02 -0.21919879294E+01  0.13513925632E+02  0.51100000000E-03 0.  1.
        -12    1    3    3    0    0 -0.78507001984E+01 -0.22769718117E+01  0.19594058372E+02  0.21230761119E+02  0.00000000000E+00 0.  1.
</event>
<event>
 7    1  0.2641045E-013  0.7246159E+02  0.7816164E-02  0.1226708E+00
        -11   -1    0    0    0    0  0.00000000000E+00  0.00000000000E+00  0.45593999997E+02  0.45594000000E+02  0.51100000000E-03 0.  1.
         11   -1    0    0    0    0 -0.00000000000E+00 -0.00000000000E+00 -0.45593999997E+02  0.45594000000E+02  0.51100000000E-03 0. -1.
    9900012    2    1    2    0    0  0.10271712516E+02  0.11650046484E+01 -0.15614513338E+02  0.72461592426E+02  0.70000028831E+02 0.  0.
        -12    1    1    2    0    0 -0.10271712516E+02 -0.11650046484E+01  0.15614513338E+02  0.18726407574E+02  0.00000000000E+00 0.  1.
         11    1    3    3    0    0 -0.11101821225E+01 -0.51481076921E+01 -0.12228445462E+02  0.13314292915E+02  0.51100000000E-03 0. -1.
        -11    1    3    3    0    0 -0.97261126867E+01 -0.12527138107E+02 -0.20623749420E+02  0.26016638860E+02  0.51100000000E-03 0.  1.
        -12    1    3    3    0    0  0.21108007325E+02  0.18840250448E+02  0.17237681544E+02  0.33130660652E+02  0.00000000000E+00 0.  1.
</event>
<event>
 7    1  0.2641045E-013  0.7246159E+02  0.7816164E-02  0.1226708E+00
        -11   -1    0    0    0    0  0.00000000000E+00  0.00000000000E+00  0.45593999997E+02  0.45594000000E+02  0.51100000000E-03 0.  1.
         11   -1    0    0    0    0 -0.00000000000E+00 -0.00000000000E+00 -0.45593999997E+02  0.45594000000E+02  0.51100000000E-03 0. -1.
    9900012    2    1    2    0    0 -0.15337376597E+02  0.69489872230E+01  0.81948047627E+01  0.72461591658E+02  0.70000027830E+02 0.  0.
        -12    1    1    2    0    0  0.15337376597E+02 -0.69489872230E+01 -0.81948047627E+01  0.18726408342E+02  0.00000000000E+00 0.  1.
         11    1    3    3    0    0  0.20471806715E+02 -0.11994821027E+01  0.57171626234E+01  0.21288954324E+02  0.51100000000E-03 0. -1.
        -11    1    3    3    0    0  0.85029422559E+00  0.13899582168E+02 -0.59116371919E+00  0.13938108176E+02  0.51100000000E-03 0.  1.
        -12    1    3    3    0    0 -0.36659477537E+02 -0.57511128425E+01  0.30688058585E+01  0.37234529158E+02  0.00000000000E+00 0.  1.
</event>
<event>
 7    1  0.2641045E-013  0.7246146E+02  0.7816164E-02  0.1226708E+00
        -11   -1    0    0    0    0  0.00000000000E+00  0.00000000000E+00  0.45593999997E+02  0.45594000000E+02  0.51100000000E-03 0.  1.
         11   -1    0    0    0    0 -0.00000000000E+00 -0.00000000000E+00 -0.45593999997E+02  0.45594000000E+02  0.51100000000E-03 0. -1.
    9900012    2    1    2    0    0 -0.17157255461E+02 -0.75041273619E+01 -0.34632704601E-02  0.72461458557E+02  0.69999854441E+02 0.  0.
        -12    1    1    2    0    0  0.17157255461E+02  0.75041273619E+01  0.34632704601E-02  0.18726541443E+02  0.00000000000E+00 0.  1.
         11    1    3    3    0    0  0.14614185495E+02  0.10899927822E+02 -0.70509394204E+01  0.19547342305E+02  0.51100000000E-03 0. -1.
        -11    1    3    3    0    0  0.52814821041E+01  0.60415607532E+01  0.17008648725E+01  0.82028928511E+01  0.51100000000E-03 0.  1.
         12    1    3    3    0    0 -0.37052923060E+02 -0.24445615937E+02  0.53466112774E+01  0.44711223401E+02  0.00000000000E+00 0. -1.
</event>
<event>
 7    1  0.2641045E-013  0.7246164E+02  0.7816164E-02  0.1226708E+00
        -11   -1    0    0    0    0  0.00000000000E+00  0.00000000000E+00  0.45593999997E+02  0.45594000000E+02  0.51100000000E-03 0. -1.
         11   -1    0    0    0    0 -0.00000000000E+00 -0.00000000000E+00 -0.45593999997E+02  0.45594000000E+02  0.51100000000E-03 0.  1.
    9900012    2    1    2    0    0 -0.14855784018E+02  0.43187940808E+01  0.10551310573E+02  0.72461642748E+02  0.70000094385E+02 0.  0.
        -12    1    1    2    0    0  0.14855784018E+02 -0.43187940808E+01 -0.10551310573E+02  0.18726357252E+02  0.00000000000E+00 0.  1.
         11    1    3    3    0    0 -0.14759057520E+02 -0.56228375646E+01  0.12853355987E+02  0.20363075444E+02  0.51100000000E-03 0. -1.
        -11    1    3    3    0    0 -0.19140453759E+02 -0.94811516116E+01 -0.10344822711E+02  0.23733195385E+02  0.51100000000E-03 0.  1.
         12    1    3    3    0    0  0.19043727261E+02  0.19422783257E+02  0.80427772974E+01  0.28365371919E+02  0.00000000000E+00 0. -1.
</event>
<event>
 7    1  0.2641045E-013  0.7246155E+02  0.7816164E-02  0.1226708E+00
        -11   -1    0    0    0    0  0.00000000000E+00  0.00000000000E+00  0.45593999997E+02  0.45594000000E+02  0.51100000000E-03 0. -1.
         11   -1    0    0    0    0 -0.00000000000E+00 -0.00000000000E+00 -0.45593999997E+02  0.45594000000E+02  0.51100000000E-03 0.  1.
    9900012    2    1    2    0    0  0.82053660268E+01  0.10574010333E+02  0.13097412818E+02  0.72461549491E+02  0.69999972900E+02 0.  0.
        -12    1    1    2    0    0 -0.82053660268E+01 -0.10574010333E+02 -0.13097412818E+02  0.18726450509E+02  0.00000000000E+00 0.  1.
         11    1    3    3    0    0 -0.21520275696E+02  0.26762451608E+02  0.38869447558E+01  0.34560952271E+02  0.51100000000E-03 0. -1.
        -11    1    3    3    0    0 -0.47479047344E+00  0.15272670780E+01  0.11551000697E+01  0.19728728173E+01  0.51100000000E-03 0.  1.
        -12    1    3    3    0    0  0.30200432196E+02 -0.17715708353E+02  0.80553679923E+01  0.35927724403E+02  0.00000000000E+00 0.  1.
</event>
<event>
 7    1  0.2641045E-013  0.7246154E+02  0.7816164E-02  0.1226708E+00
        -11   -1    0    0    0    0  0.00000000000E+00  0.00000000000E+00  0.45593999997E+02  0.45594000000E+02  0.51100000000E-03 0.  1.
         11   -1    0    0    0    0 -0.00000000000E+00 -0.00000000000E+00 -0.45593999997E+02  0.45594000000E+02  0.51100000000E-03 0. -1.
    9900012    2    1    2    0    0  0.17362968294E+02 -0.47631310029E+01  0.51497760015E+01  0.72461540703E+02  0.69999961452E+02 0.  0.
        -12    1    1    2    0    0 -0.17362968294E+02  0.47631310029E+01 -0.51497760015E+01  0.18726459297E+02  0.00000000000E+00 0.  1.
         11    1    3    3    0    0 -0.63724360187E+01 -0.13642504568E+02  0.22253374854E+01  0.15220972337E+02  0.51100000000E-03 0. -1.
        -11    1    3    3    0    0  0.17911588446E+02  0.18988745829E+01  0.26460856357E+02  0.32009493041E+02  0.51100000000E-03 0.  1.
         12    1    3    3    0    0  0.58238158669E+01  0.69804989827E+01 -0.23536417840E+02  0.25231075325E+02  0.00000000000E+00 0. -1.
</event>
<event>
 7    1  0.2641045E-013  0.7246157E+02  0.7816164E-02  0.1226708E+00
        -11   -1    0    0    0    0  0.00000000000E+00  0.00000000000E+00  0.45593999997E+02  0.45594000000E+02  0.51100000000E-03 0.  1.
         11   -1    0    0    0    0 -0.00000000000E+00 -0.00000000000E+00 -0.45593999997E+02  0.45594000000E+02  0.51100000000E-03 0. -1.
    9900012    2    1    2    0    0 -0.11029118889E+02  0.13343532919E+02 -0.71405814935E+01  0.72461568458E+02  0.69999997608E+02 0.  0.
        -12    1    1    2    0    0  0.11029118889E+02 -0.13343532919E+02  0.71405814935E+01  0.18726431542E+02  0.00000000000E+00 0.  1.
         11    1    3    3    0    0 -0.22568056199E+01  0.77952205241E+01  0.25885286642E+01  0.85181638591E+01  0.51100000000E-03 0. -1.
        -11    1    3    3    0    0  0.22315155553E+01  0.27604632137E+02  0.12836806645E+02  0.30525054991E+02  0.51100000000E-03 0.  1.
         12    1    3    3    0    0 -0.11003828825E+02 -0.22056319742E+02 -0.22565916803E+02  0.33418349608E+02  0.00000000000E+00 0. -1.
</event>
<event>
 7    1  0.2641045E-013  0.7246157E+02  0.7816164E-02  0.1226708E+00
        -11   -1    0    0    0    0  0.00000000000E+00  0.00000000000E+00  0.45593999997E+02  0.45594000000E+02  0.51100000000E-03 0.  1.
         11   -1    0    0    0    0 -0.00000000000E+00 -0.00000000000E+00 -0.45593999997E+02  0.45594000000E+02  0.51100000000E-03 0. -1.
    9900012    2    1    2    0    0 -0.13106837202E+02  0.30465185193E+01 -0.13023397420E+02  0.72461565825E+02  0.69999994178E+02 0.  0.
        -12    1    1    2    0    0  0.13106837202E+02 -0.30465185193E+01  0.13023397420E+02  0.18726434175E+02  0.00000000000E+00 0.  1.
         11    1    3    3    0    0  0.13523968154E+02  0.26564532207E+01 -0.13746782621E+02  0.19466085663E+02  0.51100000000E-03 0. -1.
        -11    1    3    3    0    0  0.10811184396E+01 -0.74903468050E+01  0.17913294999E+02  0.19446342852E+02  0.51100000000E-03 0.  1.
        -12    1    3    3    0    0 -0.27711923796E+02  0.78804121036E+01 -0.17189909798E+02  0.33549137310E+02  0.00000000000E+00 0.  1.
</event>
<event>
 7    1  0.2641045E-013  0.7246150E+02  0.7816164E-02  0.1226708E+00
        -11   -1    0    0    0    0  0.00000000000E+00  0.00000000000E+00  0.45593999997E+02  0.45594000000E+02  0.51100000000E-03 0. -1.
         11   -1    0    0    0    0 -0.00000000000E+00 -0.00000000000E+00 -0.45593999997E+02  0.45594000000E+02  0.51100000000E-03 0.  1.
    9900012    2    1    2    0    0 -0.97114085567E+01 -0.11722381560E+02  0.10906705477E+02  0.72461497124E+02  0.69999904682E+02 0.  0.
        -12    1    1    2    0    0  0.97114085567E+01  0.11722381560E+02 -0.10906705477E+02  0.18726502876E+02  0.00000000000E+00 0.  1.
         11    1    3    3    0    0 -0.21547208924E+01 -0.54213133951E+01  0.77849973021E+00  0.58855350771E+01  0.51100000000E-03 0. -1.
        -11    1    3    3    0    0  0.52764028020E+01 -0.30061631742E+02 -0.10837372493E+02  0.32388127027E+02  0.51100000000E-03 0.  1.
         12    1    3    3    0    0 -0.12833090466E+02  0.23760563577E+02  0.20965578240E+02  0.34187835020E+02  0.00000000000E+00 0. -1.
</event>
<event>
 7    1  0.2641045E-013  0.7246154E+02  0.7816164E-02  0.1226708E+00
        -11   -1    0    0    0    0  0.00000000000E+00  0.00000000000E+00  0.45593999997E+02  0.45594000000E+02  0.51100000000E-03 0.  1.
         11   -1    0    0    0    0 -0.00000000000E+00 -0.00000000000E+00 -0.45593999997E+02  0.45594000000E+02  0.51100000000E-03 0. -1.
    9900012    2    1    2    0    0 -0.16018303006E+02  0.82345621555E+01  0.51270252851E+01  0.72461536550E+02  0.69999956041E+02 0.  0.
        -12    1    1    2    0    0  0.16018303006E+02 -0.82345621555E+01 -0.51270252851E+01  0.18726463450E+02  0.00000000000E+00 0.  1.
         11    1    3    3    0    0  0.15721030371E+02  0.14487526017E+02 -0.13304396416E+02  0.25180273435E+02  0.51100000000E-03 0. -1.
        -11    1    3    3    0    0  0.40634288675E+01  0.21852754702E+01 -0.21947915582E+01  0.51092067179E+01  0.51100000000E-03 0.  1.
        -12    1    3    3    0    0 -0.35802762244E+02 -0.84382393314E+01  0.20626213259E+02  0.42172056397E+02  0.00000000000E+00 0.  1.
</event>
<event>
 7    1  0.2641045E-013  0.7246155E+02  0.7816164E-02  0.1226708E+00
        -11   -1    0    0    0    0  0.00000000000E+00  0.00000000000E+00  0.45593999997E+02  0.45594000000E+02  0.51100000000E-03 0.  1.
         11   -1    0    0    0    0 -0.00000000000E+00 -0.00000000000E+00 -0.45593999997E+02  0.45594000000E+02  0.51100000000E-03 0. -1.
    9900012    2    1    2    0    0 -0.51331636722E+01 -0.17761240943E+02  0.29780699848E+01  0.72461549457E+02  0.69999972855E+02 0.  0.
        -12    1    1    2    0    0  0.51331636722E+01  0.17761240943E+02 -0.29780699848E+01  0.18726450543E+02  0.00000000000E+00 0.  1.
         11    1    3    3    0    0 -0.13281147685E+02  0.14813274583E+01 -0.15420215467E+02  0.20405054770E+02  0.51100000000E-03 0. -1.
        -11    1    3    3    0    0 -0.76502495472E+01  0.11562249726E+02  0.74958907215E+01  0.15760720632E+02  0.51100000000E-03 0.  1.
         12    1    3    3    0    0  0.15798233560E+02 -0.30804818127E+02  0.10902394730E+02  0.36295774055E+02  0.00000000000E+00 0. -1.
</event>
<event>
 7    1  0.2641045E-013  0.7246139E+02  0.7816164E-02  0.1226708E+00
        -11   -1    0    0    0    0  0.00000000000E+00  0.00000000000E+00  0.45593999997E+02  0.45594000000E+02  0.51100000000E-03 0. -1.
         11   -1    0    0    0    0 -0.00000000000E+00 -0.00000000000E+00 -0.45593999997E+02  0.45594000000E+02  0.51100000000E-03 0.  1.
    9900012    2    1    2    0    0  0.25752803145E+01  0.18505430339E+02 -0.12660515855E+01  0.72461390393E+02  0.69999765645E+02 0.  0.
        -12    1    1    2    0    0 -0.25752803145E+01 -0.18505430339E+02  0.12660515855E+01  0.18726609607E+02  0.00000000000E+00 0.  1.
         11    1    3    3    0    0 -0.89449395561E+01  0.20811263077E+02  0.13398170322E+02  0.26317894725E+02  0.51100000000E-03 0. -1.
        -11    1    3    3    0    0  0.63000311871E+00  0.36610863744E+01  0.14223100578E+02  0.14700239715E+02  0.51100000000E-03 0.  1.
        -12    1    3    3    0    0  0.10890216752E+02 -0.59669191116E+01 -0.28887322485E+02  0.31443255953E+02  0.00000000000E+00 0.  1.
</event>
<event>
 7    1  0.2641045E-013  0.7246159E+02  0.7816164E-02  0.1226708E+00
        -11   -1    0    0    0    0  0.00000000000E+00  0.00000000000E+00  0.45593999997E+02  0.45594000000E+02  0.51100000000E-03 0.  1.
         11   -1    0    0    0    0 -0.00000000000E+00 -0.00000000000E+00 -0.45593999997E+02  0.45594000000E+02  0.51100000000E-03 0. -1.
    9900012    2    1    2    0    0  0.12671740643E+02  0.11610821022E+02 -0.74360166463E+01  0.72461587656E+02  0.70000022616E+02 0.  0.
        -12    1    1    2    0    0 -0.12671740643E+02 -0.11610821022E+02  0.74360166463E+01  0.18726412344E+02  0.00000000000E+00 0.  1.
         11    1    3    3    0    0 -0.35760966650E+01 -0.72185729860E+01  0.17724878251E+02  0.19469657742E+02  0.51100000000E-03 0. -1.
        -11    1    3    3    0    0  0.10616040135E+02 -0.14523741501E+01  0.82364224597E+01  0.13514745799E+02  0.51100000000E-03 0.  1.
         12    1    3    3    0    0  0.56317971732E+01  0.20281768158E+02 -0.33397317357E+02  0.39477184115E+02  0.00000000000E+00 0. -1.
</event>
<event>
 7    1  0.2641045E-013  0.7246168E+02  0.7816164E-02  0.1226708E+00
        -11   -1    0    0    0    0  0.00000000000E+00  0.00000000000E+00  0.45593999997E+02  0.45594000000E+02  0.51100000000E-03 0.  1.
         11   -1    0    0    0    0 -0.00000000000E+00 -0.00000000000E+00 -0.45593999997E+02  0.45594000000E+02  0.51100000000E-03 0. -1.
    9900012    2    1    2    0    0  0.49642036651E+01 -0.27657788297E+01 -0.17843269332E+02  0.72461678657E+02  0.70000141163E+02 0.  0.
        -12    1    1    2    0    0 -0.49642036651E+01  0.27657788297E+01  0.17843269332E+02  0.18726321343E+02  0.00000000000E+00 0.  1.
         11    1    3    3    0    0  0.10433851716E+02  0.15410570400E+02 -0.38291096355E+01  0.19000342696E+02  0.51100000000E-03 0. -1.
        -11    1    3    3    0    0  0.13168371732E+02  0.99186167728E+01 -0.10541271387E+02  0.19567916994E+02  0.51100000000E-03 0.  1.
         12    1    3    3    0    0 -0.18638019783E+02 -0.28094966003E+02 -0.34728883102E+01  0.33893418968E+02  0.00000000000E+00 0. -1.
</event>
<event>
 7    1  0.2641045E-013  0.7246157E+02  0.7816164E-02  0.1226708E+00
        -11   -1    0    0    0    0  0.00000000000E+00  0.00000000000E+00  0.45593999997E+02  0.45594000000E+02  0.51100000000E-03 0.  1.
         11   -1    0    0    0    0 -0.00000000000E+00 -0.00000000000E+00 -0.45593999997E+02  0.45594000000E+02  0.51100000000E-03 0. -1.
    9900012    2    1    2    0    0  0.18314207298E+02  0.90607806857E+00  0.38010325017E+01  0.72461574434E+02  0.70000005392E+02 0.  0.
        -12    1    1    2    0    0 -0.18314207298E+02 -0.90607806857E+00 -0.38010325017E+01  0.18726425566E+02  0.00000000000E+00 0.  1.
         11    1    3    3    0    0  0.22902211536E+02  0.55611697938E+01 -0.14290264558E+02  0.27561740949E+02  0.51100000000E-03 0. -1.
        -11    1    3    3    0    0  0.15837612350E+02  0.71867503851E+01  0.91624434095E+01  0.19657815635E+02  0.51100000000E-03 0.  1.
        -12    1    3    3    0    0 -0.20425616589E+02 -0.11841842110E+02  0.89288536506E+01  0.25242017849E+02  0.00000000000E+00 0.  1.
</event>
<event>
 7    1  0.2641045E-013  0.7246152E+02  0.7816164E-02  0.1226708E+00
        -11   -1    0    0    0    0  0.00000000000E+00  0.00000000000E+00  0.45593999997E+02  0.45594000000E+02  0.51100000000E-03 0.  1.
         11   -1    0    0    0    0 -0.00000000000E+00 -0.00000000000E+00 -0.45593999997E+02  0.45594000000E+02  0.51100000000E-03 0. -1.
    9900012    2    1    2    0    0 -0.14553054183E+02 -0.11779885989E+02  0.35207739745E+00  0.72461519860E+02  0.69999934299E+02 0.  0.
        -12    1    1    2    0    0  0.14553054183E+02  0.11779885989E+02 -0.35207739745E+00  0.18726480140E+02  0.00000000000E+00 0.  1.
         11    1    3    3    0    0 -0.13639705640E+01 -0.37320962648E+02 -0.81956287861E+01  0.38234578593E+02  0.51100000000E-03 0. -1.
        -11    1    3    3    0    0 -0.72359026170E+01  0.19573928198E+01 -0.19335507802E+01  0.77413365910E+01  0.51100000000E-03 0.  1.
        -12    1    3    3    0    0 -0.59531810020E+01  0.23583683840E+02  0.10481256964E+02  0.26485604676E+02  0.00000000000E+00 0.  1.
</event>
<event>
 7    1  0.2641045E-013  0.7246159E+02  0.7816164E-02  0.1226708E+00
        -11   -1    0    0    0    0  0.00000000000E+00  0.00000000000E+00  0.45593999997E+02  0.45594000000E+02  0.51100000000E-03 0.  1.
         11   -1    0    0    0    0 -0.00000000000E+00 -0.00000000000E+00 -0.45593999997E+02  0.45594000000E+02  0.51100000000E-03 0. -1.
    9900012    2    1    2    0    0  0.38743269881E+01  0.30622439511E+00 -0.18318684037E+02  0.72461591699E+02  0.70000027884E+02 0.  0.
        -12    1    1    2    0    0 -0.38743269881E+01 -0.30622439511E+00  0.18318684037E+02  0.18726408301E+02  0.00000000000E+00 0.  1.
         11    1    3    3    0    0 -0.49750431200E+01  0.14240422704E+02 -0.47856545986E+01  0.15825396773E+02  0.51100000000E-03 0. -1.
        -11    1    3    3    0    0  0.13261529341E+02  0.13033753755E+02 -0.21254192474E+02  0.28239822864E+02  0.51100000000E-03 0.  1.
        -12    1    3    3    0    0 -0.44121592332E+01 -0.26967952064E+02  0.77211630355E+01  0.28396372061E+02  0.00000000000E+00 0.  1.
</event>
<event>
 7    1  0.2641045E-013  0.7246161E+02  0.7816164E-02  0.1226708E+00
        -11   -1    0    0    0    0  0.00000000000E+00  0.00000000000E+00  0.45593999997E+02  0.45594000000E+02  0.51100000000E-03 0.  1.
         11   -1    0    0    0    0 -0.00000000000E+00 -0.00000000000E+00 -0.45593999997E+02  0.45594000000E+02  0.51100000000E-03 0. -1.
    9900012    2    1    2    0    0 -0.20875249554E+01  0.74576828897E+01 -0.17050005910E+02  0.72461614976E+02  0.70000058206E+02 0.  0.
        -12    1    1    2    0    0  0.20875249554E+01 -0.74576828897E+01  0.17050005910E+02  0.18726385024E+02  0.00000000000E+00 0.  1.
         11    1    3    3    0    0 -0.15875452237E+02 -0.29307686083E+01  0.11346020979E+02  0.19731993835E+02  0.51100000000E-03 0. -1.
        -11    1    3    3    0    0  0.91115706136E+01  0.14150207772E+02  0.59593774495E+01  0.17853942951E+02  0.51100000000E-03 0.  1.
         12    1    3    3    0    0  0.46763566685E+01 -0.37617562742E+01 -0.34355404339E+02  0.34875678190E+02  0.00000000000E+00 0. -1.
</event>
<event>
 7    1  0.2641045E-013  0.7246154E+02  0.7816164E-02  0.1226708E+00
        -11   -1    0    0    0    0  0.00000000000E+00  0.00000000000E+00  0.45593999997E+02  0.45594000000E+02  0.51100000000E-03 0.  1.
         11   -1    0    0    0    0 -0.00000000000E+00 -0.00000000000E+00 -0.45593999997E+02  0.45594000000E+02  0.51100000000E-03 0. -1.
    9900012    2    1    2    0    0 -0.11224895612E+02 -0.35384712327E+01 -0.14565750498E+02  0.72461544176E+02  0.69999965976E+02 0.  0.
        -12    1    1    2    0    0  0.11224895612E+02  0.35384712327E+01  0.14565750498E+02  0.18726455824E+02  0.00000000000E+00 0.  1.
         11    1    3    3    0    0 -0.78335037981E+01 -0.17048755465E+02  0.31696088201E+01  0.19028144024E+02  0.51100000000E-03 0. -1.
        -11    1    3    3    0    0  0.65981170847E+01  0.56880234788E+01  0.15543345768E+02  0.17818090753E+02  0.51100000000E-03 0.  1.
         12    1    3    3    0    0 -0.99895088983E+01  0.78222607538E+01 -0.33278705086E+02  0.35615309399E+02  0.00000000000E+00 0. -1.
</event>
<event>
 7    1  0.2641045E-013  0.7246155E+02  0.7816164E-02  0.1226708E+00
        -11   -1    0    0    0    0  0.00000000000E+00  0.00000000000E+00  0.45593999997E+02  0.45594000000E+02  0.51100000000E-03 0.  1.
         11   -1    0    0    0    0 -0.00000000000E+00 -0.00000000000E+00 -0.45593999997E+02  0.45594000000E+02  0.51100000000E-03 0. -1.
    9900012    2    1    2    0    0  0.16185162200E+02 -0.93576801682E+01  0.10743087658E+01  0.72461553651E+02  0.69999978318E+02 0.  0.
        -12    1    1    2    0    0 -0.16185162200E+02  0.93576801682E+01 -0.10743087658E+01  0.18726446349E+02  0.00000000000E+00 0.  1.
         11    1    3    3    0    0  0.24126717577E+02 -0.99509022883E+01  0.83754120180E+01  0.27409240852E+02  0.51100000000E-03 0. -1.
        -11    1    3    3    0    0 -0.16855850678E+02  0.38924792041E+01  0.13656297547E+02  0.22040089823E+02  0.51100000000E-03 0.  1.
        -12    1    3    3    0    0  0.89142953008E+01 -0.32992570840E+01 -0.20957400799E+02  0.23012222975E+02  0.00000000000E+00 0.  1.
</event>
<event>
 7    1  0.2641045E-013  0.7246159E+02  0.7816164E-02  0.1226708E+00
        -11   -1    0    0    0    0  0.00000000000E+00  0.00000000000E+00  0.45593999997E+02  0.45594000000E+02  0.51100000000E-03 0.  1.
         11   -1    0    0    0    0 -0.00000000000E+00 -0.00000000000E+00 -0.45593999997E+02  0.45594000000E+02  0.51100000000E-03 0. -1.
    9900012    2    1    2    0    0 -0.11971127736E+02 -0.21060968484E+01 -0.14245524451E+02  0.72461587901E+02  0.70000022936E+02 0.  0.
        -12    1    1    2    0    0  0.11971127736E+02  0.21060968484E+01  0.14245524451E+02  0.18726412099E+02  0.00000000000E+00 0.  1.
         11    1    3    3    0    0  0.76481356297E+01 -0.24623958108E+02 -0.12681068032E+02  0.28734000387E+02  0.51100000000E-03 0. -1.
        -11    1    3    3    0    0 -0.20607841068E+01 -0.76514874434E+01  0.31030297211E+01  0.85100461187E+01  0.51100000000E-03 0.  1.
        -12    1    3    3    0    0 -0.17558479259E+02  0.30169348703E+02 -0.46674861400E+01  0.35217541396E+02  0.00000000000E+00 0.  1.
</event>
<event>
 7    1  0.2641045E-013  0.7246164E+02  0.7816164E-02  0.1226708E+00
        -11   -1    0    0    0    0  0.00000000000E+00  0.00000000000E+00  0.45593999997E+02  0.45594000000E+02  0.51100000000E-03 0.  1.
         11   -1    0    0    0    0 -0.00000000000E+00 -0.00000000000E+00 -0.45593999997E+02  0.45594000000E+02  0.51100000000E-03 0. -1.
    9900012    2    1    2    0    0  0.18914780432E+01 -0.15636441253E+02 -0.10129200137E+02  0.72461636775E+02  0.70000086603E+02 0.  0.
        -12    1    1    2    0    0 -0.18914780432E+01  0.15636441253E+02  0.10129200137E+02  0.18726363225E+02  0.00000000000E+00 0.  1.
         11    1    3    3    0    0 -0.30192620501E+01 -0.19938909206E+00 -0.24602111946E+02  0.24787489017E+02  0.51100000000E-03 0. -1.
        -11    1    3    3    0    0 -0.13470310592E+02  0.46798354031E+01 -0.39306374105E+01  0.14791890939E+02  0.51100000000E-03 0.  1.
        -12    1    3    3    0    0  0.18381050686E+02 -0.20116887564E+02  0.18403549220E+02  0.32882256818E+02  0.00000000000E+00 0.  1.
</event>
<event>
 7    1  0.2641045E-013  0.7246157E+02  0.7816164E-02  0.1226708E+00
        -11   -1    0    0    0    0  0.00000000000E+00  0.00000000000E+00  0.45593999997E+02  0.45594000000E+02  0.51100000000E-03 0.  1.
         11   -1    0    0    0    0 -0.00000000000E+00 -0.00000000000E+00 -0.45593999997E+02  0.45594000000E+02  0.51100000000E-03 0. -1.
    9900012    2    1    2    0    0 -0.12758300839E+02 -0.48813209802E+01 -0.12809282558E+02  0.72461568026E+02  0.69999997046E+02 0.  0.
        -12    1    1    2    0    0  0.12758300839E+02  0.48813209802E+01  0.12809282558E+02  0.18726431974E+02  0.00000000000E+00 0.  1.
         11    1    3    3    0    0 -0.22791169237E+02  0.16483527005E+02  0.14096502683E+02  0.31461968245E+02  0.51100000000E-03 0. -1.
        -11    1    3    3    0    0 -0.27140338835E+01  0.19725355677E+01 -0.27619621287E+00  0.33664760649E+01  0.51100000000E-03 0.  1.
        -12    1    3    3    0    0  0.12746902281E+02 -0.23337383553E+02 -0.26629589028E+02  0.37633123716E+02  0.00000000000E+00 0.  1.
</event>
<event>
 7    1  0.2641045E-013  0.7246174E+02  0.7816164E-02  0.1226708E+00
        -11   -1    0    0    0    0  0.00000000000E+00  0.00000000000E+00  0.45593999997E+02  0.45594000000E+02  0.51100000000E-03 0.  1.
         11   -1    0    0    0    0 -0.00000000000E+00 -0.00000000000E+00 -0.45593999997E+02  0.45594000000E+02  0.51100000000E-03 0. -1.
    9900012    2    1    2    0    0  0.11474833400E+02 -0.86618066879E+01 -0.11998922919E+02  0.72461739084E+02  0.70000219880E+02 0.  0.
        -12    1    1    2    0    0 -0.11474833400E+02  0.86618066879E+01  0.11998922919E+02  0.18726260916E+02  0.00000000000E+00 0.  1.
         11    1    3    3    0    0  0.20666932307E+02 -0.14311178775E+02 -0.24058106124E+01  0.25253115726E+02  0.51100000000E-03 0. -1.
        -11    1    3    3    0    0  0.80164458389E+01  0.19032882692E+02  0.46482743481E+01  0.21168856420E+02  0.51100000000E-03 0.  1.
         12    1    3    3    0    0 -0.17208544745E+02 -0.13383510605E+02 -0.14241386655E+02  0.26039766939E+02  0.00000000000E+00 0. -1.
</event>
<event>
 7    1  0.2725228E-013  0.7246159E+02  0.7816164E-02  0.1226708E+00
        -11   -1    0    0    0    0  0.00000000000E+00  0.00000000000E+00  0.45593999997E+02  0.45594000000E+02  0.51100000000E-03 0. -1.
         11   -1    0    0    0    0 -0.00000000000E+00 -0.00000000000E+00 -0.45593999997E+02  0.45594000000E+02  0.51100000000E-03 0.  1.
    9900012    2    1    2    0    0 -0.62807363877E+00 -0.95769686650E+01  0.16079976098E+02  0.72461589863E+02  0.70000025492E+02 0.  0.
        -12    1    1    2    0    0  0.62807363877E+00  0.95769686650E+01 -0.16079976098E+02  0.18726410137E+02  0.00000000000E+00 0.  1.
         11    1    3    3    0    0 -0.15576667879E+01  0.92485301194E+00  0.21707522832E+02  0.21782980207E+02  0.51100000000E-03 0.  1.
        -11    1    3    3    0    0 -0.15067161010E+02 -0.19153290218E+02  0.10344682079E+02  0.26474144267E+02  0.51100000000E-03 0. -1.
        -12    1    3    3    0    0  0.15996754159E+02  0.86514685414E+01 -0.15972228813E+02  0.24204465390E+02  0.00000000000E+00 0.  1.
</event>
<event>
 7    1  0.2641045E-013  0.7246156E+02  0.7816164E-02  0.1226708E+00
        -11   -1    0    0    0    0  0.00000000000E+00  0.00000000000E+00  0.45593999997E+02  0.45594000000E+02  0.51100000000E-03 0.  1.
         11   -1    0    0    0    0 -0.00000000000E+00 -0.00000000000E+00 -0.45593999997E+02  0.45594000000E+02  0.51100000000E-03 0. -1.
    9900012    2    1    2    0    0  0.12007974306E+02 -0.96243450922E+01 -0.10670522655E+02  0.72461560960E+02  0.69999987840E+02 0.  0.
        -12    1    1    2    0    0 -0.12007974306E+02  0.96243450922E+01  0.10670522655E+02  0.18726439040E+02  0.00000000000E+00 0.  1.
         11    1    3    3    0    0 -0.12119633997E+02 -0.11975468746E+02 -0.22192963368E+01  0.17182044593E+02  0.51100000000E-03 0. -1.
        -11    1    3    3    0    0 -0.85923324363E+01  0.10402687470E+02  0.10063378330E+02  0.16831983453E+02  0.51100000000E-03 0.  1.
         12    1    3    3    0    0  0.32719940740E+02 -0.80515638156E+01 -0.18514604647E+02  0.38447532914E+02  0.00000000000E+00 0. -1.
</event>
<event>
 7    1  0.2641045E-013  0.7246157E+02  0.7816164E-02  0.1226708E+00
        -11   -1    0    0    0    0  0.00000000000E+00  0.00000000000E+00  0.45593999997E+02  0.45594000000E+02  0.51100000000E-03 0.  1.
         11   -1    0    0    0    0 -0.00000000000E+00 -0.00000000000E+00 -0.45593999997E+02  0.45594000000E+02  0.51100000000E-03 0. -1.
    9900012    2    1    2    0    0  0.16640819750E+02  0.59619254500E+01 -0.61820475430E+01  0.72461570846E+02  0.70000000719E+02 0.  0.
        -12    1    1    2    0    0 -0.16640819750E+02 -0.59619254500E+01  0.61820475430E+01  0.18726429154E+02  0.00000000000E+00 0.  1.
         11    1    3    3    0    0  0.20102855225E+01 -0.27467679392E+01  0.82488562008E+01  0.89235425071E+01  0.51100000000E-03 0. -1.
        -11    1    3    3    0    0 -0.96097180624E+01 -0.98075705390E+01  0.15565971867E+02  0.20756555628E+02  0.51100000000E-03 0.  1.
         12    1    3    3    0    0  0.24240252290E+02  0.18516263928E+02 -0.29996875610E+02  0.42781472711E+02  0.00000000000E+00 0. -1.
</event>
<event>
 7    1  0.2641045E-013  0.7246156E+02  0.7816164E-02  0.1226708E+00
        -11   -1    0    0    0    0  0.00000000000E+00  0.00000000000E+00  0.45593999997E+02  0.45594000000E+02  0.51100000000E-03 0.  1.
         11   -1    0    0    0    0 -0.00000000000E+00 -0.00000000000E+00 -0.45593999997E+02  0.45594000000E+02  0.51100000000E-03 0. -1.
    9900012    2    1    2    0    0  0.15958974764E+02  0.84541821692E+01 -0.49515218993E+01  0.72461557711E+02  0.69999983608E+02 0.  0.
        -12    1    1    2    0    0 -0.15958974764E+02 -0.84541821692E+01  0.49515218993E+01  0.18726442289E+02  0.00000000000E+00 0.  1.
         11    1    3    3    0    0  0.17027102946E+02 -0.20767428906E+02 -0.31187181425E+01  0.27035804801E+02  0.51100000000E-03 0. -1.
        -11    1    3    3    0    0  0.47872584905E+01 -0.52965919073E+01 -0.70431771568E+01  0.10028862070E+02  0.51100000000E-03 0.  1.
        -12    1    3    3    0    0 -0.58553866723E+01  0.34518202983E+02  0.52103734000E+01  0.35396890841E+02  0.00000000000E+00 0.  1.
</event>
<event>
 7    1  0.2641045E-013  0.7246157E+02  0.7816164E-02  0.1226708E+00
        -11   -1    0    0    0    0  0.00000000000E+00  0.00000000000E+00  0.45593999997E+02  0.45594000000E+02  0.51100000000E-03 0.  1.
         11   -1    0    0    0    0 -0.00000000000E+00 -0.00000000000E+00 -0.45593999997E+02  0.45594000000E+02  0.51100000000E-03 0. -1.
    9900012    2    1    2    0    0 -0.39152940047E+01  0.13606733760E+02 -0.12255879333E+02  0.72461566570E+02  0.69999995149E+02 0.  0.
        -12    1    1    2    0    0  0.39152940047E+01 -0.13606733760E+02  0.12255879333E+02  0.18726433430E+02  0.00000000000E+00 0.  1.
         11    1    3    3    0    0 -0.12068302432E+02  0.20204158275E+01 -0.14022499282E+02  0.18610655283E+02  0.51100000000E-03 0. -1.
        -11    1    3    3    0    0 -0.16297061753E+02  0.83232381526E+01  0.16901949692E+02  0.24910769133E+02  0.51100000000E-03 0.  1.
         12    1    3    3    0    0  0.24450070180E+02  0.32630797800E+01 -0.15135329744E+02  0.28940142154E+02  0.00000000000E+00 0. -1.
</event>
<event>
 7    1  0.2641045E-013  0.7246160E+02  0.7816164E-02  0.1226708E+00
        -11   -1    0    0    0    0  0.00000000000E+00  0.00000000000E+00  0.45593999997E+02  0.45594000000E+02  0.51100000000E-03 0.  1.
         11   -1    0    0    0    0 -0.00000000000E+00 -0.00000000000E+00 -0.45593999997E+02  0.45594000000E+02  0.51100000000E-03 0. -1.
    9900012    2    1    2    0    0  0.24054757327E+01  0.15496825010E+02 -0.10234265717E+02  0.72461599021E+02  0.70000037421E+02 0.  0.
        -12    1    1    2    0    0 -0.24054757327E+01 -0.15496825010E+02  0.10234265717E+02  0.18726400979E+02  0.00000000000E+00 0.  1.
         11    1    3    3    0    0  0.43539850680E+01  0.32863977858E+01 -0.32532674449E+02  0.32986853495E+02  0.51100000000E-03 0. -1.
        -11    1    3    3    0    0  0.90727677704E+01 -0.50154177715E+01  0.18036504114E+01  0.10522484759E+02  0.51100000000E-03 0.  1.
        -12    1    3    3    0    0 -0.11021277106E+02  0.17225844996E+02  0.20494758321E+02  0.28952260767E+02  0.00000000000E+00 0.  1.
</event>
<event>
 7    1  0.2641045E-013  0.7246157E+02  0.7816164E-02  0.1226708E+00
        -11   -1    0    0    0    0  0.00000000000E+00  0.00000000000E+00  0.45593999997E+02  0.45594000000E+02  0.51100000000E-03 0.  1.
         11   -1    0    0    0    0 -0.00000000000E+00 -0.00000000000E+00 -0.45593999997E+02  0.45594000000E+02  0.51100000000E-03 0. -1.
    9900012    2    1    2    0    0  0.17410904085E+01  0.16569111708E+02 -0.85505800692E+01  0.72461567395E+02  0.69999996223E+02 0.  0.
        -12    1    1    2    0    0 -0.17410904085E+01 -0.16569111708E+02  0.85505800692E+01  0.18726432605E+02  0.00000000000E+00 0.  1.
         11    1    3    3    0    0  0.15831382082E+02  0.33368771988E+01  0.18603694109E+02  0.24654915187E+02  0.51100000000E-03 0. -1.
        -11    1    3    3    0    0  0.83710514942E+01 -0.51849702809E+01 -0.38718294871E+01  0.10580618308E+02  0.51100000000E-03 0.  1.
         12    1    3    3    0    0 -0.22461343168E+02  0.18417204790E+02 -0.23282444692E+02  0.37226033901E+02  0.00000000000E+00 0. -1.
</event>
<event>
 7    1  0.2641045E-013  0.7246160E+02  0.7816164E-02  0.1226708E+00
        -11   -1    0    0    0    0  0.00000000000E+00  0.00000000000E+00  0.45593999997E+02  0.45594000000E+02  0.51100000000E-03 0.  1.
         11   -1    0    0    0    0 -0.00000000000E+00 -0.00000000000E+00 -0.45593999997E+02  0.45594000000E+02  0.51100000000E-03 0. -1.
    9900012    2    1    2    0    0  0.23594348543E+01  0.14883650037E+02 -0.11117024692E+02  0.72461595934E+02  0.70000033400E+02 0.  0.
        -12    1    1    2    0    0 -0.23594348543E+01 -0.14883650037E+02  0.11117024692E+02  0.18726404066E+02  0.00000000000E+00 0.  1.
         11    1    3    3    0    0 -0.28055349949E+01  0.14316983502E+00 -0.11090573265E+02  0.11440819019E+02  0.51100000000E-03 0. -1.
        -11    1    3    3    0    0  0.31416591204E+02  0.39470870214E+01 -0.54337303475E+01  0.32126424086E+02  0.51100000000E-03 0.  1.
         12    1    3    3    0    0 -0.26251621354E+02  0.10793393180E+02  0.54072789209E+01  0.28894352829E+02  0.00000000000E+00 0. -1.
</event>
<event>
 7    1  0.2641045E-013  0.7246156E+02  0.7816164E-02  0.1226708E+00
        -11   -1    0    0    0    0  0.00000000000E+00  0.00000000000E+00  0.45593999997E+02  0.45594000000E+02  0.51100000000E-03 0. -1.
         11   -1    0    0    0    0 -0.00000000000E+00 -0.00000000000E+00 -0.45593999997E+02  0.45594000000E+02  0.51100000000E-03 0.  1.
    9900012    2    1    2    0    0 -0.75304925006E+00 -0.18132767215E+02 -0.46168488872E+01  0.72461558168E+02  0.69999984204E+02 0.  0.
        -12    1    1    2    0    0  0.75304925006E+00  0.18132767215E+02  0.46168488872E+01  0.18726441832E+02  0.00000000000E+00 0.  1.
         11    1    3    3    0    0  0.60078581553E+01 -0.16282166329E+02  0.12430009597E+02  0.21347328611E+02  0.51100000000E-03 0. -1.
        -11    1    3    3    0    0  0.18916315364E+02 -0.88275665121E+01 -0.11848664560E+02  0.24002995013E+02  0.51100000000E-03 0.  1.
         12    1    3    3    0    0 -0.25677222769E+02  0.69769656263E+01 -0.51981939241E+01  0.27111234545E+02  0.00000000000E+00 0. -1.
</event>
<event>
 7    1  0.2641045E-013  0.7246157E+02  0.7816164E-02  0.1226708E+00
        -11   -1    0    0    0    0  0.00000000000E+00  0.00000000000E+00  0.45593999997E+02  0.45594000000E+02  0.51100000000E-03 0. -1.
         11   -1    0    0    0    0 -0.00000000000E+00 -0.00000000000E+00 -0.45593999997E+02  0.45594000000E+02  0.51100000000E-03 0.  1.
    9900012    2    1    2    0    0  0.86611528792E+01  0.87438328007E+01  0.14114139316E+02  0.72461571887E+02  0.70000002075E+02 0.  0.
        -12    1    1    2    0    0 -0.86611528792E+01 -0.87438328007E+01 -0.14114139316E+02  0.18726428113E+02  0.00000000000E+00 0.  1.
         11    1    3    3    0    0 -0.67964722640E+01 -0.50528502851E+01  0.45326723774E+01  0.96056467966E+01  0.51100000000E-03 0. -1.
        -11    1    3    3    0    0 -0.17560697002E+02 -0.10418582225E+02 -0.13879866822E+01  0.20465860404E+02  0.51100000000E-03 0.  1.
         12    1    3    3    0    0  0.33018322145E+02  0.24215265311E+02  0.10969453621E+02  0.42390064686E+02  0.00000000000E+00 0. -1.
</event>
<event>
 7    1  0.2641045E-013  0.7246150E+02  0.7816164E-02  0.1226708E+00
        -11   -1    0    0    0    0  0.00000000000E+00  0.00000000000E+00  0.45593999997E+02  0.45594000000E+02  0.51100000000E-03 0. -1.
         11   -1    0    0    0    0 -0.00000000000E+00 -0.00000000000E+00 -0.45593999997E+02  0.45594000000E+02  0.51100000000E-03 0.  1.
    9900012    2    1    2    0    0  0.12875793376E+02  0.10302303534E+01  0.13558552254E+02  0.72461500891E+02  0.69999909590E+02 0.  0.
        -12    1    1    2    0    0 -0.12875793376E+02 -0.10302303534E+01 -0.13558552254E+02  0.18726499109E+02  0.00000000000E+00 0.  1.
         11    1    3    3    0    0 -0.40025256736E+01  0.27146109238E+01 -0.13202640489E+02  0.14060549078E+02  0.51100000000E-03 0. -1.
        -11    1    3    3    0    0  0.15181211555E+02  0.12629883789E+02 -0.75834745036E+01  0.21154012258E+02  0.51100000000E-03 0.  1.
         12    1    3    3    0    0  0.16971074945E+01 -0.14314264360E+02  0.34344667246E+02  0.37246939555E+02  0.00000000000E+00 0. -1.
</event>
<event>
 7    1  0.2641045E-013  0.7246157E+02  0.7816164E-02  0.1226708E+00
        -11   -1    0    0    0    0  0.00000000000E+00  0.00000000000E+00  0.45593999997E+02  0.45594000000E+02  0.51100000000E-03 0.  1.
         11   -1    0    0    0    0 -0.00000000000E+00 -0.00000000000E+00 -0.45593999997E+02  0.45594000000E+02  0.51100000000E-03 0. -1.
    9900012    2    1    2    0    0  0.20245803823E+00 -0.33698690028E+01 -0.18419609633E+02  0.72461574143E+02  0.70000005013E+02 0.  0.
        -12    1    1    2    0    0 -0.20245803823E+00  0.33698690028E+01  0.18419609633E+02  0.18726425857E+02  0.00000000000E+00 0.  1.
         11    1    3    3    0    0  0.17288562317E+01 -0.23490500069E+02 -0.25772432537E+02  0.34914335401E+02  0.51100000000E-03 0. -1.
        -11    1    3    3    0    0  0.89883667355E+01  0.30514476980E+01 -0.79056763579E+01  0.12353209646E+02  0.51100000000E-03 0.  1.
        -12    1    3    3    0    0 -0.10514764929E+02  0.17069183368E+02  0.15258499261E+02  0.25194029096E+02  0.00000000000E+00 0.  1.
</event>
<event>
 7    1  0.2641045E-013  0.7246160E+02  0.7816164E-02  0.1226708E+00
        -11   -1    0    0    0    0  0.00000000000E+00  0.00000000000E+00  0.45593999997E+02  0.45594000000E+02  0.51100000000E-03 0.  1.
         11   -1    0    0    0    0 -0.00000000000E+00 -0.00000000000E+00 -0.45593999997E+02  0.45594000000E+02  0.51100000000E-03 0. -1.
    9900012    2    1    2    0    0 -0.12178491403E+02  0.43286097759E+01 -0.13550851292E+02  0.72461599219E+02  0.70000037680E+02 0.  0.
        -12    1    1    2    0    0  0.12178491403E+02 -0.43286097759E+01  0.13550851292E+02  0.18726400781E+02  0.00000000000E+00 0.  1.
         11    1    3    3    0    0  0.17911903623E+02  0.16221198282E+01  0.76971421428E+01  0.19563066262E+02  0.51100000000E-03 0. -1.
        -11    1    3    3    0    0  0.18963044426E+01 -0.56033549638E+01  0.71817439795E+01  0.93043540473E+01  0.51100000000E-03 0.  1.
        -12    1    3    3    0    0 -0.31986699469E+02  0.83098449115E+01 -0.28429737415E+02  0.43594178910E+02  0.00000000000E+00 0.  1.
</event>
<event>
 7    1  0.2641045E-013  0.7246167E+02  0.7816164E-02  0.1226708E+00
        -11   -1    0    0    0    0  0.00000000000E+00  0.00000000000E+00  0.45593999997E+02  0.45594000000E+02  0.51100000000E-03 0.  1.
         11   -1    0    0    0    0 -0.00000000000E+00 -0.00000000000E+00 -0.45593999997E+02  0.45594000000E+02  0.51100000000E-03 0. -1.
    9900012    2    1    2    0    0 -0.17230073176E+02 -0.62983985633E+01  0.37589976384E+01  0.72461673362E+02  0.70000134264E+02 0.  0.
        -12    1    1    2    0    0  0.17230073176E+02  0.62983985633E+01 -0.37589976384E+01  0.18726326638E+02  0.00000000000E+00 0.  1.
         11    1    3    3    0    0  0.95960266140E+01  0.17417774655E+02  0.28237588375E+01  0.20085721669E+02  0.51100000000E-03 0. -1.
        -11    1    3    3    0    0 -0.43146740294E+01  0.10529407873E+02  0.54269154803E+00  0.11392074285E+02  0.51100000000E-03 0.  1.
        -12    1    3    3    0    0 -0.22511425761E+02 -0.34245581091E+02  0.39254725288E+00  0.40983877408E+02  0.00000000000E+00 0.  1.
</event>
<event>
 7    1  0.2641045E-013  0.7246155E+02  0.7816164E-02  0.1226708E+00
        -11   -1    0    0    0    0  0.00000000000E+00  0.00000000000E+00  0.45593999997E+02  0.45594000000E+02  0.51100000000E-03 0. -1.
         11   -1    0    0    0    0 -0.00000000000E+00 -0.00000000000E+00 -0.45593999997E+02  0.45594000000E+02  0.51100000000E-03 0.  1.
    9900012    2    1    2    0    0 -0.13404111336E+02  0.12429328903E+02  0.40646877668E+01  0.72461545335E+02  0.69999967485E+02 0.  0.
        -12    1    1    2    0    0  0.13404111336E+02 -0.12429328903E+02 -0.40646877668E+01  0.18726454665E+02  0.00000000000E+00 0.  1.
         11    1    3    3    0    0 -0.29044214024E+02  0.47507193386E+01 -0.43541845125E+01  0.29750539920E+02  0.51100000000E-03 0. -1.
        -11    1    3    3    0    0  0.26629414638E+01 -0.26285644616E+01 -0.14192110626E+02  0.14677077796E+02  0.51100000000E-03 0.  1.
         12    1    3    3    0    0  0.12977161223E+02  0.10307174026E+02  0.22610982905E+02  0.28033927619E+02  0.00000000000E+00 0. -1.
</event>
<event>
 7    1  0.2641045E-013  0.7246157E+02  0.7816164E-02  0.1226708E+00
        -11   -1    0    0    0    0  0.00000000000E+00  0.00000000000E+00  0.45593999997E+02  0.45594000000E+02  0.51100000000E-03 0.  1.
         11   -1    0    0    0    0 -0.00000000000E+00 -0.00000000000E+00 -0.45593999997E+02  0.45594000000E+02  0.51100000000E-03 0. -1.
    9900012    2    1    2    0    0 -0.13405060899E+02  0.82257964300E+01 -0.10164643194E+02  0.72461565319E+02  0.69999993518E+02 0.  0.
        -12    1    1    2    0    0  0.13405060899E+02 -0.82257964300E+01  0.10164643194E+02  0.18726434681E+02  0.00000000000E+00 0.  1.
         11    1    3    3    0    0  0.18068938274E+00 -0.24794362611E+01 -0.72900738580E+01  0.77023003020E+01  0.51100000000E-03 0. -1.
        -11    1    3    3    0    0 -0.24642703342E+02 -0.20089995555E+02 -0.38381265748E+01  0.32025020925E+02  0.51100000000E-03 0.  1.
         12    1    3    3    0    0  0.11056953060E+02  0.30795228246E+02  0.96355723903E+00  0.32734244091E+02  0.00000000000E+00 0. -1.
</event>
<event>
 7    1  0.2641045E-013  0.7246157E+02  0.7816164E-02  0.1226708E+00
        -11   -1    0    0    0    0  0.00000000000E+00  0.00000000000E+00  0.45593999997E+02  0.45594000000E+02  0.51100000000E-03 0.  1.
         11   -1    0    0    0    0 -0.00000000000E+00 -0.00000000000E+00 -0.45593999997E+02  0.45594000000E+02  0.51100000000E-03 0. -1.
    9900012    2    1    2    0    0  0.15199043271E+02 -0.10818417466E+02 -0.16217792989E+01  0.72461568388E+02  0.69999997516E+02 0.  0.
        -12    1    1    2    0    0 -0.15199043271E+02  0.10818417466E+02  0.16217792989E+01  0.18726431612E+02  0.00000000000E+00 0.  1.
         11    1    3    3    0    0  0.13945342484E+01  0.15287187320E+02 -0.20054018463E+02  0.25254830800E+02  0.51100000000E-03 0. -1.
        -11    1    3    3    0    0  0.95100767457E+01  0.40952307761E+01  0.12324314561E+02  0.16096620902E+02  0.51100000000E-03 0.  1.
        -12    1    3    3    0    0  0.42944322769E+01 -0.30200835562E+02  0.61079246040E+01  0.31110116686E+02  0.00000000000E+00 0.  1.
</event>
<event>
 7    1  0.2641045E-013  0.7246159E+02  0.7816164E-02  0.1226708E+00
        -11   -1    0    0    0    0  0.00000000000E+00  0.00000000000E+00  0.45593999997E+02  0.45594000000E+02  0.51100000000E-03 0.  1.
         11   -1    0    0    0    0 -0.00000000000E+00 -0.00000000000E+00 -0.45593999997E+02  0.45594000000E+02  0.51100000000E-03 0. -1.
    9900012    2    1    2    0    0  0.38336799557E+01  0.28553039156E+01 -0.18106035009E+02  0.72461591744E+02  0.70000027942E+02 0.  0.
        -12    1    1    2    0    0 -0.38336799557E+01 -0.28553039156E+01  0.18106035009E+02  0.18726408256E+02  0.00000000000E+00 0.  1.
         11    1    3    3    0    0 -0.36273641158E+01  0.22184576037E+02 -0.15009431811E+02  0.27029543612E+02  0.51100000000E-03 0. -1.
        -11    1    3    3    0    0 -0.10304850238E+02  0.40092570365E+01  0.84434346253E+01  0.13912428578E+02  0.51100000000E-03 0.  1.
        -12    1    3    3    0    0  0.17765894309E+02 -0.23338529157E+02 -0.11540037823E+02  0.31519619553E+02  0.00000000000E+00 0.  1.
</event>
<event>
 7    1  0.2641045E-013  0.7246153E+02  0.7816164E-02  0.1226708E+00
        -11   -1    0    0    0    0  0.00000000000E+00  0.00000000000E+00  0.45593999997E+02  0.45594000000E+02  0.51100000000E-03 0. -1.
         11   -1    0    0    0    0 -0.00000000000E+00 -0.00000000000E+00 -0.45593999997E+02  0.45594000000E+02  0.51100000000E-03 0.  1.
    9900012    2    1    2    0    0  0.14843148307E+02  0.10562798035E+02  0.43346385476E+01  0.72461525550E+02  0.69999941712E+02 0.  0.
        -12    1    1    2    0    0 -0.14843148307E+02 -0.10562798035E+02 -0.43346385476E+01  0.18726474450E+02  0.00000000000E+00 0.  1.
         11    1    3    3    0    0  0.29808907836E+01  0.57570865380E+01  0.35819951850E+01  0.74067837174E+01  0.51100000000E-03 0. -1.
        -11    1    3    3    0    0 -0.12329785006E+02  0.26702036486E+02 -0.94083975764E+01  0.30879447793E+02  0.51100000000E-03 0.  1.
         12    1    3    3    0    0  0.24192042529E+02 -0.21896324988E+02  0.10161040939E+02  0.34175294040E+02  0.00000000000E+00 0. -1.
</event>
<event>
 7    1  0.2641045E-013  0.7246165E+02  0.7816164E-02  0.1226708E+00
        -11   -1    0    0    0    0  0.00000000000E+00  0.00000000000E+00  0.45593999997E+02  0.45594000000E+02  0.51100000000E-03 0.  1.
         11   -1    0    0    0    0 -0.00000000000E+00 -0.00000000000E+00 -0.45593999997E+02  0.45594000000E+02  0.51100000000E-03 0. -1.
    9900012    2    1    2    0    0  0.11395822836E+02 -0.89650693850E+01 -0.11850693198E+02  0.72461650210E+02  0.70000104105E+02 0.  0.
        -12    1    1    2    0    0 -0.11395822836E+02  0.89650693850E+01  0.11850693198E+02  0.18726349790E+02  0.00000000000E+00 0.  1.
         11    1    3    3    0    0  0.28704599318E+01  0.20244747961E+02 -0.19497813853E+02  0.28253391045E+02  0.51100000000E-03 0. -1.
        -11    1    3    3    0    0  0.16438615405E+01 -0.70679524943E+01  0.17553348352E+02  0.18994164153E+02  0.51100000000E-03 0.  1.
        -12    1    3    3    0    0  0.68815013639E+01 -0.22141864851E+02 -0.99062276971E+01  0.25214095013E+02  0.00000000000E+00 0.  1.
</event>
<event>
 7    1  0.2641045E-013  0.7246153E+02  0.7816164E-02  0.1226708E+00
        -11   -1    0    0    0    0  0.00000000000E+00  0.00000000000E+00  0.45593999997E+02  0.45594000000E+02  0.51100000000E-03 0.  1.
         11   -1    0    0    0    0 -0.00000000000E+00 -0.00000000000E+00 -0.45593999997E+02  0.45594000000E+02  0.51100000000E-03 0. -1.
    9900012    2    1    2    0    0  0.13148858313E+02  0.92729825754E+00 -0.13301433970E+02  0.72461534699E+02  0.69999953630E+02 0.  0.
        -12    1    1    2    0    0 -0.13148858313E+02 -0.92729825754E+00  0.13301433970E+02  0.18726465301E+02  0.00000000000E+00 0.  1.
         11    1    3    3    0    0  0.39846354539E+00 -0.29003040354E+01 -0.46092271988E+01  0.54603582598E+01  0.51100000000E-03 0. -1.
        -11    1    3    3    0    0  0.80673771068E+01  0.99320938231E+01  0.27324356606E+02  0.30171999027E+02  0.51100000000E-03 0.  1.
         12    1    3    3    0    0  0.46830176612E+01 -0.61044915302E+01 -0.36016563378E+02  0.36829177412E+02  0.00000000000E+00 0. -1.
</event>
<event>
 7    1  0.2641045E-013  0.7246161E+02  0.7816164E-02  0.1226708E+00
        -11   -1    0    0    0    0  0.00000000000E+00  0.00000000000E+00  0.45593999997E+02  0.45594000000E+02  0.51100000000E-03 0.  1.
         11   -1    0    0    0    0 -0.00000000000E+00 -0.00000000000E+00 -0.45593999997E+02  0.45594000000E+02  0.51100000000E-03 0. -1.
    9900012    2    1    2    0    0  0.84608996531E+01  0.11812806249E+02 -0.11813060663E+02  0.72461611756E+02  0.70000054012E+02 0.  0.
        -12    1    1    2    0    0 -0.84608996531E+01 -0.11812806249E+02  0.11813060663E+02  0.18726388244E+02  0.00000000000E+00 0.  1.
         11    1    3    3    0    0  0.48329577277E+00  0.72697768219E+01 -0.48325002871E+01  0.87427849756E+01  0.51100000000E-03 0. -1.
        -11    1    3    3    0    0 -0.81001953309E+01 -0.13348131596E+02 -0.27814220045E+02  0.31896968798E+02  0.51100000000E-03 0.  1.
         12    1    3    3    0    0  0.16077799211E+02  0.17891161024E+02  0.20833659669E+02  0.31821857983E+02  0.00000000000E+00 0. -1.
</event>
<event>
 7    1  0.2641045E-013  0.7246158E+02  0.7816164E-02  0.1226708E+00
        -11   -1    0    0    0    0  0.00000000000E+00  0.00000000000E+00  0.45593999997E+02  0.45594000000E+02  0.51100000000E-03 0.  1.
         11   -1    0    0    0    0 -0.00000000000E+00 -0.00000000000E+00 -0.45593999997E+02  0.45594000000E+02  0.51100000000E-03 0. -1.
    9900012    2    1    2    0    0  0.15305212220E+02 -0.66652537512E+01 -0.84854998497E+01  0.72461579190E+02  0.70000011588E+02 0.  0.
        -12    1    1    2    0    0 -0.15305212220E+02  0.66652537512E+01  0.84854998497E+01  0.18726420810E+02  0.00000000000E+00 0.  1.
         11    1    3    3    0    0  0.75960095165E+01  0.72587540471E+01 -0.51158027628E+01  0.11685902150E+02  0.51100000000E-03 0. -1.
        -11    1    3    3    0    0 -0.10875753268E+02  0.18622680841E+02 -0.80205962072E+01  0.23009046365E+02  0.51100000000E-03 0.  1.
         12    1    3    3    0    0  0.18584955971E+02 -0.32546688640E+02  0.46508991203E+01  0.37766630674E+02  0.00000000000E+00 0. -1.
</event>
<event>
 7    1  0.2641045E-013  0.7246152E+02  0.7816164E-02  0.1226708E+00
        -11   -1    0    0    0    0  0.00000000000E+00  0.00000000000E+00  0.45593999997E+02  0.45594000000E+02  0.51100000000E-03 0. -1.
         11   -1    0    0    0    0 -0.00000000000E+00 -0.00000000000E+00 -0.45593999997E+02  0.45594000000E+02  0.51100000000E-03 0.  1.
    9900012    2    1    2    0    0  0.11499688237E+02  0.12382978714E+02 -0.80684702976E+01  0.72461515964E+02  0.69999929225E+02 0.  0.
        -12    1    1    2    0    0 -0.11499688237E+02 -0.12382978714E+02  0.80684702976E+01  0.18726484036E+02  0.00000000000E+00 0.  1.
         11    1    3    3    0    0  0.23203543895E+02  0.16432737318E+02 -0.10051678310E+02  0.30157512201E+02  0.51100000000E-03 0. -1.
        -11    1    3    3    0    0  0.13185235849E+02  0.70955953050E+01  0.18883595167E+00  0.14974430754E+02  0.51100000000E-03 0.  1.
        -12    1    3    3    0    0 -0.24889091507E+02 -0.11145353908E+02  0.17943720607E+01  0.27329573010E+02  0.00000000000E+00 0.  1.
</event>
<event>
 7    1  0.2641045E-013  0.7246163E+02  0.7816164E-02  0.1226708E+00
        -11   -1    0    0    0    0  0.00000000000E+00  0.00000000000E+00  0.45593999997E+02  0.45594000000E+02  0.51100000000E-03 0.  1.
         11   -1    0    0    0    0 -0.00000000000E+00 -0.00000000000E+00 -0.45593999997E+02  0.45594000000E+02  0.51100000000E-03 0. -1.
    9900012    2    1    2    0    0 -0.11921303432E+02  0.83777675636E+00 -0.14417273029E+02  0.72461625364E+02  0.70000071739E+02 0.  0.
        -12    1    1    2    0    0  0.11921303432E+02 -0.83777675636E+00  0.14417273029E+02  0.18726374636E+02  0.00000000000E+00 0.  1.
         11    1    3    3    0    0  0.62186055597E+01 -0.22648315305E+02 -0.16454524751E+02  0.28676970312E+02  0.51100000000E-03 0. -1.
        -11    1    3    3    0    0 -0.10588443061E+02  0.79128989386E+01  0.16561805049E+02  0.21190150608E+02  0.51100000000E-03 0.  1.
        -12    1    3    3    0    0 -0.75514659311E+01  0.15573193123E+02 -0.14524553326E+02  0.22594504444E+02  0.00000000000E+00 0.  1.
</event>
<event>
 7    1  0.2641045E-013  0.7246153E+02  0.7816164E-02  0.1226708E+00
        -11   -1    0    0    0    0  0.00000000000E+00  0.00000000000E+00  0.45593999997E+02  0.45594000000E+02  0.51100000000E-03 0. -1.
         11   -1    0    0    0    0 -0.00000000000E+00 -0.00000000000E+00 -0.45593999997E+02  0.45594000000E+02  0.51100000000E-03 0.  1.
    9900012    2    1    2    0    0  0.10035183016E+02 -0.23019712970E+01 -0.15642141983E+02  0.72461532745E+02  0.69999951086E+02 0.  0.
        -12    1    1    2    0    0 -0.10035183016E+02  0.23019712970E+01  0.15642141983E+02  0.18726467255E+02  0.00000000000E+00 0.  1.
         11    1    3    3    0    0  0.13847011365E+02  0.19455348541E+01 -0.22910723975E+01  0.14169468678E+02  0.51100000000E-03 0. -1.
        -11    1    3    3    0    0  0.25147061253E+02 -0.82029726843E+01 -0.74500845369E+00  0.26461641831E+02  0.51100000000E-03 0.  1.
        -12    1    3    3    0    0 -0.28958889602E+02  0.39554665332E+01 -0.12606061132E+02  0.31830422237E+02  0.00000000000E+00 0.  1.
</event>
<event>
 7    1  0.2641045E-013  0.7246155E+02  0.7816164E-02  0.1226708E+00
        -11   -1    0    0    0    0  0.00000000000E+00  0.00000000000E+00  0.45593999997E+02  0.45594000000E+02  0.51100000000E-03 0. -1.
         11   -1    0    0    0    0 -0.00000000000E+00 -0.00000000000E+00 -0.45593999997E+02  0.45594000000E+02  0.51100000000E-03 0.  1.
    9900012    2    1    2    0    0 -0.89447203384E+01  0.73777235814E+01  0.14705142551E+02  0.72461546929E+02  0.69999969562E+02 0.  0.
        -12    1    1    2    0    0  0.89447203384E+01 -0.73777235814E+01 -0.14705142551E+02  0.18726453071E+02  0.00000000000E+00 0.  1.
         11    1    3    3    0    0  0.26484965790E+02  0.89719302184E+00  0.12718995128E+02  0.29394407725E+02  0.51100000000E-03 0. -1.
        -11    1    3    3    0    0 -0.15973277031E+02  0.14218466505E+02 -0.28593558305E+01  0.21575131167E+02  0.51100000000E-03 0.  1.
        -12    1    3    3    0    0 -0.19456409097E+02 -0.77379359458E+01  0.48455032536E+01  0.21492008037E+02  0.00000000000E+00 0.  1.
</event>
<event>
 7    1  0.2641045E-013  0.7246173E+02  0.7816164E-02  0.1226708E+00
        -11   -1    0    0    0    0  0.00000000000E+00  0.00000000000E+00  0.45593999997E+02  0.45594000000E+02  0.51100000000E-03 0.  1.
         11   -1    0    0    0    0 -0.00000000000E+00 -0.00000000000E+00 -0.45593999997E+02  0.45594000000E+02  0.51100000000E-03 0. -1.
    9900012    2    1    2    0    0 -0.49456608342E+01 -0.16138860479E+02 -0.81086797748E+01  0.72461733251E+02  0.70000212282E+02 0.  0.
        -12    1    1    2    0    0  0.49456608342E+01  0.16138860479E+02  0.81086797748E+01  0.18726266749E+02  0.00000000000E+00 0.  1.
         11    1    3    3    0    0 -0.71399127932E+01  0.42254601374E+01 -0.17858411480E+02  0.19691514135E+02  0.51100000000E-03 0. -1.
        -11    1    3    3    0    0 -0.71324530489E+01 -0.29463385264E+02 -0.74265886221E+01  0.31210850301E+02  0.51100000000E-03 0.  1.
        -12    1    3    3    0    0  0.93267050079E+01  0.90990646471E+01  0.17176320327E+02  0.21559368816E+02  0.00000000000E+00 0.  1.
</event>
<event>
 7    1  0.2641045E-013  0.7246158E+02  0.7816164E-02  0.1226708E+00
        -11   -1    0    0    0    0  0.00000000000E+00  0.00000000000E+00  0.45593999997E+02  0.45594000000E+02  0.51100000000E-03 0. -1.
         11   -1    0    0    0    0 -0.00000000000E+00 -0.00000000000E+00 -0.45593999997E+02  0.45594000000E+02  0.51100000000E-03 0.  1.
    9900012    2    1    2    0    0 -0.10912726754E+02 -0.11013106409E+02  0.10502510276E+02  0.72461579090E+02  0.70000011458E+02 0.  0.
        -12    1    1    2    0    0  0.10912726754E+02  0.11013106409E+02 -0.10502510276E+02  0.18726420910E+02  0.00000000000E+00 0.  1.
         11    1    3    3    0    0  0.10061833253E+00  0.32984898323E+01 -0.80558009870E+01  0.87055206062E+01  0.51100000000E-03 0. -1.
        -11    1    3    3    0    0  0.19530141431E+02  0.10007854007E+02  0.61996154757E+01  0.22803920681E+02  0.51100000000E-03 0.  1.
         12    1    3    3    0    0 -0.30543486518E+02 -0.24319450249E+02  0.12358695787E+02  0.40952137803E+02  0.00000000000E+00 0. -1.
</event>
<event>
 7    1  0.2641045E-013  0.7246158E+02  0.7816164E-02  0.1226708E+00
        -11   -1    0    0    0    0  0.00000000000E+00  0.00000000000E+00  0.45593999997E+02  0.45594000000E+02  0.51100000000E-03 0.  1.
         11   -1    0    0    0    0 -0.00000000000E+00 -0.00000000000E+00 -0.45593999997E+02  0.45594000000E+02  0.51100000000E-03 0. -1.
    9900012    2    1    2    0    0 -0.12164393691E+02  0.10790181370E+02 -0.92886195812E+01  0.72461576380E+02  0.70000007928E+02 0.  0.
        -12    1    1    2    0    0  0.12164393691E+02 -0.10790181370E+02  0.92886195812E+01  0.18726423620E+02  0.00000000000E+00 0.  1.
         11    1    3    3    0    0 -0.92389870081E+01 -0.68074190930E+01 -0.23036351285E+02  0.25736614315E+02  0.51100000000E-03 0. -1.
        -11    1    3    3    0    0 -0.19599304758E+02  0.41444691314E+01  0.15354693509E+02  0.25240364189E+02  0.51100000000E-03 0.  1.
         12    1    3    3    0    0  0.16673898075E+02  0.13453131331E+02 -0.16069618056E+01  0.21484597876E+02  0.00000000000E+00 0. -1.
</event>
<event>
 7    1  0.2641045E-013  0.7246150E+02  0.7816164E-02  0.1226708E+00
        -11   -1    0    0    0    0  0.00000000000E+00  0.00000000000E+00  0.45593999997E+02  0.45594000000E+02  0.51100000000E-03 0.  1.
         11   -1    0    0    0    0 -0.00000000000E+00 -0.00000000000E+00 -0.45593999997E+02  0.45594000000E+02  0.51100000000E-03 0. -1.
    9900012    2    1    2    0    0 -0.35514363904E+01 -0.15796440342E+02 -0.94096578938E+01  0.72461497668E+02  0.69999905391E+02 0.  0.
        -12    1    1    2    0    0  0.35514363904E+01  0.15796440342E+02  0.94096578938E+01  0.18726502332E+02  0.00000000000E+00 0.  1.
         11    1    3    3    0    0 -0.18972606189E+02 -0.19161376179E+02 -0.18339980743E+02  0.32610934003E+02  0.51100000000E-03 0. -1.
        -11    1    3    3    0    0  0.60490137151E+01  0.45474616558E+01 -0.13519945957E+02  0.15493834689E+02  0.51100000000E-03 0.  1.
        -12    1    3    3    0    0  0.93721560832E+01 -0.11825258185E+01  0.22450268805E+02  0.24356728976E+02  0.00000000000E+00 0.  1.
</event>
<event>
 7    1  0.2641045E-013  0.7246178E+02  0.7816164E-02  0.1226707E+00
        -11   -1    0    0    0    0  0.00000000000E+00  0.00000000000E+00  0.45593999997E+02  0.45594000000E+02  0.51100000000E-03 0.  1.
         11   -1    0    0    0    0 -0.00000000000E+00 -0.00000000000E+00 -0.45593999997E+02  0.45594000000E+02  0.51100000000E-03 0. -1.
    9900012    2    1    2    0    0  0.13847463722E+02 -0.38120971118E+01 -0.12016109106E+02  0.72461782710E+02  0.70000276711E+02 0.  0.
        -12    1    1    2    0    0 -0.13847463722E+02  0.38120971118E+01  0.12016109106E+02  0.18726217290E+02  0.00000000000E+00 0.  1.
         11    1    3    3    0    0  0.95711917359E+01 -0.13363901881E+02 -0.19291009791E+02  0.25344519008E+02  0.51100000000E-03 0. -1.
        -11    1    3    3    0    0  0.22228006883E+02 -0.48163237121E+01  0.80066258782E+01  0.24111974667E+02  0.51100000000E-03 0.  1.
         12    1    3    3    0    0 -0.17951734897E+02  0.14368128481E+02 -0.73172519281E+00  0.23005289036E+02  0.00000000000E+00 0. -1.
</event>
<event>
 7    1  0.2641045E-013  0.7246155E+02  0.7816164E-02  0.1226708E+00
        -11   -1    0    0    0    0  0.00000000000E+00  0.00000000000E+00  0.45593999997E+02  0.45594000000E+02  0.51100000000E-03 0.  1.
         11   -1    0    0    0    0 -0.00000000000E+00 -0.00000000000E+00 -0.45593999997E+02  0.45594000000E+02  0.51100000000E-03 0. -1.
    9900012    2    1    2    0    0 -0.12189711887E+02  0.11394020351E+02  0.85010111014E+01  0.72461549045E+02  0.69999972319E+02 0.  0.
        -12    1    1    2    0    0  0.12189711887E+02 -0.11394020351E+02 -0.85010111014E+01  0.18726450955E+02  0.00000000000E+00 0.  1.
         11    1    3    3    0    0 -0.36930545621E+01  0.75968300630E+01 -0.54272699014E+01  0.10040206066E+02  0.51100000000E-03 0. -1.
        -11    1    3    3    0    0 -0.39137696424E+01  0.84361081776E+01  0.37152639714E+02  0.38298879252E+02  0.51100000000E-03 0.  1.
         12    1    3    3    0    0 -0.45828876821E+01 -0.46389178899E+01 -0.23224358711E+02  0.24122463727E+02  0.00000000000E+00 0. -1.
</event>
<event>
 7    1  0.2641045E-013  0.7246151E+02  0.7816164E-02  0.1226708E+00
        -11   -1    0    0    0    0  0.00000000000E+00  0.00000000000E+00  0.45593999997E+02  0.45594000000E+02  0.51100000000E-03 0.  1.
         11   -1    0    0    0    0 -0.00000000000E+00 -0.00000000000E+00 -0.45593999997E+02  0.45594000000E+02  0.51100000000E-03 0. -1.
    9900012    2    1    2    0    0  0.61306661938E+01  0.84170779624E+01 -0.15564355018E+02  0.72461510299E+02  0.69999921845E+02 0.  0.
        -12    1    1    2    0    0 -0.61306661938E+01 -0.84170779624E+01  0.15564355018E+02  0.18726489701E+02  0.00000000000E+00 0.  1.
         11    1    3    3    0    0  0.65578031821E+01 -0.14999151994E-01 -0.67782253600E+01  0.94312961380E+01  0.51100000000E-03 0. -1.
        -11    1    3    3    0    0 -0.10672489029E+00  0.34818110305E+02 -0.11090237930E+02  0.36541833192E+02  0.51100000000E-03 0.  1.
         12    1    3    3    0    0 -0.32041209800E+00 -0.26386033190E+02  0.23041082729E+01  0.26488380969E+02  0.00000000000E+00 0. -1.
</event>
<event>
 7    1  0.2641045E-013  0.7246154E+02  0.7816164E-02  0.1226708E+00
        -11   -1    0    0    0    0  0.00000000000E+00  0.00000000000E+00  0.45593999997E+02  0.45594000000E+02  0.51100000000E-03 0.  1.
         11   -1    0    0    0    0 -0.00000000000E+00 -0.00000000000E+00 -0.45593999997E+02  0.45594000000E+02  0.51100000000E-03 0. -1.
    9900012    2    1    2    0    0  0.88646106338E+01 -0.29949582899E+01 -0.16221253501E+02  0.72461543795E+02  0.69999965480E+02 0.  0.
        -12    1    1    2    0    0 -0.88646106338E+01  0.29949582899E+01  0.16221253501E+02  0.18726456205E+02  0.00000000000E+00 0.  1.
         11    1    3    3    0    0  0.22090134261E+02  0.19159031725E+02 -0.62227681150E+01  0.29895908943E+02  0.51100000000E-03 0. -1.
        -11    1    3    3    0    0 -0.57836700087E+01  0.34793808780E+01  0.79285343566E+01  0.10412424663E+02  0.51100000000E-03 0.  1.
        -12    1    3    3    0    0 -0.74418536183E+01 -0.25633370893E+02 -0.17927019742E+02  0.32153210189E+02  0.00000000000E+00 0.  1.
</event>
<event>
 7    1  0.2641045E-013  0.7246158E+02  0.7816164E-02  0.1226708E+00
        -11   -1    0    0    0    0  0.00000000000E+00  0.00000000000E+00  0.45593999997E+02  0.45594000000E+02  0.51100000000E-03 0.  1.
         11   -1    0    0    0    0 -0.00000000000E+00 -0.00000000000E+00 -0.45593999997E+02  0.45594000000E+02  0.51100000000E-03 0. -1.
    9900012    2    1    2    0    0 -0.25824201359E+01 -0.12007190975E+02 -0.14136387097E+02  0.72461575648E+02  0.70000006974E+02 0.  0.
        -12    1    1    2    0    0  0.25824201359E+01  0.12007190975E+02  0.14136387097E+02  0.18726424352E+02  0.00000000000E+00 0.  1.
         11    1    3    3    0    0  0.29873105430E+02 -0.36295600901E+01 -0.76776623972E+00  0.30102584602E+02  0.51100000000E-03 0. -1.
        -11    1    3    3    0    0 -0.21482357627E+01 -0.25462852683E+01 -0.10899420548E+02  0.11397186236E+02  0.51100000000E-03 0.  1.
        -12    1    3    3    0    0 -0.30307289803E+02 -0.58313456166E+01 -0.24692003095E+01  0.30961804809E+02  0.00000000000E+00 0.  1.
</event>
<event>
 7    1  0.2641045E-013  0.7246158E+02  0.7816164E-02  0.1226708E+00
        -11   -1    0    0    0    0  0.00000000000E+00  0.00000000000E+00  0.45593999997E+02  0.45594000000E+02  0.51100000000E-03 0.  1.
         11   -1    0    0    0    0 -0.00000000000E+00 -0.00000000000E+00 -0.45593999997E+02  0.45594000000E+02  0.51100000000E-03 0. -1.
    9900012    2    1    2    0    0 -0.95103445796E+00 -0.17931496607E+02  0.53137361618E+01  0.72461579384E+02  0.70000011841E+02 0.  0.
        -12    1    1    2    0    0  0.95103445796E+00  0.17931496607E+02 -0.53137361618E+01  0.18726420616E+02  0.00000000000E+00 0.  1.
         11    1    3    3    0    0  0.14959294641E+01  0.57702380313E+01 -0.16765582358E+02  0.17793768683E+02  0.51100000000E-03 0. -1.
        -11    1    3    3    0    0  0.93806260751E+00  0.12649424151E+02  0.10195945104E+02  0.16274064939E+02  0.51100000000E-03 0.  1.
        -12    1    3    3    0    0 -0.33850265296E+01 -0.36351158789E+02  0.11883373415E+02  0.38393745762E+02  0.00000000000E+00 0.  1.
</event>
<event>
 7    1  0.2641045E-013  0.7246158E+02  0.7816164E-02  0.1226708E+00
        -11   -1    0    0    0    0  0.00000000000E+00  0.00000000000E+00  0.45593999997E+02  0.45594000000E+02  0.51100000000E-03 0.  1.
         11   -1    0    0    0    0 -0.00000000000E+00 -0.00000000000E+00 -0.45593999997E+02  0.45594000000E+02  0.51100000000E-03 0. -1.
    9900012    2    1    2    0    0  0.88926469607E+01  0.11505798099E+02  0.11798986180E+02  0.72461584573E+02  0.70000018601E+02 0.  0.
        -12    1    1    2    0    0 -0.88926469607E+01 -0.11505798099E+02 -0.11798986180E+02  0.18726415427E+02  0.00000000000E+00 0.  1.
         11    1    3    3    0    0  0.32478579355E+02 -0.94929210668E+01 -0.17751245273E+01  0.33883989355E+02  0.51100000000E-03 0. -1.
        -11    1    3    3    0    0 -0.68743144403E+01 -0.21448842516E+01  0.50156055127E+01  0.87757066039E+01  0.51100000000E-03 0.  1.
        -12    1    3    3    0    0 -0.16711617954E+02  0.23143603418E+02  0.85585051942E+01  0.29801888614E+02  0.00000000000E+00 0.  1.
</event>
<event>
 7    1  0.2641045E-013  0.7246158E+02  0.7816164E-02  0.1226708E+00
        -11   -1    0    0    0    0  0.00000000000E+00  0.00000000000E+00  0.45593999997E+02  0.45594000000E+02  0.51100000000E-03 0. -1.
         11   -1    0    0    0    0 -0.00000000000E+00 -0.00000000000E+00 -0.45593999997E+02  0.45594000000E+02  0.51100000000E-03 0.  1.
    9900012    2    1    2    0    0 -0.76109135857E+01  0.15646822898E+02  0.69231190004E+01  0.72461584190E+02  0.70000018101E+02 0.  0.
        -12    1    1    2    0    0  0.76109135857E+01 -0.15646822898E+02 -0.69231190004E+01  0.18726415810E+02  0.00000000000E+00 0.  1.
         11    1    3    3    0    0 -0.32692930982E+01 -0.42060674513E+01  0.32804779465E+01  0.62562621896E+01  0.51100000000E-03 0. -1.
        -11    1    3    3    0    0 -0.23100973735E+02  0.19491541841E+02 -0.19834115139E+02  0.36152002910E+02  0.51100000000E-03 0.  1.
         12    1    3    3    0    0  0.18759353247E+02  0.36134850810E+00  0.23476756193E+02  0.30053319090E+02  0.00000000000E+00 0. -1.
</event>
<event>
 7    1  0.2641045E-013  0.7246155E+02  0.7816164E-02  0.1226708E+00
        -11   -1    0    0    0    0  0.00000000000E+00  0.00000000000E+00  0.45593999997E+02  0.45594000000E+02  0.51100000000E-03 0.  1.
         11   -1    0    0    0    0 -0.00000000000E+00 -0.00000000000E+00 -0.45593999997E+02  0.45594000000E+02  0.51100000000E-03 0. -1.
    9900012    2    1    2    0    0  0.80811510697E+01 -0.14701887675E+02 -0.83204144001E+01  0.72461553471E+02  0.69999978084E+02 0.  0.
        -12    1    1    2    0    0 -0.80811510697E+01  0.14701887675E+02  0.83204144001E+01  0.18726446529E+02  0.00000000000E+00 0.  1.
         11    1    3    3    0    0 -0.84126749618E+01  0.62148179932E+01  0.70713001096E+01  0.12625385071E+02  0.51100000000E-03 0. -1.
        -11    1    3    3    0    0  0.19590210519E+01 -0.33605971774E+02  0.21878948535E+01  0.33734047882E+02  0.51100000000E-03 0.  1.
         12    1    3    3    0    0  0.14534804980E+02  0.12689266106E+02 -0.17579609363E+02  0.26102120517E+02  0.00000000000E+00 0. -1.
</event>
<event>
 7    1  0.2641045E-013  0.7246156E+02  0.7816164E-02  0.1226708E+00
        -11   -1    0    0    0    0  0.00000000000E+00  0.00000000000E+00  0.45593999997E+02  0.45594000000E+02  0.51100000000E-03 0.  1.
         11   -1    0    0    0    0 -0.00000000000E+00 -0.00000000000E+00 -0.45593999997E+02  0.45594000000E+02  0.51100000000E-03 0. -1.
    9900012    2    1    2    0    0  0.52811745498E+01 -0.14467905279E+02 -0.10652165553E+02  0.72461555630E+02  0.69999980897E+02 0.  0.
        -12    1    1    2    0    0 -0.52811745498E+01  0.14467905279E+02  0.10652165553E+02  0.18726444370E+02  0.00000000000E+00 0.  1.
         11    1    3    3    0    0  0.97905469171E+01 -0.21765168908E+02 -0.55875913446E+01  0.24511192624E+02  0.51100000000E-03 0. -1.
        -11    1    3    3    0    0 -0.22761924662E+02 -0.74656549973E+01 -0.97759492338E-01  0.23955182655E+02  0.51100000000E-03 0.  1.
        -12    1    3    3    0    0  0.18252552295E+02  0.14762918627E+02 -0.49668147161E+01  0.23995180351E+02  0.00000000000E+00 0.  1.
</event>
<event>
 7    1  0.2641045E-013  0.7246162E+02  0.7816164E-02  0.1226708E+00
        -11   -1    0    0    0    0  0.00000000000E+00  0.00000000000E+00  0.45593999997E+02  0.45594000000E+02  0.51100000000E-03 0.  1.
         11   -1    0    0    0    0 -0.00000000000E+00 -0.00000000000E+00 -0.45593999997E+02  0.45594000000E+02  0.51100000000E-03 0. -1.
    9900012    2    1    2    0    0  0.75852330405E+01 -0.16502642135E+02 -0.45611740098E+01  0.72461621117E+02  0.70000066206E+02 0.  0.
        -12    1    1    2    0    0 -0.75852330405E+01  0.16502642135E+02  0.45611740098E+01  0.18726378883E+02  0.00000000000E+00 0.  1.
         11    1    3    3    0    0 -0.44891466898E+01  0.18423119994E+01 -0.30557422160E+01  0.57344670421E+01  0.51100000000E-03 0. -1.
        -11    1    3    3    0    0 -0.16705732876E+02 -0.28236116889E+02  0.98351668968E+01  0.34250406071E+02  0.51100000000E-03 0.  1.
         12    1    3    3    0    0  0.28780112606E+02  0.98911627548E+01 -0.11340598691E+02  0.32476748004E+02  0.00000000000E+00 0. -1.
</event>
<event>
 7    1  0.2641045E-013  0.7246151E+02  0.7816164E-02  0.1226708E+00
        -11   -1    0    0    0    0  0.00000000000E+00  0.00000000000E+00  0.45593999997E+02  0.45594000000E+02  0.51100000000E-03 0. -1.
         11   -1    0    0    0    0 -0.00000000000E+00 -0.00000000000E+00 -0.45593999997E+02  0.45594000000E+02  0.51100000000E-03 0.  1.
    9900012    2    1    2    0    0  0.76247595115E+01  0.17064962316E+02 -0.11539721282E+01  0.72461506785E+02  0.69999917268E+02 0.  0.
        -12    1    1    2    0    0 -0.76247595115E+01 -0.17064962316E+02  0.11539721282E+01  0.18726493215E+02  0.00000000000E+00 0.  1.
         11    1    3    3    0    0 -0.66764497128E+01  0.15415119681E+02  0.14969014812E+02  0.22500495556E+02  0.51100000000E-03 0. -1.
        -11    1    3    3    0    0 -0.92228028471E+00 -0.20229313451E+02 -0.38335586858E+01  0.20609995053E+02  0.51100000000E-03 0.  1.
         12    1    3    3    0    0  0.15223489509E+02  0.21879156085E+02 -0.12289428254E+02  0.29351016177E+02  0.00000000000E+00 0. -1.
</event>
<event>
 7    1  0.2641045E-013  0.7246157E+02  0.7816164E-02  0.1226708E+00
        -11   -1    0    0    0    0  0.00000000000E+00  0.00000000000E+00  0.45593999997E+02  0.45594000000E+02  0.51100000000E-03 0.  1.
         11   -1    0    0    0    0 -0.00000000000E+00 -0.00000000000E+00 -0.45593999997E+02  0.45594000000E+02  0.51100000000E-03 0. -1.
    9900012    2    1    2    0    0 -0.48530529202E+01 -0.79271263822E+01 -0.16256927197E+02  0.72461571157E+02  0.70000001124E+02 0.  0.
        -12    1    1    2    0    0  0.48530529202E+01  0.79271263822E+01  0.16256927197E+02  0.18726428843E+02  0.00000000000E+00 0.  1.
         11    1    3    3    0    0 -0.43591713821E+01 -0.68611746977E+01 -0.94029516045E+01  0.12429545145E+02  0.51100000000E-03 0. -1.
        -11    1    3    3    0    0 -0.27459235606E+02  0.94430456987E+01 -0.10467240928E+02  0.30866549290E+02  0.51100000000E-03 0.  1.
        -12    1    3    3    0    0  0.26965354068E+02 -0.10508997383E+02  0.36132653357E+01  0.29165476722E+02  0.00000000000E+00 0.  1.
</event>
<event>
 7    1  0.2641045E-013  0.7246153E+02  0.7816164E-02  0.1226708E+00
        -11   -1    0    0    0    0  0.00000000000E+00  0.00000000000E+00  0.45593999997E+02  0.45594000000E+02  0.51100000000E-03 0.  1.
         11   -1    0    0    0    0 -0.00000000000E+00 -0.00000000000E+00 -0.45593999997E+02  0.45594000000E+02  0.51100000000E-03 0. -1.
    9900012    2    1    2    0    0 -0.58766217054E+00  0.14384224650E+02 -0.11976198745E+02  0.72461532047E+02  0.69999950176E+02 0.  0.
        -12    1    1    2    0    0  0.58766217054E+00 -0.14384224650E+02  0.11976198745E+02  0.18726467953E+02  0.00000000000E+00 0.  1.
         11    1    3    3    0    0 -0.14928894350E+02 -0.21073035509E+01 -0.22152971505E+02  0.26796767744E+02  0.51100000000E-03 0. -1.
        -11    1    3    3    0    0  0.22293332113E+02  0.35886229329E+01 -0.61343990166E+01  0.23398754727E+02  0.51100000000E-03 0.  1.
        -12    1    3    3    0    0 -0.79520999335E+01  0.12902905268E+02  0.16311171776E+02  0.22266009576E+02  0.00000000000E+00 0.  1.
</event>
<event>
 7    1  0.2641045E-013  0.7246160E+02  0.7816164E-02  0.1226708E+00
        -11   -1    0    0    0    0  0.00000000000E+00  0.00000000000E+00  0.45593999997E+02  0.45594000000E+02  0.51100000000E-03 0.  1.
         11   -1    0    0    0    0 -0.00000000000E+00 -0.00000000000E+00 -0.45593999997E+02  0.45594000000E+02  0.51100000000E-03 0. -1.
    9900012    2    1    2    0    0  0.11423021108E+02 -0.13047423195E+02 -0.70680452402E+01  0.72461603475E+02  0.70000043224E+02 0.  0.
        -12    1    1    2    0    0 -0.11423021108E+02  0.13047423195E+02  0.70680452402E+01  0.18726396525E+02  0.00000000000E+00 0.  1.
         11    1    3    3    0    0  0.33370281590E+01 -0.22416076671E+02 -0.26900093079E+02  0.35174298261E+02  0.51100000000E-03 0. -1.
        -11    1    3    3    0    0 -0.48565250390E+01  0.14960254495E+02  0.42901774957E+01  0.16303394530E+02  0.51100000000E-03 0.  1.
        -12    1    3    3    0    0  0.12942517988E+02 -0.55916010190E+01  0.15541870343E+02  0.20983910684E+02  0.00000000000E+00 0.  1.
</event>
<event>
 7    1  0.2641045E-013  0.7246146E+02  0.7816164E-02  0.1226708E+00
        -11   -1    0    0    0    0  0.00000000000E+00  0.00000000000E+00  0.45593999997E+02  0.45594000000E+02  0.51100000000E-03 0. -1.
         11   -1    0    0    0    0 -0.00000000000E+00 -0.00000000000E+00 -0.45593999997E+02  0.45594000000E+02  0.51100000000E-03 0.  1.
    9900012    2    1    2    0    0  0.15567131979E+02  0.41938176228E+01  0.95267910770E+01  0.72461455937E+02  0.69999851028E+02 0.  0.
        -12    1    1    2    0    0 -0.15567131979E+02 -0.41938176228E+01 -0.95267910770E+01  0.18726544063E+02  0.00000000000E+00 0.  1.
         11    1    3    3    0    0  0.10206290013E+02 -0.77331518816E+01  0.33964267649E+02  0.36297954089E+02  0.51100000000E-03 0. -1.
        -11    1    3    3    0    0  0.45608449773E+01  0.12688858084E+02 -0.19208247623E+01  0.13619764844E+02  0.51100000000E-03 0.  1.
        -12    1    3    3    0    0  0.79999698920E+00 -0.76188857925E+00 -0.22516651810E+02  0.22543737004E+02  0.00000000000E+00 0.  1.
</event>
<event>
 7    1  0.2641045E-013  0.7246225E+02  0.7816164E-02  0.1226706E+00
        -11   -1    0    0    0    0  0.00000000000E+00  0.00000000000E+00  0.45593999997E+02  0.45594000000E+02  0.51100000000E-03 0.  1.
         11   -1    0    0    0    0 -0.00000000000E+00 -0.00000000000E+00 -0.45593999997E+02  0.45594000000E+02  0.51100000000E-03 0. -1.
    9900012    2    1    2    0    0  0.17727755230E+01 -0.53735763006E+01 -0.17850368677E+02  0.72462249889E+02  0.70000885293E+02 0.  0.
        -12    1    1    2    0    0 -0.17727755230E+01  0.53735763006E+01  0.17850368677E+02  0.18725750111E+02  0.00000000000E+00 0.  1.
         11    1    3    3    0    0 -0.95473807218E+00 -0.32834351747E+01  0.14461343402E+02  0.14860111863E+02  0.51100000000E-03 0. -1.
        -11    1    3    3    0    0 -0.18128492185E+02  0.63430394483E+01 -0.12463020571E+01  0.19246548974E+02  0.51100000000E-03 0.  1.
         12    1    3    3    0    0  0.20856005780E+02 -0.84331805742E+01 -0.31065410022E+02  0.38355589052E+02  0.00000000000E+00 0. -1.
</event>
<event>
 7    1  0.2641045E-013  0.7246162E+02  0.7816164E-02  0.1226708E+00
        -11   -1    0    0    0    0  0.00000000000E+00  0.00000000000E+00  0.45593999997E+02  0.45594000000E+02  0.51100000000E-03 0. -1.
         11   -1    0    0    0    0 -0.00000000000E+00 -0.00000000000E+00 -0.45593999997E+02  0.45594000000E+02  0.51100000000E-03 0.  1.
    9900012    2    1    2    0    0 -0.27260606198E+01 -0.15706656832E+02  0.98258179071E+01  0.72461623605E+02  0.70000069447E+02 0.  0.
        -12    1    1    2    0    0  0.27260606198E+01  0.15706656832E+02 -0.98258179071E+01  0.18726376395E+02  0.00000000000E+00 0.  1.
         11    1    3    3    0    0  0.10948068595E+02 -0.11481419463E+02  0.49299516863E+01  0.16612875210E+02  0.51100000000E-03 0. -1.
        -11    1    3    3    0    0  0.14389099750E+02 -0.17711386807E+02 -0.46379757929E+01  0.23286267068E+02  0.51100000000E-03 0.  1.
         12    1    3    3    0    0 -0.28063228965E+02  0.13486149438E+02  0.95338420137E+01  0.32562481327E+02  0.00000000000E+00 0. -1.
</event>
<event>
 7    1  0.2641045E-013  0.7246151E+02  0.7816164E-02  0.1226708E+00
        -11   -1    0    0    0    0  0.00000000000E+00  0.00000000000E+00  0.45593999997E+02  0.45594000000E+02  0.51100000000E-03 0.  1.
         11   -1    0    0    0    0 -0.00000000000E+00 -0.00000000000E+00 -0.45593999997E+02  0.45594000000E+02  0.51100000000E-03 0. -1.
    9900012    2    1    2    0    0 -0.16490279081E+02 -0.77850042572E+00 -0.88400236327E+01  0.72461511143E+02  0.69999922945E+02 0.  0.
        -12    1    1    2    0    0  0.16490279081E+02  0.77850042572E+00  0.88400236327E+01  0.18726488857E+02  0.00000000000E+00 0.  1.
         11    1    3    3    0    0 -0.30220179538E+02 -0.19994711583E+02 -0.12240460347E+01  0.36256668788E+02  0.51100000000E-03 0. -1.
        -11    1    3    3    0    0  0.12737182011E+02 -0.25310625576E+01  0.43603596401E+00  0.12993544970E+02  0.51100000000E-03 0.  1.
        -12    1    3    3    0    0  0.99271844672E+00  0.21747273715E+02 -0.80520135621E+01  0.23211297386E+02  0.00000000000E+00 0.  1.
</event>
<event>
 7    1  0.2641045E-013  0.7246153E+02  0.7816164E-02  0.1226708E+00
        -11   -1    0    0    0    0  0.00000000000E+00  0.00000000000E+00  0.45593999997E+02  0.45594000000E+02  0.51100000000E-03 0. -1.
         11   -1    0    0    0    0 -0.00000000000E+00 -0.00000000000E+00 -0.45593999997E+02  0.45594000000E+02  0.51100000000E-03 0.  1.
    9900012    2    1    2    0    0  0.99914373952E+01  0.13441596394E+02  0.83770664214E+01  0.72461532723E+02  0.69999951056E+02 0.  0.
        -12    1    1    2    0    0 -0.99914373952E+01 -0.13441596394E+02 -0.83770664214E+01  0.18726467277E+02  0.00000000000E+00 0.  1.
         11    1    3    3    0    0  0.12698292534E+02  0.11889038556E+02  0.15842826539E+02  0.23528515127E+02  0.51100000000E-03 0. -1.
        -11    1    3    3    0    0  0.30966377286E+01  0.13533027300E+02  0.16472423540E+02  0.21542347381E+02  0.51100000000E-03 0.  1.
        -12    1    3    3    0    0 -0.58034928676E+01 -0.11980469462E+02 -0.23938183658E+02  0.27390670215E+02  0.00000000000E+00 0.  1.
</event>
<event>
 7    1  0.2641045E-013  0.7246159E+02  0.7816164E-02  0.1226708E+00
        -11   -1    0    0    0    0  0.00000000000E+00  0.00000000000E+00  0.45593999997E+02  0.45594000000E+02  0.51100000000E-03 0.  1.
         11   -1    0    0    0    0 -0.00000000000E+00 -0.00000000000E+00 -0.45593999997E+02  0.45594000000E+02  0.51100000000E-03 0. -1.
    9900012    2    1    2    0    0  0.96150089525E+01  0.64891441946E+01 -0.14701059591E+02  0.72461587032E+02  0.70000021804E+02 0.  0.
        -12    1    1    2    0    0 -0.96150089525E+01 -0.64891441946E+01  0.14701059591E+02  0.18726412968E+02  0.00000000000E+00 0.  1.
         11    1    3    3    0    0 -0.37766429923E+01 -0.10443166863E+02 -0.97937854731E+01  0.14806789003E+02  0.51100000000E-03 0. -1.
        -11    1    3    3    0    0 -0.17715657075E+02 -0.23257322573E+01  0.69850637952E+01  0.19184489897E+02  0.51100000000E-03 0.  1.
        -12    1    3    3    0    0  0.31107309020E+02  0.19258043315E+02 -0.11892337913E+02  0.38470308132E+02  0.00000000000E+00 0.  1.
</event>
<event>
 7    1  0.2641045E-013  0.7246157E+02  0.7816164E-02  0.1226708E+00
        -11   -1    0    0    0    0  0.00000000000E+00  0.00000000000E+00  0.45593999997E+02  0.45594000000E+02  0.51100000000E-03 0. -1.
         11   -1    0    0    0    0 -0.00000000000E+00 -0.00000000000E+00 -0.45593999997E+02  0.45594000000E+02  0.51100000000E-03 0.  1.
    9900012    2    1    2    0    0  0.14561211917E+02 -0.11771952417E+02  0.26724664533E+00  0.72461570095E+02  0.69999999740E+02 0.  0.
        -12    1    1    2    0    0 -0.14561211917E+02  0.11771952417E+02 -0.26724664533E+00  0.18726429905E+02  0.00000000000E+00 0.  1.
         11    1    3    3    0    0 -0.51501820141E+01  0.14153225000E+01 -0.90362000127E+01  0.10496686310E+02  0.51100000000E-03 0. -1.
        -11    1    3    3    0    0  0.12618534516E+02  0.21719630717E+02  0.78417048351E+01  0.26314674742E+02  0.51100000000E-03 0.  1.
         12    1    3    3    0    0  0.70928594152E+01 -0.34906905634E+02  0.14617418229E+01  0.35650209043E+02  0.00000000000E+00 0. -1.
</event>
<event>
 7    1  0.2641045E-013  0.7246151E+02  0.7816164E-02  0.1226708E+00
        -11   -1    0    0    0    0  0.00000000000E+00  0.00000000000E+00  0.45593999997E+02  0.45594000000E+02  0.51100000000E-03 0.  1.
         11   -1    0    0    0    0 -0.00000000000E+00 -0.00000000000E+00 -0.45593999997E+02  0.45594000000E+02  0.51100000000E-03 0. -1.
    9900012    2    1    2    0    0 -0.17937049312E+02  0.34856011876E+01  0.40980758570E+01  0.72461511290E+02  0.69999923136E+02 0.  0.
        -12    1    1    2    0    0  0.17937049312E+02 -0.34856011876E+01 -0.40980758570E+01  0.18726488710E+02  0.00000000000E+00 0.  1.
         11    1    3    3    0    0 -0.28373927642E+02 -0.92352558911E+01 -0.13645682484E+02  0.32811192784E+02  0.51100000000E-03 0. -1.
        -11    1    3    3    0    0 -0.98823442046E+01  0.59553102690E+01 -0.45390273574E+00  0.11546968231E+02  0.51100000000E-03 0.  1.
        -12    1    3    3    0    0  0.20319222534E+02  0.67655468097E+01  0.18197661076E+02  0.28103350275E+02  0.00000000000E+00 0.  1.
</event>
<event>
 7    1  0.2641045E-013  0.7246159E+02  0.7816164E-02  0.1226708E+00
        -11   -1    0    0    0    0  0.00000000000E+00  0.00000000000E+00  0.45593999997E+02  0.45594000000E+02  0.51100000000E-03 0.  1.
         11   -1    0    0    0    0 -0.00000000000E+00 -0.00000000000E+00 -0.45593999997E+02  0.45594000000E+02  0.51100000000E-03 0. -1.
    9900012    2    1    2    0    0 -0.20077219560E+01  0.45638662025E+01 -0.18050448502E+02  0.72461587816E+02  0.70000022825E+02 0.  0.
        -12    1    1    2    0    0  0.20077219560E+01 -0.45638662025E+01  0.18050448502E+02  0.18726412184E+02  0.00000000000E+00 0.  1.
         11    1    3    3    0    0 -0.18338760157E+02 -0.37022670221E+01 -0.15905530388E+02  0.24556115377E+02  0.51100000000E-03 0. -1.
        -11    1    3    3    0    0 -0.85828125533E+01 -0.81381394757E+01  0.10203870522E+02  0.15620914164E+02  0.51100000000E-03 0.  1.
        -12    1    3    3    0    0  0.24913850754E+02  0.16404272700E+02 -0.12348788635E+02  0.32284558275E+02  0.00000000000E+00 0.  1.
</event>
<event>
 7    1  0.2641045E-013  0.7246142E+02  0.7816164E-02  0.1226708E+00
        -11   -1    0    0    0    0  0.00000000000E+00  0.00000000000E+00  0.45593999997E+02  0.45594000000E+02  0.51100000000E-03 0. -1.
         11   -1    0    0    0    0 -0.00000000000E+00 -0.00000000000E+00 -0.45593999997E+02  0.45594000000E+02  0.51100000000E-03 0.  1.
    9900012    2    1    2    0    0 -0.12004943809E+02  0.13638054903E+02 -0.45353598174E+01  0.72461422468E+02  0.69999807428E+02 0.  0.
        -12    1    1    2    0    0  0.12004943809E+02 -0.13638054903E+02  0.45353598174E+01  0.18726577532E+02  0.00000000000E+00 0.  1.
         11    1    3    3    0    0  0.16272520139E+02 -0.92768536717E+01  0.78087621592E+00  0.18747391649E+02  0.51100000000E-03 0. -1.
        -11    1    3    3    0    0 -0.74374062568E+01 -0.45618903706E+00 -0.18343410051E+02  0.19799086162E+02  0.51100000000E-03 0.  1.
         12    1    3    3    0    0 -0.20840057691E+02  0.23371097612E+02  0.13027174018E+02  0.33914944657E+02  0.00000000000E+00 0. -1.
</event>
<event>
 7    1  0.2641045E-013  0.7246159E+02  0.7816164E-02  0.1226708E+00
        -11   -1    0    0    0    0  0.00000000000E+00  0.00000000000E+00  0.45593999997E+02  0.45594000000E+02  0.51100000000E-03 0.  1.
         11   -1    0    0    0    0 -0.00000000000E+00 -0.00000000000E+00 -0.45593999997E+02  0.45594000000E+02  0.51100000000E-03 0. -1.
    9900012    2    1    2    0    0  0.14718932416E+02 -0.65592000745E+01 -0.95398298735E+01  0.72461590010E+02  0.70000025683E+02 0.  0.
        -12    1    1    2    0    0 -0.14718932416E+02  0.65592000745E+01  0.95398298735E+01  0.18726409990E+02  0.00000000000E+00 0.  1.
         11    1    3    3    0    0 -0.89214398455E+01 -0.96404581225E+01  0.64837083969E+01  0.14648173830E+02  0.51100000000E-03 0. -1.
        -11    1    3    3    0    0 -0.83218089221E+01  0.12963228891E+02  0.72841574710E+01  0.17039857903E+02  0.51100000000E-03 0.  1.
         12    1    3    3    0    0  0.31962181184E+02 -0.98819708432E+01 -0.23307695741E+02  0.40773558277E+02  0.00000000000E+00 0. -1.
</event>
<event>
 7    1  0.2641045E-013  0.7246158E+02  0.7816164E-02  0.1226708E+00
        -11   -1    0    0    0    0  0.00000000000E+00  0.00000000000E+00  0.45593999997E+02  0.45594000000E+02  0.51100000000E-03 0.  1.
         11   -1    0    0    0    0 -0.00000000000E+00 -0.00000000000E+00 -0.45593999997E+02  0.45594000000E+02  0.51100000000E-03 0. -1.
    9900012    2    1    2    0    0 -0.99676965991E+01 -0.58499783528E+01 -0.14734362384E+02  0.72461583976E+02  0.70000017823E+02 0.  0.
        -12    1    1    2    0    0  0.99676965991E+01  0.58499783528E+01  0.14734362384E+02  0.18726416024E+02  0.00000000000E+00 0.  1.
         11    1    3    3    0    0 -0.78234344841E+01 -0.24079919863E+01  0.19395276988E+02  0.21051872179E+02  0.51100000000E-03 0. -1.
        -11    1    3    3    0    0  0.84637021290E+01 -0.36140764981E+01  0.52710397210E+01  0.10605642963E+02  0.51100000000E-03 0.  1.
        -12    1    3    3    0    0 -0.10607964244E+02  0.17209013159E+00 -0.39400679093E+02  0.40804068834E+02  0.00000000000E+00 0.  1.
</event>
<event>
 7    1  0.2641045E-013  0.7246131E+02  0.7816164E-02  0.1226709E+00
        -11   -1    0    0    0    0  0.00000000000E+00  0.00000000000E+00  0.45593999997E+02  0.45594000000E+02  0.51100000000E-03 0. -1.
         11   -1    0    0    0    0 -0.00000000000E+00 -0.00000000000E+00 -0.45593999997E+02  0.45594000000E+02  0.51100000000E-03 0.  1.
    9900012    2    1    2    0    0 -0.18126721980E+02  0.28159959863E+01  0.37657560805E+01  0.72461313107E+02  0.69999664965E+02 0.  0.
        -12    1    1    2    0    0  0.18126721980E+02 -0.28159959863E+01 -0.37657560805E+01  0.18726686893E+02  0.00000000000E+00 0.  1.
         11    1    3    3    0    0 -0.15373472357E+02  0.34252656703E+01  0.30316650434E+01  0.16039547700E+02  0.51100000000E-03 0. -1.
        -11    1    3    3    0    0  0.15629150607E+02  0.22004626491E+02 -0.24717402867E+01  0.27103199737E+02  0.51100000000E-03 0.  1.
         12    1    3    3    0    0 -0.18382400230E+02 -0.22613896175E+02  0.32058313237E+01  0.29318565669E+02  0.00000000000E+00 0. -1.
</event>
<event>
 7    1  0.2641045E-013  0.7246157E+02  0.7816164E-02  0.1226708E+00
        -11   -1    0    0    0    0  0.00000000000E+00  0.00000000000E+00  0.45593999997E+02  0.45594000000E+02  0.51100000000E-03 0.  1.
         11   -1    0    0    0    0 -0.00000000000E+00 -0.00000000000E+00 -0.45593999997E+02  0.45594000000E+02  0.51100000000E-03 0. -1.
    9900012    2    1    2    0    0  0.10247794647E+02  0.63019778524E+01 -0.14350849861E+02  0.72461571838E+02  0.70000002011E+02 0.  0.
        -12    1    1    2    0    0 -0.10247794647E+02 -0.63019778524E+01  0.14350849861E+02  0.18726428162E+02  0.00000000000E+00 0.  1.
         11    1    3    3    0    0  0.23177907602E+02  0.17220611438E+02 -0.11360429416E+02  0.31029408887E+02  0.51100000000E-03 0. -1.
        -11    1    3    3    0    0  0.79518154933E+01  0.85215453661E+01  0.35066731765E+01  0.12171477400E+02  0.51100000000E-03 0.  1.
        -12    1    3    3    0    0 -0.20881928449E+02 -0.19440178951E+02 -0.64970936211E+01  0.29260685551E+02  0.00000000000E+00 0.  1.
</event>
<event>
 7    1  0.2641045E-013  0.7246157E+02  0.7816164E-02  0.1226708E+00
        -11   -1    0    0    0    0  0.00000000000E+00  0.00000000000E+00  0.45593999997E+02  0.45594000000E+02  0.51100000000E-03 0. -1.
         11   -1    0    0    0    0 -0.00000000000E+00 -0.00000000000E+00 -0.45593999997E+02  0.45594000000E+02  0.51100000000E-03 0.  1.
    9900012    2    1    2    0    0  0.14806970977E+02  0.11442958575E+02  0.70094657960E+00  0.72461574378E+02  0.70000005320E+02 0.  0.
        -12    1    1    2    0    0 -0.14806970977E+02 -0.11442958575E+02 -0.70094657960E+00  0.18726425622E+02  0.00000000000E+00 0.  1.
         11    1    3    3    0    0 -0.17252407092E+02  0.63195450999E+01  0.17198828689E+01  0.18453731278E+02  0.51100000000E-03 0. -1.
        -11    1    3    3    0    0  0.92951933444E+01 -0.17474145986E+02  0.69142904121E+01  0.20965538615E+02  0.51100000000E-03 0.  1.
        -12    1    3    3    0    0  0.22764184725E+02  0.22597559461E+02 -0.79332267013E+01  0.33042304485E+02  0.00000000000E+00 0.  1.
</event>
<event>
 7    1  0.2641045E-013  0.7246155E+02  0.7816164E-02  0.1226708E+00
        -11   -1    0    0    0    0  0.00000000000E+00  0.00000000000E+00  0.45593999997E+02  0.45594000000E+02  0.51100000000E-03 0.  1.
         11   -1    0    0    0    0 -0.00000000000E+00 -0.00000000000E+00 -0.45593999997E+02  0.45594000000E+02  0.51100000000E-03 0. -1.
    9900012    2    1    2    0    0  0.39740269440E+01 -0.50853589080E+01 -0.17579144677E+02  0.72461545639E+02  0.69999967881E+02 0.  0.
        -12    1    1    2    0    0 -0.39740269440E+01  0.50853589080E+01  0.17579144677E+02  0.18726454361E+02  0.00000000000E+00 0.  1.
         11    1    3    3    0    0 -0.52563689862E+01 -0.45718531755E+01 -0.18138660111E+02  0.19430446399E+02  0.51100000000E-03 0. -1.
        -11    1    3    3    0    0  0.13448988679E+01  0.25208418869E+02  0.50803573798E+01  0.25750401283E+02  0.51100000000E-03 0.  1.
         12    1    3    3    0    0  0.78854970623E+01 -0.25721924602E+02 -0.45208419462E+01  0.27280697957E+02  0.00000000000E+00 0. -1.
</event>
<event>
 7    1  0.2641045E-013  0.7246162E+02  0.7816164E-02  0.1226708E+00
        -11   -1    0    0    0    0  0.00000000000E+00  0.00000000000E+00  0.45593999997E+02  0.45594000000E+02  0.51100000000E-03 0.  1.
         11   -1    0    0    0    0 -0.00000000000E+00 -0.00000000000E+00 -0.45593999997E+02  0.45594000000E+02  0.51100000000E-03 0. -1.
    9900012    2    1    2    0    0  0.57333466570E+01 -0.17802807829E+02  0.93071532186E+00  0.72461615899E+02  0.70000059409E+02 0.  0.
        -12    1    1    2    0    0 -0.57333466570E+01  0.17802807829E+02 -0.93071532186E+00  0.18726384101E+02  0.00000000000E+00 0.  1.
         11    1    3    3    0    0 -0.96058697884E+01  0.75901845761E+00  0.12593330395E+02  0.15856885385E+02  0.51100000000E-03 0. -1.
        -11    1    3    3    0    0 -0.17098388309E+02  0.17943199894E+00 -0.82549020040E+01  0.18987640347E+02  0.51100000000E-03 0.  1.
         12    1    3    3    0    0  0.32437604754E+02 -0.18741258285E+02 -0.34077130692E+01  0.37617090167E+02  0.00000000000E+00 0. -1.
</event>
<event>
 7    1  0.2641045E-013  0.7246155E+02  0.7816164E-02  0.1226708E+00
        -11   -1    0    0    0    0  0.00000000000E+00  0.00000000000E+00  0.45593999997E+02  0.45594000000E+02  0.51100000000E-03 0.  1.
         11   -1    0    0    0    0 -0.00000000000E+00 -0.00000000000E+00 -0.45593999997E+02  0.45594000000E+02  0.51100000000E-03 0. -1.
    9900012    2    1    2    0    0 -0.94660573687E+00  0.10367024517E+02 -0.15566268732E+02  0.72461548601E+02  0.69999971741E+02 0.  0.
        -12    1    1    2    0    0  0.94660573687E+00 -0.10367024517E+02  0.15566268732E+02  0.18726451399E+02  0.00000000000E+00 0.  1.
         11    1    3    3    0    0  0.19178686596E+02  0.78290285370E+01 -0.26365427997E+02  0.33529859843E+02  0.51100000000E-03 0. -1.
        -11    1    3    3    0    0  0.53445011886E+00 -0.57783999070E+01 -0.79340525839E+01  0.98297880486E+01  0.51100000000E-03 0.  1.
        -12    1    3    3    0    0 -0.20659742451E+02  0.83163958870E+01  0.18733211850E+02  0.29101900709E+02  0.00000000000E+00 0.  1.
</event>
<event>
 7    1  0.2641045E-013  0.7246159E+02  0.7816164E-02  0.1226708E+00
        -11   -1    0    0    0    0  0.00000000000E+00  0.00000000000E+00  0.45593999997E+02  0.45594000000E+02  0.51100000000E-03 0.  1.
         11   -1    0    0    0    0 -0.00000000000E+00 -0.00000000000E+00 -0.45593999997E+02  0.45594000000E+02  0.51100000000E-03 0. -1.
    9900012    2    1    2    0    0 -0.11870821538E+01 -0.16296754940E+02 -0.91479488358E+01  0.72461592081E+02  0.70000028382E+02 0.  0.
        -12    1    1    2    0    0  0.11870821538E+01  0.16296754940E+02  0.91479488358E+01  0.18726407919E+02  0.00000000000E+00 0.  1.
         11    1    3    3    0    0 -0.24913294169E+02 -0.10311761374E+02  0.16390665921E+02  0.31554058036E+02  0.51100000000E-03 0. -1.
        -11    1    3    3    0    0 -0.17984755702E+01 -0.61736035756E+01 -0.50316336458E+01  0.81648780084E+01  0.51100000000E-03 0.  1.
        -12    1    3    3    0    0  0.25524687585E+02  0.18861000878E+00 -0.20506981111E+02  0.32742656037E+02  0.00000000000E+00 0.  1.
</event>
<event>
 7    1  0.2641045E-013  0.7246157E+02  0.7816164E-02  0.1226708E+00
        -11   -1    0    0    0    0  0.00000000000E+00  0.00000000000E+00  0.45593999997E+02  0.45594000000E+02  0.51100000000E-03 0.  1.
         11   -1    0    0    0    0 -0.00000000000E+00 -0.00000000000E+00 -0.45593999997E+02  0.45594000000E+02  0.51100000000E-03 0. -1.
    9900012    2    1    2    0    0 -0.10584622551E+02 -0.51601978625E+01 -0.14560812764E+02  0.72461570952E+02  0.70000000857E+02 0.  0.
        -12    1    1    2    0    0  0.10584622551E+02  0.51601978625E+01  0.14560812764E+02  0.18726429048E+02  0.00000000000E+00 0.  1.
         11    1    3    3    0    0 -0.18339978822E+02  0.23053013032E+02  0.98133827024E+01  0.31049939024E+02  0.51100000000E-03 0. -1.
        -11    1    3    3    0    0  0.10852532977E+02 -0.15299099225E+02 -0.81667166201E+01  0.20458132118E+02  0.51100000000E-03 0.  1.
        -12    1    3    3    0    0 -0.30971767060E+01 -0.12914111669E+02 -0.16207478847E+02  0.20953499811E+02  0.00000000000E+00 0.  1.
</event>
<event>
 7    1  0.2641045E-013  0.7246157E+02  0.7816164E-02  0.1226708E+00
        -11   -1    0    0    0    0  0.00000000000E+00  0.00000000000E+00  0.45593999997E+02  0.45594000000E+02  0.51100000000E-03 0.  1.
         11   -1    0    0    0    0 -0.00000000000E+00 -0.00000000000E+00 -0.45593999997E+02  0.45594000000E+02  0.51100000000E-03 0. -1.
    9900012    2    1    2    0    0 -0.13854297914E+02  0.11918151450E+02  0.40859907277E+01  0.72461568816E+02  0.69999998074E+02 0.  0.
        -12    1    1    2    0    0  0.13854297914E+02 -0.11918151450E+02 -0.40859907277E+01  0.18726431184E+02  0.00000000000E+00 0.  1.
         11    1    3    3    0    0 -0.38004576842E+02 -0.96610918630E+00 -0.56390245212E-01  0.38016896350E+02  0.51100000000E-03 0. -1.
        -11    1    3    3    0    0  0.16707312425E+01  0.11535889026E+02  0.19503759042E+01  0.11818292809E+02  0.51100000000E-03 0.  1.
         12    1    3    3    0    0  0.22479547686E+02  0.13483716103E+01  0.21920050687E+01  0.22626379657E+02  0.00000000000E+00 0. -1.
</event>
<event>
 7    1  0.2641045E-013  0.7246157E+02  0.7816164E-02  0.1226708E+00
        -11   -1    0    0    0    0  0.00000000000E+00  0.00000000000E+00  0.45593999997E+02  0.45594000000E+02  0.51100000000E-03 0.  1.
         11   -1    0    0    0    0 -0.00000000000E+00 -0.00000000000E+00 -0.45593999997E+02  0.45594000000E+02  0.51100000000E-03 0. -1.
    9900012    2    1    2    0    0 -0.75464611234E+00  0.18631412780E+02 -0.17263514572E+01  0.72461566215E+02  0.69999994686E+02 0.  0.
        -12    1    1    2    0    0  0.75464611234E+00 -0.18631412780E+02  0.17263514572E+01  0.18726433785E+02  0.00000000000E+00 0.  1.
         11    1    3    3    0    0 -0.24793918502E+02  0.22868876658E+02  0.10564732556E+02  0.35345968491E+02  0.51100000000E-03 0. -1.
        -11    1    3    3    0    0 -0.36773231693E+01  0.43748206124E+01 -0.38440958190E+01  0.68875854992E+01  0.51100000000E-03 0.  1.
        -12    1    3    3    0    0  0.27716595559E+02 -0.86122844907E+01 -0.84469881939E+01  0.30228012225E+02  0.00000000000E+00 0.  1.
</event>
<event>
 7    1  0.2641045E-013  0.7246093E+02  0.7816164E-02  0.1226710E+00
        -11   -1    0    0    0    0  0.00000000000E+00  0.00000000000E+00  0.45593999997E+02  0.45594000000E+02  0.51100000000E-03 0.  1.
         11   -1    0    0    0    0 -0.00000000000E+00 -0.00000000000E+00 -0.45593999997E+02  0.45594000000E+02  0.51100000000E-03 0. -1.
    9900012    2    1    2    0    0  0.17001956578E+02 -0.78175644473E+01  0.72262282901E+00  0.72460933355E+02  0.69999170263E+02 0.  0.
        -12    1    1    2    0    0 -0.17001956578E+02  0.78175644473E+01 -0.72262282901E+00  0.18727066645E+02  0.00000000000E+00 0.  1.
         11    1    3    3    0    0 -0.15279182522E+02 -0.19327154311E+02 -0.76080182953E+00  0.24648958031E+02  0.51100000000E-03 0. -1.
        -11    1    3    3    0    0  0.64703999640E+01  0.79767836050E+01  0.15219525950E+02  0.18361076296E+02  0.51100000000E-03 0.  1.
        -12    1    3    3    0    0  0.25810739137E+02  0.35328062592E+01 -0.13736101291E+02  0.29450899027E+02  0.00000000000E+00 0.  1.
</event>
<event>
 7    1  0.2641045E-013  0.7246160E+02  0.7816164E-02  0.1226708E+00
        -11   -1    0    0    0    0  0.00000000000E+00  0.00000000000E+00  0.45593999997E+02  0.45594000000E+02  0.51100000000E-03 0. -1.
         11   -1    0    0    0    0 -0.00000000000E+00 -0.00000000000E+00 -0.45593999997E+02  0.45594000000E+02  0.51100000000E-03 0.  1.
    9900012    2    1    2    0    0 -0.16058079327E+02  0.89296429142E+01 -0.36162748312E+01  0.72461604781E+02  0.70000044926E+02 0.  0.
        -12    1    1    2    0    0  0.16058079327E+02 -0.89296429142E+01  0.36162748312E+01  0.18726395219E+02  0.00000000000E+00 0.  1.
         11    1    3    3    0    0  0.46112797800E+01 -0.15424130136E+02  0.24834982460E+01  0.16289120770E+02  0.51100000000E-03 0. -1.
        -11    1    3    3    0    0 -0.10553691692E+01  0.45154468698E+01  0.18442277714E+02  0.19016326461E+02  0.51100000000E-03 0.  1.
        -12    1    3    3    0    0 -0.19613989937E+02  0.19838326180E+02 -0.24542050791E+02  0.37156157551E+02  0.00000000000E+00 0.  1.
</event>
<event>
 7    1  0.2641045E-013  0.7246155E+02  0.7816164E-02  0.1226708E+00
        -11   -1    0    0    0    0  0.00000000000E+00  0.00000000000E+00  0.45593999997E+02  0.45594000000E+02  0.51100000000E-03 0. -1.
         11   -1    0    0    0    0 -0.00000000000E+00 -0.00000000000E+00 -0.45593999997E+02  0.45594000000E+02  0.51100000000E-03 0.  1.
    9900012    2    1    2    0    0  0.11185277662E+02 -0.70822640961E+00  0.15002263306E+02  0.72461550114E+02  0.69999973712E+02 0.  0.
        -12    1    1    2    0    0 -0.11185277662E+02  0.70822640961E+00 -0.15002263306E+02  0.18726449886E+02  0.00000000000E+00 0.  1.
         11    1    3    3    0    0  0.24731068868E+02  0.94385066417E+01  0.14013184891E+01  0.26508015180E+02  0.51100000000E-03 0. -1.
        -11    1    3    3    0    0 -0.10855180927E+02  0.12448221357E+02 -0.42245638827E+01  0.17048170229E+02  0.51100000000E-03 0.  1.
         12    1    3    3    0    0 -0.26906102795E+01 -0.22594954408E+02  0.17825508699E+02  0.28905364706E+02  0.00000000000E+00 0. -1.
</event>
<event>
 7    1  0.2641045E-013  0.7246158E+02  0.7816164E-02  0.1226708E+00
        -11   -1    0    0    0    0  0.00000000000E+00  0.00000000000E+00  0.45593999997E+02  0.45594000000E+02  0.51100000000E-03 0. -1.
         11   -1    0    0    0    0 -0.00000000000E+00 -0.00000000000E+00 -0.45593999997E+02  0.45594000000E+02  0.51100000000E-03 0.  1.
    9900012    2    1    2    0    0  0.67671712324E+01  0.13978265338E+02  0.10463864133E+02  0.72461575864E+02  0.70000007255E+02 0.  0.
        -12    1    1    2    0    0 -0.67671712324E+01 -0.13978265338E+02 -0.10463864133E+02  0.18726424136E+02  0.00000000000E+00 0.  1.
         11    1    3    3    0    0 -0.12914365837E+01 -0.17764644016E+02  0.41431127961E+01  0.18287038288E+02  0.51100000000E-03 0. -1.
        -11    1    3    3    0    0  0.15480603751E+02  0.16813740933E+02 -0.14828459139E+02  0.27243975065E+02  0.51100000000E-03 0.  1.
         12    1    3    3    0    0 -0.74219959347E+01  0.14929168421E+02  0.21149210476E+02  0.26930562510E+02  0.00000000000E+00 0. -1.
</event>
<event>
 7    1  0.2641045E-013  0.7246157E+02  0.7816164E-02  0.1226708E+00
        -11   -1    0    0    0    0  0.00000000000E+00  0.00000000000E+00  0.45593999997E+02  0.45594000000E+02  0.51100000000E-03 0. -1.
         11   -1    0    0    0    0 -0.00000000000E+00 -0.00000000000E+00 -0.45593999997E+02  0.45594000000E+02  0.51100000000E-03 0.  1.
    9900012    2    1    2    0    0  0.16301439280E+01  0.39169564445E+01  0.18239502390E+02  0.72461565090E+02  0.69999993220E+02 0.  0.
        -12    1    1    2    0    0 -0.16301439280E+01 -0.39169564445E+01 -0.18239502390E+02  0.18726434910E+02  0.00000000000E+00 0.  1.
         11    1    3    3    0    0  0.27874208231E+02 -0.83016665707E+01  0.76618267150E+01  0.30076448282E+02  0.51100000000E-03 0. -1.
        -11    1    3    3    0    0  0.45914250658E+00 -0.18361041493E+01  0.12026257389E+02  0.12174274407E+02  0.51100000000E-03 0.  1.
        -12    1    3    3    0    0 -0.26703206810E+02  0.14054727165E+02 -0.14485817143E+01  0.30210842401E+02  0.00000000000E+00 0.  1.
</event>
<event>
 7    1  0.2641045E-013  0.7246163E+02  0.7816164E-02  0.1226708E+00
        -11   -1    0    0    0    0  0.00000000000E+00  0.00000000000E+00  0.45593999997E+02  0.45594000000E+02  0.51100000000E-03 0.  1.
         11   -1    0    0    0    0 -0.00000000000E+00 -0.00000000000E+00 -0.45593999997E+02  0.45594000000E+02  0.51100000000E-03 0. -1.
    9900012    2    1    2    0    0 -0.10204260384E+02  0.15302259849E+02 -0.35200670197E+01  0.72461629335E+02  0.70000076911E+02 0.  0.
        -12    1    1    2    0    0  0.10204260384E+02 -0.15302259849E+02  0.35200670197E+01  0.18726370665E+02  0.00000000000E+00 0.  1.
         11    1    3    3    0    0 -0.99362015339E+01  0.15525752229E+02 -0.47153260270E+01  0.19026596727E+02  0.51100000000E-03 0. -1.
        -11    1    3    3    0    0  0.13389810296E+02 -0.82711902858E+01 -0.20948442300E+02  0.26201848094E+02  0.51100000000E-03 0.  1.
         12    1    3    3    0    0 -0.13657869146E+02  0.80476979053E+01  0.22143701307E+02  0.27233184514E+02  0.00000000000E+00 0. -1.
</event>
<event>
 7    1  0.2641045E-013  0.7246150E+02  0.7816164E-02  0.1226708E+00
        -11   -1    0    0    0    0  0.00000000000E+00  0.00000000000E+00  0.45593999997E+02  0.45594000000E+02  0.51100000000E-03 0. -1.
         11   -1    0    0    0    0 -0.00000000000E+00 -0.00000000000E+00 -0.45593999997E+02  0.45594000000E+02  0.51100000000E-03 0.  1.
    9900012    2    1    2    0    0 -0.91065564415E+01 -0.29989132791E+01  0.16085986963E+02  0.72461499322E+02  0.69999907545E+02 0.  0.
        -12    1    1    2    0    0  0.91065564415E+01  0.29989132791E+01 -0.16085986963E+02  0.18726500678E+02  0.00000000000E+00 0.  1.
         11    1    3    3    0    0  0.17719750566E+01  0.12055134040E+02  0.21284868391E+02  0.24525736992E+02  0.51100000000E-03 0. -1.
        -11    1    3    3    0    0 -0.19491027155E+02  0.43554567954E+01  0.94941038846E+01  0.22113528716E+02  0.51100000000E-03 0.  1.
         12    1    3    3    0    0  0.86124956566E+01 -0.19409504114E+02 -0.14692985313E+02  0.25822233614E+02  0.00000000000E+00 0. -1.
</event>
<event>
 7    1  0.2641045E-013  0.7246158E+02  0.7816164E-02  0.1226708E+00
        -11   -1    0    0    0    0  0.00000000000E+00  0.00000000000E+00  0.45593999997E+02  0.45594000000E+02  0.51100000000E-03 0.  1.
         11   -1    0    0    0    0 -0.00000000000E+00 -0.00000000000E+00 -0.45593999997E+02  0.45594000000E+02  0.51100000000E-03 0. -1.
    9900012    2    1    2    0    0 -0.11554138043E+02  0.56616655776E+01 -0.13606111407E+02  0.72461579342E+02  0.70000011787E+02 0.  0.
        -12    1    1    2    0    0  0.11554138043E+02 -0.56616655776E+01  0.13606111407E+02  0.18726420658E+02  0.00000000000E+00 0.  1.
         11    1    3    3    0    0  0.38530813744E+01  0.15030188378E+02 -0.20302639670E+02  0.25552885876E+02  0.51100000000E-03 0. -1.
        -11    1    3    3    0    0  0.54460041250E+01  0.55487995499E+01  0.17451356932E+02  0.19104920738E+02  0.51100000000E-03 0.  1.
        -12    1    3    3    0    0 -0.20853223543E+02 -0.14917322351E+02 -0.10754828668E+02  0.27803772728E+02  0.00000000000E+00 0.  1.
</event>
<event>
 7    1  0.2641045E-013  0.7246158E+02  0.7816164E-02  0.1226708E+00
        -11   -1    0    0    0    0  0.00000000000E+00  0.00000000000E+00  0.45593999997E+02  0.45594000000E+02  0.51100000000E-03 0.  1.
         11   -1    0    0    0    0 -0.00000000000E+00 -0.00000000000E+00 -0.45593999997E+02  0.45594000000E+02  0.51100000000E-03 0. -1.
    9900012    2    1    2    0    0  0.11426900777E+02 -0.29075920802E+01 -0.14548215332E+02  0.72461582232E+02  0.70000015551E+02 0.  0.
        -12    1    1    2    0    0 -0.11426900777E+02  0.29075920802E+01  0.14548215332E+02  0.18726417768E+02  0.00000000000E+00 0.  1.
         11    1    3    3    0    0 -0.11084688617E+02  0.14234135516E+02 -0.30385423610E+02  0.35337726353E+02  0.51100000000E-03 0. -1.
        -11    1    3    3    0    0  0.14621690619E+01 -0.78554702905E+00 -0.37123464509E+01  0.40665143469E+01  0.51100000000E-03 0.  1.
        -12    1    3    3    0    0  0.21049420332E+02 -0.16356180567E+02  0.19549554728E+02  0.33057341532E+02  0.00000000000E+00 0.  1.
</event>
<event>
 7    1  0.2641045E-013  0.7246158E+02  0.7816164E-02  0.1226708E+00
        -11   -1    0    0    0    0  0.00000000000E+00  0.00000000000E+00  0.45593999997E+02  0.45594000000E+02  0.51100000000E-03 0.  1.
         11   -1    0    0    0    0 -0.00000000000E+00 -0.00000000000E+00 -0.45593999997E+02  0.45594000000E+02  0.51100000000E-03 0. -1.
    9900012    2    1    2    0    0 -0.44845852221E+01  0.54830016782E+01 -0.17335045658E+02  0.72461584967E+02  0.70000019114E+02 0.  0.
        -12    1    1    2    0    0  0.44845852221E+01 -0.54830016782E+01  0.17335045658E+02  0.18726415033E+02  0.00000000000E+00 0.  1.
         11    1    3    3    0    0 -0.83643588359E+01  0.19194823892E+02  0.24248062571E+00  0.20939497608E+02  0.51100000000E-03 0. -1.
        -11    1    3    3    0    0  0.60911941380E+01 -0.38311436684E+01  0.15414475065E+02  0.17011359429E+02  0.51100000000E-03 0.  1.
         12    1    3    3    0    0 -0.22114205241E+01 -0.98806785451E+01 -0.32992001349E+02  0.34510727930E+02  0.00000000000E+00 0. -1.
</event>
<event>
 7    1  0.2641045E-013  0.7246169E+02  0.7816164E-02  0.1226708E+00
        -11   -1    0    0    0    0  0.00000000000E+00  0.00000000000E+00  0.45593999997E+02  0.45594000000E+02  0.51100000000E-03 0.  1.
         11   -1    0    0    0    0 -0.00000000000E+00 -0.00000000000E+00 -0.45593999997E+02  0.45594000000E+02  0.51100000000E-03 0. -1.
    9900012    2    1    2    0    0 -0.18356211952E+02  0.24011441542E+01 -0.28211312214E+01  0.72461687180E+02  0.70000152265E+02 0.  0.
        -12    1    1    2    0    0  0.18356211952E+02 -0.24011441542E+01  0.28211312214E+01  0.18726312820E+02  0.00000000000E+00 0.  1.
         11    1    3    3    0    0  0.16309292453E+01  0.50903079011E+01  0.12385245995E+02  0.13489458230E+02  0.51100000000E-03 0. -1.
        -11    1    3    3    0    0 -0.67445464674E+01 -0.10083420466E+01  0.20100667147E+02  0.21225985978E+02  0.51100000000E-03 0.  1.
         12    1    3    3    0    0 -0.13242594730E+02 -0.16808217002E+01 -0.35307044363E+02  0.37746242971E+02  0.00000000000E+00 0. -1.
</event>
<event>
 7    1  0.2641045E-013  0.7246158E+02  0.7816164E-02  0.1226708E+00
        -11   -1    0    0    0    0  0.00000000000E+00  0.00000000000E+00  0.45593999997E+02  0.45594000000E+02  0.51100000000E-03 0. -1.
         11   -1    0    0    0    0 -0.00000000000E+00 -0.00000000000E+00 -0.45593999997E+02  0.45594000000E+02  0.51100000000E-03 0.  1.
    9900012    2    1    2    0    0  0.28249066543E+01  0.13537534971E+02  0.12626712130E+02  0.72461579896E+02  0.70000012508E+02 0.  0.
        -12    1    1    2    0    0 -0.28249066543E+01 -0.13537534971E+02 -0.12626712130E+02  0.18726420104E+02  0.00000000000E+00 0.  1.
         11    1    3    3    0    0  0.42517505956E+01  0.91125828275E+00 -0.15990413638E+01  0.46330020860E+01  0.51100000000E-03 0. -1.
        -11    1    3    3    0    0  0.27047184319E+02  0.14380684785E+02 -0.80053423537E+01  0.31661329425E+02  0.51100000000E-03 0.  1.
         12    1    3    3    0    0 -0.28474028261E+02 -0.17544080965E+01  0.22231095848E+02  0.36167248385E+02  0.00000000000E+00 0. -1.
</event>
<event>
 7    1  0.2641045E-013  0.7246158E+02  0.7816164E-02  0.1226708E+00
        -11   -1    0    0    0    0  0.00000000000E+00  0.00000000000E+00  0.45593999997E+02  0.45594000000E+02  0.51100000000E-03 0. -1.
         11   -1    0    0    0    0 -0.00000000000E+00 -0.00000000000E+00 -0.45593999997E+02  0.45594000000E+02  0.51100000000E-03 0.  1.
    9900012    2    1    2    0    0  0.26115411525E+01  0.16648785073E+02  0.81655802197E+01  0.72461577706E+02  0.70000009655E+02 0.  0.
        -12    1    1    2    0    0 -0.26115411525E+01 -0.16648785073E+02 -0.81655802197E+01  0.18726422294E+02  0.00000000000E+00 0.  1.
         11    1    3    3    0    0  0.10625615751E+02  0.99403291960E+01 -0.40020936508E+01  0.15090745789E+02  0.51100000000E-03 0. -1.
        -11    1    3    3    0    0 -0.10765991233E+02  0.29114390347E+02 -0.13288370811E+01  0.31069600910E+02  0.51100000000E-03 0.  1.
         12    1    3    3    0    0  0.27519166347E+01 -0.22405934469E+02  0.13496510952E+02  0.26301231007E+02  0.00000000000E+00 0. -1.
</event>
<event>
 7    1  0.2641045E-013  0.7246158E+02  0.7816164E-02  0.1226708E+00
        -11   -1    0    0    0    0  0.00000000000E+00  0.00000000000E+00  0.45593999997E+02  0.45594000000E+02  0.51100000000E-03 0.  1.
         11   -1    0    0    0    0 -0.00000000000E+00 -0.00000000000E+00 -0.45593999997E+02  0.45594000000E+02  0.51100000000E-03 0. -1.
    9900012    2    1    2    0    0  0.17675729398E+02  0.40867602731E+01  0.46417499199E+01  0.72461578516E+02  0.70000010710E+02 0.  0.
        -12    1    1    2    0    0 -0.17675729398E+02 -0.40867602731E+01 -0.46417499199E+01  0.18726421484E+02  0.00000000000E+00 0.  1.
         11    1    3    3    0    0  0.23433735531E+02 -0.82088935909E+01  0.33143971063E+01  0.25050172123E+02  0.51100000000E-03 0.  1.
        -11    1    3    3    0    0 -0.11590815702E+02  0.50012767583E+01  0.21640860025E+02  0.25053674396E+02  0.51100000000E-03 0. -1.
         12    1    3    3    0    0  0.58328095689E+01  0.72943771057E+01 -0.20313507212E+02  0.22357731997E+02  0.00000000000E+00 0. -1.
</event>
<event>
 7    1  0.2641045E-013  0.7246161E+02  0.7816164E-02  0.1226708E+00
        -11   -1    0    0    0    0  0.00000000000E+00  0.00000000000E+00  0.45593999997E+02  0.45594000000E+02  0.51100000000E-03 0. -1.
         11   -1    0    0    0    0 -0.00000000000E+00 -0.00000000000E+00 -0.45593999997E+02  0.45594000000E+02  0.51100000000E-03 0.  1.
    9900012    2    1    2    0    0 -0.18377312183E+02 -0.34498076444E+01 -0.10252062478E+01  0.72461606228E+02  0.70000046810E+02 0.  0.
        -12    1    1    2    0    0  0.18377312183E+02  0.34498076444E+01  0.10252062478E+01  0.18726393772E+02  0.00000000000E+00 0.  1.
         11    1    3    3    0    0  0.62126914793E+01  0.11948947274E+02  0.40987902426E+01  0.14077462772E+02  0.51100000000E-03 0. -1.
        -11    1    3    3    0    0 -0.27587291970E+02  0.85746759097E+00 -0.21597957820E+02  0.35046621965E+02  0.51100000000E-03 0.  1.
         12    1    3    3    0    0  0.29972883075E+01 -0.16256222510E+02  0.16473961329E+02  0.23337521492E+02  0.00000000000E+00 0. -1.
</event>
<event>
 7    1  0.2641045E-013  0.7246156E+02  0.7816164E-02  0.1226708E+00
        -11   -1    0    0    0    0  0.00000000000E+00  0.00000000000E+00  0.45593999997E+02  0.45594000000E+02  0.51100000000E-03 0.  1.
         11   -1    0    0    0    0 -0.00000000000E+00 -0.00000000000E+00 -0.45593999997E+02  0.45594000000E+02  0.51100000000E-03 0. -1.
    9900012    2    1    2    0    0 -0.10389727512E+02 -0.11891139418E+00 -0.15579438494E+02  0.72461561965E+02  0.69999989149E+02 0.  0.
        -12    1    1    2    0    0  0.10389727512E+02  0.11891139418E+00  0.15579438494E+02  0.18726438035E+02  0.00000000000E+00 0.  1.
         11    1    3    3    0    0 -0.11261372477E+02 -0.11888929430E+02 -0.20895577238E+02  0.26547886949E+02  0.51100000000E-03 0. -1.
        -11    1    3    3    0    0  0.19529792494E+02  0.12686043710E+02 -0.60312161424E+01  0.24056684482E+02  0.51100000000E-03 0.  1.
        -12    1    3    3    0    0 -0.18658147529E+02 -0.91602567395E+00  0.11347354887E+02  0.21856990534E+02  0.00000000000E+00 0.  1.
</event>
<event>
 7    1  0.2641045E-013  0.7246142E+02  0.7816164E-02  0.1226708E+00
        -11   -1    0    0    0    0  0.00000000000E+00  0.00000000000E+00  0.45593999997E+02  0.45594000000E+02  0.51100000000E-03 0. -1.
         11   -1    0    0    0    0 -0.00000000000E+00 -0.00000000000E+00 -0.45593999997E+02  0.45594000000E+02  0.51100000000E-03 0.  1.
    9900012    2    1    2    0    0  0.14304969055E+02 -0.14955142439E+01  0.11992340914E+02  0.72461416138E+02  0.69999799183E+02 0.  0.
        -12    1    1    2    0    0 -0.14304969055E+02  0.14955142439E+01 -0.11992340914E+02  0.18726583862E+02  0.00000000000E+00 0.  1.
         11    1    3    3    0    0 -0.21927059674E+02  0.15624936939E+02  0.76619062347E+01  0.27993560111E+02  0.51100000000E-03 0. -1.
        -11    1    3    3    0    0  0.63554954806E+00 -0.49656053305E+01 -0.34204994242E+01  0.60630830522E+01  0.51100000000E-03 0.  1.
        -12    1    3    3    0    0  0.35596479181E+02 -0.12154845853E+02  0.77509341033E+01  0.38404772975E+02  0.00000000000E+00 0.  1.
</event>
<event>
 7    1  0.2641045E-013  0.7246156E+02  0.7816164E-02  0.1226708E+00
        -11   -1    0    0    0    0  0.00000000000E+00  0.00000000000E+00  0.45593999997E+02  0.45594000000E+02  0.51100000000E-03 0.  1.
         11   -1    0    0    0    0 -0.00000000000E+00 -0.00000000000E+00 -0.45593999997E+02  0.45594000000E+02  0.51100000000E-03 0. -1.
    9900012    2    1    2    0    0 -0.57255559624E+01  0.13305911390E+02 -0.11868032139E+02  0.72461562650E+02  0.69999990042E+02 0.  0.
        -12    1    1    2    0    0  0.57255559624E+01 -0.13305911390E+02  0.11868032139E+02  0.18726437350E+02  0.00000000000E+00 0.  1.
         11    1    3    3    0    0 -0.14148344534E+02  0.54392890151E+01  0.11837432278E+02  0.19232428896E+02  0.51100000000E-03 0. -1.
        -11    1    3    3    0    0 -0.17186461142E+02  0.99425954838E+01 -0.26914937786E+01  0.20036810888E+02  0.51100000000E-03 0.  1.
         12    1    3    3    0    0  0.25609249714E+02 -0.20759731091E+01 -0.21013970638E+02  0.33192322866E+02  0.00000000000E+00 0. -1.
</event>
<event>
 7    1  0.2641045E-013  0.7246159E+02  0.7816164E-02  0.1226708E+00
        -11   -1    0    0    0    0  0.00000000000E+00  0.00000000000E+00  0.45593999997E+02  0.45594000000E+02  0.51100000000E-03 0. -1.
         11   -1    0    0    0    0 -0.00000000000E+00 -0.00000000000E+00 -0.45593999997E+02  0.45594000000E+02  0.51100000000E-03 0.  1.
    9900012    2    1    2    0    0  0.44469719890E+01 -0.18190036630E+02  0.15906543463E+00  0.72461593664E+02  0.70000030443E+02 0.  0.
        -12    1    1    2    0    0 -0.44469719890E+01  0.18190036630E+02 -0.15906543463E+00  0.18726406336E+02  0.00000000000E+00 0.  1.
         11    1    3    3    0    0 -0.16785328727E+02  0.83658996418E+01  0.96621250539E+01  0.21097208301E+02  0.51100000000E-03 0. -1.
        -11    1    3    3    0    0  0.18541528639E+02 -0.85400963482E+01  0.11606068070E+02  0.23482383743E+02  0.51100000000E-03 0.  1.
        -12    1    3    3    0    0  0.26907720763E+01 -0.18015839923E+02 -0.21109127690E+02  0.27882001620E+02  0.00000000000E+00 0.  1.
</event>
<event>
 7    1  0.2641045E-013  0.7246156E+02  0.7816164E-02  0.1226708E+00
        -11   -1    0    0    0    0  0.00000000000E+00  0.00000000000E+00  0.45593999997E+02  0.45594000000E+02  0.51100000000E-03 0.  1.
         11   -1    0    0    0    0 -0.00000000000E+00 -0.00000000000E+00 -0.45593999997E+02  0.45594000000E+02  0.51100000000E-03 0. -1.
    9900012    2    1    2    0    0  0.17794515949E+02 -0.57769479072E+01 -0.81341487444E+00  0.72461559635E+02  0.69999986115E+02 0.  0.
        -12    1    1    2    0    0 -0.17794515949E+02  0.57769479072E+01  0.81341487444E+00  0.18726440365E+02  0.00000000000E+00 0.  1.
         11    1    3    3    0    0  0.50990681204E+01 -0.33419267573E+01 -0.89742111249E+01  0.10849213599E+02  0.51100000000E-03 0. -1.
        -11    1    3    3    0    0 -0.17306474017E+02 -0.98183188690E+01 -0.13353189315E+02  0.23962910788E+02  0.51100000000E-03 0.  1.
         12    1    3    3    0    0  0.30001921845E+02  0.73832977191E+01  0.21513985565E+02  0.37649435248E+02  0.00000000000E+00 0. -1.
</event>
<event>
 7    1  0.2641045E-013  0.7246151E+02  0.7816164E-02  0.1226708E+00
        -11   -1    0    0    0    0  0.00000000000E+00  0.00000000000E+00  0.45593999997E+02  0.45594000000E+02  0.51100000000E-03 0.  1.
         11   -1    0    0    0    0 -0.00000000000E+00 -0.00000000000E+00 -0.45593999997E+02  0.45594000000E+02  0.51100000000E-03 0. -1.
    9900012    2    1    2    0    0  0.92063420028E+00  0.18498126621E+02 -0.27664586607E+01  0.72461506753E+02  0.69999917225E+02 0.  0.
        -12    1    1    2    0    0 -0.92063420028E+00 -0.18498126621E+02  0.27664586607E+01  0.18726493247E+02  0.00000000000E+00 0.  1.
         11    1    3    3    0    0 -0.22435387764E+01  0.40375731132E+02 -0.85721119931E+01  0.41336596799E+02  0.51100000000E-03 0. -1.
        -11    1    3    3    0    0  0.11997119144E+01  0.41591815958E+01  0.18851595512E+01  0.47214327294E+01  0.51100000000E-03 0.  1.
        -12    1    3    3    0    0  0.19644610622E+01 -0.26036786106E+02  0.39204937812E+01  0.26403477224E+02  0.00000000000E+00 0.  1.
</event>
<event>
 7    1  0.2641045E-013  0.7246159E+02  0.7816164E-02  0.1226708E+00
        -11   -1    0    0    0    0  0.00000000000E+00  0.00000000000E+00  0.45593999997E+02  0.45594000000E+02  0.51100000000E-03 0.  1.
         11   -1    0    0    0    0 -0.00000000000E+00 -0.00000000000E+00 -0.45593999997E+02  0.45594000000E+02  0.51100000000E-03 0. -1.
    9900012    2    1    2    0    0 -0.78423000282E+01  0.61302952416E+01 -0.15861789638E+02  0.72461586568E+02  0.70000021200E+02 0.  0.
        -12    1    1    2    0    0  0.78423000282E+01 -0.61302952416E+01  0.15861789638E+02  0.18726413432E+02  0.00000000000E+00 0.  1.
         11    1    3    3    0    0 -0.21809582139E+01 -0.47859546417E+01 -0.33616960478E+02  0.34025901496E+02  0.51100000000E-03 0. -1.
        -11    1    3    3    0    0  0.96566117070E+01  0.12016365524E+02  0.62361076752E+00  0.15428288327E+02  0.51100000000E-03 0.  1.
        -12    1    3    3    0    0 -0.15317953521E+02 -0.11001156403E+01  0.17131560072E+02  0.23007396745E+02  0.00000000000E+00 0.  1.
</event>
<event>
 7    1  0.2641045E-013  0.7246158E+02  0.7816164E-02  0.1226708E+00
        -11   -1    0    0    0    0  0.00000000000E+00  0.00000000000E+00  0.45593999997E+02  0.45594000000E+02  0.51100000000E-03 0.  1.
         11   -1    0    0    0    0 -0.00000000000E+00 -0.00000000000E+00 -0.45593999997E+02  0.45594000000E+02  0.51100000000E-03 0. -1.
    9900012    2    1    2    0    0  0.81372618564E+01 -0.14900079860E+02 -0.79026104639E+01  0.72461583832E+02  0.70000017635E+02 0.  0.
        -12    1    1    2    0    0 -0.81372618564E+01  0.14900079860E+02  0.79026104639E+01  0.18726416168E+02  0.00000000000E+00 0.  1.
         11    1    3    3    0    0  0.35188077476E+02 -0.51845642416E+01 -0.19117018369E+02  0.40379956593E+02  0.51100000000E-03 0.  1.
        -11    1    3    3    0    0 -0.88099778307E+01 -0.70681034784E+01  0.19846021216E+01  0.11467887425E+02  0.51100000000E-03 0. -1.
        -12    1    3    3    0    0 -0.18240837789E+02 -0.26474121402E+01  0.92298057836E+01  0.20613739814E+02  0.00000000000E+00 0.  1.
</event>
<event>
 7    1  0.2641045E-013  0.7246231E+02  0.7816164E-02  0.1226706E+00
        -11   -1    0    0    0    0  0.00000000000E+00  0.00000000000E+00  0.45593999997E+02  0.45594000000E+02  0.51100000000E-03 0.  1.
         11   -1    0    0    0    0 -0.00000000000E+00 -0.00000000000E+00 -0.45593999997E+02  0.45594000000E+02  0.51100000000E-03 0. -1.
    9900012    2    1    2    0    0 -0.67929123589E+01  0.15784284958E+02  0.74406999009E+01  0.72462313765E+02  0.70000968503E+02 0.  0.
        -12    1    1    2    0    0  0.67929123589E+01 -0.15784284958E+02 -0.74406999009E+01  0.18725686235E+02  0.00000000000E+00 0.  1.
         11    1    3    3    0    0  0.11738894403E+02  0.26559266900E+02 -0.13259923780E+02  0.31922122094E+02  0.51100000000E-03 0. -1.
        -11    1    3    3    0    0  0.41519457260E+01  0.12067998301E+01 -0.32771583450E+01  0.54253835091E+01  0.51100000000E-03 0.  1.
        -12    1    3    3    0    0 -0.22683752488E+02 -0.11981781773E+02  0.23977782026E+02  0.35114808162E+02  0.00000000000E+00 0.  1.
</event>
<event>
 7    1  0.2641045E-013  0.7246165E+02  0.7816164E-02  0.1226708E+00
        -11   -1    0    0    0    0  0.00000000000E+00  0.00000000000E+00  0.45593999997E+02  0.45594000000E+02  0.51100000000E-03 0.  1.
         11   -1    0    0    0    0 -0.00000000000E+00 -0.00000000000E+00 -0.45593999997E+02  0.45594000000E+02  0.51100000000E-03 0. -1.
    9900012    2    1    2    0    0  0.83645786077E+01 -0.56885755085E+01 -0.15759129808E+02  0.72461648542E+02  0.70000101932E+02 0.  0.
        -12    1    1    2    0    0 -0.83645786077E+01  0.56885755085E+01  0.15759129808E+02  0.18726351458E+02  0.00000000000E+00 0.  1.
         11    1    3    3    0    0  0.46520980906E+00 -0.41628238122E+01  0.46446891809E+01  0.62544911948E+01  0.51100000000E-03 0. -1.
        -11    1    3    3    0    0  0.56738290397E+01 -0.20861456355E+02  0.14647867838E+02  0.26114224662E+02  0.51100000000E-03 0.  1.
         12    1    3    3    0    0  0.22255397589E+01  0.19335704659E+02 -0.35051686827E+02  0.40092932685E+02  0.00000000000E+00 0. -1.
</event>
<event>
 7    1  0.2641045E-013  0.7246158E+02  0.7816164E-02  0.1226708E+00
        -11   -1    0    0    0    0  0.00000000000E+00  0.00000000000E+00  0.45593999997E+02  0.45594000000E+02  0.51100000000E-03 0. -1.
         11   -1    0    0    0    0 -0.00000000000E+00 -0.00000000000E+00 -0.45593999997E+02  0.45594000000E+02  0.51100000000E-03 0.  1.
    9900012    2    1    2    0    0 -0.61857606477E+01 -0.17598475818E+02  0.16458411439E+01  0.72461580722E+02  0.70000013584E+02 0.  0.
        -12    1    1    2    0    0  0.61857606477E+01  0.17598475818E+02 -0.16458411439E+01  0.18726419278E+02  0.00000000000E+00 0.  1.
         11    1    3    3    0    0  0.31201474748E+01  0.18198718857E+02  0.19770386014E+02  0.27051743968E+02  0.51100000000E-03 0. -1.
        -11    1    3    3    0    0  0.40207124078E+01 -0.20301082485E+02 -0.56019436367E+01  0.21440192422E+02  0.51100000000E-03 0.  1.
        -12    1    3    3    0    0 -0.13326620530E+02 -0.15496112189E+02 -0.12522601234E+02  0.23969644332E+02  0.00000000000E+00 0.  1.
</event>
<event>
 7    1  0.2641045E-013  0.7246148E+02  0.7816164E-02  0.1226708E+00
        -11   -1    0    0    0    0  0.00000000000E+00  0.00000000000E+00  0.45593999997E+02  0.45594000000E+02  0.51100000000E-03 0. -1.
         11   -1    0    0    0    0 -0.00000000000E+00 -0.00000000000E+00 -0.45593999997E+02  0.45594000000E+02  0.51100000000E-03 0.  1.
    9900012    2    1    2    0    0 -0.10082202230E+02 -0.14978024220E+02  0.49689734808E+01  0.72461475795E+02  0.69999876897E+02 0.  0.
        -12    1    1    2    0    0  0.10082202230E+02  0.14978024220E+02 -0.49689734808E+01  0.18726524205E+02  0.00000000000E+00 0.  1.
         11    1    3    3    0    0  0.72671537857E+01 -0.12185514152E+02 -0.72875416998E+01  0.15950126757E+02  0.51100000000E-03 0. -1.
        -11    1    3    3    0    0  0.10599125615E+02  0.15737268598E+02 -0.37709247195E+01  0.19344843247E+02  0.51100000000E-03 0.  1.
         12    1    3    3    0    0 -0.27948481632E+02 -0.18529778667E+02  0.16027439900E+02  0.37166505791E+02  0.00000000000E+00 0. -1.
</event>
<event>
 7    1  0.2641045E-013  0.7246176E+02  0.7816164E-02  0.1226708E+00
        -11   -1    0    0    0    0  0.00000000000E+00  0.00000000000E+00  0.45593999997E+02  0.45594000000E+02  0.51100000000E-03 0. -1.
         11   -1    0    0    0    0 -0.00000000000E+00 -0.00000000000E+00 -0.45593999997E+02  0.45594000000E+02  0.51100000000E-03 0.  1.
    9900012    2    1    2    0    0  0.10074587438E+02  0.14398538602E+02  0.64696827759E+01  0.72461761159E+02  0.70000248636E+02 0.  0.
        -12    1    1    2    0    0 -0.10074587438E+02 -0.14398538602E+02 -0.64696827759E+01  0.18726238841E+02  0.00000000000E+00 0.  1.
         11    1    3    3    0    0  0.15933103909E+02 -0.77764548350E+01 -0.59052083965E+01  0.18687122208E+02  0.51100000000E-03 0.  1.
        -11    1    3    3    0    0  0.18128446796E+02  0.10895119555E+02  0.16659680613E+02  0.26923765927E+02  0.51100000000E-03 0. -1.
        -12    1    3    3    0    0 -0.23986963266E+02  0.11279873882E+02 -0.42847894405E+01  0.26850873023E+02  0.00000000000E+00 0.  1.
</event>
<event>
 7    1  0.2641045E-013  0.7246160E+02  0.7816164E-02  0.1226708E+00
        -11   -1    0    0    0    0  0.00000000000E+00  0.00000000000E+00  0.45593999997E+02  0.45594000000E+02  0.51100000000E-03 0.  1.
         11   -1    0    0    0    0 -0.00000000000E+00 -0.00000000000E+00 -0.45593999997E+02  0.45594000000E+02  0.51100000000E-03 0. -1.
    9900012    2    1    2    0    0  0.30042852245E+01 -0.16959535998E+02 -0.73502681971E+01  0.72461600625E+02  0.70000039512E+02 0.  0.
        -12    1    1    2    0    0 -0.30042852245E+01  0.16959535998E+02  0.73502681971E+01  0.18726399375E+02  0.00000000000E+00 0.  1.
         11    1    3    3    0    0  0.30793951845E+02 -0.18945090731E+02 -0.40028599199E+01  0.36375909897E+02  0.51100000000E-03 0. -1.
        -11    1    3    3    0    0 -0.11596745847E+02  0.11982469576E+02  0.44538033491E+00  0.16681200654E+02  0.51100000000E-03 0.  1.
        -12    1    3    3    0    0 -0.16192920774E+02 -0.99969148421E+01 -0.37927886121E+01  0.19404490073E+02  0.00000000000E+00 0.  1.
</event>
<event>
 7    1  0.2641045E-013  0.7246144E+02  0.7816164E-02  0.1226708E+00
        -11   -1    0    0    0    0  0.00000000000E+00  0.00000000000E+00  0.45593999997E+02  0.45594000000E+02  0.51100000000E-03 0.  1.
         11   -1    0    0    0    0 -0.00000000000E+00 -0.00000000000E+00 -0.45593999997E+02  0.45594000000E+02  0.51100000000E-03 0. -1.
    9900012    2    1    2    0    0  0.13030011073E+02 -0.67677956377E+01 -0.11623241329E+02  0.72461441712E+02  0.69999832497E+02 0.  0.
        -12    1    1    2    0    0 -0.13030011073E+02  0.67677956377E+01  0.11623241329E+02  0.18726558288E+02  0.00000000000E+00 0.  1.
         11    1    3    3    0    0 -0.10799727028E+02  0.52595205970E+01  0.89571965438E+01  0.14984259440E+02  0.51100000000E-03 0. -1.
        -11    1    3    3    0    0  0.18622315876E+02 -0.12365147677E+02  0.11386823736E+02  0.25086794947E+02  0.51100000000E-03 0.  1.
         12    1    3    3    0    0  0.52074222248E+01  0.33783144212E+00 -0.31967261608E+02  0.32390387325E+02  0.00000000000E+00 0. -1.
</event>
<event>
 7    1  0.2641045E-013  0.7246161E+02  0.7816164E-02  0.1226708E+00
        -11   -1    0    0    0    0  0.00000000000E+00  0.00000000000E+00  0.45593999997E+02  0.45594000000E+02  0.51100000000E-03 0.  1.
         11   -1    0    0    0    0 -0.00000000000E+00 -0.00000000000E+00 -0.45593999997E+02  0.45594000000E+02  0.51100000000E-03 0. -1.
    9900012    2    1    2    0    0 -0.14562327505E+02  0.14629235618E+01  0.11682303797E+02  0.72461608204E+02  0.70000049384E+02 0.  0.
        -12    1    1    2    0    0  0.14562327505E+02 -0.14629235618E+01 -0.11682303797E+02  0.18726391796E+02  0.00000000000E+00 0.  1.
         11    1    3    3    0    0  0.77296865902E+00  0.29473219856E+01 -0.30920348214E+01  0.43410674992E+01  0.51100000000E-03 0. -1.
        -11    1    3    3    0    0  0.43483020449E+01  0.25521249159E+02  0.21949121666E+02  0.33941211402E+02  0.51100000000E-03 0.  1.
         12    1    3    3    0    0 -0.19683598209E+02 -0.27005647583E+02 -0.71747830473E+01  0.34179329302E+02  0.00000000000E+00 0. -1.
</event>
<event>
 7    1  0.2641045E-013  0.7246158E+02  0.7816164E-02  0.1226708E+00
        -11   -1    0    0    0    0  0.00000000000E+00  0.00000000000E+00  0.45593999997E+02  0.45594000000E+02  0.51100000000E-03 0.  1.
         11   -1    0    0    0    0 -0.00000000000E+00 -0.00000000000E+00 -0.45593999997E+02  0.45594000000E+02  0.51100000000E-03 0. -1.
    9900012    2    1    2    0    0 -0.98908802881E+01 -0.71936946965E+01 -0.14180980139E+02  0.72461576050E+02  0.70000007498E+02 0.  0.
        -12    1    1    2    0    0  0.98908802881E+01  0.71936946965E+01  0.14180980139E+02  0.18726423950E+02  0.00000000000E+00 0.  1.
         11    1    3    3    0    0 -0.37912078350E+01  0.17511114222E+02  0.78904872548E+01  0.19577338111E+02  0.51100000000E-03 0. -1.
        -11    1    3    3    0    0 -0.10755116983E+02 -0.12960994515E+01  0.87336524681E+01  0.13915067402E+02  0.51100000000E-03 0.  1.
         12    1    3    3    0    0  0.46554445302E+01 -0.23408709467E+02 -0.30805119861E+02  0.38969170537E+02  0.00000000000E+00 0. -1.
</event>
<event>
 7    1  0.2641045E-013  0.7246158E+02  0.7816164E-02  0.1226708E+00
        -11   -1    0    0    0    0  0.00000000000E+00  0.00000000000E+00  0.45593999997E+02  0.45594000000E+02  0.51100000000E-03 0. -1.
         11   -1    0    0    0    0 -0.00000000000E+00 -0.00000000000E+00 -0.45593999997E+02  0.45594000000E+02  0.51100000000E-03 0.  1.
    9900012    2    1    2    0    0 -0.12311507427E+02  0.14059700190E+02  0.11960438823E+01  0.72461577343E+02  0.70000009183E+02 0.  0.
        -12    1    1    2    0    0  0.12311507427E+02 -0.14059700190E+02 -0.11960438823E+01  0.18726422657E+02  0.00000000000E+00 0.  1.
         11    1    3    3    0    0 -0.24667041046E+01  0.14830756304E+02 -0.24631895041E+01  0.15234935658E+02  0.51100000000E-03 0. -1.
        -11    1    3    3    0    0  0.14458437051E+02  0.11712549580E+02  0.18411347036E+02  0.26176476454E+02  0.51100000000E-03 0.  1.
        -12    1    3    3    0    0 -0.24303240373E+02 -0.12483605695E+02 -0.14752113649E+02  0.31050165232E+02  0.00000000000E+00 0.  1.
</event>
<event>
 7    1  0.2641045E-013  0.7246190E+02  0.7816164E-02  0.1226707E+00
        -11   -1    0    0    0    0  0.00000000000E+00  0.00000000000E+00  0.45593999997E+02  0.45594000000E+02  0.51100000000E-03 0. -1.
         11   -1    0    0    0    0 -0.00000000000E+00 -0.00000000000E+00 -0.45593999997E+02  0.45594000000E+02  0.51100000000E-03 0.  1.
    9900012    2    1    2    0    0 -0.11573231517E+02 -0.97606171381E+01  0.11020769011E+02  0.72461903657E+02  0.70000434265E+02 0.  0.
        -12    1    1    2    0    0  0.11573231517E+02  0.97606171381E+01 -0.11020769011E+02  0.18726096343E+02  0.00000000000E+00 0.  1.
         11    1    3    3    0    0 -0.25348224480E+01  0.14075457761E+01  0.91429703230E+01  0.95916847604E+01  0.51100000000E-03 0. -1.
        -11    1    3    3    0    0  0.22836628853E+02 -0.14706218535E+02  0.11337520170E+02  0.29433379772E+02  0.51100000000E-03 0.  1.
         12    1    3    3    0    0 -0.31875037922E+02  0.35380556212E+01 -0.94597214813E+01  0.33436839124E+02  0.00000000000E+00 0. -1.
</event>
<event>
 7    1  0.2641045E-013  0.7246158E+02  0.7816164E-02  0.1226708E+00
        -11   -1    0    0    0    0  0.00000000000E+00  0.00000000000E+00  0.45593999997E+02  0.45594000000E+02  0.51100000000E-03 0.  1.
         11   -1    0    0    0    0 -0.00000000000E+00 -0.00000000000E+00 -0.45593999997E+02  0.45594000000E+02  0.51100000000E-03 0. -1.
    9900012    2    1    2    0    0  0.66875817266E+01  0.56961922933E+01 -0.16538095224E+02  0.72461576166E+02  0.70000007649E+02 0.  0.
        -12    1    1    2    0    0 -0.66875817266E+01 -0.56961922933E+01  0.16538095224E+02  0.18726423834E+02  0.00000000000E+00 0.  1.
         11    1    3    3    0    0  0.73235338306E+01 -0.60250170392E+01 -0.13075232125E+02  0.16152296229E+02  0.51100000000E-03 0. -1.
        -11    1    3    3    0    0  0.13754623371E+02 -0.84992646536E+00  0.21092388771E+02  0.25195255573E+02  0.51100000000E-03 0.  1.
         12    1    3    3    0    0 -0.14390575475E+02  0.12571135798E+02 -0.24555251869E+02  0.31114024364E+02  0.00000000000E+00 0. -1.
</event>
<event>
 7    1  0.2641045E-013  0.7246159E+02  0.7816164E-02  0.1226708E+00
        -11   -1    0    0    0    0  0.00000000000E+00  0.00000000000E+00  0.45593999997E+02  0.45594000000E+02  0.51100000000E-03 0.  1.
         11   -1    0    0    0    0 -0.00000000000E+00 -0.00000000000E+00 -0.45593999997E+02  0.45594000000E+02  0.51100000000E-03 0. -1.
    9900012    2    1    2    0    0  0.17689731662E+02 -0.60703724648E+01  0.95003870256E+00  0.72461585456E+02  0.70000019751E+02 0.  0.
        -12    1    1    2    0    0 -0.17689731662E+02  0.60703724648E+01 -0.95003870256E+00  0.18726414544E+02  0.00000000000E+00 0.  1.
         11    1    3    3    0    0  0.49429966478E+01  0.59359800583E+01 -0.88727099994E+00  0.77753665637E+01  0.51100000000E-03 0. -1.
        -11    1    3    3    0    0 -0.11425940884E+02  0.17903205823E+02  0.12673180670E+02  0.24732294927E+02  0.51100000000E-03 0.  1.
         12    1    3    3    0    0  0.24172675899E+02 -0.29909558346E+02 -0.10835870967E+02  0.39953923965E+02  0.00000000000E+00 0. -1.
</event>
<event>
 7    1  0.2641045E-013  0.7246160E+02  0.7816164E-02  0.1226708E+00
        -11   -1    0    0    0    0  0.00000000000E+00  0.00000000000E+00  0.45593999997E+02  0.45594000000E+02  0.51100000000E-03 0.  1.
         11   -1    0    0    0    0 -0.00000000000E+00 -0.00000000000E+00 -0.45593999997E+02  0.45594000000E+02  0.51100000000E-03 0. -1.
    9900012    2    1    2    0    0  0.16251281152E+02 -0.37839306496E+01  0.85003402714E+01  0.72461600053E+02  0.70000038766E+02 0.  0.
        -12    1    1    2    0    0 -0.16251281152E+02  0.37839306496E+01 -0.85003402714E+01  0.18726399947E+02  0.00000000000E+00 0.  1.
         11    1    3    3    0    0  0.27078758146E+01 -0.14732878870E+02  0.46904435835E+01  0.15696833200E+02  0.51100000000E-03 0. -1.
        -11    1    3    3    0    0 -0.83969642145E+01 -0.11795286384E+02 -0.14292875333E+02  0.20345124095E+02  0.51100000000E-03 0.  1.
        -12    1    3    3    0    0  0.21940369552E+02  0.22744234604E+02  0.18102772021E+02  0.36419642758E+02  0.00000000000E+00 0.  1.
</event>
<event>
 7    1  0.2641045E-013  0.7246165E+02  0.7816164E-02  0.1226708E+00
        -11   -1    0    0    0    0  0.00000000000E+00  0.00000000000E+00  0.45593999997E+02  0.45594000000E+02  0.51100000000E-03 0.  1.
         11   -1    0    0    0    0 -0.00000000000E+00 -0.00000000000E+00 -0.45593999997E+02  0.45594000000E+02  0.51100000000E-03 0. -1.
    9900012    2    1    2    0    0 -0.66091123424E+01  0.17496395083E+02  0.93386308898E+00  0.72461646722E+02  0.70000099561E+02 0.  0.
        -12    1    1    2    0    0  0.66091123424E+01 -0.17496395083E+02 -0.93386308898E+00  0.18726353278E+02  0.00000000000E+00 0.  1.
         11    1    3    3    0    0  0.19405278174E+01  0.25904748032E+01 -0.92451602175E+00  0.33661458750E+01  0.51100000000E-03 0. -1.
        -11    1    3    3    0    0 -0.23029255236E+02 -0.87490788947E+01  0.23400354605E+02  0.33977486283E+02  0.51100000000E-03 0.  1.
         12    1    3    3    0    0  0.14479615077E+02  0.23654999174E+02 -0.21541975494E+02  0.35118014563E+02  0.00000000000E+00 0. -1.
</event>
<event>
 7    1  0.2641045E-013  0.7246161E+02  0.7816164E-02  0.1226708E+00
        -11   -1    0    0    0    0  0.00000000000E+00  0.00000000000E+00  0.45593999997E+02  0.45594000000E+02  0.51100000000E-03 0.  1.
         11   -1    0    0    0    0 -0.00000000000E+00 -0.00000000000E+00 -0.45593999997E+02  0.45594000000E+02  0.51100000000E-03 0. -1.
    9900012    2    1    2    0    0 -0.38162603629E+01 -0.98779286314E+01 -0.15444749860E+02  0.72461611788E+02  0.70000054054E+02 0.  0.
        -12    1    1    2    0    0  0.38162603629E+01  0.98779286314E+01  0.15444749860E+02  0.18726388212E+02  0.00000000000E+00 0.  1.
         11    1    3    3    0    0 -0.76266446573E+01  0.57323678064E+01  0.79019023919E+01  0.12388131864E+02  0.51100000000E-03 0. -1.
        -11    1    3    3    0    0  0.33060054055E+00 -0.24902442499E+02  0.88129569185E+01  0.26417970192E+02  0.51100000000E-03 0.  1.
         12    1    3    3    0    0  0.34797837538E+01  0.92921460614E+01 -0.32159609171E+02  0.33655509733E+02  0.00000000000E+00 0. -1.
</event>
<event>
 7    1  0.2641045E-013  0.7246155E+02  0.7816164E-02  0.1226708E+00
        -11   -1    0    0    0    0  0.00000000000E+00  0.00000000000E+00  0.45593999997E+02  0.45594000000E+02  0.51100000000E-03 0.  1.
         11   -1    0    0    0    0 -0.00000000000E+00 -0.00000000000E+00 -0.45593999997E+02  0.45594000000E+02  0.51100000000E-03 0. -1.
    9900012    2    1    2    0    0  0.65807405836E+01 -0.12579359942E+02  0.12212020229E+02  0.72461551291E+02  0.69999975245E+02 0.  0.
        -12    1    1    2    0    0 -0.65807405836E+01  0.12579359942E+02 -0.12212020229E+02  0.18726448709E+02  0.00000000000E+00 0.  1.
         11    1    3    3    0    0  0.89199936563E+01  0.19886750893E+01  0.93611814374E+01  0.13082539264E+02  0.51100000000E-03 0. -1.
        -11    1    3    3    0    0  0.59070822092E+00 -0.24811110051E+01  0.29689447130E+02  0.29798793922E+02  0.51100000000E-03 0.  1.
         12    1    3    3    0    0 -0.29299612937E+01 -0.12086924026E+02 -0.26838608339E+02  0.29580218105E+02  0.00000000000E+00 0. -1.
</event>
<event>
 7    1  0.2641045E-013  0.7246154E+02  0.7816164E-02  0.1226708E+00
        -11   -1    0    0    0    0  0.00000000000E+00  0.00000000000E+00  0.45593999997E+02  0.45594000000E+02  0.51100000000E-03 0.  1.
         11   -1    0    0    0    0 -0.00000000000E+00 -0.00000000000E+00 -0.45593999997E+02  0.45594000000E+02  0.51100000000E-03 0. -1.
    9900012    2    1    2    0    0  0.71473296483E+01 -0.27201310347E+01  0.17093765591E+02  0.72461541285E+02  0.69999962210E+02 0.  0.
        -12    1    1    2    0    0 -0.71473296483E+01  0.27201310347E+01 -0.17093765591E+02  0.18726458715E+02  0.00000000000E+00 0.  1.
         11    1    3    3    0    0  0.11593832124E+02 -0.11499685173E+02 -0.94824184659E+01  0.18883219074E+02  0.51100000000E-03 0. -1.
        -11    1    3    3    0    0  0.14930040084E+01 -0.63010425656E+01 -0.10938782718E+02  0.12711772732E+02  0.51100000000E-03 0.  1.
        -12    1    3    3    0    0 -0.59395064839E+01  0.15080596704E+02  0.37514966774E+02  0.40866549478E+02  0.00000000000E+00 0.  1.
</event>
<event>
 7    1  0.2641045E-013  0.7246165E+02  0.7816164E-02  0.1226708E+00
        -11   -1    0    0    0    0  0.00000000000E+00  0.00000000000E+00  0.45593999997E+02  0.45594000000E+02  0.51100000000E-03 0.  1.
         11   -1    0    0    0    0 -0.00000000000E+00 -0.00000000000E+00 -0.45593999997E+02  0.45594000000E+02  0.51100000000E-03 0. -1.
    9900012    2    1    2    0    0  0.10537814529E+02  0.74222744393E+01 -0.13584570628E+02  0.72461648192E+02  0.70000101476E+02 0.  0.
        -12    1    1    2    0    0 -0.10537814529E+02 -0.74222744393E+01  0.13584570628E+02  0.18726351808E+02  0.00000000000E+00 0.  1.
         11    1    3    3    0    0 -0.83469536096E+00  0.11135125507E+01 -0.65998331463E+01  0.67449554755E+01  0.51100000000E-03 0. -1.
        -11    1    3    3    0    0 -0.20426583140E+02  0.15524323605E+02  0.11142400148E+02  0.27971467668E+02  0.51100000000E-03 0.  1.
         12    1    3    3    0    0  0.31799093030E+02 -0.92155617165E+01 -0.18127137630E+02  0.37745225048E+02  0.00000000000E+00 0. -1.
</event>
<event>
 7    1  0.2641045E-013  0.7246151E+02  0.7816164E-02  0.1226708E+00
        -11   -1    0    0    0    0  0.00000000000E+00  0.00000000000E+00  0.45593999997E+02  0.45594000000E+02  0.51100000000E-03 0.  1.
         11   -1    0    0    0    0 -0.00000000000E+00 -0.00000000000E+00 -0.45593999997E+02  0.45594000000E+02  0.51100000000E-03 0. -1.
    9900012    2    1    2    0    0  0.10355215769E+02 -0.30479345151E+00 -0.15599940774E+02  0.72461506873E+02  0.69999917382E+02 0.  0.
        -12    1    1    2    0    0 -0.10355215769E+02  0.30479345151E+00  0.15599940774E+02  0.18726493127E+02  0.00000000000E+00 0.  1.
         11    1    3    3    0    0  0.18424819700E+02  0.33167424142E+01 -0.99668059954E+01  0.21208771375E+02  0.51100000000E-03 0. -1.
        -11    1    3    3    0    0  0.13583066795E+02 -0.11045872406E+02  0.12943906467E+02  0.21772820572E+02  0.51100000000E-03 0.  1.
         12    1    3    3    0    0 -0.21652670726E+02  0.74243365398E+01 -0.18577041246E+02  0.29479914926E+02  0.00000000000E+00 0. -1.
</event>
<event>
 7    1  0.2641045E-013  0.7246160E+02  0.7816164E-02  0.1226708E+00
        -11   -1    0    0    0    0  0.00000000000E+00  0.00000000000E+00  0.45593999997E+02  0.45594000000E+02  0.51100000000E-03 0.  1.
         11   -1    0    0    0    0 -0.00000000000E+00 -0.00000000000E+00 -0.45593999997E+02  0.45594000000E+02  0.51100000000E-03 0. -1.
    9900012    2    1    2    0    0 -0.55822058375E+01 -0.17643179593E+02 -0.28697048778E+01  0.72461601140E+02  0.70000040183E+02 0.  0.
        -12    1    1    2    0    0  0.55822058375E+01  0.17643179593E+02  0.28697048778E+01  0.18726398860E+02  0.00000000000E+00 0.  1.
         11    1    3    3    0    0  0.52055660038E+01  0.19602652788E+01  0.18386930797E+02  0.19209887604E+02  0.51100000000E-03 0. -1.
        -11    1    3    3    0    0  0.57675395261E+01 -0.22115855737E+02  0.37453245804E+01  0.23160376586E+02  0.51100000000E-03 0.  1.
         12    1    3    3    0    0 -0.16555311367E+02  0.25124108649E+01 -0.25001960255E+02  0.30091336950E+02  0.00000000000E+00 0. -1.
</event>
<event>
 7    1  0.2641045E-013  0.7246167E+02  0.7816164E-02  0.1226708E+00
        -11   -1    0    0    0    0  0.00000000000E+00  0.00000000000E+00  0.45593999997E+02  0.45594000000E+02  0.51100000000E-03 0. -1.
         11   -1    0    0    0    0 -0.00000000000E+00 -0.00000000000E+00 -0.45593999997E+02  0.45594000000E+02  0.51100000000E-03 0.  1.
    9900012    2    1    2    0    0  0.46703336910E+01  0.16289882112E+02  0.79688857183E+01  0.72461670525E+02  0.70000130569E+02 0.  0.
        -12    1    1    2    0    0 -0.46703336910E+01 -0.16289882112E+02 -0.79688857183E+01  0.18726329475E+02  0.00000000000E+00 0.  1.
         11    1    3    3    0    0 -0.56574937617E+00  0.86396745796E+00  0.25314420708E+02  0.25335477264E+02  0.51100000000E-03 0. -1.
        -11    1    3    3    0    0  0.85160021841E+01 -0.84103146829E+01  0.61844504803E+01  0.13472309166E+02  0.51100000000E-03 0.  1.
         12    1    3    3    0    0 -0.32799191169E+01  0.23836229337E+02 -0.23529985470E+02  0.33653884095E+02  0.00000000000E+00 0. -1.
</event>
<event>
 7    1  0.2641045E-013  0.7246160E+02  0.7816164E-02  0.1226708E+00
        -11   -1    0    0    0    0  0.00000000000E+00  0.00000000000E+00  0.45593999997E+02  0.45594000000E+02  0.51100000000E-03 0.  1.
         11   -1    0    0    0    0 -0.00000000000E+00 -0.00000000000E+00 -0.45593999997E+02  0.45594000000E+02  0.51100000000E-03 0. -1.
    9900012    2    1    2    0    0 -0.36760481806E+01 -0.11226428042E+02 -0.14530376985E+02  0.72461604935E+02  0.70000045126E+02 0.  0.
        -12    1    1    2    0    0  0.36760481806E+01  0.11226428042E+02  0.14530376985E+02  0.18726395065E+02  0.00000000000E+00 0.  1.
         11    1    3    3    0    0  0.12613417526E+02  0.58687791646E+01 -0.46044520298E+01  0.14654072789E+02  0.51100000000E-03 0. -1.
        -11    1    3    3    0    0 -0.11267306351E+02 -0.11042262304E+01  0.20301079347E+02  0.23244468824E+02  0.51100000000E-03 0.  1.
         12    1    3    3    0    0 -0.50221593551E+01 -0.15990980976E+02 -0.30227004302E+02  0.34563063322E+02  0.00000000000E+00 0. -1.
</event>
<event>
 7    1  0.2641045E-013  0.7246157E+02  0.7816164E-02  0.1226708E+00
        -11   -1    0    0    0    0  0.00000000000E+00  0.00000000000E+00  0.45593999997E+02  0.45594000000E+02  0.51100000000E-03 0.  1.
         11   -1    0    0    0    0 -0.00000000000E+00 -0.00000000000E+00 -0.45593999997E+02  0.45594000000E+02  0.51100000000E-03 0. -1.
    9900012    2    1    2    0    0 -0.14947002622E+02 -0.17046897916E+01 -0.11151702785E+02  0.72461566018E+02  0.69999994430E+02 0.  0.
        -12    1    1    2    0    0  0.14947002622E+02  0.17046897916E+01  0.11151702785E+02  0.18726433982E+02  0.00000000000E+00 0.  1.
         11    1    3    3    0    0 -0.95946592469E+01  0.95448122619E+01 -0.22384649585E+01  0.13717567307E+02  0.51100000000E-03 0. -1.
        -11    1    3    3    0    0  0.23141003073E+02 -0.15461342798E+02  0.20937163887E+01  0.27909546627E+02  0.51100000000E-03 0.  1.
         12    1    3    3    0    0 -0.28493346448E+02  0.42118407447E+01 -0.11006954215E+02  0.30834452085E+02  0.00000000000E+00 0. -1.
</event>
<event>
 7    1  0.2641045E-013  0.7246117E+02  0.7816164E-02  0.1226709E+00
        -11   -1    0    0    0    0  0.00000000000E+00  0.00000000000E+00  0.45593999997E+02  0.45594000000E+02  0.51100000000E-03 0.  1.
         11   -1    0    0    0    0 -0.00000000000E+00 -0.00000000000E+00 -0.45593999997E+02  0.45594000000E+02  0.51100000000E-03 0. -1.
    9900012    2    1    2    0    0 -0.13278309183E+02 -0.11098326768E+02  0.71559524942E+01  0.72461174110E+02  0.69999483894E+02 0.  0.
        -12    1    1    2    0    0  0.13278309183E+02  0.11098326768E+02 -0.71559524942E+01  0.18726825890E+02  0.00000000000E+00 0.  1.
         11    1    3    3    0    0 -0.63870875559E+01  0.59138655013E+01  0.11532773207E+02  0.14448998260E+02  0.51100000000E-03 0. -1.
        -11    1    3    3    0    0  0.24167463033E+02 -0.82090430397E+01 -0.84756453275E+00  0.25537678496E+02  0.51100000000E-03 0.  1.
         12    1    3    3    0    0 -0.31058684660E+02 -0.88031492296E+01 -0.35292561805E+01  0.32474497354E+02  0.00000000000E+00 0. -1.
</event>
<event>
 7    1  0.2641045E-013  0.7246173E+02  0.7816164E-02  0.1226708E+00
        -11   -1    0    0    0    0  0.00000000000E+00  0.00000000000E+00  0.45593999997E+02  0.45594000000E+02  0.51100000000E-03 0.  1.
         11   -1    0    0    0    0 -0.00000000000E+00 -0.00000000000E+00 -0.45593999997E+02  0.45594000000E+02  0.51100000000E-03 0. -1.
    9900012    2    1    2    0    0 -0.72355559884E+01 -0.75566901362E+01 -0.15531140506E+02  0.72461730706E+02  0.70000208965E+02 0.  0.
        -12    1    1    2    0    0  0.72355559884E+01  0.75566901362E+01  0.15531140506E+02  0.18726269294E+02  0.00000000000E+00 0.  1.
         11    1    3    3    0    0  0.70800740190E+01  0.46142352525E+01 -0.21117194891E+02  0.22745428890E+02  0.51100000000E-03 0. -1.
        -11    1    3    3    0    0  0.73362870201E+01 -0.13007306984E+02 -0.14028297208E+02  0.20489125531E+02  0.51100000000E-03 0.  1.
        -12    1    3    3    0    0 -0.21651917027E+02  0.83638159486E+00  0.19614351593E+02  0.29227176285E+02  0.00000000000E+00 0.  1.
</event>
<event>
 7    1  0.2641045E-013  0.7246149E+02  0.7816164E-02  0.1226708E+00
        -11   -1    0    0    0    0  0.00000000000E+00  0.00000000000E+00  0.45593999997E+02  0.45594000000E+02  0.51100000000E-03 0.  1.
         11   -1    0    0    0    0 -0.00000000000E+00 -0.00000000000E+00 -0.45593999997E+02  0.45594000000E+02  0.51100000000E-03 0. -1.
    9900012    2    1    2    0    0 -0.15442476814E+02  0.10545203841E+02  0.10053532018E+01  0.72461490735E+02  0.69999896359E+02 0.  0.
        -12    1    1    2    0    0  0.15442476814E+02 -0.10545203841E+02 -0.10053532018E+01  0.18726509265E+02  0.00000000000E+00 0.  1.
         11    1    3    3    0    0 -0.10569709466E+02 -0.60645094922E+01  0.24424632717E+02  0.27295782041E+02  0.51100000000E-03 0. -1.
        -11    1    3    3    0    0  0.13101834252E+02  0.32220807281E+01 -0.11022500609E+01  0.13537164417E+02  0.51100000000E-03 0.  1.
         12    1    3    3    0    0 -0.17974601600E+02  0.13387632605E+02 -0.22317029455E+02  0.31628544278E+02  0.00000000000E+00 0. -1.
</event>
<event>
 7    1  0.2641045E-013  0.7246162E+02  0.7816164E-02  0.1226708E+00
        -11   -1    0    0    0    0  0.00000000000E+00  0.00000000000E+00  0.45593999997E+02  0.45594000000E+02  0.51100000000E-03 0.  1.
         11   -1    0    0    0    0 -0.00000000000E+00 -0.00000000000E+00 -0.45593999997E+02  0.45594000000E+02  0.51100000000E-03 0. -1.
    9900012    2    1    2    0    0 -0.96561354017E+01  0.16018135148E+02 -0.92511042662E+00  0.72461616638E+02  0.70000060371E+02 0.  0.
        -12    1    1    2    0    0  0.96561354017E+01 -0.16018135148E+02  0.92511042662E+00  0.18726383362E+02  0.00000000000E+00 0.  1.
         11    1    3    3    0    0 -0.34318598556E+01  0.14523993857E+02 -0.20496097929E+02  0.25353778618E+02  0.51100000000E-03 0. -1.
        -11    1    3    3    0    0 -0.27460069496E+01 -0.12667957429E+02 -0.84821039534E+01  0.15490764582E+02  0.51100000000E-03 0.  1.
        -12    1    3    3    0    0 -0.34782685966E+01  0.14162098720E+02  0.28053091456E+02  0.31617073438E+02  0.00000000000E+00 0.  1.
</event>
<event>
 7    1  0.2641045E-013  0.7246155E+02  0.7816164E-02  0.1226708E+00
        -11   -1    0    0    0    0  0.00000000000E+00  0.00000000000E+00  0.45593999997E+02  0.45594000000E+02  0.51100000000E-03 0.  1.
         11   -1    0    0    0    0 -0.00000000000E+00 -0.00000000000E+00 -0.45593999997E+02  0.45594000000E+02  0.51100000000E-03 0. -1.
    9900012    2    1    2    0    0 -0.99886895285E+01  0.14879745692E+02  0.54313127561E+01  0.72461550561E+02  0.69999974293E+02 0.  0.
        -12    1    1    2    0    0  0.99886895285E+01 -0.14879745692E+02 -0.54313127561E+01  0.18726449439E+02  0.00000000000E+00 0.  1.
         11    1    3    3    0    0 -0.20784831899E+02  0.19927339898E+02 -0.49141516322E+01  0.29210563141E+02  0.51100000000E-03 0. -1.
        -11    1    3    3    0    0 -0.30297017125E+01  0.13156105498E+02  0.14724094579E+02  0.19976515356E+02  0.51100000000E-03 0.  1.
        -12    1    3    3    0    0  0.13825844083E+02 -0.18203699704E+02 -0.43786301906E+01  0.23274472064E+02  0.00000000000E+00 0.  1.
</event>
<event>
 7    1  0.2641045E-013  0.7246150E+02  0.7816164E-02  0.1226708E+00
        -11   -1    0    0    0    0  0.00000000000E+00  0.00000000000E+00  0.45593999997E+02  0.45594000000E+02  0.51100000000E-03 0.  1.
         11   -1    0    0    0    0 -0.00000000000E+00 -0.00000000000E+00 -0.45593999997E+02  0.45594000000E+02  0.51100000000E-03 0. -1.
    9900012    2    1    2    0    0 -0.33885487745E+01  0.17568837982E+02 -0.55259012347E+01  0.72461496982E+02  0.69999904497E+02 0.  0.
        -12    1    1    2    0    0  0.33885487745E+01 -0.17568837982E+02  0.55259012347E+01  0.18726503018E+02  0.00000000000E+00 0.  1.
         11    1    3    3    0    0  0.13849523715E+02  0.17918735983E+02 -0.19340732225E+02  0.29781778483E+02  0.51100000000E-03 0. -1.
        -11    1    3    3    0    0 -0.39502417006E+01 -0.37970045408E+01 -0.12139406642E+02  0.13318665356E+02  0.51100000000E-03 0.  1.
        -12    1    3    3    0    0 -0.13287830789E+02  0.34471065398E+01  0.25954237633E+02  0.29361053143E+02  0.00000000000E+00 0.  1.
</event>
<event>
 7    1  0.2641045E-013  0.7246149E+02  0.7816164E-02  0.1226708E+00
        -11   -1    0    0    0    0  0.00000000000E+00  0.00000000000E+00  0.45593999997E+02  0.45594000000E+02  0.51100000000E-03 0.  1.
         11   -1    0    0    0    0 -0.00000000000E+00 -0.00000000000E+00 -0.45593999997E+02  0.45594000000E+02  0.51100000000E-03 0. -1.
    9900012    2    1    2    0    0  0.50319352477E+01  0.35451597789E+01 -0.17685973675E+02  0.72461489513E+02  0.69999894767E+02 0.  0.
        -12    1    1    2    0    0 -0.50319352477E+01 -0.35451597789E+01  0.17685973675E+02  0.18726510487E+02  0.00000000000E+00 0.  1.
         11    1    3    3    0    0 -0.66267722850E+01 -0.75641699809E+01 -0.17389671917E+02  0.20088092694E+02  0.51100000000E-03 0. -1.
        -11    1    3    3    0    0 -0.18016073322E+02  0.11296036860E+02  0.58791757633E+01  0.22062276732E+02  0.51100000000E-03 0.  1.
        -12    1    3    3    0    0  0.29674780855E+02 -0.18670710018E+00 -0.61754775209E+01  0.30311120087E+02  0.00000000000E+00 0.  1.
</event>
<event>
 7    1  0.2641045E-013  0.7246158E+02  0.7816164E-02  0.1226708E+00
        -11   -1    0    0    0    0  0.00000000000E+00  0.00000000000E+00  0.45593999997E+02  0.45594000000E+02  0.51100000000E-03 0.  1.
         11   -1    0    0    0    0 -0.00000000000E+00 -0.00000000000E+00 -0.45593999997E+02  0.45594000000E+02  0.51100000000E-03 0. -1.
    9900012    2    1    2    0    0 -0.16773474137E+02 -0.15823332084E+00  0.83249162020E+01  0.72461582772E+02  0.70000016255E+02 0.  0.
        -12    1    1    2    0    0  0.16773474137E+02  0.15823332084E+00 -0.83249162020E+01  0.18726417228E+02  0.00000000000E+00 0.  1.
         11    1    3    3    0    0  0.15474784986E+02  0.18776892759E+02 -0.10542540425E+02  0.26517651309E+02  0.51100000000E-03 0. -1.
        -11    1    3    3    0    0  0.12067017135E+01  0.20089330299E+01  0.17354089394E+01  0.29160907723E+01  0.51100000000E-03 0.  1.
        -12    1    3    3    0    0 -0.33454960837E+02 -0.20944059110E+02  0.17132047688E+02  0.43027840691E+02  0.00000000000E+00 0.  1.
</event>
<event>
 7    1  0.2641045E-013  0.7246166E+02  0.7816164E-02  0.1226708E+00
        -11   -1    0    0    0    0  0.00000000000E+00  0.00000000000E+00  0.45593999997E+02  0.45594000000E+02  0.51100000000E-03 0. -1.
         11   -1    0    0    0    0 -0.00000000000E+00 -0.00000000000E+00 -0.45593999997E+02  0.45594000000E+02  0.51100000000E-03 0.  1.
    9900012    2    1    2    0    0 -0.41663097529E+01  0.10172959799E+02  0.15160096396E+02  0.72461661042E+02  0.70000118215E+02 0.  0.
        -12    1    1    2    0    0  0.41663097529E+01 -0.10172959799E+02 -0.15160096396E+02  0.18726338958E+02  0.00000000000E+00 0.  1.
         11    1    3    3    0    0  0.89156606482E+01  0.90968515822E+01 -0.13992195558E+02  0.18921502327E+02  0.51100000000E-03 0.  1.
        -11    1    3    3    0    0 -0.49722115529E+01  0.21953163157E+02  0.14391687921E+02  0.26716753954E+02  0.51100000000E-03 0. -1.
         12    1    3    3    0    0 -0.81097588482E+01 -0.20877054940E+02  0.14760604033E+02  0.26823404761E+02  0.00000000000E+00 0. -1.
</event>
<event>
 7    1  0.2641045E-013  0.7246160E+02  0.7816164E-02  0.1226708E+00
        -11   -1    0    0    0    0  0.00000000000E+00  0.00000000000E+00  0.45593999997E+02  0.45594000000E+02  0.51100000000E-03 0.  1.
         11   -1    0    0    0    0 -0.00000000000E+00 -0.00000000000E+00 -0.45593999997E+02  0.45594000000E+02  0.51100000000E-03 0. -1.
    9900012    2    1    2    0    0  0.14426800171E+02  0.10092343296E+02 -0.63788693796E+01  0.72461603365E+02  0.70000043080E+02 0.  0.
        -12    1    1    2    0    0 -0.14426800171E+02 -0.10092343296E+02  0.63788693796E+01  0.18726396635E+02  0.00000000000E+00 0.  1.
         11    1    3    3    0    0 -0.14888405631E+02  0.18678822741E+02 -0.87573891757E+01  0.25441204898E+02  0.51100000000E-03 0. -1.
        -11    1    3    3    0    0  0.22663305854E+02  0.11682043166E+02  0.30428756398E+01  0.25677902118E+02  0.51100000000E-03 0.  1.
        -12    1    3    3    0    0  0.66518999481E+01 -0.20268522610E+02 -0.66435584367E+00  0.21342496349E+02  0.00000000000E+00 0.  1.
</event>
<event>
 7    1  0.2641045E-013  0.7246148E+02  0.7816164E-02  0.1226708E+00
        -11   -1    0    0    0    0  0.00000000000E+00  0.00000000000E+00  0.45593999997E+02  0.45594000000E+02  0.51100000000E-03 0.  1.
         11   -1    0    0    0    0 -0.00000000000E+00 -0.00000000000E+00 -0.45593999997E+02  0.45594000000E+02  0.51100000000E-03 0. -1.
    9900012    2    1    2    0    0 -0.35356818581E+01  0.16891956827E+02 -0.72693320161E+01  0.72461482983E+02  0.69999886260E+02 0.  0.
        -12    1    1    2    0    0  0.35356818581E+01 -0.16891956827E+02  0.72693320161E+01  0.18726517017E+02  0.00000000000E+00 0.  1.
         11    1    3    3    0    0  0.17514399561E+02  0.35149370037E+02 -0.10632122975E+02  0.40685064154E+02  0.51100000000E-03 0.  1.
        -11    1    3    3    0    0  0.59935681048E+00 -0.66899353081E+01 -0.11630797964E+01  0.68166867235E+01  0.51100000000E-03 0. -1.
        -12    1    3    3    0    0 -0.21649438230E+02 -0.11567477902E+02  0.45258707550E+01  0.24959732105E+02  0.00000000000E+00 0.  1.
</event>
<event>
 7    1  0.2641045E-013  0.7246164E+02  0.7816164E-02  0.1226708E+00
        -11   -1    0    0    0    0  0.00000000000E+00  0.00000000000E+00  0.45593999997E+02  0.45594000000E+02  0.51100000000E-03 0.  1.
         11   -1    0    0    0    0 -0.00000000000E+00 -0.00000000000E+00 -0.45593999997E+02  0.45594000000E+02  0.51100000000E-03 0. -1.
    9900012    2    1    2    0    0  0.20813941679E+01  0.18532163903E+02  0.17038858478E+01  0.72461640835E+02  0.70000091892E+02 0.  0.
        -12    1    1    2    0    0 -0.20813941679E+01 -0.18532163903E+02 -0.17038858478E+01  0.18726359165E+02  0.00000000000E+00 0.  1.
         11    1    3    3    0    0 -0.14304393512E+02  0.10245340924E+02 -0.98974065926E+01  0.20187653205E+02  0.51100000000E-03 0. -1.
        -11    1    3    3    0    0  0.89951654380E+01  0.28210904023E+02  0.50611588516E+01  0.30039697672E+02  0.51100000000E-03 0.  1.
        -12    1    3    3    0    0  0.73906222424E+01 -0.19924081044E+02  0.65401335888E+01  0.22234289958E+02  0.00000000000E+00 0.  1.
</event>
<event>
 7    1  0.2641045E-013  0.7246160E+02  0.7816164E-02  0.1226708E+00
        -11   -1    0    0    0    0  0.00000000000E+00  0.00000000000E+00  0.45593999997E+02  0.45594000000E+02  0.51100000000E-03 0. -1.
         11   -1    0    0    0    0 -0.00000000000E+00 -0.00000000000E+00 -0.45593999997E+02  0.45594000000E+02  0.51100000000E-03 0.  1.
    9900012    2    1    2    0    0 -0.10854070655E+02 -0.14442576961E+02 -0.49273894531E+01  0.72461600296E+02  0.70000039083E+02 0.  0.
        -12    1    1    2    0    0  0.10854070655E+02  0.14442576961E+02  0.49273894531E+01  0.18726399704E+02  0.00000000000E+00 0.  1.
         11    1    3    3    0    0  0.82712587978E+01  0.10105646482E+01  0.10665434800E+02  0.13534639365E+02  0.51100000000E-03 0. -1.
        -11    1    3    3    0    0  0.10204554885E+01 -0.30825241379E+02 -0.12943684357E+02  0.33448106082E+02  0.51100000000E-03 0.  1.
        -12    1    3    3    0    0 -0.20145784941E+02  0.15372099770E+02 -0.26491398957E+01  0.25478854849E+02  0.00000000000E+00 0.  1.
</event>
<event>
 7    1  0.2641045E-013  0.7246170E+02  0.7816164E-02  0.1226708E+00
        -11   -1    0    0    0    0  0.00000000000E+00  0.00000000000E+00  0.45593999997E+02  0.45594000000E+02  0.51100000000E-03 0. -1.
         11   -1    0    0    0    0 -0.00000000000E+00 -0.00000000000E+00 -0.45593999997E+02  0.45594000000E+02  0.51100000000E-03 0.  1.
    9900012    2    1    2    0    0 -0.15504084194E+02 -0.17028070027E+01  0.10363307917E+02  0.72461699528E+02  0.70000168350E+02 0.  0.
        -12    1    1    2    0    0  0.15504084194E+02  0.17028070027E+01 -0.10363307917E+02  0.18726300472E+02  0.00000000000E+00 0.  1.
         11    1    3    3    0    0  0.52093845578E+01  0.78480353145E+01 -0.46024988342E+01  0.10483908696E+02  0.51100000000E-03 0. -1.
        -11    1    3    3    0    0  0.14793135095E+02  0.92578893760E+01  0.12978010383E+02  0.21747968075E+02  0.51100000000E-03 0.  1.
         12    1    3    3    0    0 -0.35506603847E+02 -0.18808731693E+02  0.19877963685E+01  0.40229822757E+02  0.00000000000E+00 0. -1.
</event>
<event>
 7    1  0.2641045E-013  0.7246168E+02  0.7816164E-02  0.1226708E+00
        -11   -1    0    0    0    0  0.00000000000E+00  0.00000000000E+00  0.45593999997E+02  0.45594000000E+02  0.51100000000E-03 0.  1.
         11   -1    0    0    0    0 -0.00000000000E+00 -0.00000000000E+00 -0.45593999997E+02  0.45594000000E+02  0.51100000000E-03 0. -1.
    9900012    2    1    2    0    0 -0.39254982504E+01  0.78428531788E+00 -0.18293454278E+02  0.72461678701E+02  0.70000141219E+02 0.  0.
        -12    1    1    2    0    0  0.39254982504E+01 -0.78428531788E+00  0.18293454278E+02  0.18726321299E+02  0.00000000000E+00 0.  1.
         11    1    3    3    0    0  0.12655233544E+02  0.31979529667E+01  0.62572905679E+01  0.14475341956E+02  0.51100000000E-03 0. -1.
        -11    1    3    3    0    0 -0.59000166038E+01  0.14162019976E+02  0.99231530533E+01  0.18271342931E+02  0.51100000000E-03 0.  1.
         12    1    3    3    0    0 -0.10680715190E+02 -0.16575687625E+02 -0.34473897900E+02  0.39714993814E+02  0.00000000000E+00 0. -1.
</event>
<event>
 7    1  0.2641045E-013  0.7246158E+02  0.7816164E-02  0.1226708E+00
        -11   -1    0    0    0    0  0.00000000000E+00  0.00000000000E+00  0.45593999997E+02  0.45594000000E+02  0.51100000000E-03 0. -1.
         11   -1    0    0    0    0 -0.00000000000E+00 -0.00000000000E+00 -0.45593999997E+02  0.45594000000E+02  0.51100000000E-03 0.  1.
    9900012    2    1    2    0    0 -0.56173371865E+01  0.10837195505E+02  0.14201396683E+02  0.72461576123E+02  0.70000007593E+02 0.  0.
        -12    1    1    2    0    0  0.56173371865E+01 -0.10837195505E+02 -0.14201396683E+02  0.18726423877E+02  0.00000000000E+00 0.  1.
         11    1    3    3    0    0  0.14013074409E+01 -0.61653525906E+01  0.89148111638E+01  0.10929276895E+02  0.51100000000E-03 0. -1.
        -11    1    3    3    0    0 -0.10799158360E+02 -0.12839528225E+02  0.21570485754E+02  0.27326931080E+02  0.51100000000E-03 0.  1.
        -12    1    3    3    0    0  0.37805137331E+01  0.29842076321E+02 -0.16283900235E+02  0.34205368147E+02  0.00000000000E+00 0.  1.
</event>
<event>
 7    1  0.2641045E-013  0.7246160E+02  0.7816164E-02  0.1226708E+00
        -11   -1    0    0    0    0  0.00000000000E+00  0.00000000000E+00  0.45593999997E+02  0.45594000000E+02  0.51100000000E-03 0.  1.
         11   -1    0    0    0    0 -0.00000000000E+00 -0.00000000000E+00 -0.45593999997E+02  0.45594000000E+02  0.51100000000E-03 0. -1.
    9900012    2    1    2    0    0 -0.18090033728E+02 -0.36692751183E+01 -0.31567577840E+01  0.72461600990E+02  0.70000039987E+02 0.  0.
        -12    1    1    2    0    0  0.18090033728E+02  0.36692751183E+01  0.31567577840E+01  0.18726399010E+02  0.00000000000E+00 0.  1.
         11    1    3    3    0    0 -0.19213048454E+02  0.13182990807E+02 -0.34181779245E+01  0.23550295499E+02  0.51100000000E-03 0. -1.
        -11    1    3    3    0    0 -0.91271580056E+01 -0.22401035647E+02 -0.15928223525E+02  0.28962384506E+02  0.51100000000E-03 0.  1.
        -12    1    3    3    0    0  0.10250172731E+02  0.55487697223E+01  0.16189643665E+02  0.19948920985E+02  0.00000000000E+00 0.  1.
</event>
<event>
 7    1  0.2641045E-013  0.7246142E+02  0.7816164E-02  0.1226708E+00
        -11   -1    0    0    0    0  0.00000000000E+00  0.00000000000E+00  0.45593999997E+02  0.45594000000E+02  0.51100000000E-03 0.  1.
         11   -1    0    0    0    0 -0.00000000000E+00 -0.00000000000E+00 -0.45593999997E+02  0.45594000000E+02  0.51100000000E-03 0. -1.
    9900012    2    1    2    0    0 -0.12047187138E+02 -0.14235382896E+02 -0.17041401864E+01  0.72461416278E+02  0.69999799365E+02 0.  0.
        -12    1    1    2    0    0  0.12047187138E+02  0.14235382896E+02  0.17041401864E+01  0.18726583722E+02  0.00000000000E+00 0.  1.
         11    1    3    3    0    0 -0.80860510251E+01 -0.31638953503E+02 -0.12517968992E+02  0.34972948802E+02  0.51100000000E-03 0. -1.
        -11    1    3    3    0    0 -0.43195822456E+01 -0.50434585081E+01  0.13335554628E+02  0.14897391785E+02  0.51100000000E-03 0.  1.
        -12    1    3    3    0    0  0.35844613294E+00  0.22447029115E+02 -0.25217258224E+01  0.22591075691E+02  0.00000000000E+00 0.  1.
</event>
<event>
 7    1  0.2641045E-013  0.7246155E+02  0.7816164E-02  0.1226708E+00
        -11   -1    0    0    0    0  0.00000000000E+00  0.00000000000E+00  0.45593999997E+02  0.45594000000E+02  0.51100000000E-03 0.  1.
         11   -1    0    0    0    0 -0.00000000000E+00 -0.00000000000E+00 -0.45593999997E+02  0.45594000000E+02  0.51100000000E-03 0. -1.
    9900012    2    1    2    0    0  0.20054487534E+01  0.70578618431E+01 -0.17229180548E+02  0.72461550768E+02  0.69999974563E+02 0.  0.
        -12    1    1    2    0    0 -0.20054487534E+01 -0.70578618431E+01  0.17229180548E+02  0.18726449232E+02  0.00000000000E+00 0.  1.
         11    1    3    3    0    0 -0.48490805714E+01  0.18214954234E+02 -0.96520333480E+01  0.21176871538E+02  0.51100000000E-03 0. -1.
        -11    1    3    3    0    0  0.19628019666E+02  0.12517682002E+02 -0.72470475333E+01  0.24381780430E+02  0.51100000000E-03 0.  1.
         12    1    3    3    0    0 -0.12773490341E+02 -0.23674774393E+02 -0.33009966632E+00  0.26902898800E+02  0.00000000000E+00 0. -1.
</event>
<event>
 7    1  0.2641045E-013  0.7246160E+02  0.7816164E-02  0.1226708E+00
        -11   -1    0    0    0    0  0.00000000000E+00  0.00000000000E+00  0.45593999997E+02  0.45594000000E+02  0.51100000000E-03 0.  1.
         11   -1    0    0    0    0 -0.00000000000E+00 -0.00000000000E+00 -0.45593999997E+02  0.45594000000E+02  0.51100000000E-03 0. -1.
    9900012    2    1    2    0    0  0.70335396305E+01 -0.79069422817E+01 -0.15449513876E+02  0.72461604325E+02  0.70000044331E+02 0.  0.
        -12    1    1    2    0    0 -0.70335396305E+01  0.79069422817E+01  0.15449513876E+02  0.18726395675E+02  0.00000000000E+00 0.  1.
         11    1    3    3    0    0 -0.24370245089E+01 -0.31790101913E+02 -0.16348107276E+02  0.35830298350E+02  0.51100000000E-03 0. -1.
        -11    1    3    3    0    0  0.28018171013E+01 -0.81939668126E+00 -0.87972691695E+01  0.92689554478E+01  0.51100000000E-03 0.  1.
        -12    1    3    3    0    0  0.66687470380E+01  0.24702556312E+02  0.96958625692E+01  0.27362350527E+02  0.00000000000E+00 0.  1.
</event>
<event>
 7    1  0.2641045E-013  0.7246154E+02  0.7816164E-02  0.1226708E+00
        -11   -1    0    0    0    0  0.00000000000E+00  0.00000000000E+00  0.45593999997E+02  0.45594000000E+02  0.51100000000E-03 0. -1.
         11   -1    0    0    0    0 -0.00000000000E+00 -0.00000000000E+00 -0.45593999997E+02  0.45594000000E+02  0.51100000000E-03 0.  1.
    9900012    2    1    2    0    0  0.16212735505E+02  0.67655931842E+01  0.64849227262E+01  0.72461541006E+02  0.69999961846E+02 0.  0.
        -12    1    1    2    0    0 -0.16212735505E+02 -0.67655931842E+01 -0.64849227262E+01  0.18726458994E+02  0.00000000000E+00 0.  1.
         11    1    3    3    0    0  0.12370748571E+02 -0.16461711092E+02 -0.23889723798E+01  0.20729943116E+02  0.51100000000E-03 0. -1.
        -11    1    3    3    0    0  0.12428003379E+02 -0.80720997351E+01 -0.60529648941E+01  0.16007887005E+02  0.51100000000E-03 0.  1.
        -12    1    3    3    0    0 -0.85860164444E+01  0.31299404012E+02  0.14926860000E+02  0.35723710884E+02  0.00000000000E+00 0.  1.
</event>
<event>
 7    1  0.2641045E-013  0.7246159E+02  0.7816164E-02  0.1226708E+00
        -11   -1    0    0    0    0  0.00000000000E+00  0.00000000000E+00  0.45593999997E+02  0.45594000000E+02  0.51100000000E-03 0.  1.
         11   -1    0    0    0    0 -0.00000000000E+00 -0.00000000000E+00 -0.45593999997E+02  0.45594000000E+02  0.51100000000E-03 0. -1.
    9900012    2    1    2    0    0 -0.16976974142E+02  0.24309044318E+01 -0.75200614419E+01  0.72461594273E+02  0.70000031236E+02 0.  0.
        -12    1    1    2    0    0  0.16976974142E+02 -0.24309044318E+01  0.75200614419E+01  0.18726405727E+02  0.00000000000E+00 0.  1.
         11    1    3    3    0    0 -0.11290521361E+02  0.12058376701E+02  0.12400220565E+01  0.16565565980E+02  0.51100000000E-03 0. -1.
        -11    1    3    3    0    0 -0.23393719891E+02  0.42575059959E+01 -0.19697294179E+02  0.30876785550E+02  0.51100000000E-03 0.  1.
         12    1    3    3    0    0  0.17707267110E+02 -0.13884978265E+02  0.10937210681E+02  0.25019242743E+02  0.00000000000E+00 0. -1.
</event>
<event>
 7    1  0.2641045E-013  0.7246155E+02  0.7816164E-02  0.1226708E+00
        -11   -1    0    0    0    0  0.00000000000E+00  0.00000000000E+00  0.45593999997E+02  0.45594000000E+02  0.51100000000E-03 0.  1.
         11   -1    0    0    0    0 -0.00000000000E+00 -0.00000000000E+00 -0.45593999997E+02  0.45594000000E+02  0.51100000000E-03 0. -1.
    9900012    2    1    2    0    0 -0.16626797050E+02 -0.82588915902E+01  0.24536440322E+01  0.72461547066E+02  0.69999969741E+02 0.  0.
        -12    1    1    2    0    0  0.16626797050E+02  0.82588915902E+01 -0.24536440322E+01  0.18726452934E+02  0.00000000000E+00 0.  1.
         11    1    3    3    0    0 -0.70390672041E+01 -0.16220713724E+02  0.88398268543E+01  0.19768726816E+02  0.51100000000E-03 0. -1.
        -11    1    3    3    0    0 -0.15257413784E+02 -0.32605266657E+01  0.18867248306E+02  0.24482499227E+02  0.51100000000E-03 0.  1.
         12    1    3    3    0    0  0.56696839372E+01  0.11222348800E+02 -0.25253431128E+02  0.28210321024E+02  0.00000000000E+00 0. -1.
</event>
<event>
 7    1  0.2641045E-013  0.7246184E+02  0.7816164E-02  0.1226707E+00
        -11   -1    0    0    0    0  0.00000000000E+00  0.00000000000E+00  0.45593999997E+02  0.45594000000E+02  0.51100000000E-03 0.  1.
         11   -1    0    0    0    0 -0.00000000000E+00 -0.00000000000E+00 -0.45593999997E+02  0.45594000000E+02  0.51100000000E-03 0. -1.
    9900012    2    1    2    0    0  0.14490854232E+02 -0.11267245840E+02 -0.37058372675E+01  0.72461844093E+02  0.70000356673E+02 0.  0.
        -12    1    1    2    0    0 -0.14490854232E+02  0.11267245840E+02  0.37058372675E+01  0.18726155907E+02  0.00000000000E+00 0.  1.
         11    1    3    3    0    0  0.17883146122E+02 -0.27676095714E+02 -0.93749883747E+01  0.34258774007E+02  0.51100000000E-03 0. -1.
        -11    1    3    3    0    0  0.91991821402E+01  0.78452337064E+01 -0.10484826068E+02  0.16003256603E+02  0.51100000000E-03 0.  1.
        -12    1    3    3    0    0 -0.12591474030E+02  0.85636161674E+01  0.16153977175E+02  0.22199813483E+02  0.00000000000E+00 0.  1.
</event>
<event>
 7    1  0.2641045E-013  0.7246152E+02  0.7816164E-02  0.1226708E+00
        -11   -1    0    0    0    0  0.00000000000E+00  0.00000000000E+00  0.45593999997E+02  0.45594000000E+02  0.51100000000E-03 0.  1.
         11   -1    0    0    0    0 -0.00000000000E+00 -0.00000000000E+00 -0.45593999997E+02  0.45594000000E+02  0.51100000000E-03 0. -1.
    9900012    2    1    2    0    0  0.80588700378E+01 -0.15939155634E+02  0.56284146213E+01  0.72461518223E+02  0.69999932167E+02 0.  0.
        -12    1    1    2    0    0 -0.80588700378E+01  0.15939155634E+02 -0.56284146213E+01  0.18726481777E+02  0.00000000000E+00 0.  1.
         11    1    3    3    0    0  0.12099215151E+01  0.17578055296E+02  0.58961798257E+01  0.18580012779E+02  0.51100000000E-03 0. -1.
        -11    1    3    3    0    0  0.79321366534E+01 -0.10742695219E+01  0.15762196537E+02  0.17678226349E+02  0.51100000000E-03 0.  1.
        -12    1    3    3    0    0 -0.10831881307E+01 -0.32442941408E+02 -0.16029961742E+02  0.36203279095E+02  0.00000000000E+00 0.  1.
</event>
<event>
 7    1  0.2641045E-013  0.7246138E+02  0.7816164E-02  0.1226709E+00
        -11   -1    0    0    0    0  0.00000000000E+00  0.00000000000E+00  0.45593999997E+02  0.45594000000E+02  0.51100000000E-03 0.  1.
         11   -1    0    0    0    0 -0.00000000000E+00 -0.00000000000E+00 -0.45593999997E+02  0.45594000000E+02  0.51100000000E-03 0. -1.
    9900012    2    1    2    0    0  0.11115182100E+02 -0.12064249917E+02 -0.90328861470E+01  0.72461376404E+02  0.69999747421E+02 0.  0.
        -12    1    1    2    0    0 -0.11115182100E+02  0.12064249917E+02  0.90328861470E+01  0.18726623596E+02  0.00000000000E+00 0.  1.
         11    1    3    3    0    0  0.20480430240E+02 -0.12906665557E+02 -0.17585590601E+02  0.29921280649E+02  0.51100000000E-03 0. -1.
        -11    1    3    3    0    0  0.11027958384E+02 -0.12915031788E+02  0.21310516249E+01  0.17115936828E+02  0.51100000000E-03 0.  1.
        -12    1    3    3    0    0 -0.20393206524E+02  0.13757447428E+02  0.64216528295E+01  0.25424158927E+02  0.00000000000E+00 0.  1.
</event>
<event>
 7    1  0.2641045E-013  0.7246169E+02  0.7816164E-02  0.1226708E+00
        -11   -1    0    0    0    0  0.00000000000E+00  0.00000000000E+00  0.45593999997E+02  0.45594000000E+02  0.51100000000E-03 0.  1.
         11   -1    0    0    0    0 -0.00000000000E+00 -0.00000000000E+00 -0.45593999997E+02  0.45594000000E+02  0.51100000000E-03 0. -1.
    9900012    2    1    2    0    0 -0.23049114021E+01  0.10356714010E+02 -0.15430503089E+02  0.72461693177E+02  0.70000160077E+02 0.  0.
        -12    1    1    2    0    0  0.23049114021E+01 -0.10356714010E+02  0.15430503089E+02  0.18726306823E+02  0.00000000000E+00 0.  1.
         11    1    3    3    0    0 -0.10411294970E+02  0.44522396255E+01 -0.24402744545E+02  0.26901885477E+02  0.51100000000E-03 0. -1.
        -11    1    3    3    0    0  0.25039982226E+02 -0.17098011294E+01  0.98750944873E+01  0.26971125694E+02  0.51100000000E-03 0.  1.
         12    1    3    3    0    0 -0.16933598658E+02  0.76142755142E+01 -0.90285303120E+00  0.18588682006E+02  0.00000000000E+00 0. -1.
</event>
<event>
 7    1  0.2641045E-013  0.7246159E+02  0.7816164E-02  0.1226708E+00
        -11   -1    0    0    0    0  0.00000000000E+00  0.00000000000E+00  0.45593999997E+02  0.45594000000E+02  0.51100000000E-03 0.  1.
         11   -1    0    0    0    0 -0.00000000000E+00 -0.00000000000E+00 -0.45593999997E+02  0.45594000000E+02  0.51100000000E-03 0. -1.
    9900012    2    1    2    0    0 -0.19609147151E+01  0.18554276312E+02  0.16037661840E+01  0.72461590254E+02  0.70000026001E+02 0.  0.
        -12    1    1    2    0    0  0.19609147151E+01 -0.18554276312E+02 -0.16037661840E+01  0.18726409746E+02  0.00000000000E+00 0.  1.
         11    1    3    3    0    0  0.30252221025E+01  0.10585967076E+02 -0.18959335258E+02  0.21924211762E+02  0.51100000000E-03 0. -1.
        -11    1    3    3    0    0  0.24344687042E+01  0.14033241090E+02 -0.10715422761E+02  0.17823545623E+02  0.51100000000E-03 0.  1.
        -12    1    3    3    0    0 -0.74206055217E+01 -0.60649318539E+01  0.31278524203E+02  0.32713832869E+02  0.00000000000E+00 0.  1.
</event>
<event>
 7    1  0.2641045E-013  0.7246156E+02  0.7816164E-02  0.1226708E+00
        -11   -1    0    0    0    0  0.00000000000E+00  0.00000000000E+00  0.45593999997E+02  0.45594000000E+02  0.51100000000E-03 0.  1.
         11   -1    0    0    0    0 -0.00000000000E+00 -0.00000000000E+00 -0.45593999997E+02  0.45594000000E+02  0.51100000000E-03 0. -1.
    9900012    2    1    2    0    0 -0.55750846273E+01  0.17516076449E+02  0.35756249120E+01  0.72461558900E+02  0.69999985157E+02 0.  0.
        -12    1    1    2    0    0  0.55750846273E+01 -0.17516076449E+02 -0.35756249120E+01  0.18726441100E+02  0.00000000000E+00 0.  1.
         11    1    3    3    0    0 -0.26491666401E+02 -0.74896413587E+01 -0.12642891616E+02  0.30294320013E+02  0.51100000000E-03 0. -1.
        -11    1    3    3    0    0  0.15023097884E+01  0.16545125660E+02  0.21718415938E+01  0.16754552037E+02  0.51100000000E-03 0.  1.
        -12    1    3    3    0    0  0.19414271985E+02  0.84605921476E+01  0.14046674935E+02  0.25412686850E+02  0.00000000000E+00 0.  1.
</event>
<event>
 7    1  0.2641045E-013  0.7246155E+02  0.7816164E-02  0.1226708E+00
        -11   -1    0    0    0    0  0.00000000000E+00  0.00000000000E+00  0.45593999997E+02  0.45594000000E+02  0.51100000000E-03 0. -1.
         11   -1    0    0    0    0 -0.00000000000E+00 -0.00000000000E+00 -0.45593999997E+02  0.45594000000E+02  0.51100000000E-03 0.  1.
    9900012    2    1    2    0    0 -0.14536464356E+02  0.40616234756E+01 -0.11084866027E+02  0.72461552498E+02  0.69999976817E+02 0.  0.
        -12    1    1    2    0    0  0.14536464356E+02 -0.40616234756E+01  0.11084866027E+02  0.18726447502E+02  0.00000000000E+00 0.  1.
         11    1    3    3    0    0 -0.15729058312E+01  0.15484416291E+02 -0.73853901068E+01  0.17227453901E+02  0.51100000000E-03 0. -1.
        -11    1    3    3    0    0 -0.12420608809E+01  0.15347130167E+02 -0.17163646611E+02  0.23057924556E+02  0.51100000000E-03 0.  1.
         12    1    3    3    0    0 -0.11721497644E+02 -0.26769922982E+02  0.13464170691E+02  0.32176174041E+02  0.00000000000E+00 0. -1.
</event>
<event>
 7    1  0.2641045E-013  0.7246155E+02  0.7816164E-02  0.1226708E+00
        -11   -1    0    0    0    0  0.00000000000E+00  0.00000000000E+00  0.45593999997E+02  0.45594000000E+02  0.51100000000E-03 0. -1.
         11   -1    0    0    0    0 -0.00000000000E+00 -0.00000000000E+00 -0.45593999997E+02  0.45594000000E+02  0.51100000000E-03 0.  1.
    9900012    2    1    2    0    0 -0.61508511804E+01 -0.92809348800E+01  0.15056935135E+02  0.72461547636E+02  0.69999970483E+02 0.  0.
        -12    1    1    2    0    0  0.61508511804E+01  0.92809348800E+01 -0.15056935135E+02  0.18726452364E+02  0.00000000000E+00 0.  1.
         11    1    3    3    0    0 -0.71117134433E+01  0.13970867781E+02  0.47604607108E+01  0.16383638213E+02  0.51100000000E-03 0. -1.
        -11    1    3    3    0    0 -0.54210088580E+01  0.14189815354E+02 -0.36401129488E+01  0.15620135062E+02  0.51100000000E-03 0.  1.
         12    1    3    3    0    0  0.63818711209E+01 -0.37441618015E+02  0.13936587373E+02  0.40457774361E+02  0.00000000000E+00 0. -1.
</event>
<event>
 7    1  0.2641045E-013  0.7246158E+02  0.7816164E-02  0.1226708E+00
        -11   -1    0    0    0    0  0.00000000000E+00  0.00000000000E+00  0.45593999997E+02  0.45594000000E+02  0.51100000000E-03 0.  1.
         11   -1    0    0    0    0 -0.00000000000E+00 -0.00000000000E+00 -0.45593999997E+02  0.45594000000E+02  0.51100000000E-03 0. -1.
    9900012    2    1    2    0    0  0.13784432960E+02  0.64521640380E+00  0.12659068434E+02  0.72461577228E+02  0.70000009032E+02 0.  0.
        -12    1    1    2    0    0 -0.13784432960E+02 -0.64521640380E+00 -0.12659068434E+02  0.18726422772E+02  0.00000000000E+00 0.  1.
         11    1    3    3    0    0  0.77936361628E+01  0.94096454801E+00  0.47027414457E+01  0.91510631233E+01  0.51100000000E-03 0. -1.
        -11    1    3    3    0    0 -0.25239975071E+01  0.29863932667E+02 -0.29806675437E+01  0.30118257205E+02  0.51100000000E-03 0.  1.
         12    1    3    3    0    0  0.85147943043E+01 -0.30159680812E+02  0.10936994532E+02  0.33192256900E+02  0.00000000000E+00 0. -1.
</event>
<event>
 7    1  0.2641045E-013  0.7246154E+02  0.7816164E-02  0.1226708E+00
        -11   -1    0    0    0    0  0.00000000000E+00  0.00000000000E+00  0.45593999997E+02  0.45594000000E+02  0.51100000000E-03 0.  1.
         11   -1    0    0    0    0 -0.00000000000E+00 -0.00000000000E+00 -0.45593999997E+02  0.45594000000E+02  0.51100000000E-03 0. -1.
    9900012    2    1    2    0    0 -0.47505314077E+00 -0.17209877987E+02 -0.73671500106E+01  0.72461535436E+02  0.69999954590E+02 0.  0.
        -12    1    1    2    0    0  0.47505314077E+00  0.17209877987E+02  0.73671500106E+01  0.18726464564E+02  0.00000000000E+00 0.  1.
         11    1    3    3    0    0 -0.14385279099E+01  0.18627243990E+01  0.58085693409E+00  0.24241492886E+01  0.51100000000E-03 0. -1.
        -11    1    3    3    0    0  0.69061191411E+01  0.81571337801E+01  0.24817818580E+02  0.27021425433E+02  0.51100000000E-03 0.  1.
         12    1    3    3    0    0 -0.59426443719E+01 -0.27229736166E+02 -0.32765825525E+02  0.43015960714E+02  0.00000000000E+00 0. -1.
</event>
<event>
 7    1  0.2641045E-013  0.7246152E+02  0.7816164E-02  0.1226708E+00
        -11   -1    0    0    0    0  0.00000000000E+00  0.00000000000E+00  0.45593999997E+02  0.45594000000E+02  0.51100000000E-03 0.  1.
         11   -1    0    0    0    0 -0.00000000000E+00 -0.00000000000E+00 -0.45593999997E+02  0.45594000000E+02  0.51100000000E-03 0. -1.
    9900012    2    1    2    0    0 -0.66716327707E+01 -0.19778341048E+01 -0.17385587092E+02  0.72461517412E+02  0.69999931111E+02 0.  0.
        -12    1    1    2    0    0  0.66716327707E+01  0.19778341048E+01  0.17385587092E+02  0.18726482588E+02  0.00000000000E+00 0.  1.
         11    1    3    3    0    0 -0.40426568368E+01 -0.15327424009E+02 -0.22965733345E+02  0.27905159189E+02  0.51100000000E-03 0. -1.
        -11    1    3    3    0    0  0.13461871005E+02 -0.91590910795E+01 -0.23167105773E+00  0.16283875217E+02  0.51100000000E-03 0.  1.
         12    1    3    3    0    0 -0.16090846939E+02  0.22508680984E+02  0.58118173105E+01  0.28272483005E+02  0.00000000000E+00 0. -1.
</event>
<event>
 7    1  0.2641045E-013  0.7246165E+02  0.7816164E-02  0.1226708E+00
        -11   -1    0    0    0    0  0.00000000000E+00  0.00000000000E+00  0.45593999997E+02  0.45594000000E+02  0.51100000000E-03 0. -1.
         11   -1    0    0    0    0 -0.00000000000E+00 -0.00000000000E+00 -0.45593999997E+02  0.45594000000E+02  0.51100000000E-03 0.  1.
    9900012    2    1    2    0    0 -0.11075124883E+02  0.44753124464E+01  0.14421838483E+02  0.72461648569E+02  0.70000101967E+02 0.  0.
        -12    1    1    2    0    0  0.11075124883E+02 -0.44753124464E+01 -0.14421838483E+02  0.18726351431E+02  0.00000000000E+00 0.  1.
         11    1    3    3    0    0  0.60217464751E-01  0.17378101442E+02  0.47857135442E+01  0.18025123862E+02  0.51100000000E-03 0. -1.
        -11    1    3    3    0    0 -0.87262700797E+01  0.19319418371E+02  0.51406937634E+01  0.21813171442E+02  0.51100000000E-03 0.  1.
         12    1    3    3    0    0 -0.24090722684E+01 -0.32222207367E+02  0.44954311759E+01  0.32623353265E+02  0.00000000000E+00 0. -1.
</event>
<event>
 7    1  0.2641045E-013  0.7246157E+02  0.7816164E-02  0.1226708E+00
        -11   -1    0    0    0    0  0.00000000000E+00  0.00000000000E+00  0.45593999997E+02  0.45594000000E+02  0.51100000000E-03 0.  1.
         11   -1    0    0    0    0 -0.00000000000E+00 -0.00000000000E+00 -0.45593999997E+02  0.45594000000E+02  0.51100000000E-03 0. -1.
    9900012    2    1    2    0    0 -0.36813910655E+01  0.17867511082E+02 -0.42283264712E+01  0.72461565817E+02  0.69999994168E+02 0.  0.
        -12    1    1    2    0    0  0.36813910655E+01 -0.17867511082E+02  0.42283264712E+01  0.18726434183E+02  0.00000000000E+00 0.  1.
         11    1    3    3    0    0  0.14132820459E+02 -0.62214627422E+01 -0.50978747225E+01  0.16261351104E+02  0.51100000000E-03 0. -1.
        -11    1    3    3    0    0  0.10286198542E+02  0.77224471011E+01  0.15836672083E+02  0.20402015895E+02  0.51100000000E-03 0.  1.
         12    1    3    3    0    0 -0.28100410066E+02  0.16366526724E+02 -0.14967123831E+02  0.35798198818E+02  0.00000000000E+00 0. -1.
</event>
<event>
 7    1  0.2641045E-013  0.7246151E+02  0.7816164E-02  0.1226708E+00
        -11   -1    0    0    0    0  0.00000000000E+00  0.00000000000E+00  0.45593999997E+02  0.45594000000E+02  0.51100000000E-03 0.  1.
         11   -1    0    0    0    0 -0.00000000000E+00 -0.00000000000E+00 -0.45593999997E+02  0.45594000000E+02  0.51100000000E-03 0. -1.
    9900012    2    1    2    0    0  0.12936090069E+02  0.67059488953E+01 -0.11763039988E+02  0.72461513767E+02  0.69999926363E+02 0.  0.
        -12    1    1    2    0    0 -0.12936090069E+02 -0.67059488953E+01  0.11763039988E+02  0.18726486233E+02  0.00000000000E+00 0.  1.
         11    1    3    3    0    0 -0.50287997118E+01 -0.97432535807E+01  0.13018692888E+02  0.17020757376E+02  0.51100000000E-03 0. -1.
        -11    1    3    3    0    0  0.67650816737E+01  0.18786053133E+02  0.73935076200E+01  0.21291925173E+02  0.51100000000E-03 0.  1.
         12    1    3    3    0    0  0.11199808108E+02 -0.23368506568E+01 -0.32175240496E+02  0.34148831219E+02  0.00000000000E+00 0. -1.
</event>
<event>
 7    1  0.2641045E-013  0.7246154E+02  0.7816164E-02  0.1226708E+00
        -11   -1    0    0    0    0  0.00000000000E+00  0.00000000000E+00  0.45593999997E+02  0.45594000000E+02  0.51100000000E-03 0. -1.
         11   -1    0    0    0    0 -0.00000000000E+00 -0.00000000000E+00 -0.45593999997E+02  0.45594000000E+02  0.51100000000E-03 0.  1.
    9900012    2    1    2    0    0  0.17174004173E+02 -0.74525729540E+01 -0.43956392549E+00  0.72461535320E+02  0.69999954439E+02 0.  0.
        -12    1    1    2    0    0 -0.17174004173E+02  0.74525729540E+01  0.43956392549E+00  0.18726464680E+02  0.00000000000E+00 0.  1.
         11    1    3    3    0    0 -0.22457090880E+02 -0.13223608973E+02 -0.42448061167E+01  0.26404604604E+02  0.51100000000E-03 0. -1.
        -11    1    3    3    0    0  0.95133746175E+00  0.68937075283E+01 -0.11203799529E+01  0.70486522082E+01  0.51100000000E-03 0.  1.
        -12    1    3    3    0    0  0.38679757591E+02 -0.11226715088E+01  0.49256221441E+01  0.39008278508E+02  0.00000000000E+00 0.  1.
</event>
<event>
 7    1  0.2641045E-013  0.7246163E+02  0.7816164E-02  0.1226708E+00
        -11   -1    0    0    0    0  0.00000000000E+00  0.00000000000E+00  0.45593999997E+02  0.45594000000E+02  0.51100000000E-03 0.  1.
         11   -1    0    0    0    0 -0.00000000000E+00 -0.00000000000E+00 -0.45593999997E+02  0.45594000000E+02  0.51100000000E-03 0. -1.
    9900012    2    1    2    0    0  0.18698884518E+02  0.95101913873E+00  0.35230725246E+00  0.72461632493E+02  0.70000081025E+02 0.  0.
        -12    1    1    2    0    0 -0.18698884518E+02 -0.95101913873E+00 -0.35230725246E+00  0.18726367507E+02  0.00000000000E+00 0.  1.
         11    1    3    3    0    0 -0.86020222062E+01  0.21025972662E+02 -0.82006493830E+01  0.24152369718E+02  0.51100000000E-03 0. -1.
        -11    1    3    3    0    0 -0.12464637800E+00  0.75892909084E+01  0.52203871830E+01  0.92122372860E+01  0.51100000000E-03 0.  1.
        -12    1    3    3    0    0  0.27425553102E+02 -0.27664244432E+02  0.33325694524E+01  0.39097025489E+02  0.00000000000E+00 0.  1.
</event>
<event>
 7    1  0.2641045E-013  0.7246166E+02  0.7816164E-02  0.1226708E+00
        -11   -1    0    0    0    0  0.00000000000E+00  0.00000000000E+00  0.45593999997E+02  0.45594000000E+02  0.51100000000E-03 0.  1.
         11   -1    0    0    0    0 -0.00000000000E+00 -0.00000000000E+00 -0.45593999997E+02  0.45594000000E+02  0.51100000000E-03 0. -1.
    9900012    2    1    2    0    0 -0.47410688555E+01  0.15326972694E+02 -0.96582615041E+01  0.72461659163E+02  0.70000115768E+02 0.  0.
        -12    1    1    2    0    0  0.47410688555E+01 -0.15326972694E+02  0.96582615041E+01  0.18726340837E+02  0.00000000000E+00 0.  1.
         11    1    3    3    0    0  0.10349392209E+02 -0.25917331246E+01  0.38159246067E+01  0.11330855243E+02  0.51100000000E-03 0. -1.
        -11    1    3    3    0    0 -0.17653925299E+02  0.34427589522E+02  0.14665809761E+01  0.38717836442E+02  0.51100000000E-03 0.  1.
         12    1    3    3    0    0  0.25634642341E+01 -0.16508883704E+02 -0.14940767087E+02  0.22412967478E+02  0.00000000000E+00 0. -1.
</event>
<event>
 7    1  0.2641045E-013  0.7246153E+02  0.7816164E-02  0.1226708E+00
        -11   -1    0    0    0    0  0.00000000000E+00  0.00000000000E+00  0.45593999997E+02  0.45594000000E+02  0.51100000000E-03 0. -1.
         11   -1    0    0    0    0 -0.00000000000E+00 -0.00000000000E+00 -0.45593999997E+02  0.45594000000E+02  0.51100000000E-03 0.  1.
    9900012    2    1    2    0    0  0.13103518605E+02  0.11586847165E+02  0.66875587326E+01  0.72461530262E+02  0.69999947850E+02 0.  0.
        -12    1    1    2    0    0 -0.13103518605E+02 -0.11586847165E+02 -0.66875587326E+01  0.18726469738E+02  0.00000000000E+00 0.  1.
         11    1    3    3    0    0 -0.43161274887E+00 -0.92532900895E+01 -0.14971835703E+01  0.93835614748E+01  0.51100000000E-03 0. -1.
        -11    1    3    3    0    0  0.98712861210E+01 -0.68911181892E+00 -0.22981813442E+02  0.25021608943E+02  0.51100000000E-03 0.  1.
         12    1    3    3    0    0  0.36638452330E+01  0.21529249073E+02  0.31166555745E+02  0.38056359844E+02  0.00000000000E+00 0. -1.
</event>
<event>
 7    1  0.2641045E-013  0.7246161E+02  0.7816164E-02  0.1226708E+00
        -11   -1    0    0    0    0  0.00000000000E+00  0.00000000000E+00  0.45593999997E+02  0.45594000000E+02  0.51100000000E-03 0.  1.
         11   -1    0    0    0    0 -0.00000000000E+00 -0.00000000000E+00 -0.45593999997E+02  0.45594000000E+02  0.51100000000E-03 0. -1.
    9900012    2    1    2    0    0 -0.27869055670E+01  0.13890672895E+02 -0.12245819361E+02  0.72461608785E+02  0.70000050142E+02 0.  0.
        -12    1    1    2    0    0  0.27869055670E+01 -0.13890672895E+02  0.12245819361E+02  0.18726391215E+02  0.00000000000E+00 0.  1.
         11    1    3    3    0    0 -0.39952974993E+01 -0.98602773359E+01  0.13909081417E+02  0.17511425339E+02  0.51100000000E-03 0. -1.
        -11    1    3    3    0    0  0.16046677946E+01 -0.72567002726E+01  0.65315770674E+01  0.98942486742E+01  0.51100000000E-03 0.  1.
         12    1    3    3    0    0 -0.39627586229E+00  0.31007650503E+02 -0.32686477846E+02  0.45055934773E+02  0.00000000000E+00 0. -1.
</event>
<event>
 7    1  0.2641045E-013  0.7246154E+02  0.7816164E-02  0.1226708E+00
        -11   -1    0    0    0    0  0.00000000000E+00  0.00000000000E+00  0.45593999997E+02  0.45594000000E+02  0.51100000000E-03 0. -1.
         11   -1    0    0    0    0 -0.00000000000E+00 -0.00000000000E+00 -0.45593999997E+02  0.45594000000E+02  0.51100000000E-03 0.  1.
    9900012    2    1    2    0    0 -0.15434375288E+02  0.40786243222E+01  0.97890312853E+01  0.72461541435E+02  0.69999962405E+02 0.  0.
        -12    1    1    2    0    0  0.15434375288E+02 -0.40786243222E+01 -0.97890312853E+01  0.18726458565E+02  0.00000000000E+00 0.  1.
         11    1    3    3    0    0  0.13732240708E+01  0.10202878804E+02 -0.43048324652E+01  0.11158676582E+02  0.51100000000E-03 0. -1.
        -11    1    3    3    0    0 -0.27664372249E+02  0.16140914304E+02  0.17171129685E+02  0.36341358002E+02  0.51100000000E-03 0.  1.
         12    1    3    3    0    0  0.10856772891E+02 -0.22265168786E+02 -0.30772659342E+01  0.24961506851E+02  0.00000000000E+00 0. -1.
</event>
<event>
 7    1  0.2641045E-013  0.7246155E+02  0.7816164E-02  0.1226708E+00
        -11   -1    0    0    0    0  0.00000000000E+00  0.00000000000E+00  0.45593999997E+02  0.45594000000E+02  0.51100000000E-03 0.  1.
         11   -1    0    0    0    0 -0.00000000000E+00 -0.00000000000E+00 -0.45593999997E+02  0.45594000000E+02  0.51100000000E-03 0. -1.
    9900012    2    1    2    0    0 -0.70112268741E+00  0.18117944155E+02 -0.46827986781E+01  0.72461546067E+02  0.69999968440E+02 0.  0.
        -12    1    1    2    0    0  0.70112268741E+00 -0.18117944155E+02  0.46827986781E+01  0.18726453933E+02  0.00000000000E+00 0.  1.
         11    1    3    3    0    0  0.84420883332E+01 -0.41284611239E+01  0.53615489818E+01  0.10819392516E+02  0.51100000000E-03 0. -1.
        -11    1    3    3    0    0 -0.28883757843E+02  0.10893655403E+02  0.87829165591E+01  0.32094903314E+02  0.51100000000E-03 0.  1.
         12    1    3    3    0    0  0.19740546823E+02  0.11352749876E+02 -0.18827264219E+02  0.29547250237E+02  0.00000000000E+00 0. -1.
</event>
<event>
 7    1  0.2641045E-013  0.7246161E+02  0.7816164E-02  0.1226708E+00
        -11   -1    0    0    0    0  0.00000000000E+00  0.00000000000E+00  0.45593999997E+02  0.45594000000E+02  0.51100000000E-03 0. -1.
         11   -1    0    0    0    0 -0.00000000000E+00 -0.00000000000E+00 -0.45593999997E+02  0.45594000000E+02  0.51100000000E-03 0.  1.
    9900012    2    1    2    0    0  0.34465683583E+01  0.18270361207E+02 -0.22344652084E+01  0.72461607746E+02  0.70000048788E+02 0.  0.
        -12    1    1    2    0    0 -0.34465683583E+01 -0.18270361207E+02  0.22344652084E+01  0.18726392254E+02  0.00000000000E+00 0.  1.
         11    1    3    3    0    0 -0.12085301884E+01  0.21661234879E+02  0.11794003675E+02  0.24693484255E+02  0.51100000000E-03 0. -1.
        -11    1    3    3    0    0 -0.18367684005E+02  0.69455453586E+01 -0.10553729696E+02  0.22293353870E+02  0.51100000000E-03 0.  1.
        -12    1    3    3    0    0  0.23022782552E+02 -0.10336419031E+02 -0.34747391877E+01  0.25474769621E+02  0.00000000000E+00 0.  1.
</event>
<event>
 7    1  0.2641045E-013  0.7246215E+02  0.7816164E-02  0.1226706E+00
        -11   -1    0    0    0    0  0.00000000000E+00  0.00000000000E+00  0.45593999997E+02  0.45594000000E+02  0.51100000000E-03 0.  1.
         11   -1    0    0    0    0 -0.00000000000E+00 -0.00000000000E+00 -0.45593999997E+02  0.45594000000E+02  0.51100000000E-03 0. -1.
    9900012    2    1    2    0    0  0.13442211346E+02  0.89131322419E+01 -0.95142290499E+01  0.72462148173E+02  0.70000752791E+02 0.  0.
        -12    1    1    2    0    0 -0.13442211346E+02 -0.89131322419E+01  0.95142290499E+01  0.18725851827E+02  0.00000000000E+00 0.  1.
         11    1    3    3    0    0 -0.82461718923E+00  0.22824286772E+02  0.13262568370E+01  0.22877653237E+02  0.51100000000E-03 0. -1.
        -11    1    3    3    0    0  0.14776737432E+01  0.14682433729E+02  0.34510957859E+01  0.15154782818E+02  0.51100000000E-03 0.  1.
        -12    1    3    3    0    0  0.12789154792E+02 -0.28593588259E+02 -0.14291581673E+02  0.34429712118E+02  0.00000000000E+00 0.  1.
</event>
<event>
 7    1  0.2641045E-013  0.7246158E+02  0.7816164E-02  0.1226708E+00
        -11   -1    0    0    0    0  0.00000000000E+00  0.00000000000E+00  0.45593999997E+02  0.45594000000E+02  0.51100000000E-03 0. -1.
         11   -1    0    0    0    0 -0.00000000000E+00 -0.00000000000E+00 -0.45593999997E+02  0.45594000000E+02  0.51100000000E-03 0.  1.
    9900012    2    1    2    0    0  0.14534194680E+02 -0.11789359077E+02 -0.66851197710E+00  0.72461582544E+02  0.70000015958E+02 0.  0.
        -12    1    1    2    0    0 -0.14534194680E+02  0.11789359077E+02  0.66851197710E+00  0.18726417456E+02  0.00000000000E+00 0.  1.
         11    1    3    3    0    0 -0.16048687724E+02  0.26068816548E+01  0.16814897605E+02  0.23390104560E+02  0.51100000000E-03 0. -1.
        -11    1    3    3    0    0 -0.10005927565E+01  0.72005325518E+01 -0.50073443041E+01  0.88273638270E+01  0.51100000000E-03 0.  1.
        -12    1    3    3    0    0  0.31583475160E+02 -0.21596773284E+02 -0.12476065278E+02  0.40244114157E+02  0.00000000000E+00 0.  1.
</event>
<event>
 7    1  0.2641045E-013  0.7246155E+02  0.7816164E-02  0.1226708E+00
        -11   -1    0    0    0    0  0.00000000000E+00  0.00000000000E+00  0.45593999997E+02  0.45594000000E+02  0.51100000000E-03 0.  1.
         11   -1    0    0    0    0 -0.00000000000E+00 -0.00000000000E+00 -0.45593999997E+02  0.45594000000E+02  0.51100000000E-03 0. -1.
    9900012    2    1    2    0    0  0.73232773600E+01 -0.51952910255E+01  0.16433454548E+02  0.72461551631E+02  0.69999975687E+02 0.  0.
        -12    1    1    2    0    0 -0.73232773600E+01  0.51952910255E+01 -0.16433454548E+02  0.18726448369E+02  0.00000000000E+00 0.  1.
         11    1    3    3    0    0 -0.28319642957E+01 -0.65951286937E+00  0.53213304771E+01  0.60639539332E+01  0.51100000000E-03 0. -1.
        -11    1    3    3    0    0  0.31935002221E+02 -0.67268718932E+01  0.24437332226E+02  0.40771048293E+02  0.51100000000E-03 0.  1.
         12    1    3    3    0    0 -0.21779760565E+02  0.21910937371E+01 -0.13325208155E+02  0.25626549405E+02  0.00000000000E+00 0. -1.
</event>
<event>
 7    1  0.2641045E-013  0.7246167E+02  0.7816164E-02  0.1226708E+00
        -11   -1    0    0    0    0  0.00000000000E+00  0.00000000000E+00  0.45593999997E+02  0.45594000000E+02  0.51100000000E-03 0.  1.
         11   -1    0    0    0    0 -0.00000000000E+00 -0.00000000000E+00 -0.45593999997E+02  0.45594000000E+02  0.51100000000E-03 0. -1.
    9900012    2    1    2    0    0  0.41992314573E+01  0.96423510998E+01 -0.15494096929E+02  0.72461667759E+02  0.70000126965E+02 0.  0.
        -12    1    1    2    0    0 -0.41992314573E+01 -0.96423510998E+01  0.15494096929E+02  0.18726332241E+02  0.00000000000E+00 0.  1.
         11    1    3    3    0    0  0.85337934785E+01  0.17337764904E+02 -0.62839605899E+01  0.20320233364E+02  0.51100000000E-03 0. -1.
        -11    1    3    3    0    0  0.22705171684E+02  0.75714278968E+00 -0.67769330496E+01  0.23707064522E+02  0.51100000000E-03 0.  1.
         12    1    3    3    0    0 -0.27039733705E+02 -0.84525565940E+01 -0.24332032896E+01  0.28434369873E+02  0.00000000000E+00 0. -1.
</event>
<event>
 7    1  0.2641045E-013  0.7246158E+02  0.7816164E-02  0.1226708E+00
        -11   -1    0    0    0    0  0.00000000000E+00  0.00000000000E+00  0.45593999997E+02  0.45594000000E+02  0.51100000000E-03 0. -1.
         11   -1    0    0    0    0 -0.00000000000E+00 -0.00000000000E+00 -0.45593999997E+02  0.45594000000E+02  0.51100000000E-03 0.  1.
    9900012    2    1    2    0    0  0.58747464713E+01 -0.19966789465E+01  0.17668604281E+02  0.72461576152E+02  0.70000007630E+02 0.  0.
        -12    1    1    2    0    0 -0.58747464713E+01  0.19966789465E+01 -0.17668604281E+02  0.18726423848E+02  0.00000000000E+00 0.  1.
         11    1    3    3    0    0  0.10160989158E+01 -0.28411776304E+02  0.17503448649E+02  0.33386107959E+02  0.51100000000E-03 0. -1.
        -11    1    3    3    0    0  0.19880347474E+01 -0.58536078880E+01  0.23313681161E+01  0.66069875902E+01  0.51100000000E-03 0.  1.
        -12    1    3    3    0    0  0.28706128081E+01  0.32268705246E+02 -0.21662124840E+01  0.32468480603E+02  0.00000000000E+00 0.  1.
</event>
<event>
 7    1  0.2641045E-013  0.7246151E+02  0.7816164E-02  0.1226708E+00
        -11   -1    0    0    0    0  0.00000000000E+00  0.00000000000E+00  0.45593999997E+02  0.45594000000E+02  0.51100000000E-03 0.  1.
         11   -1    0    0    0    0 -0.00000000000E+00 -0.00000000000E+00 -0.45593999997E+02  0.45594000000E+02  0.51100000000E-03 0. -1.
    9900012    2    1    2    0    0 -0.17658252194E+02  0.61541353437E+01 -0.99702335940E+00  0.72461513197E+02  0.69999925621E+02 0.  0.
        -12    1    1    2    0    0  0.17658252194E+02 -0.61541353437E+01  0.99702335940E+00  0.18726486803E+02  0.00000000000E+00 0.  1.
         11    1    3    3    0    0  0.23423651244E+02  0.80207707344E+01 -0.43729125768E+01  0.25142047757E+02  0.51100000000E-03 0. -1.
        -11    1    3    3    0    0 -0.15749320941E+02  0.68340891095E+01  0.98088325115E+01  0.19772685188E+02  0.51100000000E-03 0.  1.
        -12    1    3    3    0    0 -0.25332582497E+02 -0.87007245003E+01 -0.64329432942E+01  0.27546780252E+02  0.00000000000E+00 0.  1.
</event>
<event>
 7    1  0.2641045E-013  0.7246158E+02  0.7816164E-02  0.1226708E+00
        -11   -1    0    0    0    0  0.00000000000E+00  0.00000000000E+00  0.45593999997E+02  0.45594000000E+02  0.51100000000E-03 0.  1.
         11   -1    0    0    0    0 -0.00000000000E+00 -0.00000000000E+00 -0.45593999997E+02  0.45594000000E+02  0.51100000000E-03 0. -1.
    9900012    2    1    2    0    0  0.14260301546E+02 -0.10184043954E+02  0.66036192758E+01  0.72461581790E+02  0.70000014975E+02 0.  0.
        -12    1    1    2    0    0 -0.14260301546E+02  0.10184043954E+02 -0.66036192758E+01  0.18726418210E+02  0.00000000000E+00 0.  1.
         11    1    3    3    0    0 -0.13879573557E+01 -0.17301529392E+02  0.26054322909E+02  0.31306502319E+02  0.51100000000E-03 0. -1.
        -11    1    3    3    0    0  0.66588440695E+01 -0.12308598842E+02 -0.12168918048E+02  0.18545198206E+02  0.51100000000E-03 0.  1.
        -12    1    3    3    0    0  0.89894148326E+01  0.19426084280E+02 -0.72817855853E+01  0.22609881265E+02  0.00000000000E+00 0.  1.
</event>
<event>
 7    1  0.2664157E-013  0.7246155E+02  0.7816164E-02  0.1226708E+00
        -11   -1    0    0    0    0  0.00000000000E+00  0.00000000000E+00  0.45593999997E+02  0.45594000000E+02  0.51100000000E-03 0. -1.
         11   -1    0    0    0    0 -0.00000000000E+00 -0.00000000000E+00 -0.45593999997E+02  0.45594000000E+02  0.51100000000E-03 0.  1.
    9900012    2    1    2    0    0  0.13710939003E+02 -0.28839500123E+01  0.12424686750E+02  0.72461551942E+02  0.69999976093E+02 0.  0.
        -12    1    1    2    0    0 -0.13710939003E+02  0.28839500123E+01 -0.12424686750E+02  0.18726448058E+02  0.00000000000E+00 0.  1.
         11    1    3    3    0    0  0.12028514155E+02 -0.38873836084E+01  0.25514145458E+02  0.28473997310E+02  0.51100000000E-03 0. -1.
        -11    1    3    3    0    0 -0.14829666181E+02 -0.43274995732E+01  0.74076381405E+01  0.17132406564E+02  0.51100000000E-03 0.  1.
        -12    1    3    3    0    0  0.16512091029E+02  0.53309331693E+01 -0.20497096848E+02  0.26855148069E+02  0.00000000000E+00 0.  1.
</event>
<event>
 7    1  0.2641045E-013  0.7246163E+02  0.7816164E-02  0.1226708E+00
        -11   -1    0    0    0    0  0.00000000000E+00  0.00000000000E+00  0.45593999997E+02  0.45594000000E+02  0.51100000000E-03 0.  1.
         11   -1    0    0    0    0 -0.00000000000E+00 -0.00000000000E+00 -0.45593999997E+02  0.45594000000E+02  0.51100000000E-03 0. -1.
    9900012    2    1    2    0    0  0.66890393753E+01  0.10225676636E+02 -0.14190464239E+02  0.72461628602E+02  0.70000075956E+02 0.  0.
        -12    1    1    2    0    0 -0.66890393753E+01 -0.10225676636E+02  0.14190464239E+02  0.18726371398E+02  0.00000000000E+00 0.  1.
         11    1    3    3    0    0 -0.63963862026E+01  0.16921563888E+02  0.10662342464E+02  0.20998538710E+02  0.51100000000E-03 0. -1.
        -11    1    3    3    0    0 -0.14535762063E+01  0.16761316187E+02 -0.52939283712E+01  0.17637468128E+02  0.51100000000E-03 0.  1.
         12    1    3    3    0    0  0.14539001784E+02 -0.23457203440E+02 -0.19558878332E+02  0.33825621763E+02  0.00000000000E+00 0. -1.
</event>
<event>
 7    1  0.2641045E-013  0.7246166E+02  0.7816164E-02  0.1226708E+00
        -11   -1    0    0    0    0  0.00000000000E+00  0.00000000000E+00  0.45593999997E+02  0.45594000000E+02  0.51100000000E-03 0. -1.
         11   -1    0    0    0    0 -0.00000000000E+00 -0.00000000000E+00 -0.45593999997E+02  0.45594000000E+02  0.51100000000E-03 0.  1.
    9900012    2    1    2    0    0  0.18223556627E+02 -0.98932011626E+00  0.41951153593E+01  0.72461661241E+02  0.70000118475E+02 0.  0.
        -12    1    1    2    0    0 -0.18223556627E+02  0.98932011626E+00 -0.41951153593E+01  0.18726338759E+02  0.00000000000E+00 0.  1.
         11    1    3    3    0    0  0.15989738236E+02  0.13273217692E+02 -0.24704043936E+01  0.20927325077E+02  0.51100000000E-03 0. -1.
        -11    1    3    3    0    0 -0.86904056017E+01 -0.24116083920E+01 -0.19111736870E+02  0.21132853357E+02  0.51100000000E-03 0.  1.
         12    1    3    3    0    0  0.10924223993E+02 -0.11850929416E+02  0.25777256623E+02  0.30401482807E+02  0.00000000000E+00 0. -1.
</event>
<event>
 7    1  0.2641045E-013  0.7246151E+02  0.7816164E-02  0.1226708E+00
        -11   -1    0    0    0    0  0.00000000000E+00  0.00000000000E+00  0.45593999997E+02  0.45594000000E+02  0.51100000000E-03 0. -1.
         11   -1    0    0    0    0 -0.00000000000E+00 -0.00000000000E+00 -0.45593999997E+02  0.45594000000E+02  0.51100000000E-03 0.  1.
    9900012    2    1    2    0    0 -0.22326579927E+00 -0.16846113717E+02  0.81755853371E+01  0.72461505651E+02  0.69999915790E+02 0.  0.
        -12    1    1    2    0    0  0.22326579927E+00  0.16846113717E+02 -0.81755853371E+01  0.18726494349E+02  0.00000000000E+00 0.  1.
         11    1    3    3    0    0 -0.17803554229E+02 -0.10231459872E+02  0.11798288516E+02  0.23682249185E+02  0.51100000000E-03 0. -1.
        -11    1    3    3    0    0  0.21441975561E+02 -0.11363599543E+02  0.15436937679E+02  0.28760889341E+02  0.51100000000E-03 0.  1.
        -12    1    3    3    0    0 -0.38616871315E+01  0.47489456971E+01 -0.19059640858E+02  0.20018367125E+02  0.00000000000E+00 0.  1.
</event>
<event>
 7    1  0.2641045E-013  0.7246162E+02  0.7816164E-02  0.1226708E+00
        -11   -1    0    0    0    0  0.00000000000E+00  0.00000000000E+00  0.45593999997E+02  0.45594000000E+02  0.51100000000E-03 0. -1.
         11   -1    0    0    0    0 -0.00000000000E+00 -0.00000000000E+00 -0.45593999997E+02  0.45594000000E+02  0.51100000000E-03 0.  1.
    9900012    2    1    2    0    0  0.54983086267E+01  0.15969182271E+02  0.80889501842E+01  0.72461620338E+02  0.70000065191E+02 0.  0.
        -12    1    1    2    0    0 -0.54983086267E+01 -0.15969182271E+02 -0.80889501842E+01  0.18726379662E+02  0.00000000000E+00 0.  1.
         11    1    3    3    0    0 -0.66649559338E+01  0.39623693827E+02  0.57116364910E+01  0.40584252386E+02  0.51100000000E-03 0. -1.
        -11    1    3    3    0    0 -0.11993920384E+01 -0.21061618043E+00  0.46407461588E+01  0.47978563555E+01  0.51100000000E-03 0.  1.
        -12    1    3    3    0    0  0.13362656599E+02 -0.23443895375E+02 -0.22634324655E+01  0.27079511596E+02  0.00000000000E+00 0.  1.
</event>
<event>
 7    1  0.2641045E-013  0.7246155E+02  0.7816164E-02  0.1226708E+00
        -11   -1    0    0    0    0  0.00000000000E+00  0.00000000000E+00  0.45593999997E+02  0.45594000000E+02  0.51100000000E-03 0.  1.
         11   -1    0    0    0    0 -0.00000000000E+00 -0.00000000000E+00 -0.45593999997E+02  0.45594000000E+02  0.51100000000E-03 0. -1.
    9900012    2    1    2    0    0  0.14821549633E+02 -0.83463080574E+01 -0.78320315650E+01  0.72461550519E+02  0.69999974239E+02 0.  0.
        -12    1    1    2    0    0 -0.14821549633E+02  0.83463080574E+01  0.78320315650E+01  0.18726449481E+02  0.00000000000E+00 0.  1.
         11    1    3    3    0    0  0.39137737736E+01 -0.12932393140E+02 -0.16689707914E+02  0.21473489888E+02  0.51100000000E-03 0. -1.
        -11    1    3    3    0    0  0.16109684080E+02 -0.19470707339E+02  0.15737566809E+01  0.25320092334E+02  0.51100000000E-03 0.  1.
         12    1    3    3    0    0 -0.52019082197E+01  0.24056792422E+02  0.72839196676E+01  0.25667968297E+02  0.00000000000E+00 0. -1.
</event>
<event>
 7    1  0.2641045E-013  0.7246158E+02  0.7816164E-02  0.1226708E+00
        -11   -1    0    0    0    0  0.00000000000E+00  0.00000000000E+00  0.45593999997E+02  0.45594000000E+02  0.51100000000E-03 0. -1.
         11   -1    0    0    0    0 -0.00000000000E+00 -0.00000000000E+00 -0.45593999997E+02  0.45594000000E+02  0.51100000000E-03 0.  1.
    9900012    2    1    2    0    0  0.71836241421E+01  0.17281662011E+02  0.64683024702E+00  0.72461583177E+02  0.70000016782E+02 0.  0.
        -12    1    1    2    0    0 -0.71836241421E+01 -0.17281662011E+02 -0.64683024702E+00  0.18726416823E+02  0.00000000000E+00 0.  1.
         11    1    3    3    0    0  0.71352553202E+01 -0.49320876325E+01  0.15129402375E+02  0.17439500377E+02  0.51100000000E-03 0. -1.
        -11    1    3    3    0    0  0.70031562770E+01 -0.92577504769E+01 -0.19211515675E+02  0.22446212966E+02  0.51100000000E-03 0.  1.
         12    1    3    3    0    0 -0.69547874551E+01  0.31471500120E+02  0.47289435462E+01  0.32575869834E+02  0.00000000000E+00 0. -1.
</event>
<event>
 7    1  0.2641045E-013  0.7246156E+02  0.7816164E-02  0.1226708E+00
        -11   -1    0    0    0    0  0.00000000000E+00  0.00000000000E+00  0.45593999997E+02  0.45594000000E+02  0.51100000000E-03 0. -1.
         11   -1    0    0    0    0 -0.00000000000E+00 -0.00000000000E+00 -0.45593999997E+02  0.45594000000E+02  0.51100000000E-03 0.  1.
    9900012    2    1    2    0    0  0.41217803370E+01 -0.11702467429E+02  0.14026495183E+02  0.72461564562E+02  0.69999992533E+02 0.  0.
        -12    1    1    2    0    0 -0.41217803370E+01  0.11702467429E+02 -0.14026495183E+02  0.18726435438E+02  0.00000000000E+00 0.  1.
         11    1    3    3    0    0 -0.41314543458E+01 -0.63728642126E+01  0.39877926036E+01  0.85781585083E+01  0.51100000000E-03 0. -1.
        -11    1    3    3    0    0  0.22668469849E+02 -0.23960410520E+02  0.19703710705E+02  0.38421309366E+02  0.51100000000E-03 0.  1.
        -12    1    3    3    0    0 -0.14415235167E+02  0.18630807303E+02 -0.96650081261E+01  0.25462096688E+02  0.00000000000E+00 0.  1.
</event>
<event>
 7    1  0.2641045E-013  0.7246159E+02  0.7816164E-02  0.1226708E+00
        -11   -1    0    0    0    0  0.00000000000E+00  0.00000000000E+00  0.45593999997E+02  0.45594000000E+02  0.51100000000E-03 0.  1.
         11   -1    0    0    0    0 -0.00000000000E+00 -0.00000000000E+00 -0.45593999997E+02  0.45594000000E+02  0.51100000000E-03 0. -1.
    9900012    2    1    2    0    0  0.46576757917E+01 -0.18052647151E+02  0.17568032291E+01  0.72461591628E+02  0.70000027791E+02 0.  0.
        -12    1    1    2    0    0 -0.46576757917E+01  0.18052647151E+02 -0.17568032291E+01  0.18726408372E+02  0.00000000000E+00 0.  1.
         11    1    3    3    0    0 -0.61362903099E+01 -0.18569913381E+01  0.34580203260E+01  0.72842556540E+01  0.51100000000E-03 0. -1.
        -11    1    3    3    0    0 -0.22916141932E+02 -0.13701793024E+02  0.11257562356E+02  0.28976221348E+02  0.51100000000E-03 0.  1.
         12    1    3    3    0    0  0.33710108034E+02 -0.24938627892E+01 -0.12958779453E+02  0.36201114626E+02  0.00000000000E+00 0. -1.
</event>
<event>
 7    1  0.2641045E-013  0.7246153E+02  0.7816164E-02  0.1226708E+00
        -11   -1    0    0    0    0  0.00000000000E+00  0.00000000000E+00  0.45593999997E+02  0.45594000000E+02  0.51100000000E-03 0.  1.
         11   -1    0    0    0    0 -0.00000000000E+00 -0.00000000000E+00 -0.45593999997E+02  0.45594000000E+02  0.51100000000E-03 0. -1.
    9900012    2    1    2    0    0 -0.14208668420E+02 -0.44164518395E+00  0.12190131388E+02  0.72461531780E+02  0.69999949828E+02 0.  0.
        -12    1    1    2    0    0  0.14208668420E+02  0.44164518395E+00 -0.12190131388E+02  0.18726468220E+02  0.00000000000E+00 0.  1.
         11    1    3    3    0    0 -0.12942349574E+02 -0.59703155822E+01  0.18907699291E+02  0.23678052567E+02  0.51100000000E-03 0. -1.
        -11    1    3    3    0    0  0.15413386834E+02  0.13874505733E+02  0.10637002216E+02  0.23307085177E+02  0.51100000000E-03 0.  1.
         12    1    3    3    0    0 -0.16679705681E+02 -0.83458353349E+01 -0.17354570119E+02  0.25476394035E+02  0.00000000000E+00 0. -1.
</event>
<event>
 7    1  0.2641045E-013  0.7246161E+02  0.7816164E-02  0.1226708E+00
        -11   -1    0    0    0    0  0.00000000000E+00  0.00000000000E+00  0.45593999997E+02  0.45594000000E+02  0.51100000000E-03 0.  1.
         11   -1    0    0    0    0 -0.00000000000E+00 -0.00000000000E+00 -0.45593999997E+02  0.45594000000E+02  0.51100000000E-03 0. -1.
    9900012    2    1    2    0    0  0.13614571683E+02 -0.47524489229E+01  0.11947194834E+02  0.72461606933E+02  0.70000047729E+02 0.  0.
        -12    1    1    2    0    0 -0.13614571683E+02  0.47524489229E+01 -0.11947194834E+02  0.18726393067E+02  0.00000000000E+00 0.  1.
         11    1    3    3    0    0  0.34836639491E+01  0.80151029148E+01 -0.28570013178E+01  0.91945769906E+01  0.51100000000E-03 0. -1.
        -11    1    3    3    0    0  0.71727512402E+01  0.21456610458E+02  0.17797406154E+02  0.28785103070E+02  0.51100000000E-03 0.  1.
         12    1    3    3    0    0  0.29581564941E+01 -0.34224162296E+02 -0.29932100019E+01  0.34481926872E+02  0.00000000000E+00 0. -1.
</event>
<event>
 7    1  0.2641045E-013  0.7246158E+02  0.7816164E-02  0.1226708E+00
        -11   -1    0    0    0    0  0.00000000000E+00  0.00000000000E+00  0.45593999997E+02  0.45594000000E+02  0.51100000000E-03 0.  1.
         11   -1    0    0    0    0 -0.00000000000E+00 -0.00000000000E+00 -0.45593999997E+02  0.45594000000E+02  0.51100000000E-03 0. -1.
    9900012    2    1    2    0    0 -0.26192403375E+01  0.14882054196E+02 -0.11060876405E+02  0.72461576319E+02  0.70000007848E+02 0.  0.
        -12    1    1    2    0    0  0.26192403375E+01 -0.14882054196E+02  0.11060876405E+02  0.18726423681E+02  0.00000000000E+00 0.  1.
         11    1    3    3    0    0  0.13276935945E+02  0.18688372615E+02 -0.14558421812E+02  0.27156581983E+02  0.51100000000E-03 0. -1.
        -11    1    3    3    0    0 -0.70458289604E+01  0.13848281459E+02 -0.12458660849E+02  0.19915743409E+02  0.51100000000E-03 0.  1.
        -12    1    3    3    0    0 -0.88503473217E+01 -0.17654599878E+02  0.15956206256E+02  0.25389250927E+02  0.00000000000E+00 0.  1.
</event>
<event>
 7    1  0.2641045E-013  0.7246162E+02  0.7816164E-02  0.1226708E+00
        -11   -1    0    0    0    0  0.00000000000E+00  0.00000000000E+00  0.45593999997E+02  0.45594000000E+02  0.51100000000E-03 0.  1.
         11   -1    0    0    0    0 -0.00000000000E+00 -0.00000000000E+00 -0.45593999997E+02  0.45594000000E+02  0.51100000000E-03 0. -1.
    9900012    2    1    2    0    0 -0.10268639140E+02  0.15037665868E+01 -0.15587526734E+02  0.72461621455E+02  0.70000066647E+02 0.  0.
        -12    1    1    2    0    0  0.10268639140E+02 -0.15037665868E+01  0.15587526734E+02  0.18726378545E+02  0.00000000000E+00 0.  1.
         11    1    3    3    0    0  0.42309008585E+01 -0.37670963072E+00 -0.69257824392E+01  0.81245858280E+01  0.51100000000E-03 0. -1.
        -11    1    3    3    0    0  0.19090697236E+02  0.14845290103E+02 -0.13991606312E+02  0.27939262815E+02  0.51100000000E-03 0.  1.
         12    1    3    3    0    0 -0.33590237234E+02 -0.12964813886E+02  0.53298620171E+01  0.36397772812E+02  0.00000000000E+00 0. -1.
</event>
<event>
 7    1  0.2641045E-013  0.7246158E+02  0.7816164E-02  0.1226708E+00
        -11   -1    0    0    0    0  0.00000000000E+00  0.00000000000E+00  0.45593999997E+02  0.45594000000E+02  0.51100000000E-03 0.  1.
         11   -1    0    0    0    0 -0.00000000000E+00 -0.00000000000E+00 -0.45593999997E+02  0.45594000000E+02  0.51100000000E-03 0. -1.
    9900012    2    1    2    0    0 -0.14929179221E+02  0.94331922085E+01 -0.62300295672E+01  0.72461580805E+02  0.70000013692E+02 0.  0.
        -12    1    1    2    0    0  0.14929179221E+02 -0.94331922085E+01  0.62300295672E+01  0.18726419195E+02  0.00000000000E+00 0.  1.
         11    1    3    3    0    0 -0.25142860240E+01  0.18229714937E+00  0.68991809039E+01  0.73453089701E+01  0.51100000000E-03 0. -1.
        -11    1    3    3    0    0 -0.17146232863E+02  0.36727909193E+01  0.22623224313E+02  0.28623294239E+02  0.51100000000E-03 0.  1.
         12    1    3    3    0    0  0.47313396652E+01  0.55781041398E+01 -0.35752434784E+02  0.36492977596E+02  0.00000000000E+00 0. -1.
</event>
<event>
 7    1  0.2641045E-013  0.7246149E+02  0.7816164E-02  0.1226708E+00
        -11   -1    0    0    0    0  0.00000000000E+00  0.00000000000E+00  0.45593999997E+02  0.45594000000E+02  0.51100000000E-03 0. -1.
         11   -1    0    0    0    0 -0.00000000000E+00 -0.00000000000E+00 -0.45593999997E+02  0.45594000000E+02  0.51100000000E-03 0.  1.
    9900012    2    1    2    0    0 -0.27371233518E+01  0.17431366255E+02  0.62719726919E+01  0.72461494314E+02  0.69999901022E+02 0.  0.
        -12    1    1    2    0    0  0.27371233518E+01 -0.17431366255E+02 -0.62719726919E+01  0.18726505686E+02  0.00000000000E+00 0.  1.
         11    1    3    3    0    0 -0.12340592922E+02  0.18510928521E+02  0.19872781754E+02  0.29830725155E+02  0.51100000000E-03 0. -1.
        -11    1    3    3    0    0 -0.10284694400E+02  0.17274009768E+01 -0.19139065875E+02  0.21795933012E+02  0.51100000000E-03 0.  1.
         12    1    3    3    0    0  0.19888163970E+02 -0.28069632429E+01  0.55382568124E+01  0.20834836147E+02  0.00000000000E+00 0. -1.
</event>
<event>
 7    1  0.2641045E-013  0.7246161E+02  0.7816164E-02  0.1226708E+00
        -11   -1    0    0    0    0  0.00000000000E+00  0.00000000000E+00  0.45593999997E+02  0.45594000000E+02  0.51100000000E-03 0.  1.
         11   -1    0    0    0    0 -0.00000000000E+00 -0.00000000000E+00 -0.45593999997E+02  0.45594000000E+02  0.51100000000E-03 0. -1.
    9900012    2    1    2    0    0  0.14679060302E+02 -0.10714887254E+02 -0.45159687596E+01  0.72461612359E+02  0.70000054798E+02 0.  0.
        -12    1    1    2    0    0 -0.14679060302E+02  0.10714887254E+02  0.45159687596E+01  0.18726387641E+02  0.00000000000E+00 0.  1.
         11    1    3    3    0    0 -0.66432038720E+01  0.67039240793E+01  0.13409169139E+01  0.95327233347E+01  0.51100000000E-03 0. -1.
        -11    1    3    3    0    0  0.70145305858E+01 -0.69213566275E+01  0.25256340865E+02  0.27110727970E+02  0.51100000000E-03 0.  1.
         12    1    3    3    0    0  0.14307733588E+02 -0.10497454706E+02 -0.31113226538E+02  0.35818161055E+02  0.00000000000E+00 0. -1.
</event>
<event>
 7    1  0.2641045E-013  0.7246164E+02  0.7816164E-02  0.1226708E+00
        -11   -1    0    0    0    0  0.00000000000E+00  0.00000000000E+00  0.45593999997E+02  0.45594000000E+02  0.51100000000E-03 0. -1.
         11   -1    0    0    0    0 -0.00000000000E+00 -0.00000000000E+00 -0.45593999997E+02  0.45594000000E+02  0.51100000000E-03 0.  1.
    9900012    2    1    2    0    0 -0.71109425245E+01 -0.15618995009E+02  0.74938798447E+01  0.72461635062E+02  0.70000084372E+02 0.  0.
        -12    1    1    2    0    0  0.71109425245E+01  0.15618995009E+02 -0.74938798447E+01  0.18726364938E+02  0.00000000000E+00 0.  1.
         11    1    3    3    0    0  0.18691125004E+02  0.45685223247E+01 -0.19160289533E+02  0.27154120229E+02  0.51100000000E-03 0. -1.
        -11    1    3    3    0    0 -0.65745539727E-01 -0.57066524352E+01  0.27991521567E+00  0.57138916057E+01  0.51100000000E-03 0.  1.
        -12    1    3    3    0    0 -0.25736321989E+02 -0.14480864898E+02  0.26374254162E+02  0.39593623228E+02  0.00000000000E+00 0.  1.
</event>
<event>
 7    1  0.2641045E-013  0.7246188E+02  0.7816164E-02  0.1226707E+00
        -11   -1    0    0    0    0  0.00000000000E+00  0.00000000000E+00  0.45593999997E+02  0.45594000000E+02  0.51100000000E-03 0.  1.
         11   -1    0    0    0    0 -0.00000000000E+00 -0.00000000000E+00 -0.45593999997E+02  0.45594000000E+02  0.51100000000E-03 0. -1.
    9900012    2    1    2    0    0 -0.65853867034E+01  0.12593429857E+02 -0.12194495883E+02  0.72461881250E+02  0.70000405077E+02 0.  0.
        -12    1    1    2    0    0  0.65853867034E+01 -0.12593429857E+02  0.12194495883E+02  0.18726118750E+02  0.00000000000E+00 0.  1.
         11    1    3    3    0    0 -0.11496991784E+02 -0.14682266593E+02 -0.76412537147E+01  0.20152878976E+02  0.51100000000E-03 0. -1.
        -11    1    3    3    0    0 -0.11434826562E+02 -0.73984742832E+01 -0.29849063527E+01  0.13942824191E+02  0.51100000000E-03 0.  1.
        -12    1    3    3    0    0  0.16346431643E+02  0.34674170733E+02 -0.15683358152E+01  0.38366178084E+02  0.00000000000E+00 0.  1.
</event>
<event>
 7    1  0.2641045E-013  0.7246155E+02  0.7816164E-02  0.1226708E+00
        -11   -1    0    0    0    0  0.00000000000E+00  0.00000000000E+00  0.45593999997E+02  0.45594000000E+02  0.51100000000E-03 0.  1.
         11   -1    0    0    0    0 -0.00000000000E+00 -0.00000000000E+00 -0.45593999997E+02  0.45594000000E+02  0.51100000000E-03 0. -1.
    9900012    2    1    2    0    0 -0.14852585840E+02 -0.10682982813E+02  0.39943088457E+01  0.72461549961E+02  0.69999973512E+02 0.  0.
        -12    1    1    2    0    0  0.14852585840E+02  0.10682982813E+02 -0.39943088457E+01  0.18726450039E+02  0.00000000000E+00 0.  1.
         11    1    3    3    0    0  0.24009138991E+01  0.85619099050E+00 -0.46170341949E+01  0.52739411810E+01  0.51100000000E-03 0. -1.
        -11    1    3    3    0    0  0.14774441093E+02 -0.12598616324E+02  0.24628689129E+02  0.31362104065E+02  0.51100000000E-03 0.  1.
         12    1    3    3    0    0 -0.32027940832E+02  0.10594425212E+01 -0.16017346088E+02  0.35825504715E+02  0.00000000000E+00 0. -1.
</event>
<event>
 7    1  0.2641045E-013  0.7246157E+02  0.7816164E-02  0.1226708E+00
        -11   -1    0    0    0    0  0.00000000000E+00  0.00000000000E+00  0.45593999997E+02  0.45594000000E+02  0.51100000000E-03 0.  1.
         11   -1    0    0    0    0 -0.00000000000E+00 -0.00000000000E+00 -0.45593999997E+02  0.45594000000E+02  0.51100000000E-03 0. -1.
    9900012    2    1    2    0    0 -0.16643626941E+02 -0.67320045813E+00 -0.85566052899E+01  0.72461574535E+02  0.70000005524E+02 0.  0.
        -12    1    1    2    0    0  0.16643626941E+02  0.67320045813E+00  0.85566052899E+01  0.18726425465E+02  0.00000000000E+00 0.  1.
         11    1    3    3    0    0  0.11616861032E+02  0.14697812888E+02 -0.23409487722E+02  0.29983016520E+02  0.51100000000E-03 0. -1.
        -11    1    3    3    0    0 -0.14783658795E+02 -0.35388282456E+01 -0.47342134294E+01  0.15921452502E+02  0.51100000000E-03 0.  1.
        -12    1    3    3    0    0 -0.13476829178E+02 -0.11832185101E+02  0.19587095862E+02  0.26557105513E+02  0.00000000000E+00 0.  1.
</event>
<event>
 7    1  0.2641045E-013  0.7246158E+02  0.7816164E-02  0.1226708E+00
        -11   -1    0    0    0    0  0.00000000000E+00  0.00000000000E+00  0.45593999997E+02  0.45594000000E+02  0.51100000000E-03 0. -1.
         11   -1    0    0    0    0 -0.00000000000E+00 -0.00000000000E+00 -0.45593999997E+02  0.45594000000E+02  0.51100000000E-03 0.  1.
    9900012    2    1    2    0    0  0.16917322675E+02 -0.15951518719E+01 -0.78700924135E+01  0.72461583616E+02  0.70000017354E+02 0.  0.
        -12    1    1    2    0    0 -0.16917322675E+02  0.15951518719E+01  0.78700924135E+01  0.18726416384E+02  0.00000000000E+00 0.  1.
         11    1    3    3    0    0  0.25251042452E+02 -0.28121537366E+02 -0.25877649852E+01  0.37883143172E+02  0.51100000000E-03 0. -1.
        -11    1    3    3    0    0  0.10195902441E+01  0.44690586660E+00 -0.67426772938E+01  0.68339583309E+01  0.51100000000E-03 0.  1.
         12    1    3    3    0    0 -0.93533100210E+01  0.26079479627E+02  0.14603498655E+01  0.27744482113E+02  0.00000000000E+00 0. -1.
</event>
<event>
 7    1  0.2641045E-013  0.7246155E+02  0.7816164E-02  0.1226708E+00
        -11   -1    0    0    0    0  0.00000000000E+00  0.00000000000E+00  0.45593999997E+02  0.45594000000E+02  0.51100000000E-03 0. -1.
         11   -1    0    0    0    0 -0.00000000000E+00 -0.00000000000E+00 -0.45593999997E+02  0.45594000000E+02  0.51100000000E-03 0.  1.
    9900012    2    1    2    0    0  0.10637347184E+02  0.15377897806E+02 -0.10231924345E+01  0.72461552958E+02  0.69999977416E+02 0.  0.
        -12    1    1    2    0    0 -0.10637347184E+02 -0.15377897806E+02  0.10231924345E+01  0.18726447042E+02  0.00000000000E+00 0.  1.
         11    1    3    3    0    0  0.50812220732E+01  0.77805901288E+01 -0.55883131413E+01  0.10843691463E+02  0.51100000000E-03 0. -1.
        -11    1    3    3    0    0 -0.20082976401E+02 -0.16379091355E+02 -0.16542904348E+01  0.25968004387E+02  0.51100000000E-03 0.  1.
         12    1    3    3    0    0  0.25639101512E+02  0.23976399032E+02  0.62194111416E+01  0.35649857108E+02  0.00000000000E+00 0. -1.
</event>
<event>
 7    1  0.2641045E-013  0.7246158E+02  0.7816164E-02  0.1226708E+00
        -11   -1    0    0    0    0  0.00000000000E+00  0.00000000000E+00  0.45593999997E+02  0.45594000000E+02  0.51100000000E-03 0.  1.
         11   -1    0    0    0    0 -0.00000000000E+00 -0.00000000000E+00 -0.45593999997E+02  0.45594000000E+02  0.51100000000E-03 0. -1.
    9900012    2    1    2    0    0  0.95234735253E+01 -0.14310491364E+02 -0.74291374088E+01  0.72461580329E+02  0.70000013072E+02 0.  0.
        -12    1    1    2    0    0 -0.95234735253E+01  0.14310491364E+02  0.74291374088E+01  0.18726419671E+02  0.00000000000E+00 0.  1.
         11    1    3    3    0    0  0.27236301483E+02 -0.11865556131E+02 -0.27739848541E+02  0.40646115904E+02  0.51100000000E-03 0. -1.
        -11    1    3    3    0    0  0.10790775592E+01 -0.31077283180E+01 -0.95811076221E+00  0.34264208981E+01  0.51100000000E-03 0.  1.
        -12    1    3    3    0    0 -0.18791905516E+02  0.66279308534E+00  0.21268821894E+02  0.28389043527E+02  0.00000000000E+00 0.  1.
</event>
<event>
 7    1  0.2641045E-013  0.7246155E+02  0.7816164E-02  0.1226708E+00
        -11   -1    0    0    0    0  0.00000000000E+00  0.00000000000E+00  0.45593999997E+02  0.45594000000E+02  0.51100000000E-03 0. -1.
         11   -1    0    0    0    0 -0.00000000000E+00 -0.00000000000E+00 -0.45593999997E+02  0.45594000000E+02  0.51100000000E-03 0.  1.
    9900012    2    1    2    0    0  0.12790613378E+02 -0.93798470871E+01  0.99548207991E+01  0.72461554018E+02  0.69999978797E+02 0.  0.
        -12    1    1    2    0    0 -0.12790613378E+02  0.93798470871E+01 -0.99548207991E+01  0.18726445982E+02  0.00000000000E+00 0.  1.
         11    1    3    3    0    0  0.10114481466E+01 -0.20198370557E+01 -0.28193708155E+01  0.36127027475E+01  0.51100000000E-03 0. -1.
        -11    1    3    3    0    0 -0.10682527390E+02 -0.26026150202E+02 -0.11966871486E+02  0.30572584111E+02  0.51100000000E-03 0.  1.
         12    1    3    3    0    0  0.22461692622E+02  0.18666140171E+02  0.24741063101E+02  0.38276267160E+02  0.00000000000E+00 0. -1.
</event>
<event>
 7    1  0.2641045E-013  0.7246160E+02  0.7816164E-02  0.1226708E+00
        -11   -1    0    0    0    0  0.00000000000E+00  0.00000000000E+00  0.45593999997E+02  0.45594000000E+02  0.51100000000E-03 0.  1.
         11   -1    0    0    0    0 -0.00000000000E+00 -0.00000000000E+00 -0.45593999997E+02  0.45594000000E+02  0.51100000000E-03 0. -1.
    9900012    2    1    2    0    0 -0.66855265051E+01 -0.76391591679E+01 -0.15736107155E+02  0.72461599229E+02  0.70000037693E+02 0.  0.
        -12    1    1    2    0    0  0.66855265051E+01  0.76391591679E+01  0.15736107155E+02  0.18726400771E+02  0.00000000000E+00 0.  1.
         11    1    3    3    0    0 -0.10351917525E+02 -0.93854324039E+01  0.19499654752E+01  0.14108540090E+02  0.51100000000E-03 0. -1.
        -11    1    3    3    0    0  0.50171588595E+00  0.16492435760E+02  0.15035464896E+02  0.22323023115E+02  0.51100000000E-03 0.  1.
         12    1    3    3    0    0  0.31646751335E+01 -0.14746162524E+02 -0.32721537526E+02  0.36030036024E+02  0.00000000000E+00 0. -1.
</event>
<event>
 7    1  0.2641045E-013  0.7246153E+02  0.7816164E-02  0.1226708E+00
        -11   -1    0    0    0    0  0.00000000000E+00  0.00000000000E+00  0.45593999997E+02  0.45594000000E+02  0.51100000000E-03 0.  1.
         11   -1    0    0    0    0 -0.00000000000E+00 -0.00000000000E+00 -0.45593999997E+02  0.45594000000E+02  0.51100000000E-03 0. -1.
    9900012    2    1    2    0    0 -0.12549472386E+02  0.18986592264E+01 -0.13769045529E+02  0.72461527326E+02  0.69999944026E+02 0.  0.
        -12    1    1    2    0    0  0.12549472386E+02 -0.18986592264E+01  0.13769045529E+02  0.18726472674E+02  0.00000000000E+00 0.  1.
         11    1    3    3    0    0 -0.34337393077E+02 -0.23611008128E+01 -0.20764710936E+02  0.40197071795E+02  0.51100000000E-03 0. -1.
        -11    1    3    3    0    0 -0.39448087104E+01  0.31020161140E+01 -0.13335352304E+01  0.51925269576E+01  0.51100000000E-03 0.  1.
        -12    1    3    3    0    0  0.25732729402E+02  0.11577439252E+01  0.83292006375E+01  0.27071928574E+02  0.00000000000E+00 0.  1.
</event>
<event>
 7    1  0.2641045E-013  0.7246170E+02  0.7816164E-02  0.1226708E+00
        -11   -1    0    0    0    0  0.00000000000E+00  0.00000000000E+00  0.45593999997E+02  0.45594000000E+02  0.51100000000E-03 0. -1.
         11   -1    0    0    0    0 -0.00000000000E+00 -0.00000000000E+00 -0.45593999997E+02  0.45594000000E+02  0.51100000000E-03 0.  1.
    9900012    2    1    2    0    0  0.10283272429E+02  0.88371960048E+01 -0.12916365294E+02  0.72461702516E+02  0.70000172243E+02 0.  0.
        -12    1    1    2    0    0 -0.10283272429E+02 -0.88371960048E+01  0.12916365294E+02  0.18726297484E+02  0.00000000000E+00 0.  1.
         11    1    3    3    0    0  0.13356253547E+02 -0.23823749261E+02 -0.16799027033E+01  0.27363892469E+02  0.51100000000E-03 0. -1.
        -11    1    3    3    0    0 -0.10170977521E+02  0.25223505618E+01 -0.94048075864E+01  0.14080534155E+02  0.51100000000E-03 0.  1.
        -12    1    3    3    0    0  0.70979964028E+01  0.30138594705E+02 -0.18316550038E+01  0.31017275892E+02  0.00000000000E+00 0.  1.
</event>
<event>
 7    1  0.2641045E-013  0.7246158E+02  0.7816164E-02  0.1226708E+00
        -11   -1    0    0    0    0  0.00000000000E+00  0.00000000000E+00  0.45593999997E+02  0.45594000000E+02  0.51100000000E-03 0. -1.
         11   -1    0    0    0    0 -0.00000000000E+00 -0.00000000000E+00 -0.45593999997E+02  0.45594000000E+02  0.51100000000E-03 0.  1.
    9900012    2    1    2    0    0 -0.25773739023E+01  0.18515506552E+02  0.11008828030E+01  0.72461580639E+02  0.70000013476E+02 0.  0.
        -12    1    1    2    0    0  0.25773739023E+01 -0.18515506552E+02 -0.11008828030E+01  0.18726419361E+02  0.00000000000E+00 0.  1.
         11    1    3    3    0    0  0.23310115258E+02  0.13941842947E+02  0.13081883734E+02  0.30147506371E+02  0.51100000000E-03 0. -1.
        -11    1    3    3    0    0 -0.13108285163E+02  0.74528694114E+01  0.90139164283E+01  0.17567671787E+02  0.51100000000E-03 0.  1.
        -12    1    3    3    0    0 -0.12779203997E+02 -0.28792058061E+01 -0.20994917359E+02  0.24746402482E+02  0.00000000000E+00 0.  1.
</event>
<event>
 7    1  0.2641045E-013  0.7246101E+02  0.7816164E-02  0.1226710E+00
        -11   -1    0    0    0    0  0.00000000000E+00  0.00000000000E+00  0.45593999997E+02  0.45594000000E+02  0.51100000000E-03 0. -1.
         11   -1    0    0    0    0 -0.00000000000E+00 -0.00000000000E+00 -0.45593999997E+02  0.45594000000E+02  0.51100000000E-03 0.  1.
    9900012    2    1    2    0    0 -0.88465419908E+01 -0.16053864804E+02  0.38356623786E+01  0.72461009152E+02  0.69999269004E+02 0.  0.
        -12    1    1    2    0    0  0.88465419908E+01  0.16053864804E+02 -0.38356623786E+01  0.18726990848E+02  0.00000000000E+00 0.  1.
         11    1    3    3    0    0  0.85408210579E+01  0.82521155385E+01  0.17122889967E+02  0.20838339576E+02  0.51100000000E-03 0. -1.
        -11    1    3    3    0    0 -0.91827307055E+01  0.10052815614E+02 -0.83042971634E+01  0.15948134581E+02  0.51100000000E-03 0.  1.
         12    1    3    3    0    0 -0.82046323432E+01 -0.34358795957E+02 -0.49829304251E+01  0.35674534995E+02  0.00000000000E+00 0. -1.
</event>
<event>
 7    1  0.2641045E-013  0.7246158E+02  0.7816164E-02  0.1226708E+00
        -11   -1    0    0    0    0  0.00000000000E+00  0.00000000000E+00  0.45593999997E+02  0.45594000000E+02  0.51100000000E-03 0. -1.
         11   -1    0    0    0    0 -0.00000000000E+00 -0.00000000000E+00 -0.45593999997E+02  0.45594000000E+02  0.51100000000E-03 0.  1.
    9900012    2    1    2    0    0 -0.11754119587E+02  0.14326726369E+02  0.26952704759E+01  0.72461577526E+02  0.70000009421E+02 0.  0.
        -12    1    1    2    0    0  0.11754119587E+02 -0.14326726369E+02 -0.26952704759E+01  0.18726422474E+02  0.00000000000E+00 0.  1.
         11    1    3    3    0    0 -0.87085763837E+01 -0.69028905248E+00  0.61832692058E+00  0.87577468591E+01  0.51100000000E-03 0. -1.
        -11    1    3    3    0    0 -0.19917556131E+02 -0.26604075822E+01 -0.21723370245E+02  0.29592087216E+02  0.51100000000E-03 0.  1.
         12    1    3    3    0    0  0.16872012928E+02  0.17677423004E+02  0.23800313800E+02  0.34111743451E+02  0.00000000000E+00 0. -1.
</event>
<event>
 7    1  0.2641045E-013  0.7246156E+02  0.7816164E-02  0.1226708E+00
        -11   -1    0    0    0    0  0.00000000000E+00  0.00000000000E+00  0.45593999997E+02  0.45594000000E+02  0.51100000000E-03 0. -1.
         11   -1    0    0    0    0 -0.00000000000E+00 -0.00000000000E+00 -0.45593999997E+02  0.45594000000E+02  0.51100000000E-03 0.  1.
    9900012    2    1    2    0    0  0.17869417021E+02  0.56002671690E+01 -0.24249445664E-01  0.72461557597E+02  0.69999983459E+02 0.  0.
        -12    1    1    2    0    0 -0.17869417021E+02 -0.56002671690E+01  0.24249445664E-01  0.18726442403E+02  0.00000000000E+00 0.  1.
         11    1    3    3    0    0  0.25867130564E+01  0.79809587232E-01  0.46985880680E+01  0.53641573523E+01  0.51100000000E-03 0. -1.
        -11    1    3    3    0    0  0.38808343922E+02  0.14406279954E+02 -0.64267657552E+01  0.41891905882E+02  0.51100000000E-03 0.  1.
         12    1    3    3    0    0 -0.23525639957E+02 -0.88858223722E+01  0.17039282416E+01  0.25205494363E+02  0.00000000000E+00 0. -1.
</event>
<event>
 7    1  0.2641045E-013  0.7246159E+02  0.7816164E-02  0.1226708E+00
        -11   -1    0    0    0    0  0.00000000000E+00  0.00000000000E+00  0.45593999997E+02  0.45594000000E+02  0.51100000000E-03 0.  1.
         11   -1    0    0    0    0 -0.00000000000E+00 -0.00000000000E+00 -0.45593999997E+02  0.45594000000E+02  0.51100000000E-03 0. -1.
    9900012    2    1    2    0    0 -0.10372116729E+02  0.42398092855E+01 -0.15004059520E+02  0.72461585760E+02  0.70000020147E+02 0.  0.
        -12    1    1    2    0    0  0.10372116729E+02 -0.42398092855E+01  0.15004059520E+02  0.18726414240E+02  0.00000000000E+00 0.  1.
         11    1    3    3    0    0  0.10802898117E+02 -0.12264412290E+02 -0.42529763588E+01  0.16888049760E+02  0.51100000000E-03 0.  1.
        -11    1    3    3    0    0  0.46771218300E+01  0.19614786580E+02 -0.19552516099E+02  0.28087652220E+02  0.51100000000E-03 0. -1.
        -12    1    3    3    0    0 -0.25852136676E+02 -0.31105650045E+01  0.88014329382E+01  0.27485883779E+02  0.00000000000E+00 0.  1.
</event>
<event>
 7    1  0.2641045E-013  0.7246158E+02  0.7816164E-02  0.1226708E+00
        -11   -1    0    0    0    0  0.00000000000E+00  0.00000000000E+00  0.45593999997E+02  0.45594000000E+02  0.51100000000E-03 0.  1.
         11   -1    0    0    0    0 -0.00000000000E+00 -0.00000000000E+00 -0.45593999997E+02  0.45594000000E+02  0.51100000000E-03 0. -1.
    9900012    2    1    2    0    0  0.15396076167E+02  0.67096605726E+00 -0.10639045562E+02  0.72461584239E+02  0.70000018165E+02 0.  0.
        -12    1    1    2    0    0 -0.15396076167E+02 -0.67096605726E+00  0.10639045562E+02  0.18726415761E+02  0.00000000000E+00 0.  1.
         11    1    3    3    0    0  0.12783637997E+02  0.73399184109E-01 -0.10073426403E+02  0.16275770570E+02  0.51100000000E-03 0. -1.
        -11    1    3    3    0    0  0.41365010357E+01  0.24776097788E+02 -0.13716514993E+02  0.28620070689E+02  0.51100000000E-03 0.  1.
         12    1    3    3    0    0 -0.15240628654E+01 -0.24178530915E+02  0.13150895835E+02  0.27565742980E+02  0.00000000000E+00 0. -1.
</event>
<event>
 7    1  0.2641045E-013  0.7246157E+02  0.7816164E-02  0.1226708E+00
        -11   -1    0    0    0    0  0.00000000000E+00  0.00000000000E+00  0.45593999997E+02  0.45594000000E+02  0.51100000000E-03 0.  1.
         11   -1    0    0    0    0 -0.00000000000E+00 -0.00000000000E+00 -0.45593999997E+02  0.45594000000E+02  0.51100000000E-03 0. -1.
    9900012    2    1    2    0    0 -0.17372484108E+02  0.43701657776E+01 -0.54569027736E+01  0.72461565719E+02  0.69999994040E+02 0.  0.
        -12    1    1    2    0    0  0.17372484108E+02 -0.43701657776E+01  0.54569027736E+01  0.18726434281E+02  0.00000000000E+00 0.  1.
         11    1    3    3    0    0 -0.19704832559E+02  0.15048288691E+02 -0.18287249612E+02  0.30808357914E+02  0.51100000000E-03 0. -1.
        -11    1    3    3    0    0 -0.66079328795E+01  0.90981774893E+01  0.16169050488E+02  0.19694664367E+02  0.51100000000E-03 0.  1.
         12    1    3    3    0    0  0.89402813305E+01 -0.19776300403E+02 -0.33387036496E+01  0.21958543439E+02  0.00000000000E+00 0. -1.
</event>
<event>
 7    1  0.2641045E-013  0.7246233E+02  0.7816164E-02  0.1226706E+00
        -11   -1    0    0    0    0  0.00000000000E+00  0.00000000000E+00  0.45593999997E+02  0.45594000000E+02  0.51100000000E-03 0. -1.
         11   -1    0    0    0    0 -0.00000000000E+00 -0.00000000000E+00 -0.45593999997E+02  0.45594000000E+02  0.51100000000E-03 0.  1.
    9900012    2    1    2    0    0 -0.25885595367E+01 -0.18536178886E+02 -0.60011743220E+00  0.72462330210E+02  0.70000989924E+02 0.  0.
        -12    1    1    2    0    0  0.25885595367E+01  0.18536178886E+02  0.60011743220E+00  0.18725669790E+02  0.00000000000E+00 0.  1.
         11    1    3    3    0    0  0.13410852052E+02 -0.37114521990E+01  0.15123289851E+02  0.20550905731E+02  0.51100000000E-03 0. -1.
        -11    1    3    3    0    0  0.21481208127E+01  0.10119020176E+02  0.79344488020E+01  0.13037042241E+02  0.51100000000E-03 0.  1.
        -12    1    3    3    0    0 -0.18147532402E+02 -0.24943746863E+02 -0.23657856085E+02  0.38874382238E+02  0.00000000000E+00 0.  1.
</event>
<event>
 7    1  0.2641045E-013  0.7246183E+02  0.7816164E-02  0.1226707E+00
        -11   -1    0    0    0    0  0.00000000000E+00  0.00000000000E+00  0.45593999997E+02  0.45594000000E+02  0.51100000000E-03 0. -1.
         11   -1    0    0    0    0 -0.00000000000E+00 -0.00000000000E+00 -0.45593999997E+02  0.45594000000E+02  0.51100000000E-03 0.  1.
    9900012    2    1    2    0    0  0.90364573648E+01  0.16388940113E+02  0.64381977842E+00  0.72461830513E+02  0.70000338983E+02 0.  0.
        -12    1    1    2    0    0 -0.90364573648E+01 -0.16388940113E+02 -0.64381977842E+00  0.18726169487E+02  0.00000000000E+00 0.  1.
         11    1    3    3    0    0  0.78835783950E+01 -0.63505343028E+01  0.10178580878E+02  0.14355612254E+02  0.51100000000E-03 0. -1.
        -11    1    3    3    0    0  0.49498564723E+01 -0.10467354351E+02 -0.19976830207E+02  0.23089831779E+02  0.51100000000E-03 0.  1.
         12    1    3    3    0    0 -0.37969775024E+01  0.33206828766E+02  0.10442069107E+02  0.35016386480E+02  0.00000000000E+00 0. -1.
</event>
<event>
 7    1  0.2641045E-013  0.7246162E+02  0.7816164E-02  0.1226708E+00
        -11   -1    0    0    0    0  0.00000000000E+00  0.00000000000E+00  0.45593999997E+02  0.45594000000E+02  0.51100000000E-03 0.  1.
         11   -1    0    0    0    0 -0.00000000000E+00 -0.00000000000E+00 -0.45593999997E+02  0.45594000000E+02  0.51100000000E-03 0. -1.
    9900012    2    1    2    0    0 -0.37950324512E+01 -0.16905903742E+02 -0.71038950021E+01  0.72461623499E+02  0.70000069309E+02 0.  0.
        -12    1    1    2    0    0  0.37950324512E+01  0.16905903742E+02  0.71038950021E+01  0.18726376501E+02  0.00000000000E+00 0.  1.
         11    1    3    3    0    0 -0.14139504357E+02 -0.22246867868E+02 -0.38864919484E+01  0.26644953243E+02  0.51100000000E-03 0. -1.
        -11    1    3    3    0    0 -0.14526148377E+02 -0.87156002491E+01 -0.32469875486E+01  0.17248582631E+02  0.51100000000E-03 0.  1.
         12    1    3    3    0    0  0.24870620284E+02  0.14056564374E+02  0.29584494928E-01  0.28568087625E+02  0.00000000000E+00 0. -1.
</event>
<event>
 7    1  0.2641045E-013  0.7246156E+02  0.7816164E-02  0.1226708E+00
        -11   -1    0    0    0    0  0.00000000000E+00  0.00000000000E+00  0.45593999997E+02  0.45594000000E+02  0.51100000000E-03 0. -1.
         11   -1    0    0    0    0 -0.00000000000E+00 -0.00000000000E+00 -0.45593999997E+02  0.45594000000E+02  0.51100000000E-03 0.  1.
    9900012    2    1    2    0    0  0.14272788905E+02 -0.85883628226E+01 -0.85561158033E+01  0.72461558887E+02  0.69999985140E+02 0.  0.
        -12    1    1    2    0    0 -0.14272788905E+02  0.85883628226E+01  0.85561158033E+01  0.18726441113E+02  0.00000000000E+00 0.  1.
         11    1    3    3    0    0  0.46629245795E+00  0.12964057381E+02  0.85930292672E+01  0.15560345905E+02  0.51100000000E-03 0. -1.
        -11    1    3    3    0    0 -0.12538089499E+02 -0.70296600409E+01 -0.22150679613E+02  0.26405916310E+02  0.51100000000E-03 0.  1.
         12    1    3    3    0    0  0.26344585946E+02 -0.14522760162E+02  0.50015345425E+01  0.30495296673E+02  0.00000000000E+00 0. -1.
</event>
<event>
 7    1  0.2641045E-013  0.7246165E+02  0.7816164E-02  0.1226708E+00
        -11   -1    0    0    0    0  0.00000000000E+00  0.00000000000E+00  0.45593999997E+02  0.45594000000E+02  0.51100000000E-03 0.  1.
         11   -1    0    0    0    0 -0.00000000000E+00 -0.00000000000E+00 -0.45593999997E+02  0.45594000000E+02  0.51100000000E-03 0. -1.
    9900012    2    1    2    0    0 -0.87865708037E+00  0.23249728310E+01 -0.18560677913E+02  0.72461646871E+02  0.70000099755E+02 0.  0.
        -12    1    1    2    0    0  0.87865708037E+00 -0.23249728310E+01  0.18560677913E+02  0.18726353129E+02  0.00000000000E+00 0.  1.
         11    1    3    3    0    0  0.17536506678E+01 -0.19626351785E+02 -0.13018956427E+02  0.23616989684E+02  0.51100000000E-03 0. -1.
        -11    1    3    3    0    0  0.15616113602E+02 -0.35495668256E+01 -0.69452843757E+01  0.17455641036E+02  0.51100000000E-03 0.  1.
        -12    1    3    3    0    0 -0.18248421350E+02  0.25500891441E+02  0.14035628895E+01  0.31389016150E+02  0.00000000000E+00 0.  1.
</event>
<event>
 7    1  0.2641045E-013  0.7246158E+02  0.7816164E-02  0.1226708E+00
        -11   -1    0    0    0    0  0.00000000000E+00  0.00000000000E+00  0.45593999997E+02  0.45594000000E+02  0.51100000000E-03 0.  1.
         11   -1    0    0    0    0 -0.00000000000E+00 -0.00000000000E+00 -0.45593999997E+02  0.45594000000E+02  0.51100000000E-03 0. -1.
    9900012    2    1    2    0    0 -0.31722171746E+01  0.28030416132E+01 -0.18241682242E+02  0.72461575485E+02  0.70000006762E+02 0.  0.
        -12    1    1    2    0    0  0.31722171746E+01 -0.28030416132E+01  0.18241682242E+02  0.18726424515E+02  0.00000000000E+00 0.  1.
         11    1    3    3    0    0  0.67279356262E+01  0.63217780576E+01  0.63365061139E+01  0.11197379407E+02  0.51100000000E-03 0. -1.
        -11    1    3    3    0    0 -0.11236181064E+02  0.24957004908E+02 -0.14876571653E+02  0.31151504671E+02  0.51100000000E-03 0.  1.
         12    1    3    3    0    0  0.13360282630E+01 -0.28475741352E+02 -0.97016167030E+01  0.30112691406E+02  0.00000000000E+00 0. -1.
</event>
<event>
 7    1  0.2641045E-013  0.7246158E+02  0.7816164E-02  0.1226708E+00
        -11   -1    0    0    0    0  0.00000000000E+00  0.00000000000E+00  0.45593999997E+02  0.45594000000E+02  0.51100000000E-03 0. -1.
         11   -1    0    0    0    0 -0.00000000000E+00 -0.00000000000E+00 -0.45593999997E+02  0.45594000000E+02  0.51100000000E-03 0.  1.
    9900012    2    1    2    0    0  0.13057235425E+02 -0.12435142000E+02 -0.50551536494E+01  0.72461581978E+02  0.70000015221E+02 0.  0.
        -12    1    1    2    0    0 -0.13057235425E+02  0.12435142000E+02  0.50551536494E+01  0.18726418022E+02  0.00000000000E+00 0.  1.
         11    1    3    3    0    0  0.87144936518E+01  0.92996148704E+01  0.36979182158E+01  0.13270261329E+02  0.51100000000E-03 0. -1.
        -11    1    3    3    0    0  0.98897697000E+01 -0.55630580102E+01 -0.29910002014E+02  0.31990051264E+02  0.51100000000E-03 0.  1.
         12    1    3    3    0    0 -0.55470279266E+01 -0.16171698860E+02  0.21156930149E+02  0.27201269385E+02  0.00000000000E+00 0. -1.
</event>
<event>
 7    1  0.2641045E-013  0.7246160E+02  0.7816164E-02  0.1226708E+00
        -11   -1    0    0    0    0  0.00000000000E+00  0.00000000000E+00  0.45593999997E+02  0.45594000000E+02  0.51100000000E-03 0.  1.
         11   -1    0    0    0    0 -0.00000000000E+00 -0.00000000000E+00 -0.45593999997E+02  0.45594000000E+02  0.51100000000E-03 0. -1.
    9900012    2    1    2    0    0  0.11779198445E+02  0.10226472480E+02 -0.10360882836E+02  0.72461597555E+02  0.70000035512E+02 0.  0.
        -12    1    1    2    0    0 -0.11779198445E+02 -0.10226472480E+02  0.10360882836E+02  0.18726402445E+02  0.00000000000E+00 0.  1.
         11    1    3    3    0    0  0.64163151528E+01 -0.25963439219E+01  0.19131959921E+01  0.71812548393E+01  0.51100000000E-03 0. -1.
        -11    1    3    3    0    0 -0.12363969586E+02 -0.20364330727E+02  0.42273876127E+01  0.24195960741E+02  0.51100000000E-03 0.  1.
         12    1    3    3    0    0  0.17726852878E+02  0.33187147129E+02 -0.16501466441E+02  0.41084381975E+02  0.00000000000E+00 0. -1.
</event>
<event>
 7    1  0.2641045E-013  0.7246163E+02  0.7816164E-02  0.1226708E+00
        -11   -1    0    0    0    0  0.00000000000E+00  0.00000000000E+00  0.45593999997E+02  0.45594000000E+02  0.51100000000E-03 0. -1.
         11   -1    0    0    0    0 -0.00000000000E+00 -0.00000000000E+00 -0.45593999997E+02  0.45594000000E+02  0.51100000000E-03 0.  1.
    9900012    2    1    2    0    0 -0.16300810424E+02 -0.73698795924E+01 -0.55358342692E+01  0.72461628041E+02  0.70000075226E+02 0.  0.
        -12    1    1    2    0    0  0.16300810424E+02  0.73698795924E+01  0.55358342692E+01  0.18726371959E+02  0.00000000000E+00 0.  1.
         11    1    3    3    0    0  0.16752132767E+01  0.10865981908E+02  0.49609124594E+01  0.12061780757E+02  0.51100000000E-03 0. -1.
        -11    1    3    3    0    0  0.64539808244E+01 -0.28767578432E+02  0.45567270040E+01  0.29832720267E+02  0.51100000000E-03 0.  1.
         12    1    3    3    0    0 -0.24430004525E+02  0.10531716931E+02 -0.15053473733E+02  0.30567127016E+02  0.00000000000E+00 0. -1.
</event>
<event>
 7    1  0.2641045E-013  0.7246152E+02  0.7816164E-02  0.1226708E+00
        -11   -1    0    0    0    0  0.00000000000E+00  0.00000000000E+00  0.45593999997E+02  0.45594000000E+02  0.51100000000E-03 0. -1.
         11   -1    0    0    0    0 -0.00000000000E+00 -0.00000000000E+00 -0.45593999997E+02  0.45594000000E+02  0.51100000000E-03 0.  1.
    9900012    2    1    2    0    0 -0.56537997325E+01 -0.68348350330E+01  0.16492436662E+02  0.72461524400E+02  0.69999940215E+02 0.  0.
        -12    1    1    2    0    0  0.56537997325E+01  0.68348350330E+01 -0.16492436662E+02  0.18726475600E+02  0.00000000000E+00 0.  1.
         11    1    3    3    0    0 -0.27015608366E+01 -0.83565830052E+01 -0.99047554904E+01  0.13237639218E+02  0.51100000000E-03 0. -1.
        -11    1    3    3    0    0 -0.18387735101E+02 -0.15309717722E+02  0.27384635293E+02  0.36365017658E+02  0.51100000000E-03 0.  1.
         12    1    3    3    0    0  0.15435496205E+02  0.16831465695E+02 -0.98744314102E+00  0.22858867524E+02  0.00000000000E+00 0. -1.
</event>
<event>
 7    1  0.2641045E-013  0.7246150E+02  0.7816164E-02  0.1226708E+00
        -11   -1    0    0    0    0  0.00000000000E+00  0.00000000000E+00  0.45593999997E+02  0.45594000000E+02  0.51100000000E-03 0. -1.
         11   -1    0    0    0    0 -0.00000000000E+00 -0.00000000000E+00 -0.45593999997E+02  0.45594000000E+02  0.51100000000E-03 0.  1.
    9900012    2    1    2    0    0  0.77925184766E+00 -0.52977975297E+01  0.17944582580E+02  0.72461496427E+02  0.69999903774E+02 0.  0.
        -12    1    1    2    0    0 -0.77925184766E+00  0.52977975297E+01 -0.17944582580E+02  0.18726503573E+02  0.00000000000E+00 0.  1.
         11    1    3    3    0    0  0.74048078441E+01  0.23804520295E+01 -0.11116925375E+02  0.13567747091E+02  0.51100000000E-03 0. -1.
        -11    1    3    3    0    0  0.91184793164E+01 -0.14119751023E+01 -0.11611936222E+02  0.14831635170E+02  0.51100000000E-03 0.  1.
         12    1    3    3    0    0 -0.15744035313E+02 -0.62662744569E+01  0.40673444177E+02  0.44062114166E+02  0.00000000000E+00 0. -1.
</event>
<event>
 7    1  0.2641045E-013  0.7246140E+02  0.7816164E-02  0.1226708E+00
        -11   -1    0    0    0    0  0.00000000000E+00  0.00000000000E+00  0.45593999997E+02  0.45594000000E+02  0.51100000000E-03 0.  1.
         11   -1    0    0    0    0 -0.00000000000E+00 -0.00000000000E+00 -0.45593999997E+02  0.45594000000E+02  0.51100000000E-03 0. -1.
    9900012    2    1    2    0    0  0.81874941852E+01 -0.46040991343E+01 -0.16200396256E+02  0.72461397833E+02  0.69999775336E+02 0.  0.
        -12    1    1    2    0    0 -0.81874941852E+01  0.46040991343E+01  0.16200396256E+02  0.18726602167E+02  0.00000000000E+00 0.  1.
         11    1    3    3    0    0 -0.24316099460E+02 -0.55301262064E+01 -0.21161175736E+02  0.32705509438E+02  0.51100000000E-03 0. -1.
        -11    1    3    3    0    0  0.19297150931E+01  0.71366026922E+01 -0.22643633641E+01  0.77318975700E+01  0.51100000000E-03 0.  1.
         12    1    3    3    0    0  0.30573878552E+02 -0.62105756202E+01  0.72251428436E+01  0.32023990825E+02  0.00000000000E+00 0. -1.
</event>
<event>
 7    1  0.2641045E-013  0.7246158E+02  0.7816164E-02  0.1226708E+00
        -11   -1    0    0    0    0  0.00000000000E+00  0.00000000000E+00  0.45593999997E+02  0.45594000000E+02  0.51100000000E-03 0.  1.
         11   -1    0    0    0    0 -0.00000000000E+00 -0.00000000000E+00 -0.45593999997E+02  0.45594000000E+02  0.51100000000E-03 0. -1.
    9900012    2    1    2    0    0 -0.77752324527E+01  0.83186291749E+01 -0.14866908820E+02  0.72461579923E+02  0.70000012543E+02 0.  0.
        -12    1    1    2    0    0  0.77752324527E+01 -0.83186291749E+01  0.14866908820E+02  0.18726420077E+02  0.00000000000E+00 0.  1.
         11    1    3    3    0    0 -0.19722216845E+02  0.14071480712E+02 -0.20395413072E+02  0.31669311350E+02  0.51100000000E-03 0. -1.
        -11    1    3    3    0    0  0.35707600425E+01  0.16366033304E+02  0.17810333541E+01  0.16845457948E+02  0.51100000000E-03 0.  1.
         12    1    3    3    0    0  0.83762243501E+01 -0.22118884842E+02  0.37474708979E+01  0.23946810626E+02  0.00000000000E+00 0. -1.
</event>
<event>
 7    1  0.2641045E-013  0.7246153E+02  0.7816164E-02  0.1226708E+00
        -11   -1    0    0    0    0  0.00000000000E+00  0.00000000000E+00  0.45593999997E+02  0.45594000000E+02  0.51100000000E-03 0. -1.
         11   -1    0    0    0    0 -0.00000000000E+00 -0.00000000000E+00 -0.45593999997E+02  0.45594000000E+02  0.51100000000E-03 0.  1.
    9900012    2    1    2    0    0 -0.18112284431E+02  0.36987485537E+01 -0.29908389604E+01  0.72461529274E+02  0.69999946563E+02 0.  0.
        -12    1    1    2    0    0  0.18112284431E+02 -0.36987485537E+01  0.29908389604E+01  0.18726470726E+02  0.00000000000E+00 0.  1.
         11    1    3    3    0    0 -0.50104116386E+01 -0.20566789241E+02  0.13660303460E+02  0.25193271629E+02  0.51100000000E-03 0. -1.
        -11    1    3    3    0    0  0.32120081464E+01 -0.74183955066E+01 -0.60196341649E+01  0.10078967406E+02  0.51100000000E-03 0.  1.
        -12    1    3    3    0    0 -0.16313880939E+02  0.31683933302E+02 -0.10631508255E+02  0.37189290240E+02  0.00000000000E+00 0.  1.
</event>
<event>
 7    1  0.2641045E-013  0.7246158E+02  0.7816164E-02  0.1226708E+00
        -11   -1    0    0    0    0  0.00000000000E+00  0.00000000000E+00  0.45593999997E+02  0.45594000000E+02  0.51100000000E-03 0. -1.
         11   -1    0    0    0    0 -0.00000000000E+00 -0.00000000000E+00 -0.45593999997E+02  0.45594000000E+02  0.51100000000E-03 0.  1.
    9900012    2    1    2    0    0  0.31628624868E+01 -0.92816382555E-01  0.18457149020E+02  0.72461583794E+02  0.70000017586E+02 0.  0.
        -12    1    1    2    0    0 -0.31628624868E+01  0.92816382555E-01 -0.18457149020E+02  0.18726416206E+02  0.00000000000E+00 0.  1.
         11    1    3    3    0    0  0.12250747677E+02  0.31163910229E+01  0.34654365640E+02  0.36887908179E+02  0.51100000000E-03 0. -1.
        -11    1    3    3    0    0  0.21091730095E+01  0.77871445906E+01  0.47786100786E+01  0.93767449684E+01  0.51100000000E-03 0.  1.
        -12    1    3    3    0    0 -0.11197058200E+02 -0.10996351996E+02 -0.20975826699E+02  0.26196930646E+02  0.00000000000E+00 0.  1.
</event>
<event>
 7    1  0.2641045E-013  0.7246153E+02  0.7816164E-02  0.1226708E+00
        -11   -1    0    0    0    0  0.00000000000E+00  0.00000000000E+00  0.45593999997E+02  0.45594000000E+02  0.51100000000E-03 0.  1.
         11   -1    0    0    0    0 -0.00000000000E+00 -0.00000000000E+00 -0.45593999997E+02  0.45594000000E+02  0.51100000000E-03 0. -1.
    9900012    2    1    2    0    0  0.60014216162E+01  0.11728798475E+02 -0.13307847895E+02  0.72461532349E+02  0.69999950569E+02 0.  0.
        -12    1    1    2    0    0 -0.60014216162E+01 -0.11728798475E+02  0.13307847895E+02  0.18726467651E+02  0.00000000000E+00 0.  1.
         11    1    3    3    0    0 -0.18297155184E+02  0.23577673054E+02 -0.93136710612E+01  0.31263989242E+02  0.51100000000E-03 0. -1.
        -11    1    3    3    0    0  0.22556513404E+02  0.88557209386E+00  0.76695329832E+01  0.23841188547E+02  0.51100000000E-03 0.  1.
        -12    1    3    3    0    0  0.17420633962E+01 -0.12734446672E+02 -0.11663709817E+02  0.17356354560E+02  0.00000000000E+00 0.  1.
</event>
<event>
 7    1  0.2641045E-013  0.7246170E+02  0.7816164E-02  0.1226708E+00
        -11   -1    0    0    0    0  0.00000000000E+00  0.00000000000E+00  0.45593999997E+02  0.45594000000E+02  0.51100000000E-03 0.  1.
         11   -1    0    0    0    0 -0.00000000000E+00 -0.00000000000E+00 -0.45593999997E+02  0.45594000000E+02  0.51100000000E-03 0. -1.
    9900012    2    1    2    0    0 -0.88258225684E+01 -0.16167241530E+02 -0.33762941041E+01  0.72461702860E+02  0.70000172692E+02 0.  0.
        -12    1    1    2    0    0  0.88258225684E+01  0.16167241530E+02  0.33762941041E+01  0.18726297140E+02  0.00000000000E+00 0.  1.
         11    1    3    3    0    0 -0.59884599389E+01  0.95886389026E+01 -0.19682541526E+02  0.22698151679E+02  0.51100000000E-03 0. -1.
        -11    1    3    3    0    0  0.15439112230E+02 -0.11168046252E+02 -0.31872185308E+01  0.19319674060E+02  0.51100000000E-03 0.  1.
         12    1    3    3    0    0 -0.18276474860E+02 -0.14587834180E+02  0.19493465953E+02  0.30443877122E+02  0.00000000000E+00 0. -1.
</event>
<event>
 7    1  0.2641045E-013  0.7246157E+02  0.7816164E-02  0.1226708E+00
        -11   -1    0    0    0    0  0.00000000000E+00  0.00000000000E+00  0.45593999997E+02  0.45594000000E+02  0.51100000000E-03 0. -1.
         11   -1    0    0    0    0 -0.00000000000E+00 -0.00000000000E+00 -0.45593999997E+02  0.45594000000E+02  0.51100000000E-03 0.  1.
    9900012    2    1    2    0    0  0.31317650277E+01 -0.64583197165E+01  0.17296282895E+02  0.72461568206E+02  0.69999997279E+02 0.  0.
        -12    1    1    2    0    0 -0.31317650277E+01  0.64583197165E+01 -0.17296282895E+02  0.18726431794E+02  0.00000000000E+00 0.  1.
         11    1    3    3    0    0  0.92643063772E+01 -0.21234774009E+02  0.61309537002E+01  0.23965216322E+02  0.51100000000E-03 0. -1.
        -11    1    3    3    0    0 -0.92061948386E+01 -0.92114629719E+01  0.19035316913E+02  0.23064005804E+02  0.51100000000E-03 0.  1.
        -12    1    3    3    0    0  0.30736534892E+01  0.23987917264E+02 -0.78699877180E+01  0.25432346080E+02  0.00000000000E+00 0.  1.
</event>
<event>
 7    1  0.2641045E-013  0.7246158E+02  0.7816164E-02  0.1226708E+00
        -11   -1    0    0    0    0  0.00000000000E+00  0.00000000000E+00  0.45593999997E+02  0.45594000000E+02  0.51100000000E-03 0. -1.
         11   -1    0    0    0    0 -0.00000000000E+00 -0.00000000000E+00 -0.45593999997E+02  0.45594000000E+02  0.51100000000E-03 0.  1.
    9900012    2    1    2    0    0 -0.17894143458E+02  0.41355423415E+01  0.36572650432E+01  0.72461583681E+02  0.70000017438E+02 0.  0.
        -12    1    1    2    0    0  0.17894143458E+02 -0.41355423415E+01 -0.36572650432E+01  0.18726416319E+02  0.00000000000E+00 0.  1.
         11    1    3    3    0    0 -0.17133958177E+02  0.21545094542E+01 -0.54016166695E+01  0.18093974044E+02  0.51100000000E-03 0.  1.
        -11    1    3    3    0    0 -0.16469839192E+02 -0.15275769278E+02 -0.96588901557E+01  0.24451971073E+02  0.51100000000E-03 0. -1.
         12    1    3    3    0    0  0.15709653911E+02  0.17256802165E+02  0.18717771868E+02  0.29915638564E+02  0.00000000000E+00 0. -1.
</event>
<event>
 7    1  0.2641045E-013  0.7246160E+02  0.7816164E-02  0.1226708E+00
        -11   -1    0    0    0    0  0.00000000000E+00  0.00000000000E+00  0.45593999997E+02  0.45594000000E+02  0.51100000000E-03 0.  1.
         11   -1    0    0    0    0 -0.00000000000E+00 -0.00000000000E+00 -0.45593999997E+02  0.45594000000E+02  0.51100000000E-03 0. -1.
    9900012    2    1    2    0    0  0.12649038336E+00  0.15632071956E+01 -0.18660613003E+02  0.72461599005E+02  0.70000037402E+02 0.  0.
        -12    1    1    2    0    0 -0.12649038336E+00 -0.15632071956E+01  0.18660613003E+02  0.18726400995E+02  0.00000000000E+00 0.  1.
         11    1    3    3    0    0  0.21748904767E+02 -0.19477376062E+02  0.33663443404E+01  0.29389033862E+02  0.51100000000E-03 0. -1.
        -11    1    3    3    0    0  0.72035590711E+00  0.49093943147E+01  0.30405494307E+01  0.58194506847E+01  0.51100000000E-03 0.  1.
        -12    1    3    3    0    0 -0.22342770291E+02  0.16131188943E+02 -0.25067506774E+02  0.37253114459E+02  0.00000000000E+00 0.  1.
</event>
<event>
 7    1  0.2641045E-013  0.7246155E+02  0.7816164E-02  0.1226708E+00
        -11   -1    0    0    0    0  0.00000000000E+00  0.00000000000E+00  0.45593999997E+02  0.45594000000E+02  0.51100000000E-03 0.  1.
         11   -1    0    0    0    0 -0.00000000000E+00 -0.00000000000E+00 -0.45593999997E+02  0.45594000000E+02  0.51100000000E-03 0. -1.
    9900012    2    1    2    0    0  0.70441751626E+01 -0.17013623778E+02  0.34052819022E+01  0.72461554992E+02  0.69999980066E+02 0.  0.
        -12    1    1    2    0    0 -0.70441751626E+01  0.17013623778E+02 -0.34052819022E+01  0.18726445008E+02  0.00000000000E+00 0.  1.
         11    1    3    3    0    0 -0.35742468298E+01  0.77733302500E+01  0.19568821963E+02  0.21357403795E+02  0.51100000000E-03 0. -1.
        -11    1    3    3    0    0 -0.11629599378E+02 -0.19247178035E+01 -0.15138953888E+02  0.19186975932E+02  0.51100000000E-03 0.  1.
         12    1    3    3    0    0  0.22248021370E+02 -0.22862236225E+02 -0.10245861727E+01  0.31917175265E+02  0.00000000000E+00 0. -1.
</event>
<event>
 7    1  0.2641045E-013  0.7246142E+02  0.7816164E-02  0.1226708E+00
        -11   -1    0    0    0    0  0.00000000000E+00  0.00000000000E+00  0.45593999997E+02  0.45594000000E+02  0.51100000000E-03 0.  1.
         11   -1    0    0    0    0 -0.00000000000E+00 -0.00000000000E+00 -0.45593999997E+02  0.45594000000E+02  0.51100000000E-03 0. -1.
    9900012    2    1    2    0    0  0.10463278484E+02  0.12857458943E+02 -0.87115007375E+01  0.72461422838E+02  0.69999807910E+02 0.  0.
        -12    1    1    2    0    0 -0.10463278484E+02 -0.12857458943E+02  0.87115007375E+01  0.18726577162E+02  0.00000000000E+00 0.  1.
         11    1    3    3    0    0  0.87281823167E+01 -0.41286866840E+01 -0.98156211113E+01  0.13768574303E+02  0.51100000000E-03 0.  1.
        -11    1    3    3    0    0 -0.12406917222E+02 -0.17335276411E+02  0.29783354607E+01  0.21524727306E+02  0.51100000000E-03 0. -1.
        -12    1    3    3    0    0  0.14142013390E+02  0.34321422039E+02 -0.18742150869E+01  0.37168121228E+02  0.00000000000E+00 0.  1.
</event>
<event>
 7    1  0.2641045E-013  0.7246160E+02  0.7816164E-02  0.1226708E+00
        -11   -1    0    0    0    0  0.00000000000E+00  0.00000000000E+00  0.45593999997E+02  0.45594000000E+02  0.51100000000E-03 0.  1.
         11   -1    0    0    0    0 -0.00000000000E+00 -0.00000000000E+00 -0.45593999997E+02  0.45594000000E+02  0.51100000000E-03 0. -1.
    9900012    2    1    2    0    0 -0.92709261313E+01 -0.15485864428E+02 -0.49916063939E+01  0.72461596106E+02  0.70000033624E+02 0.  0.
        -12    1    1    2    0    0  0.92709261313E+01  0.15485864428E+02  0.49916063939E+01  0.18726403894E+02  0.00000000000E+00 0.  1.
         11    1    3    3    0    0 -0.24168475309E+02 -0.20523482800E+02 -0.23298034036E+02  0.39346244233E+02  0.51100000000E-03 0. -1.
        -11    1    3    3    0    0  0.12630512112E+01  0.81169189027E+01 -0.20080629526E+01  0.84564760933E+01  0.51100000000E-03 0.  1.
        -12    1    3    3    0    0  0.13634497967E+02 -0.30793005312E+01  0.20314490595E+02  0.24658875779E+02  0.00000000000E+00 0.  1.
</event>
<event>
 7    1  0.2641045E-013  0.7246175E+02  0.7816164E-02  0.1226708E+00
        -11   -1    0    0    0    0  0.00000000000E+00  0.00000000000E+00  0.45593999997E+02  0.45594000000E+02  0.51100000000E-03 0. -1.
         11   -1    0    0    0    0 -0.00000000000E+00 -0.00000000000E+00 -0.45593999997E+02  0.45594000000E+02  0.51100000000E-03 0.  1.
    9900012    2    1    2    0    0 -0.56361114070E+01 -0.12292966857E+02  0.12953370749E+02  0.72461745711E+02  0.70000228512E+02 0.  0.
        -12    1    1    2    0    0  0.56361114070E+01  0.12292966857E+02 -0.12953370749E+02  0.18726254289E+02  0.00000000000E+00 0.  1.
         11    1    3    3    0    0 -0.23554066904E+01  0.58959589723E+01  0.58061392947E+01  0.86035763872E+01  0.51100000000E-03 0. -1.
        -11    1    3    3    0    0 -0.31227822785E+02 -0.25503744630E+01  0.53269034606E+01  0.31781397491E+02  0.51100000000E-03 0.  1.
         12    1    3    3    0    0  0.27947118068E+02 -0.15638551367E+02  0.18203279938E+01  0.32076771832E+02  0.00000000000E+00 0. -1.
</event>
<event>
 7    1  0.2641045E-013  0.7246154E+02  0.7816164E-02  0.1226708E+00
        -11   -1    0    0    0    0  0.00000000000E+00  0.00000000000E+00  0.45593999997E+02  0.45594000000E+02  0.51100000000E-03 0.  1.
         11   -1    0    0    0    0 -0.00000000000E+00 -0.00000000000E+00 -0.45593999997E+02  0.45594000000E+02  0.51100000000E-03 0. -1.
    9900012    2    1    2    0    0 -0.17850701456E+02 -0.17409690468E+00 -0.56570793020E+01  0.72461537482E+02  0.69999957256E+02 0.  0.
        -12    1    1    2    0    0  0.17850701456E+02  0.17409690468E+00  0.56570793020E+01  0.18726462518E+02  0.00000000000E+00 0.  1.
         11    1    3    3    0    0 -0.77285011291E+01 -0.21691973338E+02 -0.38877905379E+01  0.23353508356E+02  0.51100000000E-03 0. -1.
        -11    1    3    3    0    0 -0.59823580555E+01 -0.12999778663E+02 -0.38169398000E+00  0.14315325485E+02  0.51100000000E-03 0.  1.
         12    1    3    3    0    0 -0.41398422713E+01  0.34517655096E+02 -0.13875947840E+01  0.34792703641E+02  0.00000000000E+00 0. -1.
</event>
<event>
 7    1  0.2641045E-013  0.7246160E+02  0.7816164E-02  0.1226708E+00
        -11   -1    0    0    0    0  0.00000000000E+00  0.00000000000E+00  0.45593999997E+02  0.45594000000E+02  0.51100000000E-03 0.  1.
         11   -1    0    0    0    0 -0.00000000000E+00 -0.00000000000E+00 -0.45593999997E+02  0.45594000000E+02  0.51100000000E-03 0. -1.
    9900012    2    1    2    0    0  0.14404687908E+02 -0.46694614865E+01 -0.11017228480E+02  0.72461595442E+02  0.70000032759E+02 0.  0.
        -12    1    1    2    0    0 -0.14404687908E+02  0.46694614865E+01  0.11017228480E+02  0.18726404558E+02  0.00000000000E+00 0.  1.
         11    1    3    3    0    0  0.35922272606E+02  0.55951457375E+01 -0.11404666040E+01  0.36373286755E+02  0.51100000000E-03 0. -1.
        -11    1    3    3    0    0 -0.12636438043E+02 -0.16782917620E+02  0.41507367009E+00  0.21012333917E+02  0.51100000000E-03 0.  1.
        -12    1    3    3    0    0 -0.88811466555E+01  0.65183103957E+01 -0.10291835546E+02  0.15075974769E+02  0.00000000000E+00 0.  1.
</event>
<event>
 7    1  0.2641045E-013  0.7246164E+02  0.7816164E-02  0.1226708E+00
        -11   -1    0    0    0    0  0.00000000000E+00  0.00000000000E+00  0.45593999997E+02  0.45594000000E+02  0.51100000000E-03 0.  1.
         11   -1    0    0    0    0 -0.00000000000E+00 -0.00000000000E+00 -0.45593999997E+02  0.45594000000E+02  0.51100000000E-03 0. -1.
    9900012    2    1    2    0    0  0.12210558165E+02 -0.57254065484E+01 -0.12992248819E+02  0.72461640497E+02  0.70000091453E+02 0.  0.
        -12    1    1    2    0    0 -0.12210558165E+02  0.57254065484E+01  0.12992248819E+02  0.18726359503E+02  0.00000000000E+00 0.  1.
         11    1    3    3    0    0 -0.15194998525E+02  0.13420926766E+01  0.14184321705E+02  0.20829886592E+02  0.51100000000E-03 0. -1.
        -11    1    3    3    0    0 -0.30554858805E+01 -0.25147838350E+01 -0.19489997129E+02  0.19887687650E+02  0.51100000000E-03 0.  1.
        -12    1    3    3    0    0  0.30461042570E+02 -0.45527153899E+01 -0.76865733947E+01  0.31744066256E+02  0.00000000000E+00 0.  1.
</event>
<event>
 7    1  0.2641045E-013  0.7246154E+02  0.7816164E-02  0.1226708E+00
        -11   -1    0    0    0    0  0.00000000000E+00  0.00000000000E+00  0.45593999997E+02  0.45594000000E+02  0.51100000000E-03 0.  1.
         11   -1    0    0    0    0 -0.00000000000E+00 -0.00000000000E+00 -0.45593999997E+02  0.45594000000E+02  0.51100000000E-03 0. -1.
    9900012    2    1    2    0    0  0.19954967471E+01 -0.13040617834E+02 -0.13290623381E+02  0.72461537691E+02  0.69999957528E+02 0.  0.
        -12    1    1    2    0    0 -0.19954967471E+01  0.13040617834E+02  0.13290623381E+02  0.18726462309E+02  0.00000000000E+00 0.  1.
         11    1    3    3    0    0 -0.14281178221E+02 -0.17750122487E+02 -0.16691305798E+02  0.28242142079E+02  0.51100000000E-03 0. -1.
        -11    1    3    3    0    0 -0.60106935122E+01 -0.13278629984E+02  0.53152852359E+01  0.15514596615E+02  0.51100000000E-03 0.  1.
        -12    1    3    3    0    0  0.22287368480E+02  0.17988134637E+02 -0.19146028189E+01  0.28704798997E+02  0.00000000000E+00 0.  1.
</event>
<event>
 7    1  0.2641045E-013  0.7246148E+02  0.7816164E-02  0.1226708E+00
        -11   -1    0    0    0    0  0.00000000000E+00  0.00000000000E+00  0.45593999997E+02  0.45594000000E+02  0.51100000000E-03 0.  1.
         11   -1    0    0    0    0 -0.00000000000E+00 -0.00000000000E+00 -0.45593999997E+02  0.45594000000E+02  0.51100000000E-03 0. -1.
    9900012    2    1    2    0    0  0.12671436934E+02  0.61699887536E+01 -0.12330798306E+02  0.72461477043E+02  0.69999878523E+02 0.  0.
        -12    1    1    2    0    0 -0.12671436934E+02 -0.61699887536E+01  0.12330798306E+02  0.18726522957E+02  0.00000000000E+00 0.  1.
         11    1    3    3    0    0 -0.11845655448E+02  0.31045978296E+01 -0.32403711017E+02  0.34640418135E+02  0.51100000000E-03 0. -1.
        -11    1    3    3    0    0  0.63902539140E+01  0.82283932911E+01  0.15069883549E+02  0.18320567450E+02  0.51100000000E-03 0.  1.
        -12    1    3    3    0    0  0.18126838469E+02 -0.51630023670E+01  0.50030291617E+01  0.19500491458E+02  0.00000000000E+00 0.  1.
</event>
<event>
 7    1  0.2641045E-013  0.7246163E+02  0.7816164E-02  0.1226708E+00
        -11   -1    0    0    0    0  0.00000000000E+00  0.00000000000E+00  0.45593999997E+02  0.45594000000E+02  0.51100000000E-03 0.  1.
         11   -1    0    0    0    0 -0.00000000000E+00 -0.00000000000E+00 -0.45593999997E+02  0.45594000000E+02  0.51100000000E-03 0. -1.
    9900012    2    1    2    0    0  0.11131488239E+02  0.83160816972E+00 -0.15035795820E+02  0.72461634669E+02  0.70000083860E+02 0.  0.
        -12    1    1    2    0    0 -0.11131488239E+02 -0.83160816972E+00  0.15035795820E+02  0.18726365331E+02  0.00000000000E+00 0.  1.
         11    1    3    3    0    0  0.20572494721E+02  0.98430195642E+01 -0.27220679118E+02  0.35511659284E+02  0.51100000000E-03 0. -1.
        -11    1    3    3    0    0  0.29454075066E+01  0.40777004253E+00 -0.96724903694E+01  0.10119227836E+02  0.51100000000E-03 0.  1.
        -12    1    3    3    0    0 -0.12386413989E+02 -0.94191814370E+01  0.21857373667E+02  0.26830747549E+02  0.00000000000E+00 0.  1.
</event>
<event>
 7    1  0.2641045E-013  0.7246151E+02  0.7816164E-02  0.1226708E+00
        -11   -1    0    0    0    0  0.00000000000E+00  0.00000000000E+00  0.45593999997E+02  0.45594000000E+02  0.51100000000E-03 0.  1.
         11   -1    0    0    0    0 -0.00000000000E+00 -0.00000000000E+00 -0.45593999997E+02  0.45594000000E+02  0.51100000000E-03 0. -1.
    9900012    2    1    2    0    0  0.28390276910E+01  0.57911555065E+01 -0.17580778889E+02  0.72461512164E+02  0.69999924275E+02 0.  0.
        -12    1    1    2    0    0 -0.28390276910E+01 -0.57911555065E+01  0.17580778889E+02  0.18726487836E+02  0.00000000000E+00 0.  1.
         11    1    3    3    0    0  0.44044108793E+01  0.12561833128E+02 -0.15448305462E+02  0.20392366921E+02  0.51100000000E-03 0. -1.
        -11    1    3    3    0    0  0.66556030696E+00  0.10338514317E+02 -0.22861248246E+02  0.25099094016E+02  0.51100000000E-03 0.  1.
        -12    1    3    3    0    0 -0.22309434953E+01 -0.17109191939E+02  0.20728774819E+02  0.26970051227E+02  0.00000000000E+00 0.  1.
</event>
<event>
 7    1  0.2641045E-013  0.7246137E+02  0.7816164E-02  0.1226709E+00
        -11   -1    0    0    0    0  0.00000000000E+00  0.00000000000E+00  0.45593999997E+02  0.45594000000E+02  0.51100000000E-03 0. -1.
         11   -1    0    0    0    0 -0.00000000000E+00 -0.00000000000E+00 -0.45593999997E+02  0.45594000000E+02  0.51100000000E-03 0.  1.
    9900012    2    1    2    0    0 -0.17221342164E+02  0.31548402573E+01  0.66452147752E+01  0.72461373972E+02  0.69999744254E+02 0.  0.
        -12    1    1    2    0    0  0.17221342164E+02 -0.31548402573E+01 -0.66452147752E+01  0.18726626028E+02  0.00000000000E+00 0.  1.
         11    1    3    3    0    0  0.18172727794E+01  0.16838996015E+02 -0.18961448439E+02  0.25424216690E+02  0.51100000000E-03 0. -1.
        -11    1    3    3    0    0 -0.10551879419E+01  0.74005885985E+01 -0.21867071872E+01  0.77886983367E+01  0.51100000000E-03 0.  1.
         12    1    3    3    0    0 -0.17983427001E+02 -0.21084744356E+02  0.27793370402E+02  0.39248458945E+02  0.00000000000E+00 0. -1.
</event>
<event>
 7    1  0.2641045E-013  0.7246157E+02  0.7816164E-02  0.1226708E+00
        -11   -1    0    0    0    0  0.00000000000E+00  0.00000000000E+00  0.45593999997E+02  0.45594000000E+02  0.51100000000E-03 0. -1.
         11   -1    0    0    0    0 -0.00000000000E+00 -0.00000000000E+00 -0.45593999997E+02  0.45594000000E+02  0.51100000000E-03 0.  1.
    9900012    2    1    2    0    0 -0.83827896803E+01  0.59180689265E+01  0.15664746783E+02  0.72461574970E+02  0.70000006091E+02 0.  0.
        -12    1    1    2    0    0  0.83827896803E+01 -0.59180689265E+01 -0.15664746783E+02  0.18726425030E+02  0.00000000000E+00 0.  1.
         11    1    3    3    0    0 -0.97528746241E+01 -0.75504349581E+01  0.27619533118E+02  0.30248408907E+02  0.51100000000E-03 0. -1.
        -11    1    3    3    0    0 -0.13470280451E+02  0.16419792321E+02  0.23788145410E+01  0.21370933395E+02  0.51100000000E-03 0.  1.
         12    1    3    3    0    0  0.14840365395E+02 -0.29512884367E+01 -0.14333600876E+02  0.20842232667E+02  0.00000000000E+00 0. -1.
</event>
<event>
 7    1  0.2641045E-013  0.7246164E+02  0.7816164E-02  0.1226708E+00
        -11   -1    0    0    0    0  0.00000000000E+00  0.00000000000E+00  0.45593999997E+02  0.45594000000E+02  0.51100000000E-03 0.  1.
         11   -1    0    0    0    0 -0.00000000000E+00 -0.00000000000E+00 -0.45593999997E+02  0.45594000000E+02  0.51100000000E-03 0. -1.
    9900012    2    1    2    0    0  0.15628866096E+02 -0.99290246192E+01 -0.27981462091E+01  0.72461638700E+02  0.70000089111E+02 0.  0.
        -12    1    1    2    0    0 -0.15628866096E+02  0.99290246192E+01  0.27981462091E+01  0.18726361300E+02  0.00000000000E+00 0.  1.
         11    1    3    3    0    0 -0.57297442175E+01 -0.30004461867E+01  0.52046194864E+01  0.83018498166E+01  0.51100000000E-03 0. -1.
        -11    1    3    3    0    0  0.28403289540E+02  0.13582679441E+01  0.19570073259E+02  0.34519262972E+02  0.51100000000E-03 0.  1.
         12    1    3    3    0    0 -0.70446792270E+01 -0.82868463766E+01 -0.27572838955E+02  0.29640525911E+02  0.00000000000E+00 0. -1.
</event>
<event>
 7    1  0.2641045E-013  0.7246163E+02  0.7816164E-02  0.1226708E+00
        -11   -1    0    0    0    0  0.00000000000E+00  0.00000000000E+00  0.45593999997E+02  0.45594000000E+02  0.51100000000E-03 0.  1.
         11   -1    0    0    0    0 -0.00000000000E+00 -0.00000000000E+00 -0.45593999997E+02  0.45594000000E+02  0.51100000000E-03 0. -1.
    9900012    2    1    2    0    0 -0.19573879964E+01 -0.18013078245E+02  0.47301908686E+01  0.72461626585E+02  0.70000073329E+02 0.  0.
        -12    1    1    2    0    0  0.19573879964E+01  0.18013078245E+02 -0.47301908686E+01  0.18726373415E+02  0.00000000000E+00 0.  1.
         11    1    3    3    0    0  0.11487840728E+02 -0.23047377091E+02 -0.22822154175E+02  0.34409341709E+02  0.51100000000E-03 0. -1.
        -11    1    3    3    0    0  0.15416552884E+01 -0.56957173177E+00  0.20501560430E+02  0.20567330729E+02  0.51100000000E-03 0.  1.
        -12    1    3    3    0    0 -0.14986884013E+02  0.56038705780E+01  0.70507846142E+01  0.17484954147E+02  0.00000000000E+00 0.  1.
</event>
<event>
 7    1  0.2641045E-013  0.7246155E+02  0.7816164E-02  0.1226708E+00
        -11   -1    0    0    0    0  0.00000000000E+00  0.00000000000E+00  0.45593999997E+02  0.45594000000E+02  0.51100000000E-03 0.  1.
         11   -1    0    0    0    0 -0.00000000000E+00 -0.00000000000E+00 -0.45593999997E+02  0.45594000000E+02  0.51100000000E-03 0. -1.
    9900012    2    1    2    0    0 -0.11560316405E+02  0.12475411469E+02 -0.78360237523E+01  0.72461546119E+02  0.69999968507E+02 0.  0.
        -12    1    1    2    0    0  0.11560316405E+02 -0.12475411469E+02  0.78360237523E+01  0.18726453881E+02  0.00000000000E+00 0.  1.
         11    1    3    3    0    0  0.11793024725E+02  0.81552386933E+01 -0.85040612836E+01  0.16670405180E+02  0.51100000000E-03 0. -1.
        -11    1    3    3    0    0 -0.23426894688E+02  0.24360135258E+02 -0.66717576476E+01  0.34449208044E+02  0.51100000000E-03 0.  1.
         12    1    3    3    0    0  0.73553558805E-01 -0.20039962482E+02  0.73397951790E+01  0.21341932894E+02  0.00000000000E+00 0. -1.
</event>
<event>
 7    1  0.2641045E-013  0.7246158E+02  0.7816164E-02  0.1226708E+00
        -11   -1    0    0    0    0  0.00000000000E+00  0.00000000000E+00  0.45593999997E+02  0.45594000000E+02  0.51100000000E-03 0. -1.
         11   -1    0    0    0    0 -0.00000000000E+00 -0.00000000000E+00 -0.45593999997E+02  0.45594000000E+02  0.51100000000E-03 0.  1.
    9900012    2    1    2    0    0  0.29940690134E+01 -0.13574675605E+02 -0.12547605986E+02  0.72461583284E+02  0.70000016922E+02 0.  0.
        -12    1    1    2    0    0 -0.29940690134E+01  0.13574675605E+02  0.12547605986E+02  0.18726416716E+02  0.00000000000E+00 0.  1.
         11    1    3    3    0    0  0.79371862061E+01  0.15585995159E+02  0.11013658909E+02  0.20669369918E+02  0.51100000000E-03 0. -1.
        -11    1    3    3    0    0  0.53278112880E+01  0.19780113495E+01  0.55510597751E+01  0.79443292295E+01  0.51100000000E-03 0.  1.
        -12    1    3    3    0    0 -0.10270928481E+02 -0.31138682114E+02 -0.29112324670E+02  0.43847884137E+02  0.00000000000E+00 0.  1.
</event>
<event>
 7    1  0.2641045E-013  0.7246157E+02  0.7816164E-02  0.1226708E+00
        -11   -1    0    0    0    0  0.00000000000E+00  0.00000000000E+00  0.45593999997E+02  0.45594000000E+02  0.51100000000E-03 0.  1.
         11   -1    0    0    0    0 -0.00000000000E+00 -0.00000000000E+00 -0.45593999997E+02  0.45594000000E+02  0.51100000000E-03 0. -1.
    9900012    2    1    2    0    0 -0.13794151644E+02 -0.12662060200E+02  0.26983043060E+00  0.72461569573E+02  0.69999999060E+02 0.  0.
        -12    1    1    2    0    0  0.13794151644E+02  0.12662060200E+02 -0.26983043060E+00  0.18726430427E+02  0.00000000000E+00 0.  1.
         11    1    3    3    0    0 -0.11722762915E+02  0.14975226509E+02  0.13420029597E+02  0.23276120252E+02  0.51100000000E-03 0. -1.
        -11    1    3    3    0    0 -0.76853770990E+01  0.57608900433E+01  0.49284041394E+01  0.10795463995E+02  0.51100000000E-03 0.  1.
         12    1    3    3    0    0  0.56139883704E+01 -0.33398176752E+02 -0.18078603306E+02  0.38389985325E+02  0.00000000000E+00 0. -1.
</event>
<event>
 7    1  0.2641045E-013  0.7246155E+02  0.7816164E-02  0.1226708E+00
        -11   -1    0    0    0    0  0.00000000000E+00  0.00000000000E+00  0.45593999997E+02  0.45594000000E+02  0.51100000000E-03 0. -1.
         11   -1    0    0    0    0 -0.00000000000E+00 -0.00000000000E+00 -0.45593999997E+02  0.45594000000E+02  0.51100000000E-03 0.  1.
    9900012    2    1    2    0    0  0.11513003821E+02  0.10516840455E+02  0.10369506255E+02  0.72461552122E+02  0.69999976328E+02 0.  0.
        -12    1    1    2    0    0 -0.11513003821E+02 -0.10516840455E+02 -0.10369506255E+02  0.18726447878E+02  0.00000000000E+00 0.  1.
         11    1    3    3    0    0 -0.66855796681E+01  0.76411811488E+01  0.16194347559E+02  0.19113909018E+02  0.51100000000E-03 0.  1.
        -11    1    3    3    0    0  0.27993284888E+02  0.13485086127E+02 -0.16695800862E+02  0.35273521419E+02  0.51100000000E-03 0. -1.
         12    1    3    3    0    0 -0.97947013984E+01 -0.10609426821E+02  0.10870959558E+02  0.18074121685E+02  0.00000000000E+00 0. -1.
</event>
<event>
 7    1  0.2641045E-013  0.7246161E+02  0.7816164E-02  0.1226708E+00
        -11   -1    0    0    0    0  0.00000000000E+00  0.00000000000E+00  0.45593999997E+02  0.45594000000E+02  0.51100000000E-03 0. -1.
         11   -1    0    0    0    0 -0.00000000000E+00 -0.00000000000E+00 -0.45593999997E+02  0.45594000000E+02  0.51100000000E-03 0.  1.
    9900012    2    1    2    0    0  0.15092560607E+02  0.60587831085E+01  0.92835125203E+01  0.72461605709E+02  0.70000046134E+02 0.  0.
        -12    1    1    2    0    0 -0.15092560607E+02 -0.60587831085E+01 -0.92835125203E+01  0.18726394291E+02  0.00000000000E+00 0.  1.
         11    1    3    3    0    0  0.13209913800E+01 -0.14343335146E+01  0.56980865578E+01  0.60225012693E+01  0.51100000000E-03 0. -1.
        -11    1    3    3    0    0 -0.13508814648E+02 -0.21526972046E+02 -0.44661840509E+01  0.25803980292E+02  0.51100000000E-03 0.  1.
         12    1    3    3    0    0  0.27280383875E+02  0.29020088669E+02  0.80516100134E+01  0.40635124148E+02  0.00000000000E+00 0. -1.
</event>
<event>
 7    1  0.2641045E-013  0.7246158E+02  0.7816164E-02  0.1226708E+00
        -11   -1    0    0    0    0  0.00000000000E+00  0.00000000000E+00  0.45593999997E+02  0.45594000000E+02  0.51100000000E-03 0.  1.
         11   -1    0    0    0    0 -0.00000000000E+00 -0.00000000000E+00 -0.45593999997E+02  0.45594000000E+02  0.51100000000E-03 0. -1.
    9900012    2    1    2    0    0 -0.60437573841E+00 -0.87264104664E+01 -0.16557874078E+02  0.72461582733E+02  0.70000016204E+02 0.  0.
        -12    1    1    2    0    0  0.60437573841E+00  0.87264104664E+01  0.16557874078E+02  0.18726417267E+02  0.00000000000E+00 0.  1.
         11    1    3    3    0    0  0.87807857520E+01  0.19465002401E+02 -0.11749470301E+02  0.24372906464E+02  0.51100000000E-03 0. -1.
        -11    1    3    3    0    0 -0.20382769937E+02 -0.96033430996E+01 -0.11738665278E+02  0.25406254580E+02  0.51100000000E-03 0.  1.
         12    1    3    3    0    0  0.10997608446E+02 -0.18588069768E+02  0.69302615011E+01  0.22682421690E+02  0.00000000000E+00 0. -1.
</event>
<event>
 7    1  0.2641045E-013  0.7246149E+02  0.7816164E-02  0.1226708E+00
        -11   -1    0    0    0    0  0.00000000000E+00  0.00000000000E+00  0.45593999997E+02  0.45594000000E+02  0.51100000000E-03 0.  1.
         11   -1    0    0    0    0 -0.00000000000E+00 -0.00000000000E+00 -0.45593999997E+02  0.45594000000E+02  0.51100000000E-03 0. -1.
    9900012    2    1    2    0    0 -0.25491144441E+00 -0.14999379044E+02 -0.11208732669E+02  0.72461493663E+02  0.69999900173E+02 0.  0.
        -12    1    1    2    0    0  0.25491144441E+00  0.14999379044E+02  0.11208732669E+02  0.18726506337E+02  0.00000000000E+00 0.  1.
         11    1    3    3    0    0 -0.16073929164E+02 -0.79778228227E+01  0.31023225127E+01  0.18211020318E+02  0.51100000000E-03 0. -1.
        -11    1    3    3    0    0 -0.82101153275E+01 -0.55158946574E+01  0.13964963370E+02  0.17112898345E+02  0.51100000000E-03 0.  1.
        -12    1    3    3    0    0  0.24029133048E+02 -0.15056615641E+01 -0.28276018552E+02  0.37137575000E+02  0.00000000000E+00 0.  1.
</event>
<event>
 7    1  0.2641045E-013  0.7246120E+02  0.7816164E-02  0.1226709E+00
        -11   -1    0    0    0    0  0.00000000000E+00  0.00000000000E+00  0.45593999997E+02  0.45594000000E+02  0.51100000000E-03 0. -1.
         11   -1    0    0    0    0 -0.00000000000E+00 -0.00000000000E+00 -0.45593999997E+02  0.45594000000E+02  0.51100000000E-03 0.  1.
    9900012    2    1    2    0    0  0.60822940864E+01  0.15726975811E+02  0.81462137666E+01  0.72461204539E+02  0.69999523534E+02 0.  0.
        -12    1    1    2    0    0 -0.60822940864E+01 -0.15726975811E+02 -0.81462137666E+01  0.18726795461E+02  0.00000000000E+00 0.  1.
         11    1    3    3    0    0  0.16693397110E+02  0.17614136281E+01 -0.57151398438E+01  0.17732312560E+02  0.51100000000E-03 0. -1.
        -11    1    3    3    0    0  0.73803066929E+01  0.27813172589E+02  0.13524478043E+01  0.28807474927E+02  0.51100000000E-03 0.  1.
         12    1    3    3    0    0 -0.17991409716E+02 -0.13847610406E+02  0.12508905806E+02  0.25921417052E+02  0.00000000000E+00 0. -1.
</event>
<event>
 7    1  0.2641045E-013  0.7246163E+02  0.7816164E-02  0.1226708E+00
        -11   -1    0    0    0    0  0.00000000000E+00  0.00000000000E+00  0.45593999997E+02  0.45594000000E+02  0.51100000000E-03 0.  1.
         11   -1    0    0    0    0 -0.00000000000E+00 -0.00000000000E+00 -0.45593999997E+02  0.45594000000E+02  0.51100000000E-03 0. -1.
    9900012    2    1    2    0    0 -0.15113895062E+02  0.28099884174E+01  0.10693498227E+02  0.72461634545E+02  0.70000083698E+02 0.  0.
        -12    1    1    2    0    0  0.15113895062E+02 -0.28099884174E+01 -0.10693498227E+02  0.18726365455E+02  0.00000000000E+00 0.  1.
         11    1    3    3    0    0 -0.21735079206E+02 -0.37119154385E+01 -0.16613304535E+02  0.27607858884E+02  0.51100000000E-03 0. -1.
        -11    1    3    3    0    0  0.19860027264E+01  0.51590061641E+01 -0.77201004221E+01  0.94952357643E+01  0.51100000000E-03 0.  1.
        -12    1    3    3    0    0  0.46351814185E+01  0.13628976918E+01  0.35026903184E+02  0.35358539896E+02  0.00000000000E+00 0.  1.
</event>
<event>
 7    1  0.2641045E-013  0.7246176E+02  0.7816164E-02  0.1226708E+00
        -11   -1    0    0    0    0  0.00000000000E+00  0.00000000000E+00  0.45593999997E+02  0.45594000000E+02  0.51100000000E-03 0. -1.
         11   -1    0    0    0    0 -0.00000000000E+00 -0.00000000000E+00 -0.45593999997E+02  0.45594000000E+02  0.51100000000E-03 0.  1.
    9900012    2    1    2    0    0 -0.14510451369E+02 -0.78967205729E+01  0.88182017449E+01  0.72461759674E+02  0.70000246701E+02 0.  0.
        -12    1    1    2    0    0  0.14510451369E+02  0.78967205729E+01 -0.88182017449E+01  0.18726240326E+02  0.00000000000E+00 0.  1.
         11    1    3    3    0    0 -0.24544947201E+02 -0.26892296759E+02  0.14482662622E+02  0.39184149537E+02  0.51100000000E-03 0.  1.
        -11    1    3    3    0    0 -0.71710133534E+01  0.55181752045E+01  0.33324916130E+01  0.96425717894E+01  0.51100000000E-03 0. -1.
        -12    1    3    3    0    0  0.17205509185E+02  0.13477400982E+02 -0.89969524901E+01  0.23635038347E+02  0.00000000000E+00 0.  1.
</event>
<event>
 7    1  0.2641045E-013  0.7246149E+02  0.7816164E-02  0.1226708E+00
        -11   -1    0    0    0    0  0.00000000000E+00  0.00000000000E+00  0.45593999997E+02  0.45594000000E+02  0.51100000000E-03 0. -1.
         11   -1    0    0    0    0 -0.00000000000E+00 -0.00000000000E+00 -0.45593999997E+02  0.45594000000E+02  0.51100000000E-03 0.  1.
    9900012    2    1    2    0    0  0.86642314951E+01 -0.16523162605E+02 -0.16119260706E+01  0.72461491635E+02  0.69999897532E+02 0.  0.
        -12    1    1    2    0    0 -0.86642314951E+01  0.16523162605E+02  0.16119260706E+01  0.18726508365E+02  0.00000000000E+00 0.  1.
         11    1    3    3    0    0 -0.48160925244E+01 -0.29436549565E+01  0.12063361162E+02  0.13318578547E+02  0.51100000000E-03 0. -1.
        -11    1    3    3    0    0  0.86192048051E+01  0.92423548206E+01  0.16635208454E+02  0.20891193711E+02  0.51100000000E-03 0.  1.
        -12    1    3    3    0    0  0.48611192144E+01 -0.22821862469E+02 -0.30310495687E+02  0.38251719378E+02  0.00000000000E+00 0.  1.
</event>
<event>
 7    1  0.2641045E-013  0.7246157E+02  0.7816164E-02  0.1226708E+00
        -11   -1    0    0    0    0  0.00000000000E+00  0.00000000000E+00  0.45593999997E+02  0.45594000000E+02  0.51100000000E-03 0.  1.
         11   -1    0    0    0    0 -0.00000000000E+00 -0.00000000000E+00 -0.45593999997E+02  0.45594000000E+02  0.51100000000E-03 0. -1.
    9900012    2    1    2    0    0  0.14548290850E+02  0.51190884224E+01 -0.10621739277E+02  0.72461570062E+02  0.69999999698E+02 0.  0.
        -12    1    1    2    0    0 -0.14548290850E+02 -0.51190884224E+01  0.10621739277E+02  0.18726429938E+02  0.00000000000E+00 0.  1.
         11    1    3    3    0    0 -0.26023538341E+01 -0.44316634911E+01  0.31475148454E+01  0.60265028615E+01  0.51100000000E-03 0. -1.
        -11    1    3    3    0    0 -0.12447730719E+02 -0.18530267873E+02  0.26005354631E+01  0.22473976338E+02  0.51100000000E-03 0.  1.
         12    1    3    3    0    0  0.29598375404E+02  0.28081019786E+02 -0.16369789585E+02  0.43961090863E+02  0.00000000000E+00 0. -1.
</event>
<event>
 7    1  0.2641045E-013  0.7246168E+02  0.7816164E-02  0.1226708E+00
        -11   -1    0    0    0    0  0.00000000000E+00  0.00000000000E+00  0.45593999997E+02  0.45594000000E+02  0.51100000000E-03 0. -1.
         11   -1    0    0    0    0 -0.00000000000E+00 -0.00000000000E+00 -0.45593999997E+02  0.45594000000E+02  0.51100000000E-03 0.  1.
    9900012    2    1    2    0    0  0.95592935074E+01 -0.14684153799E+02  0.66083672354E+01  0.72461682085E+02  0.70000145628E+02 0.  0.
        -12    1    1    2    0    0 -0.95592935074E+01  0.14684153799E+02 -0.66083672354E+01  0.18726317915E+02  0.00000000000E+00 0.  1.
         11    1    3    3    0    0  0.39080317053E+01  0.62423871463E+01  0.96331199296E+01  0.12125885903E+02  0.51100000000E-03 0. -1.
        -11    1    3    3    0    0 -0.49689697147E+01  0.15063300829E+02  0.12026596754E+02  0.19905595234E+02  0.51100000000E-03 0.  1.
        -12    1    3    3    0    0  0.10620231517E+02 -0.35989841774E+02 -0.15051349448E+02  0.40430200947E+02  0.00000000000E+00 0.  1.
</event>
<event>
 7    1  0.2641045E-013  0.7246171E+02  0.7816164E-02  0.1226708E+00
        -11   -1    0    0    0    0  0.00000000000E+00  0.00000000000E+00  0.45593999997E+02  0.45594000000E+02  0.51100000000E-03 0.  1.
         11   -1    0    0    0    0 -0.00000000000E+00 -0.00000000000E+00 -0.45593999997E+02  0.45594000000E+02  0.51100000000E-03 0. -1.
    9900012    2    1    2    0    0  0.13965021727E+02  0.12301000726E+02  0.20826302261E+01  0.72461713680E+02  0.70000186786E+02 0.  0.
        -12    1    1    2    0    0 -0.13965021727E+02 -0.12301000726E+02 -0.20826302261E+01  0.18726286320E+02  0.00000000000E+00 0.  1.
         11    1    3    3    0    0  0.27408438998E+02 -0.83511513224E+01  0.16000998759E+02  0.32817620546E+02  0.51100000000E-03 0. -1.
        -11    1    3    3    0    0  0.73219734573E+01  0.12502120428E+02 -0.29491410175E+01  0.14785524796E+02  0.51100000000E-03 0.  1.
         12    1    3    3    0    0 -0.20765390729E+02  0.81500316201E+01 -0.10969227516E+02  0.24858568338E+02  0.00000000000E+00 0. -1.
</event>
<event>
 7    1  0.2641045E-013  0.7246159E+02  0.7816164E-02  0.1226708E+00
        -11   -1    0    0    0    0  0.00000000000E+00  0.00000000000E+00  0.45593999997E+02  0.45594000000E+02  0.51100000000E-03 0.  1.
         11   -1    0    0    0    0 -0.00000000000E+00 -0.00000000000E+00 -0.45593999997E+02  0.45594000000E+02  0.51100000000E-03 0. -1.
    9900012    2    1    2    0    0  0.95937353243E+01  0.14221359910E+02 -0.75094370893E+01  0.72461588690E+02  0.70000023963E+02 0.  0.
        -12    1    1    2    0    0 -0.95937353243E+01 -0.14221359910E+02  0.75094370893E+01  0.18726411310E+02  0.00000000000E+00 0.  1.
         11    1    3    3    0    0  0.37502583972E+00  0.13541278942E+02 -0.34162280138E+02  0.36750078425E+02  0.51100000000E-03 0. -1.
        -11    1    3    3    0    0 -0.66099766668E+00  0.39099580656E+01 -0.25496020313E+01  0.47143568776E+01  0.51100000000E-03 0.  1.
        -12    1    3    3    0    0  0.98797071513E+01 -0.32298770970E+01  0.29202445080E+02  0.30997153387E+02  0.00000000000E+00 0.  1.
</event>
<event>
 7    1  0.2641045E-013  0.7246156E+02  0.7816164E-02  0.1226708E+00
        -11   -1    0    0    0    0  0.00000000000E+00  0.00000000000E+00  0.45593999997E+02  0.45594000000E+02  0.51100000000E-03 0.  1.
         11   -1    0    0    0    0 -0.00000000000E+00 -0.00000000000E+00 -0.45593999997E+02  0.45594000000E+02  0.51100000000E-03 0. -1.
    9900012    2    1    2    0    0 -0.15903435931E+02 -0.62766690895E+01 -0.76396047405E+01  0.72461563878E+02  0.69999991641E+02 0.  0.
        -12    1    1    2    0    0  0.15903435931E+02  0.62766690895E+01  0.76396047405E+01  0.18726436122E+02  0.00000000000E+00 0.  1.
         11    1    3    3    0    0  0.57489107893E+01 -0.17242628349E+02 -0.15653055037E+02  0.23987003562E+02  0.51100000000E-03 0. -1.
        -11    1    3    3    0    0 -0.69800412457E+01  0.92384474672E+01 -0.16318277609E+02  0.20008899814E+02  0.51100000000E-03 0.  1.
        -12    1    3    3    0    0 -0.14672305474E+02  0.17275117927E+01  0.24331727905E+02  0.28465660501E+02  0.00000000000E+00 0.  1.
</event>
<event>
 7    1  0.2641045E-013  0.7246157E+02  0.7816164E-02  0.1226708E+00
        -11   -1    0    0    0    0  0.00000000000E+00  0.00000000000E+00  0.45593999997E+02  0.45594000000E+02  0.51100000000E-03 0. -1.
         11   -1    0    0    0    0 -0.00000000000E+00 -0.00000000000E+00 -0.45593999997E+02  0.45594000000E+02  0.51100000000E-03 0.  1.
    9900012    2    1    2    0    0  0.82576286700E+01 -0.41036779392E+01  0.16298790073E+02  0.72461570503E+02  0.70000000271E+02 0.  0.
        -12    1    1    2    0    0 -0.82576286700E+01  0.41036779392E+01 -0.16298790073E+02  0.18726429497E+02  0.00000000000E+00 0.  1.
         11    1    3    3    0    0 -0.59967869907E+01 -0.21956204267E+01 -0.10047336092E+02  0.11905089923E+02  0.51100000000E-03 0. -1.
        -11    1    3    3    0    0  0.56499411595E+01  0.11865899064E+02 -0.12694753275E+02  0.18272333093E+02  0.51100000000E-03 0.  1.
         12    1    3    3    0    0  0.86044745012E+01 -0.13773956577E+02  0.39040879440E+02  0.42284147486E+02  0.00000000000E+00 0. -1.
</event>
<event>
 7    1  0.2641045E-013  0.7246156E+02  0.7816164E-02  0.1226708E+00
        -11   -1    0    0    0    0  0.00000000000E+00  0.00000000000E+00  0.45593999997E+02  0.45594000000E+02  0.51100000000E-03 0.  1.
         11   -1    0    0    0    0 -0.00000000000E+00 -0.00000000000E+00 -0.45593999997E+02  0.45594000000E+02  0.51100000000E-03 0. -1.
    9900012    2    1    2    0    0  0.14585351953E+02  0.10929722622E+02 -0.42998003688E+01  0.72461558496E+02  0.69999984631E+02 0.  0.
        -12    1    1    2    0    0 -0.14585351953E+02 -0.10929722622E+02  0.42998003688E+01  0.18726441504E+02  0.00000000000E+00 0.  1.
         11    1    3    3    0    0  0.77794469744E+01  0.10206802786E+01 -0.11069423247E+02  0.13568113897E+02  0.51100000000E-03 0. -1.
        -11    1    3    3    0    0  0.22373748896E+02 -0.46935638630E+01 -0.15830737825E+02  0.27806949522E+02  0.51100000000E-03 0.  1.
        -12    1    3    3    0    0 -0.15567843917E+02  0.14602606207E+02  0.22600360703E+02  0.31086495077E+02  0.00000000000E+00 0.  1.
</event>
<event>
 7    1  0.2641045E-013  0.7246157E+02  0.7816164E-02  0.1226708E+00
        -11   -1    0    0    0    0  0.00000000000E+00  0.00000000000E+00  0.45593999997E+02  0.45594000000E+02  0.51100000000E-03 0.  1.
         11   -1    0    0    0    0 -0.00000000000E+00 -0.00000000000E+00 -0.45593999997E+02  0.45594000000E+02  0.51100000000E-03 0. -1.
    9900012    2    1    2    0    0  0.65427993936E+01 -0.80469330927E+00 -0.17527790725E+02  0.72461569403E+02  0.69999998839E+02 0.  0.
        -12    1    1    2    0    0 -0.65427993936E+01  0.80469330927E+00  0.17527790725E+02  0.18726430597E+02  0.00000000000E+00 0.  1.
         11    1    3    3    0    0  0.11336568656E+02  0.11229188470E+02 -0.12869109221E+01  0.16008391630E+02  0.51100000000E-03 0. -1.
        -11    1    3    3    0    0 -0.19223108973E+02  0.13990985161E+02 -0.32988824637E+01  0.24003295818E+02  0.51100000000E-03 0.  1.
         12    1    3    3    0    0  0.14429339710E+02 -0.26024866941E+02 -0.12941997339E+02  0.32449881955E+02  0.00000000000E+00 0. -1.
</event>
<event>
 7    1  0.2641045E-013  0.7246153E+02  0.7816164E-02  0.1226708E+00
        -11   -1    0    0    0    0  0.00000000000E+00  0.00000000000E+00  0.45593999997E+02  0.45594000000E+02  0.51100000000E-03 0. -1.
         11   -1    0    0    0    0 -0.00000000000E+00 -0.00000000000E+00 -0.45593999997E+02  0.45594000000E+02  0.51100000000E-03 0.  1.
    9900012    2    1    2    0    0  0.15209972486E+02  0.78145875798E+01  0.76334527084E+01  0.72461530971E+02  0.69999948774E+02 0.  0.
        -12    1    1    2    0    0 -0.15209972486E+02 -0.78145875798E+01 -0.76334527084E+01  0.18726469029E+02  0.00000000000E+00 0.  1.
         11    1    3    3    0    0  0.64890643523E+01  0.14104193982E+02  0.13607249035E+02  0.20644453749E+02  0.51100000000E-03 0. -1.
        -11    1    3    3    0    0  0.16365565561E+02 -0.65190636877E+01  0.18874649827E+02  0.25818255825E+02  0.51100000000E-03 0.  1.
        -12    1    3    3    0    0 -0.76446574275E+01  0.22945728542E+00 -0.24848446153E+02  0.25998821397E+02  0.00000000000E+00 0.  1.
</event>
<event>
 7    1  0.2641045E-013  0.7246158E+02  0.7816164E-02  0.1226708E+00
        -11   -1    0    0    0    0  0.00000000000E+00  0.00000000000E+00  0.45593999997E+02  0.45594000000E+02  0.51100000000E-03 0. -1.
         11   -1    0    0    0    0 -0.00000000000E+00 -0.00000000000E+00 -0.45593999997E+02  0.45594000000E+02  0.51100000000E-03 0.  1.
    9900012    2    1    2    0    0  0.16846475435E+02  0.81236564142E+01  0.93882260557E+00  0.72461577063E+02  0.70000008817E+02 0.  0.
        -12    1    1    2    0    0 -0.16846475435E+02 -0.81236564142E+01 -0.93882260557E+00  0.18726422937E+02  0.00000000000E+00 0.  1.
         11    1    3    3    0    0  0.50929662507E+01 -0.14826441469E+01 -0.37082820450E+01  0.64720858217E+01  0.51100000000E-03 0. -1.
        -11    1    3    3    0    0  0.37058836056E+02  0.29888701207E+01 -0.61646280777E+01  0.37686779034E+02  0.51100000000E-03 0.  1.
         12    1    3    3    0    0 -0.25305326871E+02  0.66174304405E+01  0.10811732728E+02  0.28302712207E+02  0.00000000000E+00 0. -1.
</event>
<event>
 7    1  0.2641045E-013  0.7246155E+02  0.7816164E-02  0.1226708E+00
        -11   -1    0    0    0    0  0.00000000000E+00  0.00000000000E+00  0.45593999997E+02  0.45594000000E+02  0.51100000000E-03 0.  1.
         11   -1    0    0    0    0 -0.00000000000E+00 -0.00000000000E+00 -0.45593999997E+02  0.45594000000E+02  0.51100000000E-03 0. -1.
    9900012    2    1    2    0    0  0.16530506789E+01  0.85327675285E+01 -0.16587319817E+02  0.72461551406E+02  0.69999975394E+02 0.  0.
        -12    1    1    2    0    0 -0.16530506789E+01 -0.85327675285E+01  0.16587319817E+02  0.18726448594E+02  0.00000000000E+00 0.  1.
         11    1    3    3    0    0  0.21185032139E+02  0.14581046264E+01 -0.13109237438E+01  0.21275577011E+02  0.51100000000E-03 0. -1.
        -11    1    3    3    0    0  0.11583672402E+02  0.12686217809E+02 -0.65587828320E+01  0.18388562236E+02  0.51100000000E-03 0.  1.
         12    1    3    3    0    0 -0.31115653862E+02 -0.56115549069E+01 -0.87176132410E+01  0.32797412159E+02  0.00000000000E+00 0. -1.
</event>
<event>
 7    1  0.2641045E-013  0.7246156E+02  0.7816164E-02  0.1226708E+00
        -11   -1    0    0    0    0  0.00000000000E+00  0.00000000000E+00  0.45593999997E+02  0.45594000000E+02  0.51100000000E-03 0.  1.
         11   -1    0    0    0    0 -0.00000000000E+00 -0.00000000000E+00 -0.45593999997E+02  0.45594000000E+02  0.51100000000E-03 0. -1.
    9900012    2    1    2    0    0  0.52909788112E+01  0.17795861112E+02  0.24479299743E+01  0.72461561720E+02  0.69999988830E+02 0.  0.
        -12    1    1    2    0    0 -0.52909788112E+01 -0.17795861112E+02 -0.24479299743E+01  0.18726438280E+02  0.00000000000E+00 0.  1.
         11    1    3    3    0    0 -0.16064706363E+02  0.19029774424E+01 -0.29030478950E+01  0.16435443438E+02  0.51100000000E-03 0. -1.
        -11    1    3    3    0    0 -0.96140544587E+01  0.20419909273E+02  0.94335738766E+01  0.24462114671E+02  0.51100000000E-03 0.  1.
         12    1    3    3    0    0  0.30969739633E+02 -0.45270256029E+01 -0.40825960073E+01  0.31564003610E+02  0.00000000000E+00 0. -1.
</event>
<event>
 7    1  0.2641045E-013  0.7246173E+02  0.7816164E-02  0.1226708E+00
        -11   -1    0    0    0    0  0.00000000000E+00  0.00000000000E+00  0.45593999997E+02  0.45594000000E+02  0.51100000000E-03 0.  1.
         11   -1    0    0    0    0 -0.00000000000E+00 -0.00000000000E+00 -0.45593999997E+02  0.45594000000E+02  0.51100000000E-03 0. -1.
    9900012    2    1    2    0    0  0.13366122603E+02  0.12433508242E+02 -0.41746696786E+01  0.72461728946E+02  0.70000206673E+02 0.  0.
        -12    1    1    2    0    0 -0.13366122603E+02 -0.12433508242E+02  0.41746696786E+01  0.18726271054E+02  0.00000000000E+00 0.  1.
         11    1    3    3    0    0 -0.44282416374E+01 -0.67937892225E+00 -0.48448854855E+01  0.65987722606E+01  0.51100000000E-03 0. -1.
        -11    1    3    3    0    0 -0.96723007698E+01 -0.16005179287E+02  0.14338641306E+02  0.23565139528E+02  0.51100000000E-03 0.  1.
         12    1    3    3    0    0  0.27466665011E+02  0.29118066452E+02 -0.13668425499E+02  0.42297817158E+02  0.00000000000E+00 0. -1.
</event>
<event>
 7    1  0.2641045E-013  0.7246158E+02  0.7816164E-02  0.1226708E+00
        -11   -1    0    0    0    0  0.00000000000E+00  0.00000000000E+00  0.45593999997E+02  0.45594000000E+02  0.51100000000E-03 0.  1.
         11   -1    0    0    0    0 -0.00000000000E+00 -0.00000000000E+00 -0.45593999997E+02  0.45594000000E+02  0.51100000000E-03 0. -1.
    9900012    2    1    2    0    0  0.67730141394E+01 -0.17450462188E+02 -0.53528758067E+00  0.72461577921E+02  0.70000009935E+02 0.  0.
        -12    1    1    2    0    0 -0.67730141394E+01  0.17450462188E+02  0.53528758067E+00  0.18726422079E+02  0.00000000000E+00 0.  1.
         11    1    3    3    0    0  0.24521793465E+02 -0.96847606667E+00 -0.13286204988E+02  0.27906621864E+02  0.51100000000E-03 0. -1.
        -11    1    3    3    0    0  0.17649061997E+01  0.42781377507E+01 -0.80450577036E+01  0.92811804326E+01  0.51100000000E-03 0.  1.
        -12    1    3    3    0    0 -0.19513685525E+02 -0.20760123872E+02  0.20795975111E+02  0.35273775624E+02  0.00000000000E+00 0.  1.
</event>
<event>
 7    1  0.2641045E-013  0.7246156E+02  0.7816164E-02  0.1226708E+00
        -11   -1    0    0    0    0  0.00000000000E+00  0.00000000000E+00  0.45593999997E+02  0.45594000000E+02  0.51100000000E-03 0.  1.
         11   -1    0    0    0    0 -0.00000000000E+00 -0.00000000000E+00 -0.45593999997E+02  0.45594000000E+02  0.51100000000E-03 0. -1.
    9900012    2    1    2    0    0  0.31352769477E+01 -0.18440822250E+02  0.88632777560E+00  0.72461562439E+02  0.69999989767E+02 0.  0.
        -12    1    1    2    0    0 -0.31352769477E+01  0.18440822250E+02 -0.88632777560E+00  0.18726437561E+02  0.00000000000E+00 0.  1.
         11    1    3    3    0    0  0.28635967810E+02 -0.12900122869E+02 -0.10309836847E+02  0.33056384535E+02  0.51100000000E-03 0.  1.
        -11    1    3    3    0    0  0.39383372459E+01  0.91886136019E+00 -0.39682593110E+01  0.56658528645E+01  0.51100000000E-03 0. -1.
        -12    1    3    3    0    0 -0.29439028108E+02 -0.64595607414E+01  0.15164423933E+02  0.33739325040E+02  0.00000000000E+00 0.  1.
</event>
<event>
 7    1  0.2641045E-013  0.7246161E+02  0.7816164E-02  0.1226708E+00
        -11   -1    0    0    0    0  0.00000000000E+00  0.00000000000E+00  0.45593999997E+02  0.45594000000E+02  0.51100000000E-03 0.  1.
         11   -1    0    0    0    0 -0.00000000000E+00 -0.00000000000E+00 -0.45593999997E+02  0.45594000000E+02  0.51100000000E-03 0. -1.
    9900012    2    1    2    0    0  0.59005526291E+01 -0.44995073625E+00 -0.17766791748E+02  0.72461605098E+02  0.70000045339E+02 0.  0.
        -12    1    1    2    0    0 -0.59005526291E+01  0.44995073625E+00  0.17766791748E+02  0.18726394902E+02  0.00000000000E+00 0.  1.
         11    1    3    3    0    0 -0.68592146507E+01 -0.88161716520E+00 -0.29702786745E+02  0.30497239467E+02  0.51100000000E-03 0. -1.
        -11    1    3    3    0    0  0.21095477307E+02  0.11721119516E+02  0.96645839106E+00  0.24152388031E+02  0.51100000000E-03 0.  1.
         12    1    3    3    0    0 -0.83357100273E+01 -0.11289453087E+02  0.10969536606E+02  0.17811977600E+02  0.00000000000E+00 0. -1.
</event>
<event>
 7    1  0.2641045E-013  0.7246158E+02  0.7816164E-02  0.1226708E+00
        -11   -1    0    0    0    0  0.00000000000E+00  0.00000000000E+00  0.45593999997E+02  0.45594000000E+02  0.51100000000E-03 0. -1.
         11   -1    0    0    0    0 -0.00000000000E+00 -0.00000000000E+00 -0.45593999997E+02  0.45594000000E+02  0.51100000000E-03 0.  1.
    9900012    2    1    2    0    0 -0.60257834457E+01  0.28716768033E+01  0.17496344122E+02  0.72461584128E+02  0.70000018021E+02 0.  0.
        -12    1    1    2    0    0  0.60257834457E+01 -0.28716768033E+01 -0.17496344122E+02  0.18726415872E+02  0.00000000000E+00 0.  1.
         11    1    3    3    0    0 -0.25349735482E+01 -0.19632153358E+02  0.21562603574E+02  0.29271033626E+02  0.51100000000E-03 0. -1.
        -11    1    3    3    0    0 -0.11061721563E+02 -0.52586359511E+01 -0.72592516609E+01  0.14237684887E+02  0.51100000000E-03 0.  1.
        -12    1    3    3    0    0  0.75709116651E+01  0.27762466112E+02  0.31929922084E+01  0.28952865615E+02  0.00000000000E+00 0.  1.
</event>
<event>
 7    1  0.2641045E-013  0.7246158E+02  0.7816164E-02  0.1226708E+00
        -11   -1    0    0    0    0  0.00000000000E+00  0.00000000000E+00  0.45593999997E+02  0.45594000000E+02  0.51100000000E-03 0. -1.
         11   -1    0    0    0    0 -0.00000000000E+00 -0.00000000000E+00 -0.45593999997E+02  0.45594000000E+02  0.51100000000E-03 0.  1.
    9900012    2    1    2    0    0  0.15343464106E+01  0.75129931143E+01  0.17084484163E+02  0.72461577930E+02  0.70000009947E+02 0.  0.
        -12    1    1    2    0    0 -0.15343464106E+01 -0.75129931143E+01 -0.17084484163E+02  0.18726422070E+02  0.00000000000E+00 0.  1.
         11    1    3    3    0    0 -0.60245256128E+01  0.67690661946E+01  0.29143087928E+01  0.95188424720E+01  0.51100000000E-03 0. -1.
        -11    1    3    3    0    0  0.15937187280E+02  0.27708981906E+02  0.15188100588E+01  0.32001381234E+02  0.51100000000E-03 0.  1.
         12    1    3    3    0    0 -0.83783152562E+01 -0.26965054986E+02  0.12651365311E+02  0.30941354223E+02  0.00000000000E+00 0. -1.
</event>
<event>
 7    1  0.2641045E-013  0.7246156E+02  0.7816164E-02  0.1226708E+00
        -11   -1    0    0    0    0  0.00000000000E+00  0.00000000000E+00  0.45593999997E+02  0.45594000000E+02  0.51100000000E-03 0.  1.
         11   -1    0    0    0    0 -0.00000000000E+00 -0.00000000000E+00 -0.45593999997E+02  0.45594000000E+02  0.51100000000E-03 0. -1.
    9900012    2    1    2    0    0  0.72334783131E+01 -0.55851380698E+01 -0.16345110829E+02  0.72461558166E+02  0.69999984200E+02 0.  0.
        -12    1    1    2    0    0 -0.72334783131E+01  0.55851380698E+01  0.16345110829E+02  0.18726441834E+02  0.00000000000E+00 0.  1.
         11    1    3    3    0    0 -0.11352941615E+02 -0.20933025486E+02 -0.14371214934E+02  0.27813893260E+02  0.51100000000E-03 0. -1.
        -11    1    3    3    0    0 -0.95431748074E+01  0.70868833351E+01 -0.84991614673E+01  0.14612728928E+02  0.51100000000E-03 0.  1.
         12    1    3    3    0    0  0.28129594735E+02  0.82610040816E+01  0.65252655726E+01  0.30034935978E+02  0.00000000000E+00 0. -1.
</event>
<event>
 7    1  0.2641045E-013  0.7246157E+02  0.7816164E-02  0.1226708E+00
        -11   -1    0    0    0    0  0.00000000000E+00  0.00000000000E+00  0.45593999997E+02  0.45594000000E+02  0.51100000000E-03 0.  1.
         11   -1    0    0    0    0 -0.00000000000E+00 -0.00000000000E+00 -0.45593999997E+02  0.45594000000E+02  0.51100000000E-03 0. -1.
    9900012    2    1    2    0    0 -0.73889563205E+00  0.30757863466E+01 -0.18457318838E+02  0.72461573563E+02  0.70000004258E+02 0.  0.
        -12    1    1    2    0    0  0.73889563205E+00 -0.30757863466E+01  0.18457318838E+02  0.18726426437E+02  0.00000000000E+00 0.  1.
         11    1    3    3    0    0 -0.56390068314E+01  0.10748719325E+02 -0.91969225174E+01  0.15228813126E+02  0.51100000000E-03 0. -1.
        -11    1    3    3    0    0 -0.19658396057E+01  0.23039477537E+02 -0.11219452749E+02  0.25701326245E+02  0.51100000000E-03 0.  1.
         12    1    3    3    0    0  0.68659508050E+01 -0.30712410515E+02  0.19590564282E+01  0.31531434192E+02  0.00000000000E+00 0. -1.
</event>
<event>
 7    1  0.2641045E-013  0.7246160E+02  0.7816164E-02  0.1226708E+00
        -11   -1    0    0    0    0  0.00000000000E+00  0.00000000000E+00  0.45593999997E+02  0.45594000000E+02  0.51100000000E-03 0. -1.
         11   -1    0    0    0    0 -0.00000000000E+00 -0.00000000000E+00 -0.45593999997E+02  0.45594000000E+02  0.51100000000E-03 0.  1.
    9900012    2    1    2    0    0  0.12780052341E+02  0.51212064488E+01  0.12693370165E+02  0.72461597797E+02  0.70000035827E+02 0.  0.
        -12    1    1    2    0    0 -0.12780052341E+02 -0.51212064488E+01 -0.12693370165E+02  0.18726402203E+02  0.00000000000E+00 0.  1.
         11    1    3    3    0    0  0.10878028471E+02  0.23988730056E+02 -0.36777498240E+01  0.26595422861E+02  0.51100000000E-03 0. -1.
        -11    1    3    3    0    0 -0.21822112274E+01  0.10456699227E+02 -0.22141166132E+01  0.10909029160E+02  0.51100000000E-03 0.  1.
         12    1    3    3    0    0  0.40842350970E+01 -0.29324222835E+02  0.18585236602E+02  0.34957145775E+02  0.00000000000E+00 0. -1.
</event>
<event>
 7    1  0.2641045E-013  0.7246155E+02  0.7816164E-02  0.1226708E+00
        -11   -1    0    0    0    0  0.00000000000E+00  0.00000000000E+00  0.45593999997E+02  0.45594000000E+02  0.51100000000E-03 0.  1.
         11   -1    0    0    0    0 -0.00000000000E+00 -0.00000000000E+00 -0.45593999997E+02  0.45594000000E+02  0.51100000000E-03 0. -1.
    9900012    2    1    2    0    0 -0.81319165473E+00 -0.14544839491E+02  0.11767171123E+02  0.72461549383E+02  0.69999972759E+02 0.  0.
        -12    1    1    2    0    0  0.81319165473E+00  0.14544839491E+02 -0.11767171123E+02  0.18726450617E+02  0.00000000000E+00 0.  1.
         11    1    3    3    0    0  0.86137333385E+01  0.89516882898E+01 -0.29597301276E+01  0.12770635378E+02  0.51100000000E-03 0. -1.
        -11    1    3    3    0    0 -0.11383286894E+02  0.13769806094E+02 -0.34275629380E+01  0.18191618079E+02  0.51100000000E-03 0.  1.
         12    1    3    3    0    0  0.19563619007E+01 -0.37266333875E+02  0.18154464189E+02  0.41499295926E+02  0.00000000000E+00 0. -1.
</event>
<event>
 7    1  0.2641045E-013  0.7246132E+02  0.7816164E-02  0.1226709E+00
        -11   -1    0    0    0    0  0.00000000000E+00  0.00000000000E+00  0.45593999997E+02  0.45594000000E+02  0.51100000000E-03 0. -1.
         11   -1    0    0    0    0 -0.00000000000E+00 -0.00000000000E+00 -0.45593999997E+02  0.45594000000E+02  0.51100000000E-03 0.  1.
    9900012    2    1    2    0    0  0.88339248978E+01 -0.37254745156E+01  0.16086370611E+02  0.72461315592E+02  0.69999668203E+02 0.  0.
        -12    1    1    2    0    0 -0.88339248978E+01  0.37254745156E+01 -0.16086370611E+02  0.18726684408E+02  0.00000000000E+00 0.  1.
         11    1    3    3    0    0 -0.67079830097E+01 -0.48599506516E+00  0.11871482630E+02  0.13644241546E+02  0.51100000000E-03 0. -1.
        -11    1    3    3    0    0  0.73160682698E+01  0.46652597299E+01 -0.25527455409E+02  0.26961833825E+02  0.51100000000E-03 0.  1.
         12    1    3    3    0    0  0.82258396377E+01 -0.79047391803E+01  0.29742343390E+02  0.31855240222E+02  0.00000000000E+00 0. -1.
</event>
<event>
 7    1  0.2641045E-013  0.7246157E+02  0.7816164E-02  0.1226708E+00
        -11   -1    0    0    0    0  0.00000000000E+00  0.00000000000E+00  0.45593999997E+02  0.45594000000E+02  0.51100000000E-03 0. -1.
         11   -1    0    0    0    0 -0.00000000000E+00 -0.00000000000E+00 -0.45593999997E+02  0.45594000000E+02  0.51100000000E-03 0.  1.
    9900012    2    1    2    0    0  0.71831867851E+01  0.17152382263E+02  0.22083415110E+01  0.72461570497E+02  0.70000000264E+02 0.  0.
        -12    1    1    2    0    0 -0.71831867851E+01 -0.17152382263E+02 -0.22083415110E+01  0.18726429503E+02  0.00000000000E+00 0.  1.
         11    1    3    3    0    0 -0.87321145845E+01 -0.11508269607E+02  0.17806702089E+02  0.22929647490E+02  0.51100000000E-03 0. -1.
        -11    1    3    3    0    0 -0.99976825178E+01  0.44419581466E+01 -0.40905611170E+00  0.10947692682E+02  0.51100000000E-03 0.  1.
        -12    1    3    3    0    0  0.25912983887E+02  0.24218693723E+02 -0.15189304466E+02  0.38584230325E+02  0.00000000000E+00 0.  1.
</event>
<event>
 7    1  0.2641045E-013  0.7246153E+02  0.7816164E-02  0.1226708E+00
        -11   -1    0    0    0    0  0.00000000000E+00  0.00000000000E+00  0.45593999997E+02  0.45594000000E+02  0.51100000000E-03 0. -1.
         11   -1    0    0    0    0 -0.00000000000E+00 -0.00000000000E+00 -0.45593999997E+02  0.45594000000E+02  0.51100000000E-03 0.  1.
    9900012    2    1    2    0    0  0.12799692273E+02 -0.11161823690E+02 -0.78906339248E+01  0.72461533860E+02  0.69999952537E+02 0.  0.
        -12    1    1    2    0    0 -0.12799692273E+02  0.11161823690E+02  0.78906339248E+01  0.18726466140E+02  0.00000000000E+00 0.  1.
         11    1    3    3    0    0  0.18033032646E+01 -0.90770478553E+01  0.97226807476E+01  0.13422936401E+02  0.51100000000E-03 0. -1.
        -11    1    3    3    0    0 -0.17746647498E+02 -0.16265940777E+02 -0.49519648349E+01  0.24577353047E+02  0.51100000000E-03 0.  1.
        -12    1    3    3    0    0  0.28743036507E+02  0.14181164943E+02 -0.12661349837E+02  0.34461244413E+02  0.00000000000E+00 0.  1.
</event>
<event>
 7    1  0.2641045E-013  0.7246158E+02  0.7816164E-02  0.1226708E+00
        -11   -1    0    0    0    0  0.00000000000E+00  0.00000000000E+00  0.45593999997E+02  0.45594000000E+02  0.51100000000E-03 0.  1.
         11   -1    0    0    0    0 -0.00000000000E+00 -0.00000000000E+00 -0.45593999997E+02  0.45594000000E+02  0.51100000000E-03 0. -1.
    9900012    2    1    2    0    0  0.19700136665E+01 -0.12133910133E+02 -0.14126791617E+02  0.72461575612E+02  0.70000006927E+02 0.  0.
        -12    1    1    2    0    0 -0.19700136665E+01  0.12133910133E+02  0.14126791617E+02  0.18726424388E+02  0.00000000000E+00 0.  1.
         11    1    3    3    0    0 -0.20743690310E+02 -0.38628011662E+01 -0.22454803113E+02  0.30812985958E+02  0.51100000000E-03 0. -1.
        -11    1    3    3    0    0  0.44568956425E+01 -0.15483859463E+02 -0.61612548836E+01  0.17250358971E+02  0.51100000000E-03 0.  1.
        -12    1    3    3    0    0  0.18256808334E+02  0.72127504967E+01  0.14489266379E+02  0.24398230683E+02  0.00000000000E+00 0.  1.
</event>
<event>
 7    1  0.2641045E-013  0.7246153E+02  0.7816164E-02  0.1226708E+00
        -11   -1    0    0    0    0  0.00000000000E+00  0.00000000000E+00  0.45593999997E+02  0.45594000000E+02  0.51100000000E-03 0. -1.
         11   -1    0    0    0    0 -0.00000000000E+00 -0.00000000000E+00 -0.45593999997E+02  0.45594000000E+02  0.51100000000E-03 0.  1.
    9900012    2    1    2    0    0 -0.12562737060E+02 -0.12679942507E+01  0.13829332380E+02  0.72461531942E+02  0.69999950039E+02 0.  0.
        -12    1    1    2    0    0  0.12562737060E+02  0.12679942507E+01 -0.13829332380E+02  0.18726468058E+02  0.00000000000E+00 0.  1.
         11    1    3    3    0    0  0.77005242447E+01  0.20521141451E+02  0.24472309364E+02  0.32852842281E+02  0.51100000000E-03 0. -1.
        -11    1    3    3    0    0  0.31926650342E+01 -0.53003866357E+00 -0.70395139358E+01  0.77478259995E+01  0.51100000000E-03 0.  1.
         12    1    3    3    0    0 -0.23455926339E+02 -0.21259097038E+02 -0.36034630482E+01  0.31860863661E+02  0.00000000000E+00 0. -1.
</event>
<event>
 7    1  0.2641045E-013  0.7246157E+02  0.7816164E-02  0.1226708E+00
        -11   -1    0    0    0    0  0.00000000000E+00  0.00000000000E+00  0.45593999997E+02  0.45594000000E+02  0.51100000000E-03 0.  1.
         11   -1    0    0    0    0 -0.00000000000E+00 -0.00000000000E+00 -0.45593999997E+02  0.45594000000E+02  0.51100000000E-03 0. -1.
    9900012    2    1    2    0    0 -0.13635927869E+02  0.11281744433E+02  0.61206846327E+01  0.72461573040E+02  0.70000003577E+02 0.  0.
        -12    1    1    2    0    0  0.13635927869E+02 -0.11281744433E+02 -0.61206846327E+01  0.18726426960E+02  0.00000000000E+00 0.  1.
         11    1    3    3    0    0 -0.10134497209E+02 -0.53158004575E+00  0.15355068260E+01  0.10263936501E+02  0.51100000000E-03 0. -1.
        -11    1    3    3    0    0 -0.32095997654E+02  0.70401896955E+01  0.47923785127E+01  0.33206689514E+02  0.51100000000E-03 0.  1.
         12    1    3    3    0    0  0.28594566994E+02  0.47731347836E+01 -0.20720070599E+00  0.28990947025E+02  0.00000000000E+00 0. -1.
</event>
<event>
 7    1  0.2641045E-013  0.7246152E+02  0.7816164E-02  0.1226708E+00
        -11   -1    0    0    0    0  0.00000000000E+00  0.00000000000E+00  0.45593999997E+02  0.45594000000E+02  0.51100000000E-03 0.  1.
         11   -1    0    0    0    0 -0.00000000000E+00 -0.00000000000E+00 -0.45593999997E+02  0.45594000000E+02  0.51100000000E-03 0. -1.
    9900012    2    1    2    0    0  0.16792251511E+01 -0.18488951895E+02 -0.24535162664E+01  0.72461524588E+02  0.69999940459E+02 0.  0.
        -12    1    1    2    0    0 -0.16792251511E+01  0.18488951895E+02  0.24535162664E+01  0.18726475412E+02  0.00000000000E+00 0.  1.
         11    1    3    3    0    0 -0.67786229372E+00  0.26715104122E+01  0.19120462599E+02  0.19318088814E+02  0.51100000000E-03 0. -1.
        -11    1    3    3    0    0 -0.11938022950E+01  0.13579705089E+02 -0.66356347728E+01  0.15161306122E+02  0.51100000000E-03 0.  1.
         12    1    3    3    0    0  0.35508897398E+01 -0.34740167396E+02 -0.14938344093E+02  0.37982129652E+02  0.00000000000E+00 0. -1.
</event>
<event>
 7    1  0.2641045E-013  0.7246159E+02  0.7816164E-02  0.1226708E+00
        -11   -1    0    0    0    0  0.00000000000E+00  0.00000000000E+00  0.45593999997E+02  0.45594000000E+02  0.51100000000E-03 0.  1.
         11   -1    0    0    0    0 -0.00000000000E+00 -0.00000000000E+00 -0.45593999997E+02  0.45594000000E+02  0.51100000000E-03 0. -1.
    9900012    2    1    2    0    0  0.21062662187E+01  0.18042872405E+02 -0.45493888376E+01  0.72461587081E+02  0.70000021868E+02 0.  0.
        -12    1    1    2    0    0 -0.21062662187E+01 -0.18042872405E+02  0.45493888376E+01  0.18726412919E+02  0.00000000000E+00 0.  1.
         11    1    3    3    0    0  0.10576062398E+02 -0.48414609374E+01 -0.55104408065E+01  0.12870811863E+02  0.51100000000E-03 0. -1.
        -11    1    3    3    0    0  0.21165117473E+02  0.58784785043E+01  0.10166370957E+02  0.24204830218E+02  0.51100000000E-03 0.  1.
        -12    1    3    3    0    0 -0.29634913652E+02  0.17005854838E+02 -0.92053189886E+01  0.35385945001E+02  0.00000000000E+00 0.  1.
</event>
<event>
 7    1  0.2641045E-013  0.7246157E+02  0.7816164E-02  0.1226708E+00
        -11   -1    0    0    0    0  0.00000000000E+00  0.00000000000E+00  0.45593999997E+02  0.45594000000E+02  0.51100000000E-03 0. -1.
         11   -1    0    0    0    0 -0.00000000000E+00 -0.00000000000E+00 -0.45593999997E+02  0.45594000000E+02  0.51100000000E-03 0.  1.
    9900012    2    1    2    0    0  0.57999553390E+01 -0.17780935378E+02 -0.93696095799E+00  0.72461573734E+02  0.70000004481E+02 0.  0.
        -12    1    1    2    0    0 -0.57999553390E+01  0.17780935378E+02  0.93696095799E+00  0.18726426266E+02  0.00000000000E+00 0.  1.
         11    1    3    3    0    0  0.18586392752E+01 -0.52470376974E+01  0.32540757301E+01  0.64478642721E+01  0.51100000000E-03 0. -1.
        -11    1    3    3    0    0  0.12791400267E+02 -0.32986092874E+02 -0.18103917542E+02  0.39742346112E+02  0.51100000000E-03 0.  1.
         12    1    3    3    0    0 -0.88500842031E+01  0.20452195193E+02  0.13912880853E+02  0.26271363350E+02  0.00000000000E+00 0. -1.
</event>
<event>
 7    1  0.2641045E-013  0.7246162E+02  0.7816164E-02  0.1226708E+00
        -11   -1    0    0    0    0  0.00000000000E+00  0.00000000000E+00  0.45593999997E+02  0.45594000000E+02  0.51100000000E-03 0.  1.
         11   -1    0    0    0    0 -0.00000000000E+00 -0.00000000000E+00 -0.45593999997E+02  0.45594000000E+02  0.51100000000E-03 0. -1.
    9900012    2    1    2    0    0  0.59569183229E+01  0.15689927473E+01 -0.17684197224E+02  0.72461616323E+02  0.70000059961E+02 0.  0.
        -12    1    1    2    0    0 -0.59569183229E+01 -0.15689927473E+01  0.17684197224E+02  0.18726383677E+02  0.00000000000E+00 0.  1.
         11    1    3    3    0    0 -0.92975522574E+01  0.70020481228E+01 -0.29926258789E+02  0.32110031474E+02  0.51100000000E-03 0. -1.
        -11    1    3    3    0    0 -0.77257363956E+01  0.84713370556E+01  0.21872835919E+01  0.11671964879E+02  0.51100000000E-03 0.  1.
        -12    1    3    3    0    0  0.22980206976E+02 -0.13904392431E+02  0.10054777973E+02  0.28679619970E+02  0.00000000000E+00 0.  1.
</event>
<event>
 7    1  0.2641045E-013  0.7246158E+02  0.7816164E-02  0.1226708E+00
        -11   -1    0    0    0    0  0.00000000000E+00  0.00000000000E+00  0.45593999997E+02  0.45594000000E+02  0.51100000000E-03 0.  1.
         11   -1    0    0    0    0 -0.00000000000E+00 -0.00000000000E+00 -0.45593999997E+02  0.45594000000E+02  0.51100000000E-03 0. -1.
    9900012    2    1    2    0    0 -0.16181775298E+02 -0.93854311561E+01 -0.86173963863E+00  0.72461581096E+02  0.70000014071E+02 0.  0.
        -12    1    1    2    0    0  0.16181775298E+02  0.93854311561E+01  0.86173963863E+00  0.18726418904E+02  0.00000000000E+00 0.  1.
         11    1    3    3    0    0  0.99882280151E+01 -0.10901986953E+02  0.53475471936E+01  0.15723049312E+02  0.51100000000E-03 0. -1.
        -11    1    3    3    0    0 -0.11276686975E+02  0.47019993904E+01  0.21723456034E+02  0.24923503159E+02  0.51100000000E-03 0.  1.
        -12    1    3    3    0    0 -0.14893316338E+02 -0.31854435930E+01 -0.27932742866E+02  0.31815028625E+02  0.00000000000E+00 0.  1.
</event>
<event>
 7    1  0.2641045E-013  0.7246157E+02  0.7816164E-02  0.1226708E+00
        -11   -1    0    0    0    0  0.00000000000E+00  0.00000000000E+00  0.45593999997E+02  0.45594000000E+02  0.51100000000E-03 0. -1.
         11   -1    0    0    0    0 -0.00000000000E+00 -0.00000000000E+00 -0.45593999997E+02  0.45594000000E+02  0.51100000000E-03 0.  1.
    9900012    2    1    2    0    0 -0.17468747150E+02  0.34514203952E+01 -0.57973993696E+01  0.72461567634E+02  0.69999996534E+02 0.  0.
        -12    1    1    2    0    0  0.17468747150E+02 -0.34514203952E+01  0.57973993696E+01  0.18726432366E+02  0.00000000000E+00 0.  1.
         11    1    3    3    0    0  0.13254921708E+02 -0.80759953750E+01  0.14188718453E+02  0.21029369519E+02  0.51100000000E-03 0. -1.
        -11    1    3    3    0    0  0.50665428170E+01  0.57324986993E+00  0.44208398242E+01  0.67485032816E+01  0.51100000000E-03 0.  1.
        -12    1    3    3    0    0 -0.35790211675E+02  0.10954165900E+02 -0.24406957647E+02  0.44683694832E+02  0.00000000000E+00 0.  1.
</event>
<event>
 7    1  0.2641045E-013  0.7246167E+02  0.7816164E-02  0.1226708E+00
        -11   -1    0    0    0    0  0.00000000000E+00  0.00000000000E+00  0.45593999997E+02  0.45594000000E+02  0.51100000000E-03 0.  1.
         11   -1    0    0    0    0 -0.00000000000E+00 -0.00000000000E+00 -0.45593999997E+02  0.45594000000E+02  0.51100000000E-03 0. -1.
    9900012    2    1    2    0    0  0.90457156255E+01  0.16098202241E+02 -0.31142196579E+01  0.72461669589E+02  0.70000129350E+02 0.  0.
        -12    1    1    2    0    0 -0.90457156255E+01 -0.16098202241E+02  0.31142196579E+01  0.18726330411E+02  0.00000000000E+00 0.  1.
         11    1    3    3    0    0 -0.13534715351E+01 -0.60422712312E+01  0.21864906910E+02  0.22724768013E+02  0.51100000000E-03 0. -1.
        -11    1    3    3    0    0 -0.12773012281E+02  0.11591674570E+02 -0.72418157135E+01  0.18707235423E+02  0.51100000000E-03 0.  1.
         12    1    3    3    0    0  0.23172199442E+02  0.10548798903E+02 -0.17737310854E+02  0.31029666154E+02  0.00000000000E+00 0. -1.
</event>
<event>
 7    1  0.2641045E-013  0.7246153E+02  0.7816164E-02  0.1226708E+00
        -11   -1    0    0    0    0  0.00000000000E+00  0.00000000000E+00  0.45593999997E+02  0.45594000000E+02  0.51100000000E-03 0.  1.
         11   -1    0    0    0    0 -0.00000000000E+00 -0.00000000000E+00 -0.45593999997E+02  0.45594000000E+02  0.51100000000E-03 0. -1.
    9900012    2    1    2    0    0  0.11124111036E+02 -0.58140308249E-01 -0.15064248996E+02  0.72461526108E+02  0.69999942439E+02 0.  0.
        -12    1    1    2    0    0 -0.11124111036E+02  0.58140308249E-01  0.15064248996E+02  0.18726473892E+02  0.00000000000E+00 0.  1.
         11    1    3    3    0    0 -0.38639931813E+01 -0.25394585785E+01  0.27094634183E+01  0.53591496950E+01  0.51100000000E-03 0. -1.
        -11    1    3    3    0    0 -0.21373657715E+02 -0.13057186072E+02 -0.49375680853E+01  0.25528472949E+02  0.51100000000E-03 0.  1.
         12    1    3    3    0    0  0.36361761932E+02  0.15538504342E+02 -0.12836144329E+02  0.41573903464E+02  0.00000000000E+00 0. -1.
</event>
<event>
 7    1  0.2641045E-013  0.7246164E+02  0.7816164E-02  0.1226708E+00
        -11   -1    0    0    0    0  0.00000000000E+00  0.00000000000E+00  0.45593999997E+02  0.45594000000E+02  0.51100000000E-03 0. -1.
         11   -1    0    0    0    0 -0.00000000000E+00 -0.00000000000E+00 -0.45593999997E+02  0.45594000000E+02  0.51100000000E-03 0.  1.
    9900012    2    1    2    0    0  0.38240088298E+01  0.18323469210E+02  0.55127478181E+00  0.72461642338E+02  0.70000093850E+02 0.  0.
        -12    1    1    2    0    0 -0.38240088298E+01 -0.18323469210E+02 -0.55127478181E+00  0.18726357662E+02  0.00000000000E+00 0.  1.
         11    1    3    3    0    0  0.69237475757E+01  0.92676452503E+01  0.12148582726E+02  0.16775446089E+02  0.51100000000E-03 0. -1.
        -11    1    3    3    0    0  0.12648363356E+02  0.21074249890E+02  0.98598830137E+01  0.26482492279E+02  0.51100000000E-03 0.  1.
         12    1    3    3    0    0 -0.15748102102E+02 -0.12018425931E+02 -0.21457190958E+02  0.29203703969E+02  0.00000000000E+00 0. -1.
</event>
<event>
 7    1  0.2641045E-013  0.7246157E+02  0.7816164E-02  0.1226708E+00
        -11   -1    0    0    0    0  0.00000000000E+00  0.00000000000E+00  0.45593999997E+02  0.45594000000E+02  0.51100000000E-03 0. -1.
         11   -1    0    0    0    0 -0.00000000000E+00 -0.00000000000E+00 -0.45593999997E+02  0.45594000000E+02  0.51100000000E-03 0.  1.
    9900012    2    1    2    0    0 -0.12239433284E+02 -0.14286228219E+00  0.14172333865E+02  0.72461569910E+02  0.69999999499E+02 0.  0.
        -12    1    1    2    0    0  0.12239433284E+02  0.14286228219E+00 -0.14172333865E+02  0.18726430090E+02  0.00000000000E+00 0.  1.
         11    1    3    3    0    0  0.75961278633E+01  0.99070211752E+01  0.19174697584E+01  0.12630396574E+02  0.51100000000E-03 0. -1.
        -11    1    3    3    0    0  0.13861413434E+02 -0.14279379255E+01 -0.11201266792E+02  0.17878651155E+02  0.51100000000E-03 0.  1.
         12    1    3    3    0    0 -0.33696974581E+02 -0.86219455319E+01  0.23456130898E+02  0.41952522181E+02  0.00000000000E+00 0. -1.
</event>
<event>
 7    1  0.2641045E-013  0.7246156E+02  0.7816164E-02  0.1226708E+00
        -11   -1    0    0    0    0  0.00000000000E+00  0.00000000000E+00  0.45593999997E+02  0.45594000000E+02  0.51100000000E-03 0.  1.
         11   -1    0    0    0    0 -0.00000000000E+00 -0.00000000000E+00 -0.45593999997E+02  0.45594000000E+02  0.51100000000E-03 0. -1.
    9900012    2    1    2    0    0  0.15183637877E+02  0.32207901556E+01 -0.10476795673E+02  0.72461558908E+02  0.69999985168E+02 0.  0.
        -12    1    1    2    0    0 -0.15183637877E+02 -0.32207901556E+01  0.10476795673E+02  0.18726441092E+02  0.00000000000E+00 0.  1.
         11    1    3    3    0    0  0.29391553133E+02 -0.30583504113E+01 -0.23732867229E+02  0.37900737327E+02  0.51100000000E-03 0. -1.
        -11    1    3    3    0    0  0.18846858538E+01 -0.92668766500E+01  0.27953847682E+01  0.98610962817E+01  0.51100000000E-03 0.  1.
        -12    1    3    3    0    0 -0.16092601110E+02  0.15546017217E+02  0.10460686788E+02  0.24699725299E+02  0.00000000000E+00 0.  1.
</event>
<event>
 7    1  0.2641045E-013  0.7246159E+02  0.7816164E-02  0.1226708E+00
        -11   -1    0    0    0    0  0.00000000000E+00  0.00000000000E+00  0.45593999997E+02  0.45594000000E+02  0.51100000000E-03 0.  1.
         11   -1    0    0    0    0 -0.00000000000E+00 -0.00000000000E+00 -0.45593999997E+02  0.45594000000E+02  0.51100000000E-03 0. -1.
    9900012    2    1    2    0    0  0.18650632603E+02  0.16548454585E+01  0.30634076170E+00  0.72461589381E+02  0.70000024864E+02 0.  0.
        -12    1    1    2    0    0 -0.18650632603E+02 -0.16548454585E+01 -0.30634076170E+00  0.18726410619E+02  0.00000000000E+00 0.  1.
         11    1    3    3    0    0  0.36100612836E+01  0.13406831620E+02 -0.27383757981E+02  0.30702538624E+02  0.51100000000E-03 0. -1.
        -11    1    3    3    0    0 -0.28054577626E+01  0.58685920100E+00 -0.30163896415E+01  0.41609618732E+01  0.51100000000E-03 0.  1.
        -12    1    3    3    0    0  0.17846029082E+02 -0.12338845362E+02  0.30706488384E+02  0.37598088884E+02  0.00000000000E+00 0.  1.
</event>
<event>
 7    1  0.2641045E-013  0.7246155E+02  0.7816164E-02  0.1226708E+00
        -11   -1    0    0    0    0  0.00000000000E+00  0.00000000000E+00  0.45593999997E+02  0.45594000000E+02  0.51100000000E-03 0. -1.
         11   -1    0    0    0    0 -0.00000000000E+00 -0.00000000000E+00 -0.45593999997E+02  0.45594000000E+02  0.51100000000E-03 0.  1.
    9900012    2    1    2    0    0 -0.17920738647E+02 -0.51564176967E+01 -0.17142222030E+01  0.72461546121E+02  0.69999968509E+02 0.  0.
        -12    1    1    2    0    0  0.17920738647E+02  0.51564176967E+01  0.17142222030E+01  0.18726453879E+02  0.00000000000E+00 0.  1.
         11    1    3    3    0    0 -0.23480563664E+01 -0.54710600569E+01  0.72065270931E+01  0.93477216396E+01  0.51100000000E-03 0. -1.
        -11    1    3    3    0    0 -0.33580309694E+02  0.10026596143E+02 -0.19474339689E+02  0.40092639423E+02  0.51100000000E-03 0.  1.
         12    1    3    3    0    0  0.18007627413E+02 -0.97119537823E+01  0.10553590393E+02  0.23021185058E+02  0.00000000000E+00 0. -1.
</event>
<event>
 7    1  0.2641045E-013  0.7246145E+02  0.7816164E-02  0.1226708E+00
        -11   -1    0    0    0    0  0.00000000000E+00  0.00000000000E+00  0.45593999997E+02  0.45594000000E+02  0.51100000000E-03 0.  1.
         11   -1    0    0    0    0 -0.00000000000E+00 -0.00000000000E+00 -0.45593999997E+02  0.45594000000E+02  0.51100000000E-03 0. -1.
    9900012    2    1    2    0    0  0.23491630642E+01 -0.13241881014E+01 -0.18531370758E+02  0.72461448171E+02  0.69999840912E+02 0.  0.
        -12    1    1    2    0    0 -0.23491630642E+01  0.13241881014E+01  0.18531370758E+02  0.18726551829E+02  0.00000000000E+00 0.  1.
         11    1    3    3    0    0 -0.12885771575E+02  0.30265231731E+01 -0.28187512435E+02  0.31140629555E+02  0.51100000000E-03 0. -1.
        -11    1    3    3    0    0 -0.72372993271E+01  0.10456786849E+02 -0.34608392408E-01  0.12717078703E+02  0.51100000000E-03 0.  1.
        -12    1    3    3    0    0  0.22472233966E+02 -0.14807498123E+02  0.96907500693E+01  0.28603739913E+02  0.00000000000E+00 0.  1.
</event>
<event>
 7    1  0.2641045E-013  0.7246154E+02  0.7816164E-02  0.1226708E+00
        -11   -1    0    0    0    0  0.00000000000E+00  0.00000000000E+00  0.45593999997E+02  0.45594000000E+02  0.51100000000E-03 0.  1.
         11   -1    0    0    0    0 -0.00000000000E+00 -0.00000000000E+00 -0.45593999997E+02  0.45594000000E+02  0.51100000000E-03 0. -1.
    9900012    2    1    2    0    0  0.13012580138E+02 -0.17473906552E-01 -0.13466729012E+02  0.72461539110E+02  0.69999959376E+02 0.  0.
        -12    1    1    2    0    0 -0.13012580138E+02  0.17473906552E-01  0.13466729012E+02  0.18726460890E+02  0.00000000000E+00 0.  1.
         11    1    3    3    0    0 -0.14757501239E+02  0.35975270509E+01 -0.31725293955E+02  0.35174142783E+02  0.51100000000E-03 0. -1.
        -11    1    3    3    0    0  0.70752148349E+01  0.58708573017E+01  0.22742264485E+01  0.94708889032E+01  0.51100000000E-03 0.  1.
        -12    1    3    3    0    0  0.20694866543E+02 -0.94858582592E+01  0.15984338495E+02  0.27816507424E+02  0.00000000000E+00 0.  1.
</event>
<event>
 7    1  0.2641045E-013  0.7246163E+02  0.7816164E-02  0.1226708E+00
        -11   -1    0    0    0    0  0.00000000000E+00  0.00000000000E+00  0.45593999997E+02  0.45594000000E+02  0.51100000000E-03 0.  1.
         11   -1    0    0    0    0 -0.00000000000E+00 -0.00000000000E+00 -0.45593999997E+02  0.45594000000E+02  0.51100000000E-03 0. -1.
    9900012    2    1    2    0    0  0.80977380123E+01 -0.54740758602E+01 -0.15973041912E+02  0.72461629947E+02  0.70000077709E+02 0.  0.
        -12    1    1    2    0    0 -0.80977380123E+01  0.54740758602E+01  0.15973041912E+02  0.18726370053E+02  0.00000000000E+00 0.  1.
         11    1    3    3    0    0  0.26111486004E+02 -0.13790543895E+02  0.40706457694E+01  0.29808706103E+02  0.51100000000E-03 0.  1.
        -11    1    3    3    0    0  0.10236079942E+01 -0.87284297558E+01 -0.13779489716E+02  0.16343426704E+02  0.51100000000E-03 0. -1.
        -12    1    3    3    0    0 -0.19037355986E+02  0.17044897791E+02 -0.62641979655E+01  0.26309497141E+02  0.00000000000E+00 0.  1.
</event>
<event>
 7    1  0.2641045E-013  0.7246163E+02  0.7816164E-02  0.1226708E+00
        -11   -1    0    0    0    0  0.00000000000E+00  0.00000000000E+00  0.45593999997E+02  0.45594000000E+02  0.51100000000E-03 0. -1.
         11   -1    0    0    0    0 -0.00000000000E+00 -0.00000000000E+00 -0.45593999997E+02  0.45594000000E+02  0.51100000000E-03 0.  1.
    9900012    2    1    2    0    0 -0.16307815951E+02  0.92040552670E+01  0.13148542739E+00  0.72461634018E+02  0.70000083012E+02 0.  0.
        -12    1    1    2    0    0  0.16307815951E+02 -0.92040552670E+01 -0.13148542739E+00  0.18726365982E+02  0.00000000000E+00 0.  1.
         11    1    3    3    0    0  0.88048922437E+00  0.35167589655E+01 -0.16051019112E+01  0.39647455533E+01  0.51100000000E-03 0. -1.
        -11    1    3    3    0    0  0.17060975212E+02 -0.18771719769E+02  0.63765462140E+01  0.26155586022E+02  0.51100000000E-03 0.  1.
        -12    1    3    3    0    0 -0.34249280388E+02  0.24459016071E+02 -0.46399588754E+01  0.42341302443E+02  0.00000000000E+00 0.  1.
</event>
<event>
 7    1  0.2641045E-013  0.7246168E+02  0.7816164E-02  0.1226708E+00
        -11   -1    0    0    0    0  0.00000000000E+00  0.00000000000E+00  0.45593999997E+02  0.45594000000E+02  0.51100000000E-03 0.  1.
         11   -1    0    0    0    0 -0.00000000000E+00 -0.00000000000E+00 -0.45593999997E+02  0.45594000000E+02  0.51100000000E-03 0. -1.
    9900012    2    1    2    0    0 -0.55689805314E+01  0.17869517512E+02 -0.58465935742E+00  0.72461680905E+02  0.70000144091E+02 0.  0.
        -12    1    1    2    0    0  0.55689805314E+01 -0.17869517512E+02  0.58465935742E+00  0.18726319095E+02  0.00000000000E+00 0.  1.
         11    1    3    3    0    0  0.12312309016E+02  0.42499363181E+01 -0.30785916587E+02  0.33427945979E+02  0.51100000000E-03 0. -1.
        -11    1    3    3    0    0 -0.10264695023E+00 -0.39815027500E+00  0.55431673920E+01  0.55583959048E+01  0.51100000000E-03 0.  1.
        -12    1    3    3    0    0 -0.17778642597E+02  0.14017731469E+02  0.24658089838E+02  0.33475339021E+02  0.00000000000E+00 0.  1.
</event>
<event>
 7    1  0.2641045E-013  0.7246157E+02  0.7816164E-02  0.1226708E+00
        -11   -1    0    0    0    0  0.00000000000E+00  0.00000000000E+00  0.45593999997E+02  0.45594000000E+02  0.51100000000E-03 0.  1.
         11   -1    0    0    0    0 -0.00000000000E+00 -0.00000000000E+00 -0.45593999997E+02  0.45594000000E+02  0.51100000000E-03 0. -1.
    9900012    2    1    2    0    0  0.76859786396E+01 -0.39249512415E+01 -0.16619251384E+02  0.72461574114E+02  0.70000004976E+02 0.  0.
        -12    1    1    2    0    0 -0.76859786396E+01  0.39249512415E+01  0.16619251384E+02  0.18726425886E+02  0.00000000000E+00 0.  1.
         11    1    3    3    0    0  0.87924726860E+01 -0.72669424913E+01 -0.35666872545E+00  0.11412416131E+02  0.51100000000E-03 0. -1.
        -11    1    3    3    0    0  0.43306578707E+01  0.27757457611E+02  0.46123956400E+01  0.28469373798E+02  0.51100000000E-03 0.  1.
         12    1    3    3    0    0 -0.54371519171E+01 -0.24415466361E+02 -0.20874978298E+02  0.32579784186E+02  0.00000000000E+00 0. -1.
</event>
<event>
 7    1  0.2641045E-013  0.7246156E+02  0.7816164E-02  0.1226708E+00
        -11   -1    0    0    0    0  0.00000000000E+00  0.00000000000E+00  0.45593999997E+02  0.45594000000E+02  0.51100000000E-03 0.  1.
         11   -1    0    0    0    0 -0.00000000000E+00 -0.00000000000E+00 -0.45593999997E+02  0.45594000000E+02  0.51100000000E-03 0. -1.
    9900012    2    1    2    0    0 -0.92446771118E+01 -0.48117384978E+01 -0.15558365696E+02  0.72461558122E+02  0.69999984144E+02 0.  0.
        -12    1    1    2    0    0  0.92446771118E+01  0.48117384978E+01  0.15558365696E+02  0.18726441878E+02  0.00000000000E+00 0.  1.
         11    1    3    3    0    0  0.90553676131E+01  0.18261736618E+01 -0.21840888117E+02  0.23714109446E+02  0.51100000000E-03 0. -1.
        -11    1    3    3    0    0 -0.29106344896E+02  0.49635352002E+01 -0.40794500369E+01  0.29807011050E+02  0.51100000000E-03 0.  1.
         12    1    3    3    0    0  0.10806300171E+02 -0.11601447360E+02  0.10361972458E+02  0.18940437625E+02  0.00000000000E+00 0. -1.
</event>
<event>
 7    1  0.2641045E-013  0.7246170E+02  0.7816164E-02  0.1226708E+00
        -11   -1    0    0    0    0  0.00000000000E+00  0.00000000000E+00  0.45593999997E+02  0.45594000000E+02  0.51100000000E-03 0. -1.
         11   -1    0    0    0    0 -0.00000000000E+00 -0.00000000000E+00 -0.45593999997E+02  0.45594000000E+02  0.51100000000E-03 0.  1.
    9900012    2    1    2    0    0 -0.25322080712E+01  0.79137606057E+01  0.16781974064E+02  0.72461699294E+02  0.70000168046E+02 0.  0.
        -12    1    1    2    0    0  0.25322080712E+01 -0.79137606057E+01 -0.16781974064E+02  0.18726300706E+02  0.00000000000E+00 0.  1.
         11    1    3    3    0    0 -0.28159900560E+01  0.16223168535E+02  0.39055356792E+02  0.42384453420E+02  0.51100000000E-03 0. -1.
        -11    1    3    3    0    0 -0.89200033037E+00  0.58922042077E+01 -0.67958051601E+01  0.90386228514E+01  0.51100000000E-03 0.  1.
        -12    1    3    3    0    0  0.11757823152E+01 -0.14201612137E+02 -0.15477577568E+02  0.21038623023E+02  0.00000000000E+00 0.  1.
</event>
<event>
 7    1  0.2641045E-013  0.7246154E+02  0.7816164E-02  0.1226708E+00
        -11   -1    0    0    0    0  0.00000000000E+00  0.00000000000E+00  0.45593999997E+02  0.45594000000E+02  0.51100000000E-03 0. -1.
         11   -1    0    0    0    0 -0.00000000000E+00 -0.00000000000E+00 -0.45593999997E+02  0.45594000000E+02  0.51100000000E-03 0.  1.
    9900012    2    1    2    0    0 -0.16787904870E+01 -0.18314188215E+02  0.35288214042E+01  0.72461537227E+02  0.69999956924E+02 0.  0.
        -12    1    1    2    0    0  0.16787904870E+01  0.18314188215E+02 -0.35288214042E+01  0.18726462773E+02  0.00000000000E+00 0.  1.
         11    1    3    3    0    0 -0.45739720355E+01 -0.26798285372E+02  0.85375695033E+01  0.28494901515E+02  0.51100000000E-03 0. -1.
        -11    1    3    3    0    0  0.16336153670E+02 -0.64637416368E+01  0.87301863029E+01  0.19618002595E+02  0.51100000000E-03 0.  1.
         12    1    3    3    0    0 -0.13440972122E+02  0.14947838793E+02 -0.13738934402E+02  0.24348633117E+02  0.00000000000E+00 0. -1.
</event>
<event>
 7    1  0.2641045E-013  0.7246154E+02  0.7816164E-02  0.1226708E+00
        -11   -1    0    0    0    0  0.00000000000E+00  0.00000000000E+00  0.45593999997E+02  0.45594000000E+02  0.51100000000E-03 0.  1.
         11   -1    0    0    0    0 -0.00000000000E+00 -0.00000000000E+00 -0.45593999997E+02  0.45594000000E+02  0.51100000000E-03 0. -1.
    9900012    2    1    2    0    0 -0.18161239818E+02  0.45613310503E+01  0.20946401314E+00  0.72461541502E+02  0.69999962493E+02 0.  0.
        -12    1    1    2    0    0  0.18161239818E+02 -0.45613310503E+01 -0.20946401314E+00  0.18726458498E+02  0.00000000000E+00 0.  1.
         11    1    3    3    0    0 -0.29366115901E+02 -0.46737880512E+01  0.71155721900E+01  0.30575225686E+02  0.51100000000E-03 0. -1.
        -11    1    3    3    0    0  0.74219656818E+01 -0.50561953008E+01  0.13787584110E+02  0.16454426801E+02  0.51100000000E-03 0.  1.
        -12    1    3    3    0    0  0.37829104011E+01  0.14291314402E+02 -0.20693692287E+02  0.25431889016E+02  0.00000000000E+00 0.  1.
</event>
<event>
 7    1  0.2641045E-013  0.7246157E+02  0.7816164E-02  0.1226708E+00
        -11   -1    0    0    0    0  0.00000000000E+00  0.00000000000E+00  0.45593999997E+02  0.45594000000E+02  0.51100000000E-03 0. -1.
         11   -1    0    0    0    0 -0.00000000000E+00 -0.00000000000E+00 -0.45593999997E+02  0.45594000000E+02  0.51100000000E-03 0.  1.
    9900012    2    1    2    0    0  0.11953779672E+01  0.18686947415E+02 -0.21928370217E+00  0.72461574353E+02  0.70000005287E+02 0.  0.
        -12    1    1    2    0    0 -0.11953779672E+01 -0.18686947415E+02  0.21928370217E+00  0.18726425647E+02  0.00000000000E+00 0.  1.
         11    1    3    3    0    0 -0.23124791402E+02 -0.40700099550E+01 -0.20558840403E+01  0.23570057655E+02  0.51100000000E-03 0. -1.
        -11    1    3    3    0    0 -0.19692487148E+01  0.16476728095E+02  0.11497258075E+02  0.20187804554E+02  0.51100000000E-03 0.  1.
        -12    1    3    3    0    0  0.26289418084E+02  0.62802292750E+01 -0.96606577369E+01  0.28703712144E+02  0.00000000000E+00 0.  1.
</event>
<event>
 7    1  0.2641045E-013  0.7246159E+02  0.7816164E-02  0.1226708E+00
        -11   -1    0    0    0    0  0.00000000000E+00  0.00000000000E+00  0.45593999997E+02  0.45594000000E+02  0.51100000000E-03 0.  1.
         11   -1    0    0    0    0 -0.00000000000E+00 -0.00000000000E+00 -0.45593999997E+02  0.45594000000E+02  0.51100000000E-03 0. -1.
    9900012    2    1    2    0    0 -0.18107725852E+02  0.35422306002E+01  0.32002312645E+01  0.72461585145E+02  0.70000019346E+02 0.  0.
        -12    1    1    2    0    0  0.18107725852E+02 -0.35422306002E+01 -0.32002312645E+01  0.18726414855E+02  0.00000000000E+00 0.  1.
         11    1    3    3    0    0 -0.22780802568E+02 -0.89882688388E+01 -0.19905955351E+02  0.31559483536E+02  0.51100000000E-03 0. -1.
        -11    1    3    3    0    0 -0.11431244630E+02  0.10123963637E+02  0.39734206462E+01  0.15778341656E+02  0.51100000000E-03 0.  1.
        -12    1    3    3    0    0  0.16104321346E+02  0.24065358019E+01  0.19132765969E+02  0.25123759954E+02  0.00000000000E+00 0.  1.
</event>
<event>
 7    1  0.2913643E-013  0.7246156E+02  0.7816164E-02  0.1226708E+00
        -11   -1    0    0    0    0  0.00000000000E+00  0.00000000000E+00  0.45593999997E+02  0.45594000000E+02  0.51100000000E-03 0. -1.
         11   -1    0    0    0    0 -0.00000000000E+00 -0.00000000000E+00 -0.45593999997E+02  0.45594000000E+02  0.51100000000E-03 0.  1.
    9900012    2    1    2    0    0 -0.12153812431E+02  0.10139876634E+02  0.10007361173E+02  0.72461560605E+02  0.69999987378E+02 0.  0.
        -12    1    1    2    0    0  0.12153812431E+02 -0.10139876634E+02 -0.10007361173E+02  0.18726439395E+02  0.00000000000E+00 0.  1.
         11    1    3    3    0    0 -0.99092937778E+01  0.24858880318E+02  0.24896272871E+02  0.36551093513E+02  0.51100000000E-03 0. -1.
        -11    1    3    3    0    0 -0.71776507325E+01  0.70591665036E+01 -0.24960562036E+01  0.10372116399E+02  0.51100000000E-03 0.  1.
        -12    1    3    3    0    0  0.49331320794E+01 -0.21778170188E+02 -0.12392855494E+02  0.25538350693E+02  0.00000000000E+00 0.  1.
</event>
<event>
 7    1  0.2641045E-013  0.7246154E+02  0.7816164E-02  0.1226708E+00
        -11   -1    0    0    0    0  0.00000000000E+00  0.00000000000E+00  0.45593999997E+02  0.45594000000E+02  0.51100000000E-03 0.  1.
         11   -1    0    0    0    0 -0.00000000000E+00 -0.00000000000E+00 -0.45593999997E+02  0.45594000000E+02  0.51100000000E-03 0. -1.
    9900012    2    1    2    0    0  0.13925411068E+02  0.12512142581E+02  0.45783800425E+00  0.72461537413E+02  0.69999957166E+02 0.  0.
        -12    1    1    2    0    0 -0.13925411068E+02 -0.12512142581E+02 -0.45783800425E+00  0.18726462587E+02  0.00000000000E+00 0.  1.
         11    1    3    3    0    0  0.24016290592E+02 -0.78114806797E-01 -0.11878190035E+02  0.26793277412E+02  0.51100000000E-03 0. -1.
        -11    1    3    3    0    0  0.11567225650E+02  0.29442057006E+01  0.17710928057E+02  0.21357575455E+02  0.51100000000E-03 0.  1.
        -12    1    3    3    0    0 -0.21658105174E+02  0.96460516873E+01 -0.53749000179E+01  0.24310684545E+02  0.00000000000E+00 0.  1.
</event>
<event>
 7    1  0.2641045E-013  0.7246157E+02  0.7816164E-02  0.1226708E+00
        -11   -1    0    0    0    0  0.00000000000E+00  0.00000000000E+00  0.45593999997E+02  0.45594000000E+02  0.51100000000E-03 0. -1.
         11   -1    0    0    0    0 -0.00000000000E+00 -0.00000000000E+00 -0.45593999997E+02  0.45594000000E+02  0.51100000000E-03 0.  1.
    9900012    2    1    2    0    0  0.12733232142E+02 -0.13717980212E+02 -0.60069356964E+00  0.72461574430E+02  0.70000005387E+02 0.  0.
        -12    1    1    2    0    0 -0.12733232142E+02  0.13717980212E+02  0.60069356964E+00  0.18726425570E+02  0.00000000000E+00 0.  1.
         11    1    3    3    0    0  0.43654103341E+00  0.42647142208E+01  0.12442279083E+02  0.13160116432E+02  0.51100000000E-03 0. -1.
        -11    1    3    3    0    0  0.70383855030E+01  0.12918853384E+02 -0.22211978975E+02  0.26642215626E+02  0.51100000000E-03 0.  1.
         12    1    3    3    0    0  0.52583056052E+01 -0.30901547817E+02  0.91690063215E+01  0.32659242371E+02  0.00000000000E+00 0. -1.
</event>
<event>
 7    1  0.2641045E-013  0.7246163E+02  0.7816164E-02  0.1226708E+00
        -11   -1    0    0    0    0  0.00000000000E+00  0.00000000000E+00  0.45593999997E+02  0.45594000000E+02  0.51100000000E-03 0. -1.
         11   -1    0    0    0    0 -0.00000000000E+00 -0.00000000000E+00 -0.45593999997E+02  0.45594000000E+02  0.51100000000E-03 0.  1.
    9900012    2    1    2    0    0 -0.16459815929E+01 -0.14374321793E+02  0.11888930622E+02  0.72461626786E+02  0.70000073591E+02 0.  0.
        -12    1    1    2    0    0  0.16459815929E+01  0.14374321793E+02 -0.11888930622E+02  0.18726373214E+02  0.00000000000E+00 0.  1.
         11    1    3    3    0    0 -0.35311603923E+01 -0.23739121827E+02  0.18206145507E+02  0.30124387684E+02  0.51100000000E-03 0. -1.
        -11    1    3    3    0    0  0.11786437049E+02 -0.12419440206E+02 -0.67500730193E+01  0.18404512473E+02  0.51100000000E-03 0.  1.
         12    1    3    3    0    0 -0.99012582497E+01  0.21784240240E+02  0.43285813418E+00  0.23932726629E+02  0.00000000000E+00 0. -1.
</event>
<event>
 7    1  0.2641045E-013  0.7246164E+02  0.7816164E-02  0.1226708E+00
        -11   -1    0    0    0    0  0.00000000000E+00  0.00000000000E+00  0.45593999997E+02  0.45594000000E+02  0.51100000000E-03 0.  1.
         11   -1    0    0    0    0 -0.00000000000E+00 -0.00000000000E+00 -0.45593999997E+02  0.45594000000E+02  0.51100000000E-03 0. -1.
    9900012    2    1    2    0    0 -0.66709935833E+01 -0.16379396441E+02  0.61554544804E+01  0.72461644161E+02  0.70000096225E+02 0.  0.
        -12    1    1    2    0    0  0.66709935833E+01  0.16379396441E+02 -0.61554544804E+01  0.18726355839E+02  0.00000000000E+00 0.  1.
         11    1    3    3    0    0  0.10876522032E+02 -0.28339465994E+01 -0.57622249314E+01  0.12630646114E+02  0.51100000000E-03 0. -1.
        -11    1    3    3    0    0  0.16268658884E+02  0.68973586615E+01 -0.23351715365E+01  0.17824024371E+02  0.51100000000E-03 0.  1.
        -12    1    3    3    0    0 -0.33816174499E+02 -0.20442808503E+02  0.14252850948E+02  0.42006973676E+02  0.00000000000E+00 0.  1.
</event>
<event>
 7    1  0.2641045E-013  0.7246167E+02  0.7816164E-02  0.1226708E+00
        -11   -1    0    0    0    0  0.00000000000E+00  0.00000000000E+00  0.45593999997E+02  0.45594000000E+02  0.51100000000E-03 0. -1.
         11   -1    0    0    0    0 -0.00000000000E+00 -0.00000000000E+00 -0.45593999997E+02  0.45594000000E+02  0.51100000000E-03 0.  1.
    9900012    2    1    2    0    0  0.37588495960E+01  0.72939765051E+00  0.18330696601E+02  0.72461670699E+02  0.70000130796E+02 0.  0.
        -12    1    1    2    0    0 -0.37588495960E+01 -0.72939765051E+00 -0.18330696601E+02  0.18726329301E+02  0.00000000000E+00 0.  1.
         11    1    3    3    0    0 -0.12344670773E+02  0.14447609065E+02  0.49362884942E+01  0.19633931052E+02  0.51100000000E-03 0. -1.
        -11    1    3    3    0    0  0.14764571601E+01 -0.65516674002E+00  0.28205734208E+02  0.28251948812E+02  0.51100000000E-03 0.  1.
        -12    1    3    3    0    0  0.14627063209E+02 -0.13063044675E+02 -0.14811326101E+02  0.24575790835E+02  0.00000000000E+00 0.  1.
</event>
<event>
 7    1  0.2641045E-013  0.7246161E+02  0.7816164E-02  0.1226708E+00
        -11   -1    0    0    0    0  0.00000000000E+00  0.00000000000E+00  0.45593999997E+02  0.45594000000E+02  0.51100000000E-03 0. -1.
         11   -1    0    0    0    0 -0.00000000000E+00 -0.00000000000E+00 -0.45593999997E+02  0.45594000000E+02  0.51100000000E-03 0.  1.
    9900012    2    1    2    0    0  0.95776114729E+01 -0.14861659644E+02 -0.61707602472E+01  0.72461605501E+02  0.70000045864E+02 0.  0.
        -12    1    1    2    0    0 -0.95776114729E+01  0.14861659644E+02  0.61707602472E+01  0.18726394499E+02  0.00000000000E+00 0.  1.
         11    1    3    3    0    0 -0.15190340091E+02 -0.18081187492E+02  0.51649347915E+01  0.24173380501E+02  0.51100000000E-03 0. -1.
        -11    1    3    3    0    0  0.11095650296E+02  0.44481388527E+01  0.14644720775E+02  0.18904159372E+02  0.51100000000E-03 0.  1.
        -12    1    3    3    0    0  0.13672301267E+02 -0.12286110042E+01 -0.25980415814E+02  0.29384065628E+02  0.00000000000E+00 0.  1.
</event>
<event>
 7    1  0.2641045E-013  0.7246150E+02  0.7816164E-02  0.1226708E+00
        -11   -1    0    0    0    0  0.00000000000E+00  0.00000000000E+00  0.45593999997E+02  0.45594000000E+02  0.51100000000E-03 0.  1.
         11   -1    0    0    0    0 -0.00000000000E+00 -0.00000000000E+00 -0.45593999997E+02  0.45594000000E+02  0.51100000000E-03 0. -1.
    9900012    2    1    2    0    0 -0.24588284320E+01 -0.11376734209E+02 -0.14669900292E+02  0.72461497575E+02  0.69999905269E+02 0.  0.
        -12    1    1    2    0    0  0.24588284320E+01  0.11376734209E+02  0.14669900292E+02  0.18726502425E+02  0.00000000000E+00 0.  1.
         11    1    3    3    0    0  0.22808129649E+02 -0.24055454856E+02 -0.20398035495E+02  0.38922429764E+02  0.51100000000E-03 0. -1.
        -11    1    3    3    0    0 -0.13437017552E+01  0.51489631280E+01 -0.39803204790E+01  0.66453221951E+01  0.51100000000E-03 0.  1.
        -12    1    3    3    0    0 -0.23923256325E+02  0.75297575191E+01  0.97084556823E+01  0.26893745616E+02  0.00000000000E+00 0.  1.
</event>
<event>
 7    1  0.2641045E-013  0.7246158E+02  0.7816164E-02  0.1226708E+00
        -11   -1    0    0    0    0  0.00000000000E+00  0.00000000000E+00  0.45593999997E+02  0.45594000000E+02  0.51100000000E-03 0.  1.
         11   -1    0    0    0    0 -0.00000000000E+00 -0.00000000000E+00 -0.45593999997E+02  0.45594000000E+02  0.51100000000E-03 0. -1.
    9900012    2    1    2    0    0 -0.15161920556E+02  0.35926663183E+01 -0.10386896951E+02  0.72461582444E+02  0.70000015827E+02 0.  0.
        -12    1    1    2    0    0  0.15161920556E+02 -0.35926663183E+01  0.10386896951E+02  0.18726417556E+02  0.00000000000E+00 0.  1.
         11    1    3    3    0    0  0.12707431821E+02 -0.98051908805E+01 -0.21248489778E+02  0.26629286693E+02  0.51100000000E-03 0. -1.
        -11    1    3    3    0    0  0.38822093250E+01 -0.15075022285E+01 -0.56866807684E+01  0.70485779158E+01  0.51100000000E-03 0.  1.
        -12    1    3    3    0    0 -0.31751561702E+02  0.14905359427E+02  0.16548273595E+02  0.38783717835E+02  0.00000000000E+00 0.  1.
</event>
<event>
 7    1  0.2641045E-013  0.7246152E+02  0.7816164E-02  0.1226708E+00
        -11   -1    0    0    0    0  0.00000000000E+00  0.00000000000E+00  0.45593999997E+02  0.45594000000E+02  0.51100000000E-03 0.  1.
         11   -1    0    0    0    0 -0.00000000000E+00 -0.00000000000E+00 -0.45593999997E+02  0.45594000000E+02  0.51100000000E-03 0. -1.
    9900012    2    1    2    0    0  0.15030773024E+02  0.58712209840E+01  0.95018831380E+01  0.72461517236E+02  0.69999930882E+02 0.  0.
        -12    1    1    2    0    0 -0.15030773024E+02 -0.58712209840E+01 -0.95018831380E+01  0.18726482764E+02  0.00000000000E+00 0.  1.
         11    1    3    3    0    0  0.13290701129E+02 -0.13284441722E+02  0.40626163793E+01  0.19225607415E+02  0.51100000000E-03 0. -1.
        -11    1    3    3    0    0 -0.12969689362E+02 -0.81126952142E+01  0.14372967765E+02  0.20990732918E+02  0.51100000000E-03 0.  1.
        -12    1    3    3    0    0  0.14709761256E+02  0.27268357920E+02 -0.89337010063E+01  0.32245176904E+02  0.00000000000E+00 0.  1.
</event>
<event>
 7    1  0.2641045E-013  0.7246155E+02  0.7816164E-02  0.1226708E+00
        -11   -1    0    0    0    0  0.00000000000E+00  0.00000000000E+00  0.45593999997E+02  0.45594000000E+02  0.51100000000E-03 0.  1.
         11   -1    0    0    0    0 -0.00000000000E+00 -0.00000000000E+00 -0.45593999997E+02  0.45594000000E+02  0.51100000000E-03 0. -1.
    9900012    2    1    2    0    0  0.12977064125E+02  0.10764172656E+02  0.81491333041E+01  0.72461548658E+02  0.69999971815E+02 0.  0.
        -12    1    1    2    0    0 -0.12977064125E+02 -0.10764172656E+02 -0.81491333041E+01  0.18726451342E+02  0.00000000000E+00 0.  1.
         11    1    3    3    0    0  0.64888886683E+01  0.11207182669E+02  0.24386596563E+02  0.27611821956E+02  0.51100000000E-03 0. -1.
        -11    1    3    3    0    0  0.57410631332E+01  0.30575043437E+01  0.13453712884E+02  0.14943578197E+02  0.51100000000E-03 0.  1.
        -12    1    3    3    0    0  0.74711232308E+00 -0.35005143568E+01 -0.29691176144E+02  0.29906148504E+02  0.00000000000E+00 0.  1.
</event>
<event>
 7    1  0.2641045E-013  0.7246158E+02  0.7816164E-02  0.1226708E+00
        -11   -1    0    0    0    0  0.00000000000E+00  0.00000000000E+00  0.45593999997E+02  0.45594000000E+02  0.51100000000E-03 0. -1.
         11   -1    0    0    0    0 -0.00000000000E+00 -0.00000000000E+00 -0.45593999997E+02  0.45594000000E+02  0.51100000000E-03 0.  1.
    9900012    2    1    2    0    0  0.86926527246E+00  0.13692623423E+02  0.12745011131E+02  0.72461578371E+02  0.70000010521E+02 0.  0.
        -12    1    1    2    0    0 -0.86926527246E+00 -0.13692623423E+02 -0.12745011131E+02  0.18726421629E+02  0.00000000000E+00 0.  1.
         11    1    3    3    0    0  0.93509783847E+01  0.24163187984E+02  0.31224724185E+02  0.40574423606E+02  0.51100000000E-03 0. -1.
        -11    1    3    3    0    0 -0.64636847495E+01  0.48022820054E+01 -0.30014307910E+00  0.80579910107E+01  0.51100000000E-03 0.  1.
        -12    1    3    3    0    0 -0.20180283627E+01 -0.15272846567E+02 -0.18179569975E+02  0.23829163754E+02  0.00000000000E+00 0.  1.
</event>
<event>
 7    1  0.2641045E-013  0.7246139E+02  0.7816164E-02  0.1226708E+00
        -11   -1    0    0    0    0  0.00000000000E+00  0.00000000000E+00  0.45593999997E+02  0.45594000000E+02  0.51100000000E-03 0.  1.
         11   -1    0    0    0    0 -0.00000000000E+00 -0.00000000000E+00 -0.45593999997E+02  0.45594000000E+02  0.51100000000E-03 0. -1.
    9900012    2    1    2    0    0 -0.98740048317E+01  0.69212690363E+00 -0.15896879434E+02  0.72461393612E+02  0.69999769839E+02 0.  0.
        -12    1    1    2    0    0  0.98740048317E+01 -0.69212690363E+00  0.15896879434E+02  0.18726606388E+02  0.00000000000E+00 0.  1.
         11    1    3    3    0    0 -0.17133148945E+02  0.38507522528E+01 -0.14029252336E+02  0.22476498994E+02  0.51100000000E-03 0. -1.
        -11    1    3    3    0    0  0.11771344176E+01 -0.26053958785E+02 -0.30961395503E+01  0.26263672519E+02  0.51100000000E-03 0.  1.
         12    1    3    3    0    0  0.60820096953E+01  0.22895333435E+02  0.12285124524E+01  0.23721222100E+02  0.00000000000E+00 0. -1.
</event>
<event>
 7    1  0.2641045E-013  0.7246157E+02  0.7816164E-02  0.1226708E+00
        -11   -1    0    0    0    0  0.00000000000E+00  0.00000000000E+00  0.45593999997E+02  0.45594000000E+02  0.51100000000E-03 0. -1.
         11   -1    0    0    0    0 -0.00000000000E+00 -0.00000000000E+00 -0.45593999997E+02  0.45594000000E+02  0.51100000000E-03 0.  1.
    9900012    2    1    2    0    0 -0.75703015848E+01 -0.12671316249E+02  0.11524208569E+02  0.72461572025E+02  0.70000002254E+02 0.  0.
        -12    1    1    2    0    0  0.75703015848E+01  0.12671316249E+02 -0.11524208569E+02  0.18726427975E+02  0.00000000000E+00 0.  1.
         11    1    3    3    0    0 -0.72825176397E+01 -0.17437972897E+02  0.28290222102E+02  0.34021384874E+02  0.51100000000E-03 0. -1.
        -11    1    3    3    0    0 -0.98747929554E+01  0.85762986572E+01  0.52762222829E+01  0.14103295941E+02  0.51100000000E-03 0.  1.
         12    1    3    3    0    0  0.95870090103E+01 -0.38096420093E+01 -0.22042235815E+02  0.24336891209E+02  0.00000000000E+00 0. -1.
</event>
<event>
 7    1  0.2641045E-013  0.7246154E+02  0.7816164E-02  0.1226708E+00
        -11   -1    0    0    0    0  0.00000000000E+00  0.00000000000E+00  0.45593999997E+02  0.45594000000E+02  0.51100000000E-03 0.  1.
         11   -1    0    0    0    0 -0.00000000000E+00 -0.00000000000E+00 -0.45593999997E+02  0.45594000000E+02  0.51100000000E-03 0. -1.
    9900012    2    1    2    0    0  0.14749512120E+01 -0.15874511669E+02 -0.98236723712E+01  0.72461544364E+02  0.69999966222E+02 0.  0.
        -12    1    1    2    0    0 -0.14749512120E+01  0.15874511669E+02  0.98236723712E+01  0.18726455636E+02  0.00000000000E+00 0.  1.
         11    1    3    3    0    0 -0.43324566933E+01  0.15639500419E+02 -0.46189562798E+01  0.16873023195E+02  0.51100000000E-03 0. -1.
        -11    1    3    3    0    0 -0.11677210751E+01  0.52586026964E+01 -0.15797082621E+02  0.16690245487E+02  0.51100000000E-03 0.  1.
        -12    1    3    3    0    0  0.69751289803E+01 -0.36772614785E+02  0.10592366529E+02  0.38898275683E+02  0.00000000000E+00 0.  1.
</event>
<event>
 7    1  0.2641045E-013  0.7246156E+02  0.7816164E-02  0.1226708E+00
        -11   -1    0    0    0    0  0.00000000000E+00  0.00000000000E+00  0.45593999997E+02  0.45594000000E+02  0.51100000000E-03 0. -1.
         11   -1    0    0    0    0 -0.00000000000E+00 -0.00000000000E+00 -0.45593999997E+02  0.45594000000E+02  0.51100000000E-03 0.  1.
    9900012    2    1    2    0    0  0.15424161020E+02 -0.41704515879E-01  0.10619471409E+02  0.72461557321E+02  0.69999983099E+02 0.  0.
        -12    1    1    2    0    0 -0.15424161020E+02  0.41704515879E-01 -0.10619471409E+02  0.18726442679E+02  0.00000000000E+00 0.  1.
         11    1    3    3    0    0  0.16928424932E+02  0.56859416770E+01  0.14026016944E+02  0.22707502174E+02  0.51100000000E-03 0. -1.
        -11    1    3    3    0    0  0.18842351526E+02  0.11160497532E+01  0.12843320562E+02  0.22830476592E+02  0.51100000000E-03 0.  1.
        -12    1    3    3    0    0 -0.20346615439E+02 -0.68436959461E+01 -0.16249866097E+02  0.26923578554E+02  0.00000000000E+00 0.  1.
</event>
<event>
 7    1  0.2964230E-013  0.7246159E+02  0.7816164E-02  0.1226708E+00
        -11   -1    0    0    0    0  0.00000000000E+00  0.00000000000E+00  0.45593999997E+02  0.45594000000E+02  0.51100000000E-03 0. -1.
         11   -1    0    0    0    0 -0.00000000000E+00 -0.00000000000E+00 -0.45593999997E+02  0.45594000000E+02  0.51100000000E-03 0.  1.
    9900012    2    1    2    0    0 -0.94306777119E+01  0.18291682363E+00  0.16177372554E+02  0.72461587545E+02  0.70000022472E+02 0.  0.
        -12    1    1    2    0    0  0.94306777119E+01 -0.18291682363E+00 -0.16177372554E+02  0.18726412455E+02  0.00000000000E+00 0.  1.
         11    1    3    3    0    0  0.17499559451E+01  0.80974056184E+01  0.21177574129E+02  0.22740271981E+02  0.51100000000E-03 0. -1.
        -11    1    3    3    0    0 -0.12527411022E+02  0.14993702591E+02  0.10352388987E+02  0.22111515152E+02  0.51100000000E-03 0.  1.
        -12    1    3    3    0    0  0.13467773650E+01 -0.22908191386E+02 -0.15352590561E+02  0.27609800412E+02  0.00000000000E+00 0.  1.
</event>
<event>
 7    1  0.2641045E-013  0.7246146E+02  0.7816164E-02  0.1226708E+00
        -11   -1    0    0    0    0  0.00000000000E+00  0.00000000000E+00  0.45593999997E+02  0.45594000000E+02  0.51100000000E-03 0. -1.
         11   -1    0    0    0    0 -0.00000000000E+00 -0.00000000000E+00 -0.45593999997E+02  0.45594000000E+02  0.51100000000E-03 0.  1.
    9900012    2    1    2    0    0  0.13437712952E+02  0.44837846099E+01  0.12247720812E+02  0.72461464845E+02  0.69999862633E+02 0.  0.
        -12    1    1    2    0    0 -0.13437712952E+02 -0.44837846099E+01 -0.12247720812E+02  0.18726535155E+02  0.00000000000E+00 0.  1.
         11    1    3    3    0    0 -0.76173953230E+01 -0.12398574720E+00  0.15088360405E+02  0.16902624173E+02  0.51100000000E-03 0. -1.
        -11    1    3    3    0    0  0.16424123039E+02 -0.20954373737E+02 -0.10274734280E+02  0.28537830351E+02  0.51100000000E-03 0.  1.
         12    1    3    3    0    0  0.46309852367E+01  0.25562144095E+02  0.74340946878E+01  0.27021010322E+02  0.00000000000E+00 0. -1.
</event>
<event>
 7    1  0.2641045E-013  0.7246155E+02  0.7816164E-02  0.1226708E+00
        -11   -1    0    0    0    0  0.00000000000E+00  0.00000000000E+00  0.45593999997E+02  0.45594000000E+02  0.51100000000E-03 0.  1.
         11   -1    0    0    0    0 -0.00000000000E+00 -0.00000000000E+00 -0.45593999997E+02  0.45594000000E+02  0.51100000000E-03 0. -1.
    9900012    2    1    2    0    0 -0.18652823273E+02  0.94435253559E+00 -0.13639881760E+01  0.72461545944E+02  0.69999968280E+02 0.  0.
        -12    1    1    2    0    0  0.18652823273E+02 -0.94435253559E+00  0.13639881760E+01  0.18726454056E+02  0.00000000000E+00 0.  1.
         11    1    3    3    0    0 -0.22326038904E+01  0.49445116762E+01  0.16457544431E+00  0.54276883832E+01  0.51100000000E-03 0. -1.
        -11    1    3    3    0    0 -0.93368135319E+01  0.28572286142E+02 -0.11587832102E+02  0.32215360861E+02  0.51100000000E-03 0.  1.
         12    1    3    3    0    0 -0.70834058504E+01 -0.32572445282E+02  0.10059268482E+02  0.34818496701E+02  0.00000000000E+00 0. -1.
</event>
<event>
 7    1  0.2641045E-013  0.7246162E+02  0.7816164E-02  0.1226708E+00
        -11   -1    0    0    0    0  0.00000000000E+00  0.00000000000E+00  0.45593999997E+02  0.45594000000E+02  0.51100000000E-03 0.  1.
         11   -1    0    0    0    0 -0.00000000000E+00 -0.00000000000E+00 -0.45593999997E+02  0.45594000000E+02  0.51100000000E-03 0. -1.
    9900012    2    1    2    0    0 -0.15987221458E+02  0.92207320535E+01  0.31723892970E+01  0.72461622790E+02  0.70000068385E+02 0.  0.
        -12    1    1    2    0    0  0.15987221458E+02 -0.92207320535E+01 -0.31723892970E+01  0.18726377210E+02  0.00000000000E+00 0.  1.
         11    1    3    3    0    0 -0.21704756558E+01 -0.13274088383E+01 -0.15416016480E+02  0.15624549375E+02  0.51100000000E-03 0. -1.
        -11    1    3    3    0    0 -0.28823972327E+02 -0.50306954748E+01  0.15491372695E+01  0.29300667300E+02  0.51100000000E-03 0.  1.
         12    1    3    3    0    0  0.15007226524E+02  0.15578836367E+02  0.17039268507E+02  0.27536406116E+02  0.00000000000E+00 0. -1.
</event>
<event>
 7    1  0.2641045E-013  0.7246159E+02  0.7816164E-02  0.1226708E+00
        -11   -1    0    0    0    0  0.00000000000E+00  0.00000000000E+00  0.45593999997E+02  0.45594000000E+02  0.51100000000E-03 0.  1.
         11   -1    0    0    0    0 -0.00000000000E+00 -0.00000000000E+00 -0.45593999997E+02  0.45594000000E+02  0.51100000000E-03 0. -1.
    9900012    2    1    2    0    0 -0.12214259150E+02  0.13816754209E+02 -0.32538420542E+01  0.72461593202E+02  0.70000029841E+02 0.  0.
        -12    1    1    2    0    0  0.12214259150E+02 -0.13816754209E+02  0.32538420542E+01  0.18726406798E+02  0.00000000000E+00 0.  1.
         11    1    3    3    0    0 -0.10758995101E+02  0.27251478117E+02 -0.25343938079E+02  0.38739053070E+02  0.51100000000E-03 0. -1.
        -11    1    3    3    0    0  0.65953190208E+01 -0.12864274480E+01  0.17009405535E+02  0.18288603158E+02  0.51100000000E-03 0.  1.
        -12    1    3    3    0    0 -0.80505830694E+01 -0.12148296460E+02  0.50806904895E+01  0.15433936973E+02  0.00000000000E+00 0.  1.
</event>
<event>
 7    1  0.2641045E-013  0.7246159E+02  0.7816164E-02  0.1226708E+00
        -11   -1    0    0    0    0  0.00000000000E+00  0.00000000000E+00  0.45593999997E+02  0.45594000000E+02  0.51100000000E-03 0. -1.
         11   -1    0    0    0    0 -0.00000000000E+00 -0.00000000000E+00 -0.45593999997E+02  0.45594000000E+02  0.51100000000E-03 0.  1.
    9900012    2    1    2    0    0  0.17155338960E+02 -0.27998846139E+01  0.69665871043E+01  0.72461592321E+02  0.70000028694E+02 0.  0.
        -12    1    1    2    0    0 -0.17155338960E+02  0.27998846139E+01 -0.69665871043E+01  0.18726407679E+02  0.00000000000E+00 0.  1.
         11    1    3    3    0    0  0.17080040272E+02  0.71955232563E+01  0.31140494075E-01  0.18533869014E+02  0.51100000000E-03 0. -1.
        -11    1    3    3    0    0  0.47890978749E+01 -0.85294814297E+01 -0.22261774235E+02  0.24316128480E+02  0.51100000000E-03 0.  1.
         12    1    3    3    0    0 -0.47137991873E+01 -0.14659264406E+01  0.29197220845E+02  0.29611594827E+02  0.00000000000E+00 0. -1.
</event>
<event>
 7    1  0.2641045E-013  0.7246156E+02  0.7816164E-02  0.1226708E+00
        -11   -1    0    0    0    0  0.00000000000E+00  0.00000000000E+00  0.45593999997E+02  0.45594000000E+02  0.51100000000E-03 0. -1.
         11   -1    0    0    0    0 -0.00000000000E+00 -0.00000000000E+00 -0.45593999997E+02  0.45594000000E+02  0.51100000000E-03 0.  1.
    9900012    2    1    2    0    0 -0.11725416498E+01  0.12989278778E+02  0.13438130892E+02  0.72461559362E+02  0.69999985759E+02 0.  0.
        -12    1    1    2    0    0  0.11725416498E+01 -0.12989278778E+02 -0.13438130892E+02  0.18726440638E+02  0.00000000000E+00 0.  1.
         11    1    3    3    0    0  0.37803001538E+00  0.52867914472E+00  0.77112287404E+01  0.77385694594E+01  0.51100000000E-03 0. -1.
        -11    1    3    3    0    0  0.21002095775E+02 -0.10508879220E+02 -0.13637488976E+02  0.27157055717E+02  0.51100000000E-03 0.  1.
         12    1    3    3    0    0 -0.22552667440E+02  0.22969478853E+02  0.19364391128E+02  0.37565934185E+02  0.00000000000E+00 0. -1.
</event>
<event>
 7    1  0.2641045E-013  0.7246152E+02  0.7816164E-02  0.1226708E+00
        -11   -1    0    0    0    0  0.00000000000E+00  0.00000000000E+00  0.45593999997E+02  0.45594000000E+02  0.51100000000E-03 0. -1.
         11   -1    0    0    0    0 -0.00000000000E+00 -0.00000000000E+00 -0.45593999997E+02  0.45594000000E+02  0.51100000000E-03 0.  1.
    9900012    2    1    2    0    0  0.10807383679E+02 -0.11927661413E+02  0.95714438143E+01  0.72461516469E+02  0.69999929882E+02 0.  0.
        -12    1    1    2    0    0 -0.10807383679E+02  0.11927661413E+02 -0.95714438143E+01  0.18726483531E+02  0.00000000000E+00 0.  1.
         11    1    3    3    0    0  0.15361509423E+02 -0.13159340437E+02  0.30256732611E+02  0.36395248055E+02  0.51100000000E-03 0. -1.
        -11    1    3    3    0    0  0.91437286438E+01  0.96941893712E+01 -0.77748965871E+01  0.15428353713E+02  0.51100000000E-03 0.  1.
        -12    1    3    3    0    0 -0.13697854388E+02 -0.84625103470E+01 -0.12910392209E+02  0.20637914701E+02  0.00000000000E+00 0.  1.
</event>
<event>
 7    1  0.2641045E-013  0.7246153E+02  0.7816164E-02  0.1226708E+00
        -11   -1    0    0    0    0  0.00000000000E+00  0.00000000000E+00  0.45593999997E+02  0.45594000000E+02  0.51100000000E-03 0. -1.
         11   -1    0    0    0    0 -0.00000000000E+00 -0.00000000000E+00 -0.45593999997E+02  0.45594000000E+02  0.51100000000E-03 0.  1.
    9900012    2    1    2    0    0 -0.58334713660E+01 -0.17058125075E+02  0.50667110577E+01  0.72461532629E+02  0.69999950934E+02 0.  0.
        -12    1    1    2    0    0  0.58334713660E+01  0.17058125075E+02 -0.50667110577E+01  0.18726467371E+02  0.00000000000E+00 0.  1.
         11    1    3    3    0    0 -0.14279414430E+02 -0.61717055846E+01  0.93046356837E+01  0.18126441233E+02  0.51100000000E-03 0. -1.
        -11    1    3    3    0    0 -0.20753031613E+02 -0.85197396970E+01 -0.98613251010E+01  0.24505509965E+02  0.51100000000E-03 0.  1.
        -12    1    3    3    0    0  0.29198974677E+02 -0.23666797934E+01  0.56234004750E+01  0.29829581431E+02  0.00000000000E+00 0.  1.
</event>
<event>
 7    1  0.2641045E-013  0.7246157E+02  0.7816164E-02  0.1226708E+00
        -11   -1    0    0    0    0  0.00000000000E+00  0.00000000000E+00  0.45593999997E+02  0.45594000000E+02  0.51100000000E-03 0. -1.
         11   -1    0    0    0    0 -0.00000000000E+00 -0.00000000000E+00 -0.45593999997E+02  0.45594000000E+02  0.51100000000E-03 0.  1.
    9900012    2    1    2    0    0  0.12424683468E+02  0.97161910969E+01 -0.10094647582E+02  0.72461573792E+02  0.70000004556E+02 0.  0.
        -12    1    1    2    0    0 -0.12424683468E+02 -0.97161910969E+01  0.10094647582E+02  0.18726426208E+02  0.00000000000E+00 0.  1.
         11    1    3    3    0    0 -0.51763977899E+01  0.89095543746E+01  0.20362158478E+02  0.22820884106E+02  0.51100000000E-03 0. -1.
        -11    1    3    3    0    0  0.17143974571E+02  0.14449563491E+02 -0.88949872165E+01  0.24121080967E+02  0.51100000000E-03 0.  1.
        -12    1    3    3    0    0  0.45710668637E+00 -0.13642926769E+02 -0.21561818843E+02  0.25519608719E+02  0.00000000000E+00 0.  1.
</event>
<event>
 7    1  0.2641045E-013  0.7246159E+02  0.7816164E-02  0.1226708E+00
        -11   -1    0    0    0    0  0.00000000000E+00  0.00000000000E+00  0.45593999997E+02  0.45594000000E+02  0.51100000000E-03 0.  1.
         11   -1    0    0    0    0 -0.00000000000E+00 -0.00000000000E+00 -0.45593999997E+02  0.45594000000E+02  0.51100000000E-03 0. -1.
    9900012    2    1    2    0    0 -0.64084684976E+01 -0.12690103479E+02 -0.12188978365E+02  0.72461591151E+02  0.70000027170E+02 0.  0.
        -12    1    1    2    0    0  0.64084684976E+01  0.12690103479E+02  0.12188978365E+02  0.18726408849E+02  0.00000000000E+00 0.  1.
         11    1    3    3    0    0 -0.55422083980E+01 -0.14030032443E+02 -0.36499670761E+02  0.39494098929E+02  0.51100000000E-03 0. -1.
        -11    1    3    3    0    0 -0.38124902458E+01 -0.46014748818E+01 -0.16287898421E+01  0.61936749650E+01  0.51100000000E-03 0.  1.
        -12    1    3    3    0    0  0.29462301462E+01  0.59414038456E+01  0.25939482238E+02  0.26773817257E+02  0.00000000000E+00 0.  1.
</event>
<event>
 7    1  0.2641045E-013  0.7246155E+02  0.7816164E-02  0.1226708E+00
        -11   -1    0    0    0    0  0.00000000000E+00  0.00000000000E+00  0.45593999997E+02  0.45594000000E+02  0.51100000000E-03 0. -1.
         11   -1    0    0    0    0 -0.00000000000E+00 -0.00000000000E+00 -0.45593999997E+02  0.45594000000E+02  0.51100000000E-03 0.  1.
    9900012    2    1    2    0    0 -0.18280620927E+02  0.39942196133E+01  0.73822578705E+00  0.72461551615E+02  0.69999975666E+02 0.  0.
        -12    1    1    2    0    0  0.18280620927E+02 -0.39942196133E+01 -0.73822578705E+00  0.18726448385E+02  0.00000000000E+00 0.  1.
         11    1    3    3    0    0  0.11622227347E+01  0.14929540085E+02 -0.10782061310E+02  0.18452500513E+02  0.51100000000E-03 0. -1.
        -11    1    3    3    0    0  0.13937575840E+02 -0.47512929396E+01  0.13535318103E+02  0.20000891013E+02  0.51100000000E-03 0.  1.
         12    1    3    3    0    0 -0.33380419502E+02 -0.61840275320E+01 -0.20150310061E+01  0.34008160089E+02  0.00000000000E+00 0. -1.
</event>
<event>
 7    1  0.2641045E-013  0.7246160E+02  0.7816164E-02  0.1226708E+00
        -11   -1    0    0    0    0  0.00000000000E+00  0.00000000000E+00  0.45593999997E+02  0.45594000000E+02  0.51100000000E-03 0. -1.
         11   -1    0    0    0    0 -0.00000000000E+00 -0.00000000000E+00 -0.45593999997E+02  0.45594000000E+02  0.51100000000E-03 0.  1.
    9900012    2    1    2    0    0 -0.17549919117E+02 -0.12949695243E+01  0.64032372862E+01  0.72461600057E+02  0.70000038772E+02 0.  0.
        -12    1    1    2    0    0  0.17549919117E+02  0.12949695243E+01 -0.64032372862E+01  0.18726399943E+02  0.00000000000E+00 0.  1.
         11    1    3    3    0    0 -0.83576062085E-01 -0.28010776006E+01  0.50829883666E+01  0.58042907989E+01  0.51100000000E-03 0. -1.
        -11    1    3    3    0    0 -0.13026084083E+02 -0.31102409936E+02  0.13701274765E+01  0.33747829855E+02  0.51100000000E-03 0.  1.
        -12    1    3    3    0    0 -0.44402589719E+01  0.32608518013E+02 -0.49878556846E-01  0.32909479403E+02  0.00000000000E+00 0.  1.
</event>
<event>
 7    1  0.2641045E-013  0.7246150E+02  0.7816164E-02  0.1226708E+00
        -11   -1    0    0    0    0  0.00000000000E+00  0.00000000000E+00  0.45593999997E+02  0.45594000000E+02  0.51100000000E-03 0. -1.
         11   -1    0    0    0    0 -0.00000000000E+00 -0.00000000000E+00 -0.45593999997E+02  0.45594000000E+02  0.51100000000E-03 0.  1.
    9900012    2    1    2    0    0 -0.73717744119E+01  0.86007994889E+01  0.14911908599E+02  0.72461499315E+02  0.69999907536E+02 0.  0.
        -12    1    1    2    0    0  0.73717744119E+01 -0.86007994889E+01 -0.14911908599E+02  0.18726500685E+02  0.00000000000E+00 0.  1.
         11    1    3    3    0    0  0.24254760187E+02  0.16367002760E+01 -0.31014182243E+01  0.24506957681E+02  0.51100000000E-03 0. -1.
        -11    1    3    3    0    0 -0.64614625955E+01  0.85249243031E+01 -0.67221052024E+01  0.12633745757E+02  0.51100000000E-03 0.  1.
        -12    1    3    3    0    0 -0.25165072003E+02 -0.15608250902E+01  0.24735432026E+02  0.35320795877E+02  0.00000000000E+00 0.  1.
</event>
<event>
 7    1  0.2641045E-013  0.7246154E+02  0.7816164E-02  0.1226708E+00
        -11   -1    0    0    0    0  0.00000000000E+00  0.00000000000E+00  0.45593999997E+02  0.45594000000E+02  0.51100000000E-03 0.  1.
         11   -1    0    0    0    0 -0.00000000000E+00 -0.00000000000E+00 -0.45593999997E+02  0.45594000000E+02  0.51100000000E-03 0. -1.
    9900012    2    1    2    0    0 -0.72212503931E+01 -0.11582601900E+02  0.12820966923E+02  0.72461539661E+02  0.69999960094E+02 0.  0.
        -12    1    1    2    0    0  0.72212503931E+01  0.11582601900E+02 -0.12820966923E+02  0.18726460339E+02  0.00000000000E+00 0.  1.
         11    1    3    3    0    0 -0.26567513148E+01 -0.12850564233E+00 -0.16208191574E+02  0.16424990582E+02  0.51100000000E-03 0. -1.
        -11    1    3    3    0    0 -0.79451859654E+01 -0.12598463258E+02 -0.92882239374E+01  0.17553300563E+02  0.51100000000E-03 0.  1.
         12    1    3    3    0    0  0.33806868871E+01  0.11443670010E+01  0.38317382435E+02  0.38483248515E+02  0.00000000000E+00 0. -1.
</event>
<event>
 7    1  0.2641045E-013  0.7246152E+02  0.7816164E-02  0.1226708E+00
        -11   -1    0    0    0    0  0.00000000000E+00  0.00000000000E+00  0.45593999997E+02  0.45594000000E+02  0.51100000000E-03 0. -1.
         11   -1    0    0    0    0 -0.00000000000E+00 -0.00000000000E+00 -0.45593999997E+02  0.45594000000E+02  0.51100000000E-03 0.  1.
    9900012    2    1    2    0    0  0.71535834923E+01  0.78210985149E+01 -0.15438192456E+02  0.72461518081E+02  0.69999931982E+02 0.  0.
        -12    1    1    2    0    0 -0.71535834923E+01 -0.78210985149E+01  0.15438192456E+02  0.18726481919E+02  0.00000000000E+00 0.  1.
         11    1    3    3    0    0  0.68237384128E+01  0.35478056590E+02  0.15560194101E+01  0.36161818289E+02  0.51100000000E-03 0. -1.
        -11    1    3    3    0    0 -0.10972834040E+01  0.14861530338E+01 -0.39056713563E+01  0.43205266708E+01  0.51100000000E-03 0.  1.
        -12    1    3    3    0    0  0.14271284835E+01 -0.29143111109E+02 -0.13088540510E+02  0.31979173121E+02  0.00000000000E+00 0.  1.
</event>
<event>
 7    1  0.2641045E-013  0.7246155E+02  0.7816164E-02  0.1226708E+00
        -11   -1    0    0    0    0  0.00000000000E+00  0.00000000000E+00  0.45593999997E+02  0.45594000000E+02  0.51100000000E-03 0.  1.
         11   -1    0    0    0    0 -0.00000000000E+00 -0.00000000000E+00 -0.45593999997E+02  0.45594000000E+02  0.51100000000E-03 0. -1.
    9900012    2    1    2    0    0  0.56051684066E+01 -0.10631681289E+02 -0.14360692163E+02  0.72461547071E+02  0.69999969748E+02 0.  0.
        -12    1    1    2    0    0 -0.56051684066E+01  0.10631681289E+02  0.14360692163E+02  0.18726452929E+02  0.00000000000E+00 0.  1.
         11    1    3    3    0    0  0.38395717079E+01  0.76216089461E+01 -0.79900694859E+01  0.11690699059E+02  0.51100000000E-03 0. -1.
        -11    1    3    3    0    0 -0.19630738438E+02 -0.31450983442E+01  0.16624877669E+02  0.25916097179E+02  0.51100000000E-03 0.  1.
         12    1    3    3    0    0  0.21396335137E+02 -0.15108191891E+02 -0.22995500346E+02  0.34854750834E+02  0.00000000000E+00 0. -1.
</event>
<event>
 7    1  0.2641045E-013  0.7246153E+02  0.7816164E-02  0.1226708E+00
        -11   -1    0    0    0    0  0.00000000000E+00  0.00000000000E+00  0.45593999997E+02  0.45594000000E+02  0.51100000000E-03 0.  1.
         11   -1    0    0    0    0 -0.00000000000E+00 -0.00000000000E+00 -0.45593999997E+02  0.45594000000E+02  0.51100000000E-03 0. -1.
    9900012    2    1    2    0    0  0.17920884280E+00  0.18172196015E+02 -0.45188312635E+01  0.72461530504E+02  0.69999948165E+02 0.  0.
        -12    1    1    2    0    0 -0.17920884280E+00 -0.18172196015E+02  0.45188312635E+01  0.18726469496E+02  0.00000000000E+00 0.  1.
         11    1    3    3    0    0  0.20906110733E+02 -0.83713710800E+00  0.18388855649E+01  0.21003517918E+02  0.51100000000E-03 0. -1.
        -11    1    3    3    0    0 -0.46145528521E+01 -0.13445938285E+02 -0.54117056539E+01  0.15210980006E+02  0.51100000000E-03 0.  1.
        -12    1    3    3    0    0 -0.16112349039E+02  0.32455271408E+02 -0.94601117451E+00  0.36247032580E+02  0.00000000000E+00 0.  1.
</event>
<event>
 7    1  0.2641045E-013  0.7246161E+02  0.7816164E-02  0.1226708E+00
        -11   -1    0    0    0    0  0.00000000000E+00  0.00000000000E+00  0.45593999997E+02  0.45594000000E+02  0.51100000000E-03 0.  1.
         11   -1    0    0    0    0 -0.00000000000E+00 -0.00000000000E+00 -0.45593999997E+02  0.45594000000E+02  0.51100000000E-03 0. -1.
    9900012    2    1    2    0    0  0.59304539532E+01  0.11501810189E+02 -0.13535715130E+02  0.72461614716E+02  0.70000057868E+02 0.  0.
        -12    1    1    2    0    0 -0.59304539532E+01 -0.11501810189E+02  0.13535715130E+02  0.18726385284E+02  0.00000000000E+00 0.  1.
         11    1    3    3    0    0 -0.27124205389E+01  0.30294664350E+02 -0.18369419554E+02  0.35532513115E+02  0.51100000000E-03 0. -1.
        -11    1    3    3    0    0  0.11526640137E+02  0.40938133606E+01 -0.29516235905E+01  0.12583116576E+02  0.51100000000E-03 0.  1.
        -12    1    3    3    0    0 -0.28837656449E+01 -0.22886667522E+02  0.77853280146E+01  0.24345985025E+02  0.00000000000E+00 0.  1.
</event>
<event>
 7    1  0.2641045E-013  0.7246152E+02  0.7816164E-02  0.1226708E+00
        -11   -1    0    0    0    0  0.00000000000E+00  0.00000000000E+00  0.45593999997E+02  0.45594000000E+02  0.51100000000E-03 0. -1.
         11   -1    0    0    0    0 -0.00000000000E+00 -0.00000000000E+00 -0.45593999997E+02  0.45594000000E+02  0.51100000000E-03 0.  1.
    9900012    2    1    2    0    0  0.91481495609E+01 -0.68620058358E+01  0.14829209442E+02  0.72461515622E+02  0.69999928780E+02 0.  0.
        -12    1    1    2    0    0 -0.91481495609E+01  0.68620058358E+01 -0.14829209442E+02  0.18726484378E+02  0.00000000000E+00 0.  1.
         11    1    3    3    0    0 -0.77636895751E+01 -0.21199029876E+01 -0.43866306485E+01  0.91657729190E+01  0.51100000000E-03 0. -1.
        -11    1    3    3    0    0 -0.17379783682E+01  0.22007937488E+02 -0.50520171379E+01  0.22647135773E+02  0.51100000000E-03 0.  1.
         12    1    3    3    0    0  0.18649817504E+02 -0.26750040336E+02  0.24267857228E+02  0.40648606930E+02  0.00000000000E+00 0. -1.
</event>
<event>
 7    1  0.2641045E-013  0.7246158E+02  0.7816164E-02  0.1226708E+00
        -11   -1    0    0    0    0  0.00000000000E+00  0.00000000000E+00  0.45593999997E+02  0.45594000000E+02  0.51100000000E-03 0. -1.
         11   -1    0    0    0    0 -0.00000000000E+00 -0.00000000000E+00 -0.45593999997E+02  0.45594000000E+02  0.51100000000E-03 0.  1.
    9900012    2    1    2    0    0  0.93168361985E+00  0.17155179160E+02 -0.74505537707E+01  0.72461575945E+02  0.70000007362E+02 0.  0.
        -12    1    1    2    0    0 -0.93168361985E+00 -0.17155179160E+02  0.74505537707E+01  0.18726424055E+02  0.00000000000E+00 0.  1.
         11    1    3    3    0    0  0.11672987488E+02  0.15129011441E+02  0.14656665974E+02  0.24082430977E+02  0.51100000000E-03 0. -1.
        -11    1    3    3    0    0  0.19027921237E+01  0.13037983488E+02 -0.27724476212E+02  0.30696192155E+02  0.51100000000E-03 0.  1.
         12    1    3    3    0    0 -0.12644095991E+02 -0.11011815769E+02  0.56172564678E+01  0.17682952813E+02  0.00000000000E+00 0. -1.
</event>
<event>
 7    1  0.2641045E-013  0.7246172E+02  0.7816164E-02  0.1226708E+00
        -11   -1    0    0    0    0  0.00000000000E+00  0.00000000000E+00  0.45593999997E+02  0.45594000000E+02  0.51100000000E-03 0. -1.
         11   -1    0    0    0    0 -0.00000000000E+00 -0.00000000000E+00 -0.45593999997E+02  0.45594000000E+02  0.51100000000E-03 0.  1.
    9900012    2    1    2    0    0  0.13949222548E+02  0.11331017738E+02 -0.52631699797E+01  0.72461715507E+02  0.70000189166E+02 0.  0.
        -12    1    1    2    0    0 -0.13949222548E+02 -0.11331017738E+02  0.52631699797E+01  0.18726284493E+02  0.00000000000E+00 0.  1.
         11    1    3    3    0    0 -0.58350017669E+01 -0.15856101704E+02 -0.39893350679E+01  0.17360241974E+02  0.51100000000E-03 0. -1.
        -11    1    3    3    0    0 -0.95023186247E+01  0.16768553630E+02 -0.11419939402E+02  0.22402978960E+02  0.51100000000E-03 0.  1.
        -12    1    3    3    0    0  0.29286542940E+02  0.10418565812E+02  0.10146104490E+02  0.32698494572E+02  0.00000000000E+00 0.  1.
</event>
<event>
 7    1  0.2641045E-013  0.7246156E+02  0.7816164E-02  0.1226708E+00
        -11   -1    0    0    0    0  0.00000000000E+00  0.00000000000E+00  0.45593999997E+02  0.45594000000E+02  0.51100000000E-03 0.  1.
         11   -1    0    0    0    0 -0.00000000000E+00 -0.00000000000E+00 -0.45593999997E+02  0.45594000000E+02  0.51100000000E-03 0. -1.
    9900012    2    1    2    0    0  0.95472383610E+00 -0.82896983095E+01  0.16764517564E+02  0.72461557604E+02  0.69999983468E+02 0.  0.
        -12    1    1    2    0    0 -0.95472383610E+00  0.82896983095E+01 -0.16764517564E+02  0.18726442396E+02  0.00000000000E+00 0.  1.
         11    1    3    3    0    0  0.21894166529E+02 -0.53354926674E+01 -0.33780748887E+01  0.22786693490E+02  0.51100000000E-03 0. -1.
        -11    1    3    3    0    0  0.18238241304E+01 -0.15056440624E+02 -0.24898303782E+01  0.15369515096E+02  0.51100000000E-03 0.  1.
        -12    1    3    3    0    0 -0.22763266823E+02  0.12102234982E+02  0.22632422831E+02  0.34305349017E+02  0.00000000000E+00 0.  1.
</event>
<event>
 7    1  0.2641045E-013  0.7246153E+02  0.7816164E-02  0.1226708E+00
        -11   -1    0    0    0    0  0.00000000000E+00  0.00000000000E+00  0.45593999997E+02  0.45594000000E+02  0.51100000000E-03 0. -1.
         11   -1    0    0    0    0 -0.00000000000E+00 -0.00000000000E+00 -0.45593999997E+02  0.45594000000E+02  0.51100000000E-03 0.  1.
    9900012    2    1    2    0    0  0.48871289098E+01  0.15661417967E+02 -0.90286516359E+01  0.72461532312E+02  0.69999950520E+02 0.  0.
        -12    1    1    2    0    0 -0.48871289098E+01 -0.15661417967E+02  0.90286516359E+01  0.18726467688E+02  0.00000000000E+00 0.  1.
         11    1    3    3    0    0 -0.18388151195E+01  0.47179723213E+01  0.35626734285E+01  0.61913767522E+01  0.51100000000E-03 0. -1.
        -11    1    3    3    0    0 -0.10466472226E+02  0.31967453495E+02  0.48621561656E+01  0.33986845788E+02  0.51100000000E-03 0.  1.
         12    1    3    3    0    0  0.17192416255E+02 -0.21024007849E+02 -0.17453481230E+02  0.32283309771E+02  0.00000000000E+00 0. -1.
</event>
<event>
 7    1  0.2641045E-013  0.7246157E+02  0.7816164E-02  0.1226708E+00
        -11   -1    0    0    0    0  0.00000000000E+00  0.00000000000E+00  0.45593999997E+02  0.45594000000E+02  0.51100000000E-03 0. -1.
         11   -1    0    0    0    0 -0.00000000000E+00 -0.00000000000E+00 -0.45593999997E+02  0.45594000000E+02  0.51100000000E-03 0.  1.
    9900012    2    1    2    0    0  0.17940530312E+02 -0.13570737950E+01  0.51937341617E+01  0.72461570770E+02  0.70000000620E+02 0.  0.
        -12    1    1    2    0    0 -0.17940530312E+02  0.13570737950E+01 -0.51937341617E+01  0.18726429230E+02  0.00000000000E+00 0.  1.
         11    1    3    3    0    0  0.27317852968E+02 -0.88778613538E+01 -0.18683695931E+02  0.34266047436E+02  0.51100000000E-03 0. -1.
        -11    1    3    3    0    0  0.73161028833E+01  0.84654605974E+01  0.16462789207E+02  0.19905095159E+02  0.51100000000E-03 0.  1.
        -12    1    3    3    0    0 -0.16693425539E+02 -0.94467303866E+00  0.74146408851E+01  0.18290428176E+02  0.00000000000E+00 0.  1.
</event>
<event>
 7    1  0.2641045E-013  0.7246171E+02  0.7816164E-02  0.1226708E+00
        -11   -1    0    0    0    0  0.00000000000E+00  0.00000000000E+00  0.45593999997E+02  0.45594000000E+02  0.51100000000E-03 0.  1.
         11   -1    0    0    0    0 -0.00000000000E+00 -0.00000000000E+00 -0.45593999997E+02  0.45594000000E+02  0.51100000000E-03 0. -1.
    9900012    2    1    2    0    0  0.13313319590E+01  0.97027855637E+01 -0.15961119826E+02  0.72461712632E+02  0.70000185421E+02 0.  0.
        -12    1    1    2    0    0 -0.13313319590E+01 -0.97027855637E+01  0.15961119826E+02  0.18726287368E+02  0.00000000000E+00 0.  1.
         11    1    3    3    0    0 -0.11428334314E+02  0.18895967381E+02 -0.10388224936E+02  0.24404500118E+02  0.51100000000E-03 0. -1.
        -11    1    3    3    0    0 -0.89558412314E+01  0.11536212957E+02 -0.10015926319E+02  0.17709039551E+02  0.51100000000E-03 0.  1.
        -12    1    3    3    0    0  0.21715507505E+02 -0.20729394774E+02  0.44430314283E+01  0.30348172962E+02  0.00000000000E+00 0.  1.
</event>
<event>
 7    1  0.2641045E-013  0.7246158E+02  0.7816164E-02  0.1226708E+00
        -11   -1    0    0    0    0  0.00000000000E+00  0.00000000000E+00  0.45593999997E+02  0.45594000000E+02  0.51100000000E-03 0. -1.
         11   -1    0    0    0    0 -0.00000000000E+00 -0.00000000000E+00 -0.45593999997E+02  0.45594000000E+02  0.51100000000E-03 0.  1.
    9900012    2    1    2    0    0 -0.31497659037E+01 -0.17073786697E+02 -0.70173816608E+01  0.72461578484E+02  0.70000010669E+02 0.  0.
        -12    1    1    2    0    0  0.31497659037E+01  0.17073786697E+02  0.70173816608E+01  0.18726421516E+02  0.00000000000E+00 0.  1.
         11    1    3    3    0    0  0.64176062758E+01 -0.61574797288E+01  0.12604393567E+02  0.15426307542E+02  0.51100000000E-03 0. -1.
        -11    1    3    3    0    0  0.13940673343E+02 -0.19233767358E+02 -0.21485303895E+02  0.32029649760E+02  0.51100000000E-03 0.  1.
         12    1    3    3    0    0 -0.23508045522E+02  0.83174603903E+01  0.18635286671E+01  0.25005621182E+02  0.00000000000E+00 0. -1.
</event>
<event>
 7    1  0.2641045E-013  0.7246160E+02  0.7816164E-02  0.1226708E+00
        -11   -1    0    0    0    0  0.00000000000E+00  0.00000000000E+00  0.45593999997E+02  0.45594000000E+02  0.51100000000E-03 0. -1.
         11   -1    0    0    0    0 -0.00000000000E+00 -0.00000000000E+00 -0.45593999997E+02  0.45594000000E+02  0.51100000000E-03 0.  1.
    9900012    2    1    2    0    0  0.13281948109E+02 -0.13190567337E+02 -0.52622108506E+00  0.72461598294E+02  0.70000036474E+02 0.  0.
        -12    1    1    2    0    0 -0.13281948109E+02  0.13190567337E+02  0.52622108506E+00  0.18726401706E+02  0.00000000000E+00 0.  1.
         11    1    3    3    0    0  0.12030301205E+02 -0.20626032997E+02  0.24828213360E+02  0.34447083522E+02  0.51100000000E-03 0. -1.
        -11    1    3    3    0    0  0.98802969898E+01  0.13193254147E+02 -0.93723495269E+01  0.18961095947E+02  0.51100000000E-03 0.  1.
        -12    1    3    3    0    0 -0.86286500863E+01 -0.57577884875E+01 -0.15982084918E+02  0.19053418824E+02  0.00000000000E+00 0.  1.
</event>
<event>
 7    1  0.2641045E-013  0.7246159E+02  0.7816164E-02  0.1226708E+00
        -11   -1    0    0    0    0  0.00000000000E+00  0.00000000000E+00  0.45593999997E+02  0.45594000000E+02  0.51100000000E-03 0.  1.
         11   -1    0    0    0    0 -0.00000000000E+00 -0.00000000000E+00 -0.45593999997E+02  0.45594000000E+02  0.51100000000E-03 0. -1.
    9900012    2    1    2    0    0  0.18534839897E+02  0.23802548433E+01 -0.12134642943E+01  0.72461590875E+02  0.70000026810E+02 0.  0.
        -12    1    1    2    0    0 -0.18534839897E+02 -0.23802548433E+01  0.12134642943E+01  0.18726409125E+02  0.00000000000E+00 0.  1.
         11    1    3    3    0    0  0.11006232511E+02  0.18627453834E+01 -0.13214156794E+02  0.17298003193E+02  0.51100000000E-03 0. -1.
        -11    1    3    3    0    0  0.17586747513E+02  0.10660604590E+02 -0.14427762422E+02  0.25121753663E+02  0.51100000000E-03 0.  1.
        -12    1    3    3    0    0 -0.10058140128E+02 -0.10143095130E+02  0.26428454922E+02  0.30041834019E+02  0.00000000000E+00 0.  1.
</event>
<event>
 7    1  0.2641045E-013  0.7246155E+02  0.7816164E-02  0.1226708E+00
        -11   -1    0    0    0    0  0.00000000000E+00  0.00000000000E+00  0.45593999997E+02  0.45594000000E+02  0.51100000000E-03 0. -1.
         11   -1    0    0    0    0 -0.00000000000E+00 -0.00000000000E+00 -0.45593999997E+02  0.45594000000E+02  0.51100000000E-03 0.  1.
    9900012    2    1    2    0    0 -0.29885378654E+01  0.15960577284E+02  0.93278320295E+01  0.72461552494E+02  0.69999976812E+02 0.  0.
        -12    1    1    2    0    0  0.29885378654E+01 -0.15960577284E+02 -0.93278320295E+01  0.18726447506E+02  0.00000000000E+00 0.  1.
         11    1    3    3    0    0  0.12256230503E+02  0.64408407088E+01  0.88553765746E+01  0.16435245958E+02  0.51100000000E-03 0. -1.
        -11    1    3    3    0    0 -0.14153682082E+02  0.30601482364E+02  0.59031250017E+01  0.34228998296E+02  0.51100000000E-03 0.  1.
         12    1    3    3    0    0 -0.10910862865E+01 -0.21081745788E+02 -0.54306695468E+01  0.21797308240E+02  0.00000000000E+00 0. -1.
</event>
<event>
 7    1  0.2641045E-013  0.7246155E+02  0.7816164E-02  0.1226708E+00
        -11   -1    0    0    0    0  0.00000000000E+00  0.00000000000E+00  0.45593999997E+02  0.45594000000E+02  0.51100000000E-03 0.  1.
         11   -1    0    0    0    0 -0.00000000000E+00 -0.00000000000E+00 -0.45593999997E+02  0.45594000000E+02  0.51100000000E-03 0. -1.
    9900012    2    1    2    0    0  0.16341756111E+02 -0.68094448703E+01 -0.61039542813E+01  0.72461553724E+02  0.69999978415E+02 0.  0.
        -12    1    1    2    0    0 -0.16341756111E+02  0.68094448703E+01  0.61039542813E+01  0.18726446276E+02  0.00000000000E+00 0.  1.
         11    1    3    3    0    0  0.18528743371E+02  0.43341843824E+01 -0.59483659338E+01  0.19936964230E+02  0.51100000000E-03 0. -1.
        -11    1    3    3    0    0  0.39729055846E+01  0.18977518623E+02  0.75863388476E+01  0.20820248059E+02  0.51100000000E-03 0.  1.
         12    1    3    3    0    0 -0.61598928440E+01 -0.30121147875E+02 -0.77419271951E+01  0.31704341436E+02  0.00000000000E+00 0. -1.
</event>
<event>
 7    1  0.2641045E-013  0.7246173E+02  0.7816164E-02  0.1226708E+00
        -11   -1    0    0    0    0  0.00000000000E+00  0.00000000000E+00  0.45593999997E+02  0.45594000000E+02  0.51100000000E-03 0. -1.
         11   -1    0    0    0    0 -0.00000000000E+00 -0.00000000000E+00 -0.45593999997E+02  0.45594000000E+02  0.51100000000E-03 0.  1.
    9900012    2    1    2    0    0 -0.74434761678E+01 -0.14236552628E+02  0.96222841098E+01  0.72461731827E+02  0.70000210427E+02 0.  0.
        -12    1    1    2    0    0  0.74434761678E+01  0.14236552628E+02 -0.96222841098E+01  0.18726268173E+02  0.00000000000E+00 0.  1.
         11    1    3    3    0    0  0.15066779385E+00  0.10923124636E+01 -0.18106050474E+01  0.21199382541E+01  0.51100000000E-03 0. -1.
        -11    1    3    3    0    0 -0.11360467190E+02  0.15811952116E+02 -0.18591460326E+02  0.26920632270E+02  0.51100000000E-03 0.  1.
         12    1    3    3    0    0  0.37663232285E+01 -0.31140817207E+02  0.30024349483E+02  0.43421161303E+02  0.00000000000E+00 0. -1.
</event>
<event>
 7    1  0.2641045E-013  0.7246117E+02  0.7816164E-02  0.1226709E+00
        -11   -1    0    0    0    0  0.00000000000E+00  0.00000000000E+00  0.45593999997E+02  0.45594000000E+02  0.51100000000E-03 0. -1.
         11   -1    0    0    0    0 -0.00000000000E+00 -0.00000000000E+00 -0.45593999997E+02  0.45594000000E+02  0.51100000000E-03 0.  1.
    9900012    2    1    2    0    0 -0.84787108828E+01  0.28765157659E+01  0.16447832577E+02  0.72461172247E+02  0.69999481468E+02 0.  0.
        -12    1    1    2    0    0  0.84787108828E+01 -0.28765157659E+01 -0.16447832577E+02  0.18726827753E+02  0.00000000000E+00 0.  1.
         11    1    3    3    0    0 -0.85069064592E+01 -0.15779911453E+01 -0.12259884474E+02  0.15005408396E+02  0.51100000000E-03 0. -1.
        -11    1    3    3    0    0 -0.10547542661E+02 -0.16837684899E+01 -0.11342717212E+02  0.15580210734E+02  0.51100000000E-03 0.  1.
         12    1    3    3    0    0  0.10575738237E+02  0.61382754011E+01  0.40050434263E+02  0.41875553117E+02  0.00000000000E+00 0. -1.
</event>
<event>
 7    1  0.2641045E-013  0.7246137E+02  0.7816164E-02  0.1226709E+00
        -11   -1    0    0    0    0  0.00000000000E+00  0.00000000000E+00  0.45593999997E+02  0.45594000000E+02  0.51100000000E-03 0.  1.
         11   -1    0    0    0    0 -0.00000000000E+00 -0.00000000000E+00 -0.45593999997E+02  0.45594000000E+02  0.51100000000E-03 0. -1.
    9900012    2    1    2    0    0 -0.16058599689E+02  0.55840527432E+01 -0.78502458311E+01  0.72461371135E+02  0.69999740558E+02 0.  0.
        -12    1    1    2    0    0  0.16058599689E+02 -0.55840527432E+01  0.78502458311E+01  0.18726628865E+02  0.00000000000E+00 0.  1.
         11    1    3    3    0    0 -0.10921672150E+02  0.15760042192E+02 -0.18442041952E+02  0.26603961436E+02  0.51100000000E-03 0. -1.
        -11    1    3    3    0    0 -0.19499062603E+02  0.34752236102E+01 -0.52477686465E+01  0.20489746157E+02  0.51100000000E-03 0.  1.
        -12    1    3    3    0    0  0.14362135064E+02 -0.13651213059E+02  0.15839564768E+02  0.25367663543E+02  0.00000000000E+00 0.  1.
</event>
<event>
 7    1  0.2641045E-013  0.7246159E+02  0.7816164E-02  0.1226708E+00
        -11   -1    0    0    0    0  0.00000000000E+00  0.00000000000E+00  0.45593999997E+02  0.45594000000E+02  0.51100000000E-03 0. -1.
         11   -1    0    0    0    0 -0.00000000000E+00 -0.00000000000E+00 -0.45593999997E+02  0.45594000000E+02  0.51100000000E-03 0.  1.
    9900012    2    1    2    0    0  0.86788931034E+01 -0.46199261844E+00 -0.16587396615E+02  0.72461592198E+02  0.70000028534E+02 0.  0.
        -12    1    1    2    0    0 -0.86788931034E+01  0.46199261844E+00  0.16587396615E+02  0.18726407802E+02  0.00000000000E+00 0.  1.
         11    1    3    3    0    0  0.13264777648E+02 -0.22764026575E+02 -0.98990249343E+01  0.28145087082E+02  0.51100000000E-03 0. -1.
        -11    1    3    3    0    0  0.73103700755E+01  0.66187205065E+01  0.13105183390E+02  0.16401061055E+02  0.51100000000E-03 0.  1.
        -12    1    3    3    0    0 -0.11896254620E+02  0.15683313450E+02 -0.19793555071E+02  0.27915444061E+02  0.00000000000E+00 0.  1.
</event>
<event>
 7    1  0.2641045E-013  0.7246160E+02  0.7816164E-02  0.1226708E+00
        -11   -1    0    0    0    0  0.00000000000E+00  0.00000000000E+00  0.45593999997E+02  0.45594000000E+02  0.51100000000E-03 0.  1.
         11   -1    0    0    0    0 -0.00000000000E+00 -0.00000000000E+00 -0.45593999997E+02  0.45594000000E+02  0.51100000000E-03 0. -1.
    9900012    2    1    2    0    0  0.16307547715E+02  0.85491162232E+01 -0.34138979786E+01  0.72461596179E+02  0.70000033719E+02 0.  0.
        -12    1    1    2    0    0 -0.16307547715E+02 -0.85491162232E+01  0.34138979786E+01  0.18726403821E+02  0.00000000000E+00 0.  1.
         11    1    3    3    0    0  0.21283225900E+02  0.32494004839E+01  0.25709874947E+01  0.21682810822E+02  0.51100000000E-03 0. -1.
        -11    1    3    3    0    0  0.21979217507E+02  0.78271461665E+01 -0.34908607170E+01  0.23591022194E+02  0.51100000000E-03 0.  1.
         12    1    3    3    0    0 -0.26954895692E+02 -0.25274304271E+01 -0.24940247563E+01  0.27187763163E+02  0.00000000000E+00 0. -1.
</event>
<event>
 7    1  0.2641045E-013  0.7246147E+02  0.7816164E-02  0.1226708E+00
        -11   -1    0    0    0    0  0.00000000000E+00  0.00000000000E+00  0.45593999997E+02  0.45594000000E+02  0.51100000000E-03 0.  1.
         11   -1    0    0    0    0 -0.00000000000E+00 -0.00000000000E+00 -0.45593999997E+02  0.45594000000E+02  0.51100000000E-03 0. -1.
    9900012    2    1    2    0    0 -0.21700714562E+01 -0.15664151764E+02 -0.10030351193E+02  0.72461473209E+02  0.69999873528E+02 0.  0.
        -12    1    1    2    0    0  0.21700714562E+01  0.15664151764E+02  0.10030351193E+02  0.18726526791E+02  0.00000000000E+00 0.  1.
         11    1    3    3    0    0 -0.89029734857E+01 -0.10073748816E+02 -0.31130650499E+02  0.33909596766E+02  0.51100000000E-03 0. -1.
        -11    1    3    3    0    0  0.19483666941E+01 -0.12243269034E+02 -0.32861004870E+01  0.12825452276E+02  0.51100000000E-03 0.  1.
        -12    1    3    3    0    0  0.47845353353E+01  0.66528660858E+01  0.24386399793E+02  0.25726424166E+02  0.00000000000E+00 0.  1.
</event>
<event>
 7    1  0.2641045E-013  0.7246166E+02  0.7816164E-02  0.1226708E+00
        -11   -1    0    0    0    0  0.00000000000E+00  0.00000000000E+00  0.45593999997E+02  0.45594000000E+02  0.51100000000E-03 0. -1.
         11   -1    0    0    0    0 -0.00000000000E+00 -0.00000000000E+00 -0.45593999997E+02  0.45594000000E+02  0.51100000000E-03 0.  1.
    9900012    2    1    2    0    0  0.90694057920E+01  0.12054335396E+02  0.11095705129E+02  0.72461660380E+02  0.70000117353E+02 0.  0.
        -12    1    1    2    0    0 -0.90694057920E+01 -0.12054335396E+02 -0.11095705129E+02  0.18726339620E+02  0.00000000000E+00 0.  1.
         11    1    3    3    0    0 -0.40243850260E+01  0.18920474538E+02  0.18988361850E+02  0.27106049465E+02  0.51100000000E-03 0. -1.
        -11    1    3    3    0    0  0.52576836946E+00  0.97830554933E+01  0.12702390587E+02  0.16041674914E+02  0.51100000000E-03 0.  1.
        -12    1    3    3    0    0  0.12568022449E+02 -0.16649194635E+02 -0.20595047308E+02  0.29313936001E+02  0.00000000000E+00 0.  1.
</event>
<event>
 7    1  0.2641045E-013  0.7246158E+02  0.7816164E-02  0.1226708E+00
        -11   -1    0    0    0    0  0.00000000000E+00  0.00000000000E+00  0.45593999997E+02  0.45594000000E+02  0.51100000000E-03 0.  1.
         11   -1    0    0    0    0 -0.00000000000E+00 -0.00000000000E+00 -0.45593999997E+02  0.45594000000E+02  0.51100000000E-03 0. -1.
    9900012    2    1    2    0    0  0.18357296892E+01 -0.10512683279E+02 -0.15388063023E+02  0.72461577575E+02  0.70000009485E+02 0.  0.
        -12    1    1    2    0    0 -0.18357296892E+01  0.10512683279E+02  0.15388063023E+02  0.18726422425E+02  0.00000000000E+00 0.  1.
         11    1    3    3    0    0 -0.38356438237E+01 -0.31463505311E+01 -0.39896507879E+01  0.63662389900E+01  0.51100000000E-03 0. -1.
        -11    1    3    3    0    0  0.10524266201E+02  0.41886092102E+01  0.25082583411E+02  0.27521639068E+02  0.51100000000E-03 0.  1.
         12    1    3    3    0    0 -0.48528926880E+01 -0.11554941958E+02 -0.36480995646E+02  0.38573699517E+02  0.00000000000E+00 0. -1.
</event>
<event>
 7    1  0.2641045E-013  0.7246155E+02  0.7816164E-02  0.1226708E+00
        -11   -1    0    0    0    0  0.00000000000E+00  0.00000000000E+00  0.45593999997E+02  0.45594000000E+02  0.51100000000E-03 0.  1.
         11   -1    0    0    0    0 -0.00000000000E+00 -0.00000000000E+00 -0.45593999997E+02  0.45594000000E+02  0.51100000000E-03 0. -1.
    9900012    2    1    2    0    0  0.68388276519E+01 -0.92019063711E+01 -0.14806592084E+02  0.72461553096E+02  0.69999977595E+02 0.  0.
        -12    1    1    2    0    0 -0.68388276519E+01  0.92019063711E+01  0.14806592084E+02  0.18726446904E+02  0.00000000000E+00 0.  1.
         11    1    3    3    0    0  0.51563846699E+01  0.18486961612E+02 -0.40059195934E+01  0.19606209337E+02  0.51100000000E-03 0. -1.
        -11    1    3    3    0    0 -0.10677540930E+02  0.80805329247E+01 -0.61185208698E+01  0.14722132677E+02  0.51100000000E-03 0.  1.
         12    1    3    3    0    0  0.12359983912E+02 -0.35769400908E+02 -0.46821516211E+01  0.38133211082E+02  0.00000000000E+00 0. -1.
</event>
<event>
 7    1  0.2641045E-013  0.7246157E+02  0.7816164E-02  0.1226708E+00
        -11   -1    0    0    0    0  0.00000000000E+00  0.00000000000E+00  0.45593999997E+02  0.45594000000E+02  0.51100000000E-03 0. -1.
         11   -1    0    0    0    0 -0.00000000000E+00 -0.00000000000E+00 -0.45593999997E+02  0.45594000000E+02  0.51100000000E-03 0.  1.
    9900012    2    1    2    0    0 -0.16968828444E+02 -0.35593168478E+01  0.70759703207E+01  0.72461568648E+02  0.69999997855E+02 0.  0.
        -12    1    1    2    0    0  0.16968828444E+02  0.35593168478E+01 -0.70759703207E+01  0.18726431352E+02  0.00000000000E+00 0.  1.
         11    1    3    3    0    0  0.14130129872E+00  0.86933919477E+01 -0.22533989760E+01  0.89818058774E+01  0.51100000000E-03 0. -1.
        -11    1    3    3    0    0 -0.29316020655E+02  0.66616256803E+01 -0.12093343508E+02  0.32404556488E+02  0.51100000000E-03 0.  1.
        -12    1    3    3    0    0  0.12205890912E+02 -0.18914334476E+02  0.21422712804E+02  0.31075206283E+02  0.00000000000E+00 0.  1.
</event>
<event>
 7    1  0.2641045E-013  0.7246158E+02  0.7816164E-02  0.1226708E+00
        -11   -1    0    0    0    0  0.00000000000E+00  0.00000000000E+00  0.45593999997E+02  0.45594000000E+02  0.51100000000E-03 0.  1.
         11   -1    0    0    0    0 -0.00000000000E+00 -0.00000000000E+00 -0.45593999997E+02  0.45594000000E+02  0.51100000000E-03 0. -1.
    9900012    2    1    2    0    0  0.14602132788E+02 -0.92786651311E+01 -0.71667901260E+01  0.72461580446E+02  0.70000013225E+02 0.  0.
        -12    1    1    2    0    0 -0.14602132788E+02  0.92786651311E+01  0.71667901260E+01  0.18726419554E+02  0.00000000000E+00 0.  1.
         11    1    3    3    0    0  0.22291052415E+01 -0.19092559829E+02 -0.30957493954E+02  0.36439829625E+02  0.51100000000E-03 0. -1.
        -11    1    3    3    0    0  0.53218256125E+01  0.64965320190E+01 -0.23692468427E+01  0.87258287278E+01  0.51100000000E-03 0.  1.
        -12    1    3    3    0    0  0.70512019344E+01  0.33173626784E+01  0.26159950670E+02  0.27295922093E+02  0.00000000000E+00 0.  1.
</event>
<event>
 7    1  0.2641045E-013  0.7246165E+02  0.7816164E-02  0.1226708E+00
        -11   -1    0    0    0    0  0.00000000000E+00  0.00000000000E+00  0.45593999997E+02  0.45594000000E+02  0.51100000000E-03 0.  1.
         11   -1    0    0    0    0 -0.00000000000E+00 -0.00000000000E+00 -0.45593999997E+02  0.45594000000E+02  0.51100000000E-03 0. -1.
    9900012    2    1    2    0    0 -0.82496150278E+00 -0.14259563504E+02 -0.12110352171E+02  0.72461645776E+02  0.70000098329E+02 0.  0.
        -12    1    1    2    0    0  0.82496150278E+00  0.14259563504E+02  0.12110352171E+02  0.18726354224E+02  0.00000000000E+00 0.  1.
         11    1    3    3    0    0 -0.14845758342E+02 -0.31698935403E+02 -0.14482784923E+02  0.37880999272E+02  0.51100000000E-03 0. -1.
        -11    1    3    3    0    0 -0.49388076456E+00 -0.64808690449E+01 -0.12381621140E-01  0.64996719419E+01  0.51100000000E-03 0.  1.
        -12    1    3    3    0    0  0.14514677604E+02  0.23920240944E+02  0.23848143731E+01  0.28080974563E+02  0.00000000000E+00 0.  1.
</event>
<event>
 7    1  0.2641045E-013  0.7246155E+02  0.7816164E-02  0.1226708E+00
        -11   -1    0    0    0    0  0.00000000000E+00  0.00000000000E+00  0.45593999997E+02  0.45594000000E+02  0.51100000000E-03 0.  1.
         11   -1    0    0    0    0 -0.00000000000E+00 -0.00000000000E+00 -0.45593999997E+02  0.45594000000E+02  0.51100000000E-03 0. -1.
    9900012    2    1    2    0    0 -0.13288557523E+02 -0.12755665698E+02 -0.33744771072E+01  0.72461551747E+02  0.69999975839E+02 0.  0.
        -12    1    1    2    0    0  0.13288557523E+02  0.12755665698E+02  0.33744771072E+01  0.18726448253E+02  0.00000000000E+00 0.  1.
         11    1    3    3    0    0 -0.12413087816E+02 -0.25746331034E+02 -0.15578269674E+02  0.32552124310E+02  0.51100000000E-03 0. -1.
        -11    1    3    3    0    0 -0.45054901355E+01 -0.59529025240E+01 -0.87015304328E+01  0.11465300779E+02  0.51100000000E-03 0.  1.
        -12    1    3    3    0    0  0.36300204286E+01  0.18943567860E+02  0.20905323000E+02  0.28444126657E+02  0.00000000000E+00 0.  1.
</event>
<event>
 7    1  0.2641045E-013  0.7246153E+02  0.7816164E-02  0.1226708E+00
        -11   -1    0    0    0    0  0.00000000000E+00  0.00000000000E+00  0.45593999997E+02  0.45594000000E+02  0.51100000000E-03 0. -1.
         11   -1    0    0    0    0 -0.00000000000E+00 -0.00000000000E+00 -0.45593999997E+02  0.45594000000E+02  0.51100000000E-03 0.  1.
    9900012    2    1    2    0    0  0.63483916031E+01 -0.50864419484E+01  0.16867325110E+02  0.72461531460E+02  0.69999949410E+02 0.  0.
        -12    1    1    2    0    0 -0.63483916031E+01  0.50864419484E+01 -0.16867325110E+02  0.18726468540E+02  0.00000000000E+00 0.  1.
         11    1    3    3    0    0  0.26358198085E+02  0.69117428375E+01  0.22244588032E+01  0.27339989257E+02  0.51100000000E-03 0. -1.
        -11    1    3    3    0    0 -0.67791523909E+01  0.51540526017E+01 -0.94508296836E+01  0.12721609463E+02  0.51100000000E-03 0.  1.
         12    1    3    3    0    0 -0.13230654091E+02 -0.17152237388E+02  0.24093695990E+02  0.32399932740E+02  0.00000000000E+00 0. -1.
</event>
<event>
 7    1  0.2641045E-013  0.7246154E+02  0.7816164E-02  0.1226708E+00
        -11   -1    0    0    0    0  0.00000000000E+00  0.00000000000E+00  0.45593999997E+02  0.45594000000E+02  0.51100000000E-03 0.  1.
         11   -1    0    0    0    0 -0.00000000000E+00 -0.00000000000E+00 -0.45593999997E+02  0.45594000000E+02  0.51100000000E-03 0. -1.
    9900012    2    1    2    0    0  0.14247680757E+02 -0.89320708889E+01 -0.82402620449E+01  0.72461542356E+02  0.69999963606E+02 0.  0.
        -12    1    1    2    0    0 -0.14247680757E+02  0.89320708889E+01  0.82402620449E+01  0.18726457644E+02  0.00000000000E+00 0.  1.
         11    1    3    3    0    0 -0.85992527931E+00  0.11722213953E+02 -0.70053555465E+01  0.13683010562E+02  0.51100000000E-03 0. -1.
        -11    1    3    3    0    0  0.19127927683E+01  0.96462933011E+01 -0.18899533514E+02  0.21304978712E+02  0.51100000000E-03 0.  1.
        -12    1    3    3    0    0  0.13194813268E+02 -0.30300578143E+02  0.17664627016E+02  0.37473553082E+02  0.00000000000E+00 0.  1.
</event>
<event>
 7    1  0.2641045E-013  0.7246158E+02  0.7816164E-02  0.1226708E+00
        -11   -1    0    0    0    0  0.00000000000E+00  0.00000000000E+00  0.45593999997E+02  0.45594000000E+02  0.51100000000E-03 0.  1.
         11   -1    0    0    0    0 -0.00000000000E+00 -0.00000000000E+00 -0.45593999997E+02  0.45594000000E+02  0.51100000000E-03 0. -1.
    9900012    2    1    2    0    0 -0.45431315596E+01 -0.58540915196E+01 -0.17197915839E+02  0.72461581733E+02  0.70000014901E+02 0.  0.
        -12    1    1    2    0    0  0.45431315596E+01  0.58540915196E+01  0.17197915839E+02  0.18726418267E+02  0.00000000000E+00 0.  1.
         11    1    3    3    0    0  0.10550013423E+02  0.26320562732E+01 -0.93288203337E+01  0.14326806780E+02  0.51100000000E-03 0. -1.
        -11    1    3    3    0    0 -0.28370718342E+01  0.12776440195E+02  0.18144093889E+02  0.22371735381E+02  0.51100000000E-03 0.  1.
         12    1    3    3    0    0 -0.12256073148E+02 -0.21262587988E+02 -0.26013189394E+02  0.35763039572E+02  0.00000000000E+00 0. -1.
</event>
<event>
 7    1  0.2641045E-013  0.7246163E+02  0.7816164E-02  0.1226708E+00
        -11   -1    0    0    0    0  0.00000000000E+00  0.00000000000E+00  0.45593999997E+02  0.45594000000E+02  0.51100000000E-03 0. -1.
         11   -1    0    0    0    0 -0.00000000000E+00 -0.00000000000E+00 -0.45593999997E+02  0.45594000000E+02  0.51100000000E-03 0.  1.
    9900012    2    1    2    0    0 -0.96349651460E+01  0.13993788544E+02 -0.78751769323E+01  0.72461626008E+02  0.70000072577E+02 0.  0.
        -12    1    1    2    0    0  0.96349651460E+01 -0.13993788544E+02  0.78751769323E+01  0.18726373992E+02  0.00000000000E+00 0.  1.
         11    1    3    3    0    0 -0.81306108258E+01 -0.74560092852E+01  0.21327390853E+02  0.24011591111E+02  0.51100000000E-03 0. -1.
        -11    1    3    3    0    0  0.66908745748E+00 -0.51564773702E+01  0.34755691227E+01  0.62543199377E+01  0.51100000000E-03 0.  1.
         12    1    3    3    0    0 -0.21734417777E+01  0.26606275199E+02 -0.32678136908E+02  0.42195714959E+02  0.00000000000E+00 0. -1.
</event>
<event>
 7    1  0.2641045E-013  0.7246156E+02  0.7816164E-02  0.1226708E+00
        -11   -1    0    0    0    0  0.00000000000E+00  0.00000000000E+00  0.45593999997E+02  0.45594000000E+02  0.51100000000E-03 0.  1.
         11   -1    0    0    0    0 -0.00000000000E+00 -0.00000000000E+00 -0.45593999997E+02  0.45594000000E+02  0.51100000000E-03 0. -1.
    9900012    2    1    2    0    0 -0.50005671326E+01 -0.47089307301E+01 -0.17421251684E+02  0.72461555850E+02  0.69999981183E+02 0.  0.
        -12    1    1    2    0    0  0.50005671326E+01  0.47089307301E+01  0.17421251684E+02  0.18726444150E+02  0.00000000000E+00 0.  1.
         11    1    3    3    0    0  0.61126936046E+01 -0.61550407976E+01 -0.11946643810E+02  0.14763869714E+02  0.51100000000E-03 0. -1.
        -11    1    3    3    0    0 -0.32694669078E+02 -0.40187043863E+01 -0.11055178738E+02  0.34746342948E+02  0.51100000000E-03 0.  1.
         12    1    3    3    0    0  0.21581408341E+02  0.54648144538E+01  0.55805708638E+01  0.22951343188E+02  0.00000000000E+00 0. -1.
</event>
<event>
 7    1  0.2641045E-013  0.7246163E+02  0.7816164E-02  0.1226708E+00
        -11   -1    0    0    0    0  0.00000000000E+00  0.00000000000E+00  0.45593999997E+02  0.45594000000E+02  0.51100000000E-03 0. -1.
         11   -1    0    0    0    0 -0.00000000000E+00 -0.00000000000E+00 -0.45593999997E+02  0.45594000000E+02  0.51100000000E-03 0.  1.
    9900012    2    1    2    0    0  0.69902363320E+01  0.10832161677E+02 -0.13582262835E+02  0.72461628374E+02  0.70000075659E+02 0.  0.
        -12    1    1    2    0    0 -0.69902363320E+01 -0.10832161677E+02  0.13582262835E+02  0.18726371626E+02  0.00000000000E+00 0.  1.
         11    1    3    3    0    0 -0.16602991494E+02 -0.45817790940E+00  0.18338215765E+02  0.24741855452E+02  0.51100000000E-03 0. -1.
        -11    1    3    3    0    0 -0.20832601271E+01 -0.45929704659E+01 -0.66602469320E+01  0.83542946988E+01  0.51100000000E-03 0.  1.
        -12    1    3    3    0    0  0.25676487953E+02  0.15883310052E+02 -0.25260231667E+02  0.39365478223E+02  0.00000000000E+00 0.  1.
</event>
<event>
 7    1  0.2641045E-013  0.7246159E+02  0.7816164E-02  0.1226708E+00
        -11   -1    0    0    0    0  0.00000000000E+00  0.00000000000E+00  0.45593999997E+02  0.45594000000E+02  0.51100000000E-03 0.  1.
         11   -1    0    0    0    0 -0.00000000000E+00 -0.00000000000E+00 -0.45593999997E+02  0.45594000000E+02  0.51100000000E-03 0. -1.
    9900012    2    1    2    0    0  0.13883667065E+02  0.97604452744E+00  0.12528744980E+02  0.72461592847E+02  0.70000029379E+02 0.  0.
        -12    1    1    2    0    0 -0.13883667065E+02 -0.97604452744E+00 -0.12528744980E+02  0.18726407153E+02  0.00000000000E+00 0.  1.
         11    1    3    3    0    0 -0.11730370460E+02 -0.44098697251E+01 -0.73878184085E-01  0.12532118750E+02  0.51100000000E-03 0. -1.
        -11    1    3    3    0    0 -0.70499169220E+01  0.17496391428E+02 -0.68028652034E+01  0.20052531432E+02  0.51100000000E-03 0.  1.
         12    1    3    3    0    0  0.32663954447E+02 -0.12110477175E+02  0.19405488368E+02  0.39876942665E+02  0.00000000000E+00 0. -1.
</event>
<event>
 7    1  0.2641045E-013  0.7246156E+02  0.7816164E-02  0.1226708E+00
        -11   -1    0    0    0    0  0.00000000000E+00  0.00000000000E+00  0.45593999997E+02  0.45594000000E+02  0.51100000000E-03 0. -1.
         11   -1    0    0    0    0 -0.00000000000E+00 -0.00000000000E+00 -0.45593999997E+02  0.45594000000E+02  0.51100000000E-03 0.  1.
    9900012    2    1    2    0    0  0.12657288143E+01 -0.14661694921E+02  0.11580682546E+02  0.72461559451E+02  0.69999985875E+02 0.  0.
        -12    1    1    2    0    0 -0.12657288143E+01  0.14661694921E+02 -0.11580682546E+02  0.18726440549E+02  0.00000000000E+00 0.  1.
         11    1    3    3    0    0  0.24770244541E+01 -0.20985215417E+01  0.38349685068E+01  0.50245822231E+01  0.51100000000E-03 0. -1.
        -11    1    3    3    0    0  0.12417932144E+02 -0.34615734302E+02  0.16176405161E+02  0.40176239050E+02  0.51100000000E-03 0.  1.
        -12    1    3    3    0    0 -0.13629227784E+02  0.22052560922E+02 -0.84306911217E+01  0.27260738178E+02  0.00000000000E+00 0.  1.
</event>
<event>
 7    1  0.2641045E-013  0.7246156E+02  0.7816164E-02  0.1226708E+00
        -11   -1    0    0    0    0  0.00000000000E+00  0.00000000000E+00  0.45593999997E+02  0.45594000000E+02  0.51100000000E-03 0.  1.
         11   -1    0    0    0    0 -0.00000000000E+00 -0.00000000000E+00 -0.45593999997E+02  0.45594000000E+02  0.51100000000E-03 0. -1.
    9900012    2    1    2    0    0 -0.75081492206E+00  0.18394261215E+02 -0.34303201187E+01  0.72461557070E+02  0.69999982773E+02 0.  0.
        -12    1    1    2    0    0  0.75081492206E+00 -0.18394261215E+02  0.34303201187E+01  0.18726442930E+02  0.00000000000E+00 0.  1.
         11    1    3    3    0    0  0.62880071507E+01  0.24282464664E+02 -0.15747181170E+02  0.29616732419E+02  0.51100000000E-03 0. -1.
        -11    1    3    3    0    0 -0.11364777276E+01  0.12258108227E+02 -0.82264984738E+01  0.14806352567E+02  0.51100000000E-03 0.  1.
        -12    1    3    3    0    0 -0.59023443452E+01 -0.18146311676E+02  0.20543359525E+02  0.28038472084E+02  0.00000000000E+00 0.  1.
</event>
<event>
 7    1  0.2641045E-013  0.7246158E+02  0.7816164E-02  0.1226708E+00
        -11   -1    0    0    0    0  0.00000000000E+00  0.00000000000E+00  0.45593999997E+02  0.45594000000E+02  0.51100000000E-03 0. -1.
         11   -1    0    0    0    0 -0.00000000000E+00 -0.00000000000E+00 -0.45593999997E+02  0.45594000000E+02  0.51100000000E-03 0.  1.
    9900012    2    1    2    0    0 -0.30472528728E+01  0.36546602841E+01  0.18111783088E+02  0.72461575395E+02  0.70000006644E+02 0.  0.
        -12    1    1    2    0    0  0.30472528728E+01 -0.36546602841E+01 -0.18111783088E+02  0.18726424605E+02  0.00000000000E+00 0.  1.
         11    1    3    3    0    0  0.13622862876E+02  0.16171171338E+02  0.45764809327E+00  0.21149435392E+02  0.51100000000E-03 0. -1.
        -11    1    3    3    0    0 -0.13754461066E+02 -0.74368900973E+01 -0.12857338903E+02  0.20243608806E+02  0.51100000000E-03 0.  1.
         12    1    3    3    0    0 -0.29156546827E+01 -0.50796209563E+01  0.30511473898E+02  0.31068531197E+02  0.00000000000E+00 0. -1.
</event>
<event>
 7    1  0.2641045E-013  0.7246159E+02  0.7816164E-02  0.1226708E+00
        -11   -1    0    0    0    0  0.00000000000E+00  0.00000000000E+00  0.45593999997E+02  0.45594000000E+02  0.51100000000E-03 0. -1.
         11   -1    0    0    0    0 -0.00000000000E+00 -0.00000000000E+00 -0.45593999997E+02  0.45594000000E+02  0.51100000000E-03 0.  1.
    9900012    2    1    2    0    0  0.15253231687E+02 -0.82865961598E+01  0.70249435776E+01  0.72461585899E+02  0.70000020328E+02 0.  0.
        -12    1    1    2    0    0 -0.15253231687E+02  0.82865961598E+01 -0.70249435776E+01  0.18726414101E+02  0.00000000000E+00 0.  1.
         11    1    3    3    0    0  0.12508914641E+01  0.72902845091E+01  0.19856011030E+02  0.21189010170E+02  0.51100000000E-03 0. -1.
        -11    1    3    3    0    0  0.57802039555E+01  0.86692299068E+01  0.11802580021E+02  0.15743798791E+02  0.51100000000E-03 0.  1.
        -12    1    3    3    0    0  0.82221362672E+01 -0.24246110576E+02 -0.24633647474E+02  0.35528776938E+02  0.00000000000E+00 0.  1.
</event>
<event>
 7    1  0.2641045E-013  0.7246160E+02  0.7816164E-02  0.1226708E+00
        -11   -1    0    0    0    0  0.00000000000E+00  0.00000000000E+00  0.45593999997E+02  0.45594000000E+02  0.51100000000E-03 0.  1.
         11   -1    0    0    0    0 -0.00000000000E+00 -0.00000000000E+00 -0.45593999997E+02  0.45594000000E+02  0.51100000000E-03 0. -1.
    9900012    2    1    2    0    0 -0.52576273487E+01 -0.13277000467E+02 -0.12114314705E+02  0.72461601320E+02  0.70000040417E+02 0.  0.
        -12    1    1    2    0    0  0.52576273487E+01  0.13277000467E+02  0.12114314705E+02  0.18726398680E+02  0.00000000000E+00 0.  1.
         11    1    3    3    0    0  0.27680408371E+01 -0.19629085318E+02 -0.36493075812E+01  0.20156400635E+02  0.51100000000E-03 0. -1.
        -11    1    3    3    0    0  0.12445476918E+02  0.12390874312E+01  0.15798864544E+02  0.20150170087E+02  0.51100000000E-03 0.  1.
         12    1    3    3    0    0 -0.20471145104E+02  0.51129974193E+01 -0.24263871667E+02  0.32155030598E+02  0.00000000000E+00 0. -1.
</event>
<event>
 7    1  0.2641045E-013  0.7246152E+02  0.7816164E-02  0.1226708E+00
        -11   -1    0    0    0    0  0.00000000000E+00  0.00000000000E+00  0.45593999997E+02  0.45594000000E+02  0.51100000000E-03 0.  1.
         11   -1    0    0    0    0 -0.00000000000E+00 -0.00000000000E+00 -0.45593999997E+02  0.45594000000E+02  0.51100000000E-03 0. -1.
    9900012    2    1    2    0    0  0.14009706280E+02 -0.11054317645E+02  0.56754895969E+01  0.72461521666E+02  0.69999936652E+02 0.  0.
        -12    1    1    2    0    0 -0.14009706280E+02  0.11054317645E+02 -0.56754895969E+01  0.18726478334E+02  0.00000000000E+00 0.  1.
         11    1    3    3    0    0  0.54317982350E+01  0.44219794451E+01 -0.72478692316E+01  0.10079183644E+02  0.51100000000E-03 0. -1.
        -11    1    3    3    0    0 -0.18065021288E+02 -0.48493767572E+01  0.25030998824E+02  0.31247597531E+02  0.51100000000E-03 0.  1.
         12    1    3    3    0    0  0.26642929333E+02 -0.10626920332E+02 -0.12107639995E+02  0.31134740491E+02  0.00000000000E+00 0. -1.
</event>
<event>
 7    1  0.2641045E-013  0.7246155E+02  0.7816164E-02  0.1226708E+00
        -11   -1    0    0    0    0  0.00000000000E+00  0.00000000000E+00  0.45593999997E+02  0.45594000000E+02  0.51100000000E-03 0. -1.
         11   -1    0    0    0    0 -0.00000000000E+00 -0.00000000000E+00 -0.45593999997E+02  0.45594000000E+02  0.51100000000E-03 0.  1.
    9900012    2    1    2    0    0 -0.84204453642E+01  0.15875604294E+02 -0.52669784647E+01  0.72461554155E+02  0.69999978976E+02 0.  0.
        -12    1    1    2    0    0  0.84204453642E+01 -0.15875604294E+02  0.52669784647E+01  0.18726445845E+02  0.00000000000E+00 0.  1.
         11    1    3    3    0    0  0.12599311445E+02 -0.13638825407E+02  0.79037491191E+01  0.20179927100E+02  0.51100000000E-03 0. -1.
        -11    1    3    3    0    0 -0.94275917896E+01  0.10708302235E+01  0.10016544100E+02  0.13797004033E+02  0.51100000000E-03 0.  1.
        -12    1    3    3    0    0 -0.11592165020E+02  0.28443599477E+02 -0.23187271684E+02  0.38484623022E+02  0.00000000000E+00 0.  1.
</event>
<event>
 7    1  0.2641045E-013  0.7246156E+02  0.7816164E-02  0.1226708E+00
        -11   -1    0    0    0    0  0.00000000000E+00  0.00000000000E+00  0.45593999997E+02  0.45594000000E+02  0.51100000000E-03 0. -1.
         11   -1    0    0    0    0 -0.00000000000E+00 -0.00000000000E+00 -0.45593999997E+02  0.45594000000E+02  0.51100000000E-03 0.  1.
    9900012    2    1    2    0    0 -0.17746058203E+02 -0.10083845234E+01  0.58940789234E+01  0.72461559136E+02  0.69999985464E+02 0.  0.
        -12    1    1    2    0    0  0.17746058203E+02  0.10083845234E+01 -0.58940789234E+01  0.18726440864E+02  0.00000000000E+00 0.  1.
         11    1    3    3    0    0  0.15455439916E+02  0.12682494962E+02  0.30285167589E+01  0.20220984533E+02  0.51100000000E-03 0. -1.
        -11    1    3    3    0    0 -0.36919946769E+01 -0.15503949757E+02 -0.11220698092E+02  0.19491212088E+02  0.51100000000E-03 0.  1.
         12    1    3    3    0    0 -0.29509503441E+02  0.18130702710E+01  0.14086260256E+02  0.32749362515E+02  0.00000000000E+00 0. -1.
</event>
<event>
 7    1  0.2641045E-013  0.7246098E+02  0.7816164E-02  0.1226710E+00
        -11   -1    0    0    0    0  0.00000000000E+00  0.00000000000E+00  0.45593999997E+02  0.45594000000E+02  0.51100000000E-03 0.  1.
         11   -1    0    0    0    0 -0.00000000000E+00 -0.00000000000E+00 -0.45593999997E+02  0.45594000000E+02  0.51100000000E-03 0. -1.
    9900012    2    1    2    0    0  0.17311118151E+02  0.69513951345E+01 -0.16445705299E+01  0.72460978929E+02  0.69999229633E+02 0.  0.
        -12    1    1    2    0    0 -0.17311118151E+02 -0.69513951345E+01  0.16445705299E+01  0.18727021071E+02  0.00000000000E+00 0.  1.
         11    1    3    3    0    0  0.25098011563E+02 -0.41339728116E+01 -0.57881490193E+01  0.26086444467E+02  0.51100000000E-03 0. -1.
        -11    1    3    3    0    0  0.35817976688E+01 -0.14734112826E+02  0.91675393727E+01  0.17719117746E+02  0.51100000000E-03 0.  1.
        -12    1    3    3    0    0 -0.11368691080E+02  0.25819480772E+02 -0.50239608834E+01  0.28655416716E+02  0.00000000000E+00 0.  1.
</event>
<event>
 7    1  0.2641045E-013  0.7246164E+02  0.7816164E-02  0.1226708E+00
        -11   -1    0    0    0    0  0.00000000000E+00  0.00000000000E+00  0.45593999997E+02  0.45594000000E+02  0.51100000000E-03 0.  1.
         11   -1    0    0    0    0 -0.00000000000E+00 -0.00000000000E+00 -0.45593999997E+02  0.45594000000E+02  0.51100000000E-03 0. -1.
    9900012    2    1    2    0    0  0.10700381291E+01  0.17417380440E+02  0.67945826837E+01  0.72461642190E+02  0.70000093657E+02 0.  0.
        -12    1    1    2    0    0 -0.10700381291E+01 -0.17417380440E+02 -0.67945826837E+01  0.18726357810E+02  0.00000000000E+00 0.  1.
         11    1    3    3    0    0  0.11357368469E+02 -0.20418188575E+02 -0.63282983944E+01  0.24206189375E+02  0.51100000000E-03 0. -1.
        -11    1    3    3    0    0 -0.82401631880E+01  0.30371122901E+01  0.99218189416E+01  0.13250163463E+02  0.51100000000E-03 0.  1.
        -12    1    3    3    0    0 -0.20471671520E+01  0.34798456725E+02  0.32010621364E+01  0.35005289352E+02  0.00000000000E+00 0.  1.
</event>
<event>
 7    1  0.2641045E-013  0.7246147E+02  0.7816164E-02  0.1226708E+00
        -11   -1    0    0    0    0  0.00000000000E+00  0.00000000000E+00  0.45593999997E+02  0.45594000000E+02  0.51100000000E-03 0. -1.
         11   -1    0    0    0    0 -0.00000000000E+00 -0.00000000000E+00 -0.45593999997E+02  0.45594000000E+02  0.51100000000E-03 0.  1.
    9900012    2    1    2    0    0 -0.17566699977E+01  0.15393204566E+02  0.10518847209E+02  0.72461473816E+02  0.69999874320E+02 0.  0.
        -12    1    1    2    0    0  0.17566699977E+01 -0.15393204566E+02 -0.10518847209E+02  0.18726526184E+02  0.00000000000E+00 0.  1.
         11    1    3    3    0    0  0.85903080741E+01 -0.17833954495E+02  0.92044761506E+01  0.21830384953E+02  0.51100000000E-03 0.  1.
        -11    1    3    3    0    0 -0.13566138074E+01 -0.78988085317E+01  0.28494563365E+01  0.85059378624E+01  0.51100000000E-03 0. -1.
        -12    1    3    3    0    0 -0.89903642644E+01  0.41125967593E+02 -0.15350852784E+01  0.42125151001E+02  0.00000000000E+00 0.  1.
</event>
<event>
 7    1  0.2641045E-013  0.7246157E+02  0.7816164E-02  0.1226708E+00
        -11   -1    0    0    0    0  0.00000000000E+00  0.00000000000E+00  0.45593999997E+02  0.45594000000E+02  0.51100000000E-03 0. -1.
         11   -1    0    0    0    0 -0.00000000000E+00 -0.00000000000E+00 -0.45593999997E+02  0.45594000000E+02  0.51100000000E-03 0.  1.
    9900012    2    1    2    0    0  0.12639116611E+02  0.93116505379E+01  0.10209073628E+02  0.72461567109E+02  0.69999995851E+02 0.  0.
        -12    1    1    2    0    0 -0.12639116611E+02 -0.93116505379E+01 -0.10209073628E+02  0.18726432891E+02  0.00000000000E+00 0.  1.
         11    1    3    3    0    0  0.74152048038E+01 -0.16017808628E+02  0.95142882770E+00  0.17676557148E+02  0.51100000000E-03 0. -1.
        -11    1    3    3    0    0 -0.15815714106E+02  0.25895739649E+02 -0.28949649833E+01  0.30481255998E+02  0.51100000000E-03 0.  1.
         12    1    3    3    0    0  0.21039625914E+02 -0.56628048315E+00  0.12152609784E+02  0.24303753964E+02  0.00000000000E+00 0. -1.
</event>
<event>
 7    1  0.2641045E-013  0.7246158E+02  0.7816164E-02  0.1226708E+00
        -11   -1    0    0    0    0  0.00000000000E+00  0.00000000000E+00  0.45593999997E+02  0.45594000000E+02  0.51100000000E-03 0.  1.
         11   -1    0    0    0    0 -0.00000000000E+00 -0.00000000000E+00 -0.45593999997E+02  0.45594000000E+02  0.51100000000E-03 0. -1.
    9900012    2    1    2    0    0 -0.11264099414E+02 -0.14288415021E+02 -0.44317158690E+01  0.72461578960E+02  0.70000011289E+02 0.  0.
        -12    1    1    2    0    0  0.11264099414E+02  0.14288415021E+02  0.44317158690E+01  0.18726421040E+02  0.00000000000E+00 0.  1.
         11    1    3    3    0    0 -0.25665016105E+02 -0.17634016538E+02 -0.52361222898E+01  0.31576392572E+02  0.51100000000E-03 0. -1.
        -11    1    3    3    0    0 -0.10647694427E+02 -0.23689567404E+01  0.87592942687E+01  0.13989660074E+02  0.51100000000E-03 0.  1.
        -12    1    3    3    0    0  0.25048611118E+02  0.57145582576E+01 -0.79548878479E+01  0.26895526314E+02  0.00000000000E+00 0.  1.
</event>
<event>
 7    1  0.2641045E-013  0.7246149E+02  0.7816164E-02  0.1226708E+00
        -11   -1    0    0    0    0  0.00000000000E+00  0.00000000000E+00  0.45593999997E+02  0.45594000000E+02  0.51100000000E-03 0.  1.
         11   -1    0    0    0    0 -0.00000000000E+00 -0.00000000000E+00 -0.45593999997E+02  0.45594000000E+02  0.51100000000E-03 0. -1.
    9900012    2    1    2    0    0  0.68957198563E+01  0.15623049863E+02 -0.76844954803E+01  0.72461491779E+02  0.69999897719E+02 0.  0.
        -12    1    1    2    0    0 -0.68957198563E+01 -0.15623049863E+02  0.76844954803E+01  0.18726508221E+02  0.00000000000E+00 0.  1.
         11    1    3    3    0    0  0.21362713733E+02  0.12133000890E+02 -0.16467007917E+02  0.29575963191E+02  0.51100000000E-03 0. -1.
        -11    1    3    3    0    0  0.88880159513E+01 -0.75005689361E+01 -0.60563124719E+01  0.13112371370E+02  0.51100000000E-03 0.  1.
        -12    1    3    3    0    0 -0.23355009828E+02  0.10990617909E+02  0.14838824909E+02  0.29773157219E+02  0.00000000000E+00 0.  1.
</event>
<event>
 7    1  0.2641045E-013  0.7246152E+02  0.7816164E-02  0.1226708E+00
        -11   -1    0    0    0    0  0.00000000000E+00  0.00000000000E+00  0.45593999997E+02  0.45594000000E+02  0.51100000000E-03 0.  1.
         11   -1    0    0    0    0 -0.00000000000E+00 -0.00000000000E+00 -0.45593999997E+02  0.45594000000E+02  0.51100000000E-03 0. -1.
    9900012    2    1    2    0    0  0.15350474300E+02 -0.78329676506E+01 -0.73272409543E+01  0.72461523998E+02  0.69999939691E+02 0.  0.
        -12    1    1    2    0    0 -0.15350474300E+02  0.78329676506E+01  0.73272409543E+01  0.18726476002E+02  0.00000000000E+00 0.  1.
         11    1    3    3    0    0  0.23994082294E+02 -0.51246868079E+01 -0.20658334339E+02  0.32074057709E+02  0.51100000000E-03 0. -1.
        -11    1    3    3    0    0 -0.16743376374E+01 -0.17151328255E+02  0.16704120491E+02  0.23999981439E+02  0.51100000000E-03 0.  1.
        -12    1    3    3    0    0 -0.69692703566E+01  0.14443047412E+02 -0.33730271063E+01  0.16387484850E+02  0.00000000000E+00 0.  1.
</event>
<event>
 7    1  0.2641045E-013  0.7246150E+02  0.7816164E-02  0.1226708E+00
        -11   -1    0    0    0    0  0.00000000000E+00  0.00000000000E+00  0.45593999997E+02  0.45594000000E+02  0.51100000000E-03 0. -1.
         11   -1    0    0    0    0 -0.00000000000E+00 -0.00000000000E+00 -0.45593999997E+02  0.45594000000E+02  0.51100000000E-03 0.  1.
    9900012    2    1    2    0    0  0.17478099112E+02  0.51815496676E+01 -0.42836094543E+01  0.72461502317E+02  0.69999911446E+02 0.  0.
        -12    1    1    2    0    0 -0.17478099112E+02 -0.51815496676E+01  0.42836094543E+01  0.18726497683E+02  0.00000000000E+00 0.  1.
         11    1    3    3    0    0 -0.83271078010E+01  0.76025486993E+00  0.38237317771E+01  0.91945438583E+01  0.51100000000E-03 0. -1.
        -11    1    3    3    0    0 -0.58249053844E+01  0.18777343891E+02 -0.18514694663E+02  0.27005778734E+02  0.51100000000E-03 0.  1.
         12    1    3    3    0    0  0.31630112298E+02 -0.14356049093E+02  0.10407353431E+02  0.36261179724E+02  0.00000000000E+00 0. -1.
</event>
<event>
 7    1  0.2641045E-013  0.7246158E+02  0.7816164E-02  0.1226708E+00
        -11   -1    0    0    0    0  0.00000000000E+00  0.00000000000E+00  0.45593999997E+02  0.45594000000E+02  0.51100000000E-03 0. -1.
         11   -1    0    0    0    0 -0.00000000000E+00 -0.00000000000E+00 -0.45593999997E+02  0.45594000000E+02  0.51100000000E-03 0.  1.
    9900012    2    1    2    0    0  0.14605119939E+02 -0.53332609091E+01  0.10436744036E+02  0.72461579455E+02  0.70000011934E+02 0.  0.
        -12    1    1    2    0    0 -0.14605119939E+02  0.53332609091E+01 -0.10436744036E+02  0.18726420545E+02  0.00000000000E+00 0.  1.
         11    1    3    3    0    0  0.10098739586E+02 -0.21400064890E+02  0.21105439773E+02  0.31707836678E+02  0.51100000000E-03 0. -1.
        -11    1    3    3    0    0  0.74169790765E+01 -0.10044370903E+02 -0.67390958825E+01  0.14188600320E+02  0.51100000000E-03 0.  1.
        -12    1    3    3    0    0 -0.29105987234E+01  0.26111174884E+02 -0.39295998547E+01  0.26565142457E+02  0.00000000000E+00 0.  1.
</event>
<event>
 7    1  0.2641045E-013  0.7246163E+02  0.7816164E-02  0.1226708E+00
        -11   -1    0    0    0    0  0.00000000000E+00  0.00000000000E+00  0.45593999997E+02  0.45594000000E+02  0.51100000000E-03 0.  1.
         11   -1    0    0    0    0 -0.00000000000E+00 -0.00000000000E+00 -0.45593999997E+02  0.45594000000E+02  0.51100000000E-03 0. -1.
    9900012    2    1    2    0    0 -0.85734633202E+01 -0.11943271044E+02 -0.11598753505E+02  0.72461626101E+02  0.70000072699E+02 0.  0.
        -12    1    1    2    0    0  0.85734633202E+01  0.11943271044E+02  0.11598753505E+02  0.18726373899E+02  0.00000000000E+00 0.  1.
         11    1    3    3    0    0 -0.31769653937E+02  0.82886554046E+01 -0.15797828257E+02  0.36436027467E+02  0.51100000000E-03 0. -1.
        -11    1    3    3    0    0  0.73947413079E+01 -0.67137080382E+01  0.10306869936E+02  0.14352269603E+02  0.51100000000E-03 0.  1.
        -12    1    3    3    0    0  0.15801449309E+02 -0.13518218410E+02 -0.61077951836E+01  0.21673329031E+02  0.00000000000E+00 0.  1.
</event>
<event>
 7    1  0.2641045E-013  0.7246157E+02  0.7816164E-02  0.1226708E+00
        -11   -1    0    0    0    0  0.00000000000E+00  0.00000000000E+00  0.45593999997E+02  0.45594000000E+02  0.51100000000E-03 0. -1.
         11   -1    0    0    0    0 -0.00000000000E+00 -0.00000000000E+00 -0.45593999997E+02  0.45594000000E+02  0.51100000000E-03 0.  1.
    9900012    2    1    2    0    0 -0.17824263685E+02  0.86808324011E+00  0.56763612664E+01  0.72461574242E+02  0.70000005143E+02 0.  0.
        -12    1    1    2    0    0  0.17824263685E+02 -0.86808324011E+00 -0.56763612664E+01  0.18726425758E+02  0.00000000000E+00 0.  1.
         11    1    3    3    0    0  0.10629185459E+01  0.81837694320E+01  0.15222033832E+02  0.17315143435E+02  0.51100000000E-03 0. -1.
        -11    1    3    3    0    0  0.17416387933E+02 -0.95980034708E+00 -0.24538642457E+01  0.17614574514E+02  0.51100000000E-03 0.  1.
         12    1    3    3    0    0 -0.36303570164E+02 -0.63558858448E+01 -0.70918083196E+01  0.37531856292E+02  0.00000000000E+00 0. -1.
</event>
<event>
 7    1  0.2641045E-013  0.7246151E+02  0.7816164E-02  0.1226708E+00
        -11   -1    0    0    0    0  0.00000000000E+00  0.00000000000E+00  0.45593999997E+02  0.45594000000E+02  0.51100000000E-03 0.  1.
         11   -1    0    0    0    0 -0.00000000000E+00 -0.00000000000E+00 -0.45593999997E+02  0.45594000000E+02  0.51100000000E-03 0. -1.
    9900012    2    1    2    0    0 -0.10577280804E+02 -0.12939434677E+02  0.84482807051E+01  0.72461513788E+02  0.69999926390E+02 0.  0.
        -12    1    1    2    0    0  0.10577280804E+02  0.12939434677E+02 -0.84482807051E+01  0.18726486212E+02  0.00000000000E+00 0.  1.
         11    1    3    3    0    0  0.93985959162E+01 -0.16275882524E+02 -0.15713705925E+02  0.24498132812E+02  0.51100000000E-03 0. -1.
        -11    1    3    3    0    0  0.24062507723E+01 -0.80686061105E+01  0.21024520179E+02  0.22647801137E+02  0.51100000000E-03 0.  1.
        -12    1    3    3    0    0 -0.22382127493E+02  0.11405053957E+02  0.31374664513E+01  0.25315579839E+02  0.00000000000E+00 0.  1.
</event>
<event>
 7    1  0.2641045E-013  0.7246160E+02  0.7816164E-02  0.1226708E+00
        -11   -1    0    0    0    0  0.00000000000E+00  0.00000000000E+00  0.45593999997E+02  0.45594000000E+02  0.51100000000E-03 0.  1.
         11   -1    0    0    0    0 -0.00000000000E+00 -0.00000000000E+00 -0.45593999997E+02  0.45594000000E+02  0.51100000000E-03 0. -1.
    9900012    2    1    2    0    0  0.98225128458E+01  0.15877769856E+02  0.14466485197E+01  0.72461598153E+02  0.70000036291E+02 0.  0.
        -12    1    1    2    0    0 -0.98225128458E+01 -0.15877769856E+02 -0.14466485197E+01  0.18726401847E+02  0.00000000000E+00 0.  1.
         11    1    3    3    0    0 -0.16362420396E+02 -0.71988400921E+01 -0.48734502188E+01  0.18528427273E+02  0.51100000000E-03 0. -1.
        -11    1    3    3    0    0 -0.56692919178E+01 -0.54388984319E+01  0.79126371123E+01  0.11150440051E+02  0.51100000000E-03 0.  1.
        -12    1    3    3    0    0  0.31854225160E+02  0.28515508380E+02 -0.15925383737E+01  0.42782730829E+02  0.00000000000E+00 0.  1.
</event>
<event>
 7    1  0.2641045E-013  0.7246153E+02  0.7816164E-02  0.1226708E+00
        -11   -1    0    0    0    0  0.00000000000E+00  0.00000000000E+00  0.45593999997E+02  0.45594000000E+02  0.51100000000E-03 0. -1.
         11   -1    0    0    0    0 -0.00000000000E+00 -0.00000000000E+00 -0.45593999997E+02  0.45594000000E+02  0.51100000000E-03 0.  1.
    9900012    2    1    2    0    0 -0.18452886658E+02  0.14033540876E+01  0.28639293186E+01  0.72461534240E+02  0.69999953033E+02 0.  0.
        -12    1    1    2    0    0  0.18452886658E+02 -0.14033540876E+01 -0.28639293186E+01  0.18726465760E+02  0.00000000000E+00 0.  1.
         11    1    3    3    0    0  0.19682649261E+02  0.20210205090E+01  0.86412437142E+01  0.21590791996E+02  0.51100000000E-03 0. -1.
        -11    1    3    3    0    0  0.47660419263E+01 -0.42735412038E+01  0.27674032872E+01  0.69740111327E+01  0.51100000000E-03 0.  1.
        -12    1    3    3    0    0 -0.42901577845E+02  0.36558747824E+01 -0.85447176828E+01  0.43896731112E+02  0.00000000000E+00 0.  1.
</event>
<event>
 7    1  0.2641045E-013  0.7246156E+02  0.7816164E-02  0.1226708E+00
        -11   -1    0    0    0    0  0.00000000000E+00  0.00000000000E+00  0.45593999997E+02  0.45594000000E+02  0.51100000000E-03 0. -1.
         11   -1    0    0    0    0 -0.00000000000E+00 -0.00000000000E+00 -0.45593999997E+02  0.45594000000E+02  0.51100000000E-03 0.  1.
    9900012    2    1    2    0    0  0.13334475909E+02 -0.96402487195E+01  0.89407349608E+01  0.72461564547E+02  0.69999992513E+02 0.  0.
        -12    1    1    2    0    0 -0.13334475909E+02  0.96402487195E+01 -0.89407349608E+01  0.18726435453E+02  0.00000000000E+00 0.  1.
         11    1    3    3    0    0 -0.76919047717E+01 -0.51734962535E+01  0.19354804704E+02  0.21460170733E+02  0.51100000000E-03 0. -1.
        -11    1    3    3    0    0 -0.24101290386E+01 -0.17770442741E+02  0.66246318732E+01  0.19117612427E+02  0.51100000000E-03 0.  1.
        -12    1    3    3    0    0  0.23436509719E+02  0.13303690275E+02 -0.17038701616E+02  0.31883781387E+02  0.00000000000E+00 0.  1.
</event>
<event>
 7    1  0.2641045E-013  0.7246156E+02  0.7816164E-02  0.1226708E+00
        -11   -1    0    0    0    0  0.00000000000E+00  0.00000000000E+00  0.45593999997E+02  0.45594000000E+02  0.51100000000E-03 0.  1.
         11   -1    0    0    0    0 -0.00000000000E+00 -0.00000000000E+00 -0.45593999997E+02  0.45594000000E+02  0.51100000000E-03 0. -1.
    9900012    2    1    2    0    0 -0.15001678026E+02 -0.10830387473E+02 -0.28865324229E+01  0.72461555975E+02  0.69999981346E+02 0.  0.
        -12    1    1    2    0    0  0.15001678026E+02  0.10830387473E+02  0.28865324229E+01  0.18726444025E+02  0.00000000000E+00 0.  1.
         11    1    3    3    0    0 -0.12492322771E+02 -0.29308107806E+02 -0.10737968602E+02  0.33620340292E+02  0.51100000000E-03 0. -1.
        -11    1    3    3    0    0  0.11256957359E+02 -0.30692608503E+01  0.62145334035E+01  0.13219677637E+02  0.51100000000E-03 0.  1.
        -12    1    3    3    0    0 -0.13766312614E+02  0.21546981184E+02  0.16369027752E+01  0.25621538046E+02  0.00000000000E+00 0.  1.
</event>
<event>
 7    1  0.2641045E-013  0.7246156E+02  0.7816164E-02  0.1226708E+00
        -11   -1    0    0    0    0  0.00000000000E+00  0.00000000000E+00  0.45593999997E+02  0.45594000000E+02  0.51100000000E-03 0.  1.
         11   -1    0    0    0    0 -0.00000000000E+00 -0.00000000000E+00 -0.45593999997E+02  0.45594000000E+02  0.51100000000E-03 0. -1.
    9900012    2    1    2    0    0 -0.76225844988E+01  0.16716470000E+02 -0.36242955799E+01  0.72461556607E+02  0.69999982170E+02 0.  0.
        -12    1    1    2    0    0  0.76225844988E+01 -0.16716470000E+02  0.36242955799E+01  0.18726443393E+02  0.00000000000E+00 0.  1.
         11    1    3    3    0    0  0.14245454250E+02  0.19651561465E+02 -0.23287385058E+02  0.33636574408E+02  0.51100000000E-03 0. -1.
        -11    1    3    3    0    0 -0.85101986107E+01  0.49534825248E+01 -0.39187396651E+01  0.10597971048E+02  0.51100000000E-03 0.  1.
        -12    1    3    3    0    0 -0.13357840138E+02 -0.78885739900E+01  0.23581829143E+02  0.28227011151E+02  0.00000000000E+00 0.  1.
</event>
<event>
 7    1  0.2641045E-013  0.7246160E+02  0.7816164E-02  0.1226708E+00
        -11   -1    0    0    0    0  0.00000000000E+00  0.00000000000E+00  0.45593999997E+02  0.45594000000E+02  0.51100000000E-03 0.  1.
         11   -1    0    0    0    0 -0.00000000000E+00 -0.00000000000E+00 -0.45593999997E+02  0.45594000000E+02  0.51100000000E-03 0. -1.
    9900012    2    1    2    0    0 -0.47253701872E-01  0.17119465861E+02  0.75894532370E+01  0.72461597657E+02  0.70000035645E+02 0.  0.
        -12    1    1    2    0    0  0.47253701872E-01 -0.17119465861E+02 -0.75894532370E+01  0.18726402343E+02  0.00000000000E+00 0.  1.
         11    1    3    3    0    0  0.36134430103E+01 -0.77736951384E+01  0.38559557185E+01  0.93997713407E+01  0.51100000000E-03 0. -1.
        -11    1    3    3    0    0  0.11249617069E+02 -0.18365654856E+01  0.23851297403E+02  0.26435038208E+02  0.51100000000E-03 0.  1.
         12    1    3    3    0    0 -0.14910313781E+02  0.26729726485E+02 -0.20117799884E+02  0.36626788109E+02  0.00000000000E+00 0. -1.
</event>
<event>
 7    1  0.2641045E-013  0.7246156E+02  0.7816164E-02  0.1226708E+00
        -11   -1    0    0    0    0  0.00000000000E+00  0.00000000000E+00  0.45593999997E+02  0.45594000000E+02  0.51100000000E-03 0. -1.
         11   -1    0    0    0    0 -0.00000000000E+00 -0.00000000000E+00 -0.45593999997E+02  0.45594000000E+02  0.51100000000E-03 0.  1.
    9900012    2    1    2    0    0 -0.18227576782E+02  0.41620229270E+01  0.10547203504E+01  0.72461563468E+02  0.69999991107E+02 0.  0.
        -12    1    1    2    0    0  0.18227576782E+02 -0.41620229270E+01 -0.10547203504E+01  0.18726436532E+02  0.00000000000E+00 0.  1.
         11    1    3    3    0    0 -0.11042747356E+02 -0.34384527229E+01  0.17947684429E+01  0.11704119801E+02  0.51100000000E-03 0. -1.
        -11    1    3    3    0    0 -0.33372949112E+02  0.38650876864E+01 -0.49915073983E+01  0.33964802099E+02  0.51100000000E-03 0.  1.
         12    1    3    3    0    0  0.26188119686E+02  0.37353879635E+01  0.42514593058E+01  0.26792641568E+02  0.00000000000E+00 0. -1.
</event>
<event>
 7    1  0.2641045E-013  0.7246154E+02  0.7816164E-02  0.1226708E+00
        -11   -1    0    0    0    0  0.00000000000E+00  0.00000000000E+00  0.45593999997E+02  0.45594000000E+02  0.51100000000E-03 0.  1.
         11   -1    0    0    0    0 -0.00000000000E+00 -0.00000000000E+00 -0.45593999997E+02  0.45594000000E+02  0.51100000000E-03 0. -1.
    9900012    2    1    2    0    0 -0.39051629244E+01 -0.12365358939E+02 -0.13510284233E+02  0.72461543336E+02  0.69999964881E+02 0.  0.
        -12    1    1    2    0    0  0.39051629244E+01  0.12365358939E+02  0.13510284233E+02  0.18726456664E+02  0.00000000000E+00 0.  1.
         11    1    3    3    0    0 -0.51359518393E+01 -0.14424990437E+02 -0.36115558300E+02  0.39227438127E+02  0.51100000000E-03 0. -1.
        -11    1    3    3    0    0 -0.25290443001E+01  0.61598757999E+00 -0.48396505044E+01  0.54952454937E+01  0.51100000000E-03 0.  1.
        -12    1    3    3    0    0  0.37598332149E+01  0.14436439182E+01  0.27444924572E+02  0.27738859715E+02  0.00000000000E+00 0.  1.
</event>
<event>
 7    1  0.2641045E-013  0.7246163E+02  0.7816164E-02  0.1226708E+00
        -11   -1    0    0    0    0  0.00000000000E+00  0.00000000000E+00  0.45593999997E+02  0.45594000000E+02  0.51100000000E-03 0.  1.
         11   -1    0    0    0    0 -0.00000000000E+00 -0.00000000000E+00 -0.45593999997E+02  0.45594000000E+02  0.51100000000E-03 0. -1.
    9900012    2    1    2    0    0  0.13295181386E+02  0.92661471324E+01 -0.93836938599E+01  0.72461627121E+02  0.70000074027E+02 0.  0.
        -12    1    1    2    0    0 -0.13295181386E+02 -0.92661471324E+01  0.93836938599E+01  0.18726372879E+02  0.00000000000E+00 0.  1.
         11    1    3    3    0    0 -0.14093597661E+01  0.37422775859E+01  0.94621120711E+01  0.10272414594E+02  0.51100000000E-03 0. -1.
        -11    1    3    3    0    0  0.38108850910E+01  0.42081503214E+01  0.20536523930E+02  0.21306810876E+02  0.51100000000E-03 0.  1.
         12    1    3    3    0    0  0.10893656061E+02  0.13157192251E+01 -0.39382329861E+02  0.40882401651E+02  0.00000000000E+00 0. -1.
</event>
<event>
 7    1  0.2641045E-013  0.7246158E+02  0.7816164E-02  0.1226708E+00
        -11   -1    0    0    0    0  0.00000000000E+00  0.00000000000E+00  0.45593999997E+02  0.45594000000E+02  0.51100000000E-03 0.  1.
         11   -1    0    0    0    0 -0.00000000000E+00 -0.00000000000E+00 -0.45593999997E+02  0.45594000000E+02  0.51100000000E-03 0. -1.
    9900012    2    1    2    0    0 -0.10858507535E+01 -0.16925105368E+02 -0.79398096682E+01  0.72461579063E+02  0.70000011422E+02 0.  0.
        -12    1    1    2    0    0  0.10858507535E+01  0.16925105368E+02  0.79398096682E+01  0.18726420937E+02  0.00000000000E+00 0.  1.
         11    1    3    3    0    0  0.21822545725E+02 -0.15133022036E+02 -0.26209977721E+02  0.37312126584E+02  0.51100000000E-03 0. -1.
        -11    1    3    3    0    0  0.24835039640E+01  0.68427150957E-01 -0.15112213005E+01  0.29079656626E+01  0.51100000000E-03 0.  1.
        -12    1    3    3    0    0 -0.25391900442E+02 -0.18605104827E+01  0.19781389354E+02  0.32241486816E+02  0.00000000000E+00 0.  1.
</event>
<event>
 7    1  0.2641045E-013  0.7246162E+02  0.7816164E-02  0.1226708E+00
        -11   -1    0    0    0    0  0.00000000000E+00  0.00000000000E+00  0.45593999997E+02  0.45594000000E+02  0.51100000000E-03 0.  1.
         11   -1    0    0    0    0 -0.00000000000E+00 -0.00000000000E+00 -0.45593999997E+02  0.45594000000E+02  0.51100000000E-03 0. -1.
    9900012    2    1    2    0    0  0.56242657517E+01  0.16473926293E+02 -0.69032480449E+01  0.72461616304E+02  0.70000059936E+02 0.  0.
        -12    1    1    2    0    0 -0.56242657517E+01 -0.16473926293E+02  0.69032480449E+01  0.18726383696E+02  0.00000000000E+00 0.  1.
         11    1    3    3    0    0 -0.27813615312E+00 -0.37896747885E+01  0.50012139297E+01  0.62810139113E+01  0.51100000000E-03 0. -1.
        -11    1    3    3    0    0  0.56927348720E+01  0.25377306335E+01  0.24718864352E+02  0.25492539344E+02  0.51100000000E-03 0.  1.
         12    1    3    3    0    0  0.20966703282E+00  0.17725870448E+02 -0.36623326327E+02  0.40688063049E+02  0.00000000000E+00 0. -1.
</event>
<event>
 7    1  0.2641045E-013  0.7246202E+02  0.7816164E-02  0.1226707E+00
        -11   -1    0    0    0    0  0.00000000000E+00  0.00000000000E+00  0.45593999997E+02  0.45594000000E+02  0.51100000000E-03 0.  1.
         11   -1    0    0    0    0 -0.00000000000E+00 -0.00000000000E+00 -0.45593999997E+02  0.45594000000E+02  0.51100000000E-03 0. -1.
    9900012    2    1    2    0    0 -0.29577523081E+00 -0.85552749382E+01 -0.16654787914E+02  0.72462024119E+02  0.70000591188E+02 0.  0.
        -12    1    1    2    0    0  0.29577523081E+00  0.85552749382E+01  0.16654787914E+02  0.18725975881E+02  0.00000000000E+00 0.  1.
         11    1    3    3    0    0  0.15963331140E+02  0.34635334934E+01  0.76118369894E+01  0.18021211612E+02  0.51100000000E-03 0. -1.
        -11    1    3    3    0    0  0.19116819003E+01 -0.16221973104E+02  0.72091360264E+01  0.17854371498E+02  0.51100000000E-03 0.  1.
         12    1    3    3    0    0 -0.18170788271E+02  0.42031646721E+01 -0.31475760929E+02  0.36586441009E+02  0.00000000000E+00 0. -1.
</event>
<event>
 7    1  0.2641045E-013  0.7246150E+02  0.7816164E-02  0.1226708E+00
        -11   -1    0    0    0    0  0.00000000000E+00  0.00000000000E+00  0.45593999997E+02  0.45594000000E+02  0.51100000000E-03 0.  1.
         11   -1    0    0    0    0 -0.00000000000E+00 -0.00000000000E+00 -0.45593999997E+02  0.45594000000E+02  0.51100000000E-03 0. -1.
    9900012    2    1    2    0    0 -0.13942666730E+02 -0.11689696366E+02 -0.44311220776E+01  0.72461500072E+02  0.69999908523E+02 0.  0.
        -12    1    1    2    0    0  0.13942666730E+02  0.11689696366E+02  0.44311220776E+01  0.18726499928E+02  0.00000000000E+00 0.  1.
         11    1    3    3    0    0 -0.19080522788E+01  0.38851343242E+00  0.17360194859E+01  0.26087104291E+01  0.51100000000E-03 0. -1.
        -11    1    3    3    0    0 -0.30293446711E+02 -0.36877130850E+01  0.20277538784E+02  0.36639742369E+02  0.51100000000E-03 0.  1.
         12    1    3    3    0    0  0.18258832259E+02 -0.83904967133E+01 -0.26444680348E+02  0.33213047275E+02  0.00000000000E+00 0. -1.
</event>
<event>
 7    1  0.2641045E-013  0.7246161E+02  0.7816164E-02  0.1226708E+00
        -11   -1    0    0    0    0  0.00000000000E+00  0.00000000000E+00  0.45593999997E+02  0.45594000000E+02  0.51100000000E-03 0.  1.
         11   -1    0    0    0    0 -0.00000000000E+00 -0.00000000000E+00 -0.45593999997E+02  0.45594000000E+02  0.51100000000E-03 0. -1.
    9900012    2    1    2    0    0 -0.10258884522E+02 -0.38524698574E+01 -0.15185238444E+02  0.72461609471E+02  0.70000051035E+02 0.  0.
        -12    1    1    2    0    0  0.10258884522E+02  0.38524698574E+01  0.15185238444E+02  0.18726390529E+02  0.00000000000E+00 0.  1.
         11    1    3    3    0    0 -0.18163238582E+02  0.20685090257E+02 -0.82953656952E+01  0.28750465857E+02  0.51100000000E-03 0. -1.
        -11    1    3    3    0    0  0.61424795262E+01 -0.62441584496E+01 -0.19531113065E+02  0.21405231774E+02  0.51100000000E-03 0.  1.
        -12    1    3    3    0    0  0.17618745339E+01 -0.18293401664E+02  0.12641240316E+02  0.22305911841E+02  0.00000000000E+00 0.  1.
</event>
<event>
 7    1  0.2641045E-013  0.7246170E+02  0.7816164E-02  0.1226708E+00
        -11   -1    0    0    0    0  0.00000000000E+00  0.00000000000E+00  0.45593999997E+02  0.45594000000E+02  0.51100000000E-03 0.  1.
         11   -1    0    0    0    0 -0.00000000000E+00 -0.00000000000E+00 -0.45593999997E+02  0.45594000000E+02  0.51100000000E-03 0. -1.
    9900012    2    1    2    0    0 -0.13806581760E+02  0.73097382003E+01 -0.10325707562E+02  0.72461702739E+02  0.70000172534E+02 0.  0.
        -12    1    1    2    0    0  0.13806581760E+02 -0.73097382003E+01  0.10325707562E+02  0.18726297261E+02  0.00000000000E+00 0.  1.
         11    1    3    3    0    0  0.87219792969E+01 -0.45460371274E+01 -0.12784444492E+02  0.16130139418E+02  0.51100000000E-03 0. -1.
        -11    1    3    3    0    0  0.47764467297E+01 -0.15441347108E+02 -0.51813089749E+01  0.16973379358E+02  0.51100000000E-03 0.  1.
         12    1    3    3    0    0 -0.27305007786E+02  0.27297122436E+02  0.76400459045E+01  0.39358183963E+02  0.00000000000E+00 0. -1.
</event>
<event>
 7    1  0.2641045E-013  0.7246191E+02  0.7816164E-02  0.1226707E+00
        -11   -1    0    0    0    0  0.00000000000E+00  0.00000000000E+00  0.45593999997E+02  0.45594000000E+02  0.51100000000E-03 0. -1.
         11   -1    0    0    0    0 -0.00000000000E+00 -0.00000000000E+00 -0.45593999997E+02  0.45594000000E+02  0.51100000000E-03 0.  1.
    9900012    2    1    2    0    0  0.13837929117E+02  0.11436557802E+02  0.53275830184E+01  0.72461914520E+02  0.70000448416E+02 0.  0.
        -12    1    1    2    0    0 -0.13837929117E+02 -0.11436557802E+02 -0.53275830184E+01  0.18726085480E+02  0.00000000000E+00 0.  1.
         11    1    3    3    0    0  0.27929445276E+02  0.91557731750E+01  0.15217412980E+02  0.33097609490E+02  0.51100000000E-03 0. -1.
        -11    1    3    3    0    0  0.87406501491E+01  0.10431131698E+02 -0.14151315004E+01  0.13682473130E+02  0.51100000000E-03 0.  1.
        -12    1    3    3    0    0 -0.22832166309E+02 -0.81503470712E+01 -0.84746984609E+01  0.25681831900E+02  0.00000000000E+00 0.  1.
</event>
<event>
 7    1  0.2641045E-013  0.7246151E+02  0.7816164E-02  0.1226708E+00
        -11   -1    0    0    0    0  0.00000000000E+00  0.00000000000E+00  0.45593999997E+02  0.45594000000E+02  0.51100000000E-03 0.  1.
         11   -1    0    0    0    0 -0.00000000000E+00 -0.00000000000E+00 -0.45593999997E+02  0.45594000000E+02  0.51100000000E-03 0. -1.
    9900012    2    1    2    0    0  0.29261111789E+01 -0.51722098750E+01 -0.17758592242E+02  0.72461508603E+02  0.69999919635E+02 0.  0.
        -12    1    1    2    0    0 -0.29261111789E+01  0.51722098750E+01  0.17758592242E+02  0.18726491397E+02  0.00000000000E+00 0.  1.
         11    1    3    3    0    0  0.63788943365E+01  0.18798447066E+02  0.33635064962E+01  0.20134176946E+02  0.51100000000E-03 0. -1.
        -11    1    3    3    0    0  0.76645852398E+01 -0.25177908922E+02  0.22530692341E+01  0.26414944365E+02  0.51100000000E-03 0.  1.
         12    1    3    3    0    0 -0.11117368397E+02  0.12072519802E+01 -0.23375167973E+02  0.25912387292E+02  0.00000000000E+00 0. -1.
</event>
<event>
 7    1  0.2641045E-013  0.7246157E+02  0.7816164E-02  0.1226708E+00
        -11   -1    0    0    0    0  0.00000000000E+00  0.00000000000E+00  0.45593999997E+02  0.45594000000E+02  0.51100000000E-03 0. -1.
         11   -1    0    0    0    0 -0.00000000000E+00 -0.00000000000E+00 -0.45593999997E+02  0.45594000000E+02  0.51100000000E-03 0.  1.
    9900012    2    1    2    0    0  0.38984848108E+00  0.16193925771E+02 -0.93959542990E+01  0.72461570257E+02  0.69999999952E+02 0.  0.
        -12    1    1    2    0    0 -0.38984848108E+00 -0.16193925771E+02  0.93959542990E+01  0.18726429743E+02  0.00000000000E+00 0.  1.
         11    1    3    3    0    0  0.87851411567E+01 -0.62674065467E+01 -0.13020704567E+02  0.16911470594E+02  0.51100000000E-03 0. -1.
        -11    1    3    3    0    0 -0.19490457090E+02 -0.78737142078E+01  0.88899844941E+01  0.22823345889E+02  0.51100000000E-03 0.  1.
         12    1    3    3    0    0  0.11095164415E+02  0.30335046526E+02 -0.52652342257E+01  0.32726753774E+02  0.00000000000E+00 0. -1.
</event>
<event>
 7    1  0.2641045E-013  0.7246154E+02  0.7816164E-02  0.1226708E+00
        -11   -1    0    0    0    0  0.00000000000E+00  0.00000000000E+00  0.45593999997E+02  0.45594000000E+02  0.51100000000E-03 0.  1.
         11   -1    0    0    0    0 -0.00000000000E+00 -0.00000000000E+00 -0.45593999997E+02  0.45594000000E+02  0.51100000000E-03 0. -1.
    9900012    2    1    2    0    0  0.16133983894E+02 -0.88507809209E+01 -0.34696422511E+01  0.72461543406E+02  0.69999964973E+02 0.  0.
        -12    1    1    2    0    0 -0.16133983894E+02  0.88507809209E+01  0.34696422511E+01  0.18726456594E+02  0.00000000000E+00 0.  1.
         11    1    3    3    0    0  0.44217479994E+01  0.38903916199E+00  0.36570837187E+01  0.57513014550E+01  0.51100000000E-03 0. -1.
        -11    1    3    3    0    0  0.18544712151E+02 -0.21809389358E+02  0.20763355867E+02  0.35364852044E+02  0.51100000000E-03 0.  1.
         12    1    3    3    0    0 -0.68324762565E+01  0.12569569275E+02 -0.27890081837E+02  0.31345389907E+02  0.00000000000E+00 0. -1.
</event>
<event>
 7    1  0.2641045E-013  0.7246142E+02  0.7816164E-02  0.1226708E+00
        -11   -1    0    0    0    0  0.00000000000E+00  0.00000000000E+00  0.45593999997E+02  0.45594000000E+02  0.51100000000E-03 0. -1.
         11   -1    0    0    0    0 -0.00000000000E+00 -0.00000000000E+00 -0.45593999997E+02  0.45594000000E+02  0.51100000000E-03 0.  1.
    9900012    2    1    2    0    0  0.18522990399E+01  0.34252037630E+01  0.18317250933E+02  0.72461422249E+02  0.69999807143E+02 0.  0.
        -12    1    1    2    0    0 -0.18522990399E+01 -0.34252037630E+01 -0.18317250933E+02  0.18726577751E+02  0.00000000000E+00 0.  1.
         11    1    3    3    0    0 -0.15049485706E+02  0.22595185547E+02  0.14001949140E+02  0.30546423848E+02  0.51100000000E-03 0. -1.
        -11    1    3    3    0    0 -0.73471523176E+01 -0.15234618006E+02  0.38402241770E+01  0.17344208109E+02  0.51100000000E-03 0.  1.
         12    1    3    3    0    0  0.24248937064E+02 -0.39353637786E+01  0.47507761565E+00  0.24570790291E+02  0.00000000000E+00 0. -1.
</event>
<event>
 7    1  0.2641045E-013  0.7246161E+02  0.7816164E-02  0.1226708E+00
        -11   -1    0    0    0    0  0.00000000000E+00  0.00000000000E+00  0.45593999997E+02  0.45594000000E+02  0.51100000000E-03 0. -1.
         11   -1    0    0    0    0 -0.00000000000E+00 -0.00000000000E+00 -0.45593999997E+02  0.45594000000E+02  0.51100000000E-03 0.  1.
    9900012    2    1    2    0    0 -0.68201446114E+01  0.15361331425E+02  0.82578993540E+01  0.72461607464E+02  0.70000048420E+02 0.  0.
        -12    1    1    2    0    0  0.68201446114E+01 -0.15361331425E+02 -0.82578993540E+01  0.18726392536E+02  0.00000000000E+00 0.  1.
         11    1    3    3    0    0 -0.83989597419E+01  0.36117576821E+02  0.81831243362E+01  0.37973482910E+02  0.51100000000E-03 0. -1.
        -11    1    3    3    0    0 -0.39352616921E+00  0.65768681587E+01 -0.23064732911E+01  0.69806788299E+01  0.51100000000E-03 0.  1.
        -12    1    3    3    0    0  0.19723412997E+01 -0.27333113554E+02  0.23812483089E+01  0.27507445724E+02  0.00000000000E+00 0.  1.
</event>
<event>
 7    1  0.2641045E-013  0.7246156E+02  0.7816164E-02  0.1226708E+00
        -11   -1    0    0    0    0  0.00000000000E+00  0.00000000000E+00  0.45593999997E+02  0.45594000000E+02  0.51100000000E-03 0.  1.
         11   -1    0    0    0    0 -0.00000000000E+00 -0.00000000000E+00 -0.45593999997E+02  0.45594000000E+02  0.51100000000E-03 0. -1.
    9900012    2    1    2    0    0 -0.16659719239E+02  0.65196525607E+01  0.55342123916E+01  0.72461558228E+02  0.69999984281E+02 0.  0.
        -12    1    1    2    0    0  0.16659719239E+02 -0.65196525607E+01 -0.55342123916E+01  0.18726441772E+02  0.00000000000E+00 0.  1.
         11    1    3    3    0    0  0.37768512611E+01  0.50643004449E+00 -0.13473271255E+02  0.14001789722E+02  0.51100000000E-03 0. -1.
        -11    1    3    3    0    0  0.12388889798E+02 -0.94071637317E+01  0.15604186280E+02  0.22033382619E+02  0.51100000000E-03 0.  1.
         12    1    3    3    0    0 -0.32825460299E+02  0.15420386248E+02  0.34032973671E+01  0.36426385888E+02  0.00000000000E+00 0. -1.
</event>
<event>
 7    1  0.2641045E-013  0.7246165E+02  0.7816164E-02  0.1226708E+00
        -11   -1    0    0    0    0  0.00000000000E+00  0.00000000000E+00  0.45593999997E+02  0.45594000000E+02  0.51100000000E-03 0. -1.
         11   -1    0    0    0    0 -0.00000000000E+00 -0.00000000000E+00 -0.45593999997E+02  0.45594000000E+02  0.51100000000E-03 0.  1.
    9900012    2    1    2    0    0  0.18201209881E+02  0.44032419947E+01 -0.60892577826E-01  0.72461647202E+02  0.70000100187E+02 0.  0.
        -12    1    1    2    0    0 -0.18201209881E+02 -0.44032419947E+01  0.60892577826E-01  0.18726352798E+02  0.00000000000E+00 0.  1.
         11    1    3    3    0    0  0.98489315692E+01  0.11631137456E+02 -0.18132418971E+02  0.23686904179E+02  0.51100000000E-03 0. -1.
        -11    1    3    3    0    0  0.70277322875E+01  0.17984541231E+02  0.34977211586E+01  0.19623118966E+02  0.51100000000E-03 0.  1.
         12    1    3    3    0    0  0.13245460244E+01 -0.25212436692E+02  0.14573805235E+02  0.29151624057E+02  0.00000000000E+00 0. -1.
</event>
<event>
 7    1  0.2641045E-013  0.7246158E+02  0.7816164E-02  0.1226708E+00
        -11   -1    0    0    0    0  0.00000000000E+00  0.00000000000E+00  0.45593999997E+02  0.45594000000E+02  0.51100000000E-03 0.  1.
         11   -1    0    0    0    0 -0.00000000000E+00 -0.00000000000E+00 -0.45593999997E+02  0.45594000000E+02  0.51100000000E-03 0. -1.
    9900012    2    1    2    0    0 -0.72158910663E+01  0.13966789175E+02 -0.10175388259E+02  0.72461579895E+02  0.70000012506E+02 0.  0.
        -12    1    1    2    0    0  0.72158910663E+01 -0.13966789175E+02  0.10175388259E+02  0.18726420105E+02  0.00000000000E+00 0.  1.
         11    1    3    3    0    0 -0.61758094512E+00  0.69242893053E+01 -0.29591023701E+01  0.75553607263E+01  0.51100000000E-03 0. -1.
        -11    1    3    3    0    0 -0.51575520590E+01 -0.13309985719E+02 -0.30664324502E+02  0.33823909598E+02  0.51100000000E-03 0.  1.
         12    1    3    3    0    0 -0.14407580622E+01  0.20352485589E+02  0.23448038613E+02  0.31082309570E+02  0.00000000000E+00 0. -1.
</event>
<event>
 7    1  0.2641045E-013  0.7246163E+02  0.7816164E-02  0.1226708E+00
        -11   -1    0    0    0    0  0.00000000000E+00  0.00000000000E+00  0.45593999997E+02  0.45594000000E+02  0.51100000000E-03 0.  1.
         11   -1    0    0    0    0 -0.00000000000E+00 -0.00000000000E+00 -0.45593999997E+02  0.45594000000E+02  0.51100000000E-03 0. -1.
    9900012    2    1    2    0    0 -0.89507845472E+01 -0.45732051787E+01 -0.15800198329E+02  0.72461627771E+02  0.70000074874E+02 0.  0.
        -12    1    1    2    0    0  0.89507845472E+01  0.45732051787E+01  0.15800198329E+02  0.18726372229E+02  0.00000000000E+00 0.  1.
         11    1    3    3    0    0 -0.15322397545E+02 -0.25328938903E+02 -0.13551886021E+02  0.32557405110E+02  0.51100000000E-03 0. -1.
        -11    1    3    3    0    0  0.76321685147E+01 -0.73109474634E+01  0.36789182518E+01  0.11190817165E+02  0.51100000000E-03 0.  1.
        -12    1    3    3    0    0 -0.12605555165E+01  0.28066681188E+02 -0.59272305598E+01  0.28713405497E+02  0.00000000000E+00 0.  1.
</event>
<event>
 7    1  0.2641045E-013  0.7246156E+02  0.7816164E-02  0.1226708E+00
        -11   -1    0    0    0    0  0.00000000000E+00  0.00000000000E+00  0.45593999997E+02  0.45594000000E+02  0.51100000000E-03 0.  1.
         11   -1    0    0    0    0 -0.00000000000E+00 -0.00000000000E+00 -0.45593999997E+02  0.45594000000E+02  0.51100000000E-03 0. -1.
    9900012    2    1    2    0    0  0.13693633945E+02 -0.10811520831E+02 -0.68025671540E+01  0.72461561119E+02  0.69999988047E+02 0.  0.
        -12    1    1    2    0    0 -0.13693633945E+02  0.10811520831E+02  0.68025671540E+01  0.18726438881E+02  0.00000000000E+00 0.  1.
         11    1    3    3    0    0 -0.55091285145E+01  0.86987366689E+01  0.51542549878E+01  0.11514549985E+02  0.51100000000E-03 0. -1.
        -11    1    3    3    0    0  0.75573215517E+01  0.81860147622E+01  0.16272410172E+02  0.19720935063E+02  0.51100000000E-03 0.  1.
         12    1    3    3    0    0  0.11645440907E+02 -0.27696272262E+02 -0.28229232313E+02  0.41226076070E+02  0.00000000000E+00 0. -1.
</event>
<event>
 7    1  0.2641045E-013  0.7246153E+02  0.7816164E-02  0.1226708E+00
        -11   -1    0    0    0    0  0.00000000000E+00  0.00000000000E+00  0.45593999997E+02  0.45594000000E+02  0.51100000000E-03 0. -1.
         11   -1    0    0    0    0 -0.00000000000E+00 -0.00000000000E+00 -0.45593999997E+02  0.45594000000E+02  0.51100000000E-03 0.  1.
    9900012    2    1    2    0    0 -0.13601665146E+01  0.14378452758E+02  0.11920182229E+02  0.72461529402E+02  0.69999946730E+02 0.  0.
        -12    1    1    2    0    0  0.13601665146E+01 -0.14378452758E+02 -0.11920182229E+02  0.18726470598E+02  0.00000000000E+00 0.  1.
         11    1    3    3    0    0 -0.16207629476E+02 -0.68388889910E+01  0.16981528985E+01  0.17673182492E+02  0.51100000000E-03 0. -1.
        -11    1    3    3    0    0 -0.36446662177E+00  0.16131023784E+02 -0.16844891183E+02  0.23325803812E+02  0.51100000000E-03 0.  1.
         12    1    3    3    0    0  0.15211929583E+02  0.50863179654E+01  0.27066920514E+02  0.31462543098E+02  0.00000000000E+00 0. -1.
</event>
<event>
 7    1  0.2641045E-013  0.7246176E+02  0.7816164E-02  0.1226708E+00
        -11   -1    0    0    0    0  0.00000000000E+00  0.00000000000E+00  0.45593999997E+02  0.45594000000E+02  0.51100000000E-03 0.  1.
         11   -1    0    0    0    0 -0.00000000000E+00 -0.00000000000E+00 -0.45593999997E+02  0.45594000000E+02  0.51100000000E-03 0. -1.
    9900012    2    1    2    0    0 -0.13390827989E+02 -0.96958733490E+01 -0.87947693482E+01  0.72461756326E+02  0.70000242341E+02 0.  0.
        -12    1    1    2    0    0  0.13390827989E+02  0.96958733490E+01  0.87947693482E+01  0.18726243674E+02  0.00000000000E+00 0.  1.
         11    1    3    3    0    0  0.14747555327E+02  0.40693057107E+01 -0.85921662292E+01  0.17546365945E+02  0.51100000000E-03 0. -1.
        -11    1    3    3    0    0 -0.25310423830E+02 -0.29022080482E+02  0.43275900221E+01  0.38750828967E+02  0.51100000000E-03 0.  1.
         12    1    3    3    0    0 -0.28279594858E+01  0.15256901422E+02 -0.45301931411E+01  0.16164561415E+02  0.00000000000E+00 0. -1.
</event>
<event>
 7    1  0.2641045E-013  0.7246157E+02  0.7816164E-02  0.1226708E+00
        -11   -1    0    0    0    0  0.00000000000E+00  0.00000000000E+00  0.45593999997E+02  0.45594000000E+02  0.51100000000E-03 0.  1.
         11   -1    0    0    0    0 -0.00000000000E+00 -0.00000000000E+00 -0.45593999997E+02  0.45594000000E+02  0.51100000000E-03 0. -1.
    9900012    2    1    2    0    0  0.11011737898E+02 -0.13932524753E+02 -0.59418409341E+01  0.72461572385E+02  0.70000002723E+02 0.  0.
        -12    1    1    2    0    0 -0.11011737898E+02  0.13932524753E+02  0.59418409341E+01  0.18726427615E+02  0.00000000000E+00 0.  1.
         11    1    3    3    0    0 -0.82338853396E+01 -0.16829057723E+02 -0.11408413746E+01  0.18770071148E+02  0.51100000000E-03 0. -1.
        -11    1    3    3    0    0  0.58594889345E+01 -0.23485620527E+01  0.22211572955E+02  0.23091195891E+02  0.51100000000E-03 0.  1.
        -12    1    3    3    0    0  0.13386134303E+02  0.52450950219E+01 -0.27012572514E+02  0.30600305345E+02  0.00000000000E+00 0.  1.
</event>
<event>
 7    1  0.2641045E-013  0.7246161E+02  0.7816164E-02  0.1226708E+00
        -11   -1    0    0    0    0  0.00000000000E+00  0.00000000000E+00  0.45593999997E+02  0.45594000000E+02  0.51100000000E-03 0.  1.
         11   -1    0    0    0    0 -0.00000000000E+00 -0.00000000000E+00 -0.45593999997E+02  0.45594000000E+02  0.51100000000E-03 0. -1.
    9900012    2    1    2    0    0  0.54777877846E+01  0.14020319537E+02 -0.11140116502E+02  0.72461609141E+02  0.70000050605E+02 0.  0.
        -12    1    1    2    0    0 -0.54777877846E+01 -0.14020319537E+02  0.11140116502E+02  0.18726390859E+02  0.00000000000E+00 0.  1.
         11    1    3    3    0    0 -0.10959847156E+02  0.26862018922E+02  0.84126975672E+01  0.30206949380E+02  0.51100000000E-03 0. -1.
        -11    1    3    3    0    0  0.71863903441E+01  0.47022269553E+01  0.55776404662E+01  0.10240371963E+02  0.51100000000E-03 0.  1.
         12    1    3    3    0    0  0.92512445967E+01 -0.17543926340E+02 -0.25130454535E+02  0.32014287797E+02  0.00000000000E+00 0. -1.
</event>
<event>
 7    1  0.2641045E-013  0.7246159E+02  0.7816164E-02  0.1226708E+00
        -11   -1    0    0    0    0  0.00000000000E+00  0.00000000000E+00  0.45593999997E+02  0.45594000000E+02  0.51100000000E-03 0.  1.
         11   -1    0    0    0    0 -0.00000000000E+00 -0.00000000000E+00 -0.45593999997E+02  0.45594000000E+02  0.51100000000E-03 0. -1.
    9900012    2    1    2    0    0 -0.76735528814E+01  0.15815399466E+02 -0.64550882724E+01  0.72461589807E+02  0.70000025420E+02 0.  0.
        -12    1    1    2    0    0  0.76735528814E+01 -0.15815399466E+02  0.64550882724E+01  0.18726410193E+02  0.00000000000E+00 0.  1.
         11    1    3    3    0    0  0.28853773795E+01 -0.53051134529E+01 -0.49935616079E+01  0.78361527016E+01  0.51100000000E-03 0. -1.
        -11    1    3    3    0    0  0.23658173668E+02  0.10050917448E+02 -0.10136010927E+02  0.27630939915E+02  0.51100000000E-03 0.  1.
         12    1    3    3    0    0 -0.34217103929E+02  0.11069595471E+02  0.86744842623E+01  0.36994497191E+02  0.00000000000E+00 0. -1.
</event>
<event>
 7    1  0.2641045E-013  0.7246158E+02  0.7816164E-02  0.1226708E+00
        -11   -1    0    0    0    0  0.00000000000E+00  0.00000000000E+00  0.45593999997E+02  0.45594000000E+02  0.51100000000E-03 0.  1.
         11   -1    0    0    0    0 -0.00000000000E+00 -0.00000000000E+00 -0.45593999997E+02  0.45594000000E+02  0.51100000000E-03 0. -1.
    9900012    2    1    2    0    0 -0.38827891214E+00  0.11311275966E+02 -0.14919214357E+02  0.72461583324E+02  0.70000016973E+02 0.  0.
        -12    1    1    2    0    0  0.38827891214E+00 -0.11311275966E+02  0.14919214357E+02  0.18726416676E+02  0.00000000000E+00 0.  1.
         11    1    3    3    0    0  0.24580471693E+02  0.21728128318E+02 -0.13063546756E+02  0.35312425617E+02  0.51100000000E-03 0. -1.
        -11    1    3    3    0    0 -0.10973682690E+01  0.49531209299E+01 -0.66411143421E+01  0.83571540628E+01  0.51100000000E-03 0.  1.
        -12    1    3    3    0    0 -0.23871382336E+02 -0.15369973281E+02  0.47854467404E+01  0.28792003644E+02  0.00000000000E+00 0.  1.
</event>
<event>
 7    1  0.2641045E-013  0.7246155E+02  0.7816164E-02  0.1226708E+00
        -11   -1    0    0    0    0  0.00000000000E+00  0.00000000000E+00  0.45593999997E+02  0.45594000000E+02  0.51100000000E-03 0. -1.
         11   -1    0    0    0    0 -0.00000000000E+00 -0.00000000000E+00 -0.45593999997E+02  0.45594000000E+02  0.51100000000E-03 0.  1.
    9900012    2    1    2    0    0  0.17463609726E+02  0.54058234043E+01  0.40594538870E+01  0.72461554603E+02  0.69999979559E+02 0.  0.
        -12    1    1    2    0    0 -0.17463609726E+02 -0.54058234043E+01 -0.40594538870E+01  0.18726445397E+02  0.00000000000E+00 0.  1.
         11    1    3    3    0    0  0.44244909113E+00  0.29015187919E+01 -0.14150455095E+01  0.32583625570E+01  0.51100000000E-03 0. -1.
        -11    1    3    3    0    0 -0.20619822518E+01  0.32743395796E+02  0.64342251594E+01  0.33433231862E+02  0.51100000000E-03 0.  1.
        -12    1    3    3    0    0  0.19083142887E+02 -0.30239091184E+02 -0.95972576291E+00  0.35769960184E+02  0.00000000000E+00 0.  1.
</event>
<event>
 7    1  0.2641045E-013  0.7246163E+02  0.7816164E-02  0.1226708E+00
        -11   -1    0    0    0    0  0.00000000000E+00  0.00000000000E+00  0.45593999997E+02  0.45594000000E+02  0.51100000000E-03 0.  1.
         11   -1    0    0    0    0 -0.00000000000E+00 -0.00000000000E+00 -0.45593999997E+02  0.45594000000E+02  0.51100000000E-03 0. -1.
    9900012    2    1    2    0    0  0.83792973444E+01 -0.98997403803E+01 -0.13507751381E+02  0.72461632735E+02  0.70000081340E+02 0.  0.
        -12    1    1    2    0    0 -0.83792973444E+01  0.98997403803E+01  0.13507751381E+02  0.18726367265E+02  0.00000000000E+00 0.  1.
         11    1    3    3    0    0 -0.22656800505E+02  0.11300816216E+02 -0.15245633549E+02  0.29554498792E+02  0.51100000000E-03 0. -1.
        -11    1    3    3    0    0 -0.27627403172E+01 -0.79730155022E+00 -0.15926764239E+01  0.32871024131E+01  0.51100000000E-03 0.  1.
        -12    1    3    3    0    0  0.33798838167E+02 -0.20403255046E+02  0.33305585917E+01  0.39620031530E+02  0.00000000000E+00 0.  1.
</event>
<event>
 7    1  0.2641045E-013  0.7246154E+02  0.7816164E-02  0.1226708E+00
        -11   -1    0    0    0    0  0.00000000000E+00  0.00000000000E+00  0.45593999997E+02  0.45594000000E+02  0.51100000000E-03 0.  1.
         11   -1    0    0    0    0 -0.00000000000E+00 -0.00000000000E+00 -0.45593999997E+02  0.45594000000E+02  0.51100000000E-03 0. -1.
    9900012    2    1    2    0    0  0.14271220762E+02 -0.24550347622E+01 -0.11873732782E+02  0.72461535627E+02  0.69999954840E+02 0.  0.
        -12    1    1    2    0    0 -0.14271220762E+02  0.24550347622E+01  0.11873732782E+02  0.18726464373E+02  0.00000000000E+00 0.  1.
         11    1    3    3    0    0  0.77661461751E+01 -0.31676406444E+01 -0.10219990075E+02  0.13221012483E+02  0.51100000000E-03 0. -1.
        -11    1    3    3    0    0  0.33154594826E+01 -0.25703474106E+02  0.12859929472E+02  0.28931620054E+02  0.51100000000E-03 0.  1.
         12    1    3    3    0    0  0.31896151044E+01  0.26416079988E+02 -0.14513672179E+02  0.30308903091E+02  0.00000000000E+00 0. -1.
</event>
<event>
 7    1  0.2641045E-013  0.7246179E+02  0.7816164E-02  0.1226707E+00
        -11   -1    0    0    0    0  0.00000000000E+00  0.00000000000E+00  0.45593999997E+02  0.45594000000E+02  0.51100000000E-03 0.  1.
         11   -1    0    0    0    0 -0.00000000000E+00 -0.00000000000E+00 -0.45593999997E+02  0.45594000000E+02  0.51100000000E-03 0. -1.
    9900012    2    1    2    0    0 -0.66342617761E+01  0.12707885897E+02 -0.12048535655E+02  0.72461788298E+02  0.70000283990E+02 0.  0.
        -12    1    1    2    0    0  0.66342617761E+01 -0.12707885897E+02  0.12048535655E+02  0.18726211702E+02  0.00000000000E+00 0.  1.
         11    1    3    3    0    0  0.13963728002E+02  0.82049329894E+01  0.40288029741E+00  0.16200893119E+02  0.51100000000E-03 0. -1.
        -11    1    3    3    0    0  0.13174396064E+02  0.59022732642E+01  0.82468833121E+01  0.16625661670E+02  0.51100000000E-03 0.  1.
        -12    1    3    3    0    0 -0.33772385841E+02 -0.13993203568E+01 -0.20698299264E+02  0.39635233509E+02  0.00000000000E+00 0.  1.
</event>
<event>
 7    1  0.2641045E-013  0.7246155E+02  0.7816164E-02  0.1226708E+00
        -11   -1    0    0    0    0  0.00000000000E+00  0.00000000000E+00  0.45593999997E+02  0.45594000000E+02  0.51100000000E-03 0. -1.
         11   -1    0    0    0    0 -0.00000000000E+00 -0.00000000000E+00 -0.45593999997E+02  0.45594000000E+02  0.51100000000E-03 0.  1.
    9900012    2    1    2    0    0  0.74404257828E+01  0.15953423412E+02 -0.63881262181E+01  0.72461553168E+02  0.69999977689E+02 0.  0.
        -12    1    1    2    0    0 -0.74404257828E+01 -0.15953423412E+02  0.63881262181E+01  0.18726446832E+02  0.00000000000E+00 0.  1.
         11    1    3    3    0    0  0.21935326051E+01 -0.12819275297E+02  0.55781395014E+01  0.14151361948E+02  0.51100000000E-03 0. -1.
        -11    1    3    3    0    0  0.25281556327E+02  0.46510070926E+01 -0.58322446450E+01  0.26359135705E+02  0.51100000000E-03 0.  1.
         12    1    3    3    0    0 -0.20034663149E+02  0.24121691616E+02 -0.61340210744E+01  0.31951055514E+02  0.00000000000E+00 0. -1.
</event>
<event>
 7    1  0.2641045E-013  0.7246159E+02  0.7816164E-02  0.1226708E+00
        -11   -1    0    0    0    0  0.00000000000E+00  0.00000000000E+00  0.45593999997E+02  0.45594000000E+02  0.51100000000E-03 0.  1.
         11   -1    0    0    0    0 -0.00000000000E+00 -0.00000000000E+00 -0.45593999997E+02  0.45594000000E+02  0.51100000000E-03 0. -1.
    9900012    2    1    2    0    0 -0.75932029474E+01  0.36429183641E+01 -0.16725757477E+02  0.72461586878E+02  0.70000021604E+02 0.  0.
        -12    1    1    2    0    0  0.75932029474E+01 -0.36429183641E+01  0.16725757477E+02  0.18726413122E+02  0.00000000000E+00 0.  1.
         11    1    3    3    0    0  0.14977818827E+01  0.27566928304E+02 -0.84087843091E+01  0.28859773743E+02  0.51100000000E-03 0. -1.
        -11    1    3    3    0    0  0.10071273040E+02 -0.89506780009E+01  0.66716851739E+01  0.15035177440E+02  0.51100000000E-03 0.  1.
        -12    1    3    3    0    0 -0.19162257871E+02 -0.14973331939E+02 -0.14988658342E+02  0.28566635695E+02  0.00000000000E+00 0.  1.
</event>
<event>
 7    1  0.2641045E-013  0.7246157E+02  0.7816164E-02  0.1226708E+00
        -11   -1    0    0    0    0  0.00000000000E+00  0.00000000000E+00  0.45593999997E+02  0.45594000000E+02  0.51100000000E-03 0.  1.
         11   -1    0    0    0    0 -0.00000000000E+00 -0.00000000000E+00 -0.45593999997E+02  0.45594000000E+02  0.51100000000E-03 0. -1.
    9900012    2    1    2    0    0  0.99330035076E+01 -0.13096207455E+02 -0.89724059745E+01  0.72461567415E+02  0.69999996249E+02 0.  0.
        -12    1    1    2    0    0 -0.99330035076E+01  0.13096207455E+02  0.89724059745E+01  0.18726432585E+02  0.00000000000E+00 0.  1.
         11    1    3    3    0    0  0.27270124832E+02 -0.10946087089E+02  0.56852826581E+01  0.29929900937E+02  0.51100000000E-03 0. -1.
        -11    1    3    3    0    0 -0.17965227462E+02 -0.72068414891E+01  0.67698698988E+01  0.20506562382E+02  0.51100000000E-03 0.  1.
         12    1    3    3    0    0  0.62810613752E+00  0.50567211238E+01 -0.21427558531E+02  0.22025104096E+02  0.00000000000E+00 0. -1.
</event>
<event>
 7    1  0.2641045E-013  0.7246155E+02  0.7816164E-02  0.1226708E+00
        -11   -1    0    0    0    0  0.00000000000E+00  0.00000000000E+00  0.45593999997E+02  0.45594000000E+02  0.51100000000E-03 0.  1.
         11   -1    0    0    0    0 -0.00000000000E+00 -0.00000000000E+00 -0.45593999997E+02  0.45594000000E+02  0.51100000000E-03 0. -1.
    9900012    2    1    2    0    0 -0.11379351275E+02 -0.11268937673E+02 -0.97057424988E+01  0.72461547341E+02  0.69999970100E+02 0.  0.
        -12    1    1    2    0    0  0.11379351275E+02  0.11268937673E+02  0.97057424988E+01  0.18726452659E+02  0.00000000000E+00 0.  1.
         11    1    3    3    0    0 -0.14180181057E+02  0.11100060831E+01 -0.27933851166E+02  0.31346605710E+02  0.51100000000E-03 0. -1.
        -11    1    3    3    0    0 -0.56703111281E+01 -0.11809843350E+02 -0.67471824681E+01  0.14735986555E+02  0.51100000000E-03 0.  1.
        -12    1    3    3    0    0  0.84711409100E+01 -0.56910040598E+00  0.24975291135E+02  0.26378955076E+02  0.00000000000E+00 0.  1.
</event>
<event>
 7    1  0.2641045E-013  0.7246167E+02  0.7816164E-02  0.1226708E+00
        -11   -1    0    0    0    0  0.00000000000E+00  0.00000000000E+00  0.45593999997E+02  0.45594000000E+02  0.51100000000E-03 0. -1.
         11   -1    0    0    0    0 -0.00000000000E+00 -0.00000000000E+00 -0.45593999997E+02  0.45594000000E+02  0.51100000000E-03 0.  1.
    9900012    2    1    2    0    0  0.15639916171E+02 -0.79341180437E+01  0.65664380466E+01  0.72461673195E+02  0.70000134048E+02 0.  0.
        -12    1    1    2    0    0 -0.15639916171E+02  0.79341180437E+01 -0.65664380466E+01  0.18726326805E+02  0.00000000000E+00 0.  1.
         11    1    3    3    0    0 -0.14501343780E+02 -0.17761772375E+02  0.13266521549E+02  0.26490944181E+02  0.51100000000E-03 0. -1.
        -11    1    3    3    0    0  0.63488709234E+01 -0.78311635357E+01  0.80234882824E+01  0.12884550780E+02  0.51100000000E-03 0.  1.
        -12    1    3    3    0    0  0.23792389028E+02  0.17658817867E+02 -0.14723571785E+02  0.33086178235E+02  0.00000000000E+00 0.  1.
</event>
<event>
 7    1  0.2641045E-013  0.7246157E+02  0.7816164E-02  0.1226708E+00
        -11   -1    0    0    0    0  0.00000000000E+00  0.00000000000E+00  0.45593999997E+02  0.45594000000E+02  0.51100000000E-03 0. -1.
         11   -1    0    0    0    0 -0.00000000000E+00 -0.00000000000E+00 -0.45593999997E+02  0.45594000000E+02  0.51100000000E-03 0.  1.
    9900012    2    1    2    0    0  0.16682765512E+01  0.41890337862E+00  0.18647271606E+02  0.72461565074E+02  0.69999993199E+02 0.  0.
        -12    1    1    2    0    0 -0.16682765512E+01 -0.41890337862E+00 -0.18647271606E+02  0.18726434926E+02  0.00000000000E+00 0.  1.
         11    1    3    3    0    0 -0.12718114252E+02 -0.18586272776E+02  0.13573143423E+02  0.26295060154E+02  0.51100000000E-03 0. -1.
        -11    1    3    3    0    0  0.14269867024E+02 -0.87972086993E+01  0.72807035001E+01  0.18276450134E+02  0.51100000000E-03 0.  1.
        -12    1    3    3    0    0  0.11652377918E+00  0.27802384854E+02 -0.22065753174E+01  0.27890054786E+02  0.00000000000E+00 0.  1.
</event>
<event>
 7    1  0.2641045E-013  0.7246160E+02  0.7816164E-02  0.1226708E+00
        -11   -1    0    0    0    0  0.00000000000E+00  0.00000000000E+00  0.45593999997E+02  0.45594000000E+02  0.51100000000E-03 0.  1.
         11   -1    0    0    0    0 -0.00000000000E+00 -0.00000000000E+00 -0.45593999997E+02  0.45594000000E+02  0.51100000000E-03 0. -1.
    9900012    2    1    2    0    0  0.38413234712E+01  0.17436341405E+02  0.56476751945E+01  0.72461601448E+02  0.70000040584E+02 0.  0.
        -12    1    1    2    0    0 -0.38413234712E+01 -0.17436341405E+02 -0.56476751945E+01  0.18726398552E+02  0.00000000000E+00 0.  1.
         11    1    3    3    0    0 -0.25079089757E+01 -0.48103887516E+01  0.27864840087E+02  0.28388003817E+02  0.51100000000E-03 0. -1.
        -11    1    3    3    0    0 -0.49343742601E+01 -0.54750068175E+01 -0.11196370266E+01  0.74550208801E+01  0.51100000000E-03 0.  1.
         12    1    3    3    0    0  0.11283606707E+02  0.27721736975E+02 -0.21097527866E+02  0.36618576751E+02  0.00000000000E+00 0. -1.
</event>
<event>
 7    1  0.2641045E-013  0.7246157E+02  0.7816164E-02  0.1226708E+00
        -11   -1    0    0    0    0  0.00000000000E+00  0.00000000000E+00  0.45593999997E+02  0.45594000000E+02  0.51100000000E-03 0. -1.
         11   -1    0    0    0    0 -0.00000000000E+00 -0.00000000000E+00 -0.45593999997E+02  0.45594000000E+02  0.51100000000E-03 0.  1.
    9900012    2    1    2    0    0  0.10926302609E+02 -0.14073162093E+02 -0.57655194118E+01  0.72461569639E+02  0.69999999146E+02 0.  0.
        -12    1    1    2    0    0 -0.10926302609E+02  0.14073162093E+02  0.57655194118E+01  0.18726430361E+02  0.00000000000E+00 0.  1.
         11    1    3    3    0    0 -0.73928893160E+01  0.94261638096E+01  0.73737275076E+01  0.14066955400E+02  0.51100000000E-03 0. -1.
        -11    1    3    3    0    0  0.43589896299E+01 -0.31491730118E+02  0.70661790298E+01  0.32567786887E+02  0.51100000000E-03 0.  1.
         12    1    3    3    0    0  0.13960202295E+02  0.79924042151E+01 -0.20205425949E+02  0.25826827351E+02  0.00000000000E+00 0. -1.
</event>
<event>
 7    1  0.2641045E-013  0.7246164E+02  0.7816164E-02  0.1226708E+00
        -11   -1    0    0    0    0  0.00000000000E+00  0.00000000000E+00  0.45593999997E+02  0.45594000000E+02  0.51100000000E-03 0. -1.
         11   -1    0    0    0    0 -0.00000000000E+00 -0.00000000000E+00 -0.45593999997E+02  0.45594000000E+02  0.51100000000E-03 0.  1.
    9900012    2    1    2    0    0  0.13631525807E+02 -0.39588084589E+01  0.12214164537E+02  0.72461642223E+02  0.70000093701E+02 0.  0.
        -12    1    1    2    0    0 -0.13631525807E+02  0.39588084589E+01 -0.12214164537E+02  0.18726357777E+02  0.00000000000E+00 0.  1.
         11    1    3    3    0    0 -0.13116467439E+02  0.10438218185E+02  0.84317480952E+01  0.18764127828E+02  0.51100000000E-03 0.  1.
        -11    1    3    3    0    0  0.13846102360E+02 -0.10612681357E+02 -0.19900190683E+02  0.26464337241E+02  0.51100000000E-03 0. -1.
         12    1    3    3    0    0  0.12901890886E+02 -0.37843452872E+01  0.23682607125E+02  0.27233177154E+02  0.00000000000E+00 0. -1.
</event>
<event>
 7    1  0.2641045E-013  0.7246162E+02  0.7816164E-02  0.1226708E+00
        -11   -1    0    0    0    0  0.00000000000E+00  0.00000000000E+00  0.45593999997E+02  0.45594000000E+02  0.51100000000E-03 0. -1.
         11   -1    0    0    0    0 -0.00000000000E+00 -0.00000000000E+00 -0.45593999997E+02  0.45594000000E+02  0.51100000000E-03 0.  1.
    9900012    2    1    2    0    0 -0.12688806757E+01 -0.17761866805E+02 -0.57951109233E+01  0.72461620713E+02  0.70000065680E+02 0.  0.
        -12    1    1    2    0    0  0.12688806757E+01  0.17761866805E+02  0.57951109233E+01  0.18726379287E+02  0.00000000000E+00 0.  1.
         11    1    3    3    0    0 -0.25644140344E+00 -0.11816027367E+01 -0.95068145277E+00  0.15380971057E+01  0.51100000000E-03 0. -1.
        -11    1    3    3    0    0 -0.33073800965E+02 -0.87615026148E+01 -0.13539686064E+02  0.36796240805E+02  0.51100000000E-03 0.  1.
         12    1    3    3    0    0  0.32061361693E+02 -0.78187614538E+01  0.86952565933E+01  0.34127282803E+02  0.00000000000E+00 0. -1.
</event>
<event>
 7    1  0.2641045E-013  0.7246159E+02  0.7816164E-02  0.1226708E+00
        -11   -1    0    0    0    0  0.00000000000E+00  0.00000000000E+00  0.45593999997E+02  0.45594000000E+02  0.51100000000E-03 0. -1.
         11   -1    0    0    0    0 -0.00000000000E+00 -0.00000000000E+00 -0.45593999997E+02  0.45594000000E+02  0.51100000000E-03 0.  1.
    9900012    2    1    2    0    0 -0.72499821326E+01  0.15016488835E+02  0.85218129421E+01  0.72461588874E+02  0.70000024203E+02 0.  0.
        -12    1    1    2    0    0  0.72499821326E+01 -0.15016488835E+02 -0.85218129421E+01  0.18726411126E+02  0.00000000000E+00 0.  1.
         11    1    3    3    0    0  0.19111028299E+02  0.14202120242E+02  0.26566780109E+02  0.35675277541E+02  0.51100000000E-03 0. -1.
        -11    1    3    3    0    0 -0.15638130429E+02  0.83465321891E+01 -0.52876119728E+01  0.18497961064E+02  0.51100000000E-03 0.  1.
        -12    1    3    3    0    0 -0.10722880003E+02 -0.75321635966E+01 -0.12757355194E+02  0.18288350268E+02  0.00000000000E+00 0.  1.
</event>
<event>
 7    1  0.2641045E-013  0.7246156E+02  0.7816164E-02  0.1226708E+00
        -11   -1    0    0    0    0  0.00000000000E+00  0.00000000000E+00  0.45593999997E+02  0.45594000000E+02  0.51100000000E-03 0. -1.
         11   -1    0    0    0    0 -0.00000000000E+00 -0.00000000000E+00 -0.45593999997E+02  0.45594000000E+02  0.51100000000E-03 0.  1.
    9900012    2    1    2    0    0  0.67386921998E+01 -0.17237841539E+02 -0.28507170398E+01  0.72461555033E+02  0.69999980119E+02 0.  0.
        -12    1    1    2    0    0 -0.67386921998E+01  0.17237841539E+02  0.28507170398E+01  0.18726444967E+02  0.00000000000E+00 0.  1.
         11    1    3    3    0    0 -0.69237238834E+00 -0.49010812508E+01 -0.75104570931E+01  0.89948286787E+01  0.51100000000E-03 0. -1.
        -11    1    3    3    0    0 -0.15005014233E+02  0.13154663189E+02 -0.14322525854E+02  0.24562784102E+02  0.51100000000E-03 0.  1.
         12    1    3    3    0    0  0.22436078821E+02 -0.25491423477E+02  0.18982265907E+02  0.38903942252E+02  0.00000000000E+00 0. -1.
</event>
<event>
 7    1  0.2641045E-013  0.7246164E+02  0.7816164E-02  0.1226708E+00
        -11   -1    0    0    0    0  0.00000000000E+00  0.00000000000E+00  0.45593999997E+02  0.45594000000E+02  0.51100000000E-03 0.  1.
         11   -1    0    0    0    0 -0.00000000000E+00 -0.00000000000E+00 -0.45593999997E+02  0.45594000000E+02  0.51100000000E-03 0. -1.
    9900012    2    1    2    0    0 -0.14566351257E+02  0.10099784823E+02 -0.60408897724E+01  0.72461639124E+02  0.70000089663E+02 0.  0.
        -12    1    1    2    0    0  0.14566351257E+02 -0.10099784823E+02  0.60408897724E+01  0.18726360876E+02  0.00000000000E+00 0.  1.
         11    1    3    3    0    0  0.11413543898E+02  0.19130395345E+02 -0.18848935631E+02  0.29180873617E+02  0.51100000000E-03 0. -1.
        -11    1    3    3    0    0  0.40975815832E+01  0.27237030547E+01 -0.44776887186E+01  0.66527009315E+01  0.51100000000E-03 0.  1.
        -12    1    3    3    0    0 -0.30077476739E+02 -0.11754313577E+02  0.17285734577E+02  0.36628064575E+02  0.00000000000E+00 0.  1.
</event>
<event>
 7    1  0.2641045E-013  0.7246156E+02  0.7816164E-02  0.1226708E+00
        -11   -1    0    0    0    0  0.00000000000E+00  0.00000000000E+00  0.45593999997E+02  0.45594000000E+02  0.51100000000E-03 0. -1.
         11   -1    0    0    0    0 -0.00000000000E+00 -0.00000000000E+00 -0.45593999997E+02  0.45594000000E+02  0.51100000000E-03 0.  1.
    9900012    2    1    2    0    0  0.10272359871E+01 -0.90097842378E+01  0.16384388230E+02  0.72461558708E+02  0.69999984907E+02 0.  0.
        -12    1    1    2    0    0 -0.10272359871E+01  0.90097842378E+01 -0.16384388230E+02  0.18726441292E+02  0.00000000000E+00 0.  1.
         11    1    3    3    0    0 -0.50119186599E+00  0.31167847149E+01  0.13481444803E+02  0.13846114779E+02  0.51100000000E-03 0. -1.
        -11    1    3    3    0    0  0.29071015046E+02 -0.78753808069E+01 -0.25195923801E+01  0.30224061354E+02  0.51100000000E-03 0.  1.
         12    1    3    3    0    0 -0.27542587193E+02 -0.42511881458E+01  0.54225358074E+01  0.28391382575E+02  0.00000000000E+00 0. -1.
</event>
<event>
 7    1  0.2641045E-013  0.7246158E+02  0.7816164E-02  0.1226708E+00
        -11   -1    0    0    0    0  0.00000000000E+00  0.00000000000E+00  0.45593999997E+02  0.45594000000E+02  0.51100000000E-03 0.  1.
         11   -1    0    0    0    0 -0.00000000000E+00 -0.00000000000E+00 -0.45593999997E+02  0.45594000000E+02  0.51100000000E-03 0. -1.
    9900012    2    1    2    0    0  0.53085194603E+01  0.95009416179E+01 -0.15239114950E+02  0.72461577625E+02  0.70000009550E+02 0.  0.
        -12    1    1    2    0    0 -0.53085194603E+01 -0.95009416179E+01  0.15239114950E+02  0.18726422375E+02  0.00000000000E+00 0.  1.
         11    1    3    3    0    0 -0.16135052653E+02  0.80218515749E+01 -0.13843433360E+02  0.22722910779E+02  0.51100000000E-03 0. -1.
        -11    1    3    3    0    0  0.90969473500E+00  0.21083671960E+02  0.17469709477E+01  0.21175473444E+02  0.51100000000E-03 0.  1.
        -12    1    3    3    0    0  0.20533877379E+02 -0.19604581917E+02 -0.31426525378E+01  0.28563193402E+02  0.00000000000E+00 0.  1.
</event>
<event>
 7    1  0.2641045E-013  0.7246146E+02  0.7816164E-02  0.1226708E+00
        -11   -1    0    0    0    0  0.00000000000E+00  0.00000000000E+00  0.45593999997E+02  0.45594000000E+02  0.51100000000E-03 0.  1.
         11   -1    0    0    0    0 -0.00000000000E+00 -0.00000000000E+00 -0.45593999997E+02  0.45594000000E+02  0.51100000000E-03 0. -1.
    9900012    2    1    2    0    0 -0.83956114116E+01 -0.15161327179E+02 -0.70944567772E+01  0.72461456011E+02  0.69999851125E+02 0.  0.
        -12    1    1    2    0    0  0.83956114116E+01  0.15161327179E+02  0.70944567772E+01  0.18726543989E+02  0.00000000000E+00 0.  1.
         11    1    3    3    0    0  0.10196807620E+02  0.78831771655E+00  0.10166866502E+02  0.14420870473E+02  0.51100000000E-03 0. -1.
        -11    1    3    3    0    0  0.18742096838E+01 -0.30279482771E+02 -0.11130634145E+02  0.32314868954E+02  0.51100000000E-03 0.  1.
        -12    1    3    3    0    0 -0.20466628715E+02  0.14329837875E+02 -0.61306891344E+01  0.25725716584E+02  0.00000000000E+00 0.  1.
</event>
<event>
 7    1  0.2641045E-013  0.7246155E+02  0.7816164E-02  0.1226708E+00
        -11   -1    0    0    0    0  0.00000000000E+00  0.00000000000E+00  0.45593999997E+02  0.45594000000E+02  0.51100000000E-03 0. -1.
         11   -1    0    0    0    0 -0.00000000000E+00 -0.00000000000E+00 -0.45593999997E+02  0.45594000000E+02  0.51100000000E-03 0.  1.
    9900012    2    1    2    0    0 -0.13627008521E+01  0.86765106477E+01  0.16539077469E+02  0.72461551481E+02  0.69999975491E+02 0.  0.
        -12    1    1    2    0    0  0.13627008521E+01 -0.86765106477E+01 -0.16539077469E+02  0.18726448519E+02  0.00000000000E+00 0.  1.
         11    1    3    3    0    0  0.22062618752E+01  0.99863287160E+01 -0.89486115378E+01  0.13589407691E+02  0.51100000000E-03 0. -1.
        -11    1    3    3    0    0  0.13620723368E+02  0.11587495194E+02 -0.75897133723E+01  0.19426731564E+02  0.51100000000E-03 0.  1.
        -12    1    3    3    0    0 -0.17189686096E+02 -0.12897313262E+02  0.33077402379E+02  0.39445412225E+02  0.00000000000E+00 0.  1.
</event>
<event>
 7    1  0.2641045E-013  0.7246158E+02  0.7816164E-02  0.1226708E+00
        -11   -1    0    0    0    0  0.00000000000E+00  0.00000000000E+00  0.45593999997E+02  0.45594000000E+02  0.51100000000E-03 0. -1.
         11   -1    0    0    0    0 -0.00000000000E+00 -0.00000000000E+00 -0.45593999997E+02  0.45594000000E+02  0.51100000000E-03 0.  1.
    9900012    2    1    2    0    0 -0.82442773755E+01  0.16677028306E+02  0.21418152071E+01  0.72461581364E+02  0.70000014420E+02 0.  0.
        -12    1    1    2    0    0  0.82442773755E+01 -0.16677028306E+02 -0.21418152071E+01  0.18726418636E+02  0.00000000000E+00 0.  1.
         11    1    3    3    0    0  0.44220482332E+01  0.13965774559E+01  0.11659980627E+00  0.46388074915E+01  0.51100000000E-03 0. -1.
        -11    1    3    3    0    0 -0.15405227677E+02  0.29997697132E+02 -0.21460567245E+02  0.39971725254E+02  0.51100000000E-03 0.  1.
         12    1    3    3    0    0  0.27389020680E+01 -0.14717246282E+02  0.23485782646E+02  0.27851048619E+02  0.00000000000E+00 0. -1.
</event>
<event>
 7    1  0.2641045E-013  0.7246159E+02  0.7816164E-02  0.1226708E+00
        -11   -1    0    0    0    0  0.00000000000E+00  0.00000000000E+00  0.45593999997E+02  0.45594000000E+02  0.51100000000E-03 0.  1.
         11   -1    0    0    0    0 -0.00000000000E+00 -0.00000000000E+00 -0.45593999997E+02  0.45594000000E+02  0.51100000000E-03 0. -1.
    9900012    2    1    2    0    0  0.73735335808E+01  0.56580322634E+01 -0.16257189539E+02  0.72461587149E+02  0.70000021956E+02 0.  0.
        -12    1    1    2    0    0 -0.73735335808E+01 -0.56580322634E+01  0.16257189539E+02  0.18726412851E+02  0.00000000000E+00 0.  1.
         11    1    3    3    0    0 -0.77595372953E+01 -0.11827505446E+02 -0.18684458674E+02  0.23435214962E+02  0.51100000000E-03 0. -1.
        -11    1    3    3    0    0  0.18408516584E+02 -0.93356484739E+01  0.66341401857E+01  0.21680397402E+02  0.51100000000E-03 0.  1.
        -12    1    3    3    0    0 -0.32754457078E+01  0.26821186183E+02 -0.42068710510E+01  0.27345974784E+02  0.00000000000E+00 0.  1.
</event>
<event>
 7    1  0.2641045E-013  0.7246142E+02  0.7816164E-02  0.1226708E+00
        -11   -1    0    0    0    0  0.00000000000E+00  0.00000000000E+00  0.45593999997E+02  0.45594000000E+02  0.51100000000E-03 0. -1.
         11   -1    0    0    0    0 -0.00000000000E+00 -0.00000000000E+00 -0.45593999997E+02  0.45594000000E+02  0.51100000000E-03 0.  1.
    9900012    2    1    2    0    0  0.64103742943E+01  0.63266258200E+01  0.16418456128E+02  0.72461420107E+02  0.69999804353E+02 0.  0.
        -12    1    1    2    0    0 -0.64103742943E+01 -0.63266258200E+01 -0.16418456128E+02  0.18726579893E+02  0.00000000000E+00 0.  1.
         11    1    3    3    0    0 -0.21376165988E+02 -0.14926647642E+02  0.23369501818E+02  0.35012553430E+02  0.51100000000E-03 0. -1.
        -11    1    3    3    0    0  0.49052299639E+01  0.65320309047E+01  0.26637240892E+01  0.85920972424E+01  0.51100000000E-03 0.  1.
        -12    1    3    3    0    0  0.22881310318E+02  0.14721242558E+02 -0.96147697794E+01  0.28856769435E+02  0.00000000000E+00 0.  1.
</event>
<event>
 7    1  0.2641045E-013  0.7246159E+02  0.7816164E-02  0.1226708E+00
        -11   -1    0    0    0    0  0.00000000000E+00  0.00000000000E+00  0.45593999997E+02  0.45594000000E+02  0.51100000000E-03 0.  1.
         11   -1    0    0    0    0 -0.00000000000E+00 -0.00000000000E+00 -0.45593999997E+02  0.45594000000E+02  0.51100000000E-03 0. -1.
    9900012    2    1    2    0    0  0.49384065873E+01  0.17827432001E+02  0.29108627112E+01  0.72461593162E+02  0.70000029789E+02 0.  0.
        -12    1    1    2    0    0 -0.49384065873E+01 -0.17827432001E+02 -0.29108627112E+01  0.18726406838E+02  0.00000000000E+00 0.  1.
         11    1    3    3    0    0 -0.13949326593E+02  0.35473487305E+02  0.10379802644E+02  0.39505598555E+02  0.51100000000E-03 0. -1.
        -11    1    3    3    0    0 -0.52150987839E+00  0.33272509184E+01 -0.18151545331E+01  0.38258799599E+01  0.51100000000E-03 0.  1.
        -12    1    3    3    0    0  0.19409243058E+02 -0.20973306223E+02 -0.56537853999E+01  0.29130114647E+02  0.00000000000E+00 0.  1.
</event>
<event>
 7    1  0.2641045E-013  0.7246157E+02  0.7816164E-02  0.1226708E+00
        -11   -1    0    0    0    0  0.00000000000E+00  0.00000000000E+00  0.45593999997E+02  0.45594000000E+02  0.51100000000E-03 0.  1.
         11   -1    0    0    0    0 -0.00000000000E+00 -0.00000000000E+00 -0.45593999997E+02  0.45594000000E+02  0.51100000000E-03 0. -1.
    9900012    2    1    2    0    0 -0.44529498744E+01  0.16749284679E+02 -0.70930740757E+01  0.72461574829E+02  0.70000005907E+02 0.  0.
        -12    1    1    2    0    0  0.44529498744E+01 -0.16749284679E+02  0.70930740757E+01  0.18726425171E+02  0.00000000000E+00 0.  1.
         11    1    3    3    0    0 -0.10328977009E+02  0.40463926696E+02 -0.26315482262E+01  0.41844260969E+02  0.51100000000E-03 0. -1.
        -11    1    3    3    0    0  0.33667472551E+01 -0.10334120053E+01  0.48308192552E+01  0.59782725256E+01  0.51100000000E-03 0.  1.
        -12    1    3    3    0    0  0.25092798799E+01 -0.22681230011E+02 -0.92923451046E+01  0.24639041334E+02  0.00000000000E+00 0.  1.
</event>
<event>
 7    1  0.2641045E-013  0.7246134E+02  0.7816164E-02  0.1226709E+00
        -11   -1    0    0    0    0  0.00000000000E+00  0.00000000000E+00  0.45593999997E+02  0.45594000000E+02  0.51100000000E-03 0.  1.
         11   -1    0    0    0    0 -0.00000000000E+00 -0.00000000000E+00 -0.45593999997E+02  0.45594000000E+02  0.51100000000E-03 0. -1.
    9900012    2    1    2    0    0 -0.80378867886E+01 -0.74241378749E+01 -0.15197447229E+02  0.72461338539E+02  0.69999698095E+02 0.  0.
        -12    1    1    2    0    0  0.80378867886E+01  0.74241378749E+01  0.15197447229E+02  0.18726661461E+02  0.00000000000E+00 0.  1.
         11    1    3    3    0    0 -0.78135165975E+01 -0.50495523300E+01 -0.13381898880E+02  0.16297982643E+02  0.51100000000E-03 0. -1.
        -11    1    3    3    0    0 -0.17536214231E+02  0.18633073068E+02  0.86342514837E+01  0.27004824022E+02  0.51100000000E-03 0.  1.
         12    1    3    3    0    0  0.17311844040E+02 -0.21007658613E+02 -0.10449799833E+02  0.29158531873E+02  0.00000000000E+00 0. -1.
</event>
<event>
 7    1  0.2641045E-013  0.7246156E+02  0.7816164E-02  0.1226708E+00
        -11   -1    0    0    0    0  0.00000000000E+00  0.00000000000E+00  0.45593999997E+02  0.45594000000E+02  0.51100000000E-03 0.  1.
         11   -1    0    0    0    0 -0.00000000000E+00 -0.00000000000E+00 -0.45593999997E+02  0.45594000000E+02  0.51100000000E-03 0. -1.
    9900012    2    1    2    0    0 -0.16126896174E+02 -0.81744128064E+01 -0.48766423884E+01  0.72461562915E+02  0.69999990387E+02 0.  0.
        -12    1    1    2    0    0  0.16126896174E+02  0.81744128064E+01  0.48766423884E+01  0.18726437085E+02  0.00000000000E+00 0.  1.
         11    1    3    3    0    0 -0.24615793173E+02  0.24054193770E+02  0.16156031544E+01  0.34455067628E+02  0.51100000000E-03 0. -1.
        -11    1    3    3    0    0  0.24845489652E+01 -0.29036365719E+01  0.46925184192E+01  0.60517615847E+01  0.51100000000E-03 0.  1.
        -12    1    3    3    0    0  0.60043480337E+01 -0.29324970005E+02 -0.11184763962E+02  0.31954733702E+02  0.00000000000E+00 0.  1.
</event>
<event>
 7    1  0.2641045E-013  0.7246158E+02  0.7816164E-02  0.1226708E+00
        -11   -1    0    0    0    0  0.00000000000E+00  0.00000000000E+00  0.45593999997E+02  0.45594000000E+02  0.51100000000E-03 0.  1.
         11   -1    0    0    0    0 -0.00000000000E+00 -0.00000000000E+00 -0.45593999997E+02  0.45594000000E+02  0.51100000000E-03 0. -1.
    9900012    2    1    2    0    0  0.16897492968E+02  0.58191365479E+01 -0.55938613716E+01  0.72461577389E+02  0.70000009242E+02 0.  0.
        -12    1    1    2    0    0 -0.16897492968E+02 -0.58191365479E+01  0.55938613716E+01  0.18726422611E+02  0.00000000000E+00 0.  1.
         11    1    3    3    0    0  0.96193111731E+01  0.16943258992E+02 -0.40944913249E+01  0.19909043980E+02  0.51100000000E-03 0. -1.
        -11    1    3    3    0    0 -0.17449072733E+02  0.76544236324E+01  0.71003966400E+01  0.20334108613E+02  0.51100000000E-03 0.  1.
         12    1    3    3    0    0  0.24727254528E+02 -0.18778546077E+02 -0.85997666867E+01  0.32218424796E+02  0.00000000000E+00 0. -1.
</event>
<event>
 7    1  0.2641045E-013  0.7246158E+02  0.7816164E-02  0.1226708E+00
        -11   -1    0    0    0    0  0.00000000000E+00  0.00000000000E+00  0.45593999997E+02  0.45594000000E+02  0.51100000000E-03 0.  1.
         11   -1    0    0    0    0 -0.00000000000E+00 -0.00000000000E+00 -0.45593999997E+02  0.45594000000E+02  0.51100000000E-03 0. -1.
    9900012    2    1    2    0    0  0.49651735029E+01 -0.17440048988E+02 -0.46766004364E+01  0.72461578872E+02  0.70000011174E+02 0.  0.
        -12    1    1    2    0    0 -0.49651735029E+01  0.17440048988E+02  0.46766004364E+01  0.18726421128E+02  0.00000000000E+00 0.  1.
         11    1    3    3    0    0  0.69161529594E+01  0.46523478330E+01  0.92677439688E+01  0.12464693765E+02  0.51100000000E-03 0. -1.
        -11    1    3    3    0    0  0.47190847387E+01 -0.21163924279E+01  0.19665321708E+02  0.20334054092E+02  0.51100000000E-03 0.  1.
         12    1    3    3    0    0 -0.66700641953E+01 -0.19976004393E+02 -0.33609666113E+02  0.39662831015E+02  0.00000000000E+00 0. -1.
</event>
<event>
 7    1  0.2641045E-013  0.7246165E+02  0.7816164E-02  0.1226708E+00
        -11   -1    0    0    0    0  0.00000000000E+00  0.00000000000E+00  0.45593999997E+02  0.45594000000E+02  0.51100000000E-03 0. -1.
         11   -1    0    0    0    0 -0.00000000000E+00 -0.00000000000E+00 -0.45593999997E+02  0.45594000000E+02  0.51100000000E-03 0.  1.
    9900012    2    1    2    0    0  0.37671585659E+01  0.12088561493E+02  0.13796791730E+02  0.72461647855E+02  0.70000101037E+02 0.  0.
        -12    1    1    2    0    0 -0.37671585659E+01 -0.12088561493E+02 -0.13796791730E+02  0.18726352145E+02  0.00000000000E+00 0.  1.
         11    1    3    3    0    0 -0.49614600311E+01 -0.16893579641E+02  0.16216581133E+02  0.23937138982E+02  0.51100000000E-03 0. -1.
        -11    1    3    3    0    0 -0.37467404466E+01 -0.78206613741E+01  0.32347450894E+01  0.92555056240E+01  0.51100000000E-03 0.  1.
        -12    1    3    3    0    0  0.12475359044E+02  0.36802802509E+02 -0.56545344932E+01  0.39269003248E+02  0.00000000000E+00 0.  1.
</event>
<event>
 7    1  0.2641045E-013  0.7246155E+02  0.7816164E-02  0.1226708E+00
        -11   -1    0    0    0    0  0.00000000000E+00  0.00000000000E+00  0.45593999997E+02  0.45594000000E+02  0.51100000000E-03 0.  1.
         11   -1    0    0    0    0 -0.00000000000E+00 -0.00000000000E+00 -0.45593999997E+02  0.45594000000E+02  0.51100000000E-03 0. -1.
    9900012    2    1    2    0    0  0.73747885142E+01 -0.16094896843E+02  0.61029983464E+01  0.72461553491E+02  0.69999978111E+02 0.  0.
        -12    1    1    2    0    0 -0.73747885142E+01  0.16094896843E+02 -0.61029983464E+01  0.18726446509E+02  0.00000000000E+00 0.  1.
         11    1    3    3    0    0 -0.12784410142E+02  0.97516142431E-01 -0.14491040264E+02  0.19324619020E+02  0.51100000000E-03 0. -1.
        -11    1    3    3    0    0  0.21129484666E+01 -0.41178196015E+01 -0.12627507709E+02  0.13448975452E+02  0.51100000000E-03 0.  1.
        -12    1    3    3    0    0  0.18046250189E+02 -0.12074593384E+02  0.33221546320E+02  0.39687959020E+02  0.00000000000E+00 0.  1.
</event>
<event>
 7    1  0.2641045E-013  0.7246141E+02  0.7816164E-02  0.1226708E+00
        -11   -1    0    0    0    0  0.00000000000E+00  0.00000000000E+00  0.45593999997E+02  0.45594000000E+02  0.51100000000E-03 0.  1.
         11   -1    0    0    0    0 -0.00000000000E+00 -0.00000000000E+00 -0.45593999997E+02  0.45594000000E+02  0.51100000000E-03 0. -1.
    9900012    2    1    2    0    0  0.16281108956E+02 -0.75662938527E+01  0.53255828520E+01  0.72461410769E+02  0.69999792189E+02 0.  0.
        -12    1    1    2    0    0 -0.16281108956E+02  0.75662938527E+01 -0.53255828520E+01  0.18726589231E+02  0.00000000000E+00 0.  1.
         11    1    3    3    0    0  0.12156087958E+02 -0.25022396876E+01 -0.28206836801E+02  0.30816510518E+02  0.51100000000E-03 0. -1.
        -11    1    3    3    0    0 -0.12474220751E+01  0.85949073496E+01  0.63702115879E+01  0.10770705182E+02  0.51100000000E-03 0.  1.
        -12    1    3    3    0    0  0.53724430724E+01 -0.13658961515E+02  0.27162208065E+02  0.30874195070E+02  0.00000000000E+00 0.  1.
</event>
<event>
 7    1  0.2641045E-013  0.7246152E+02  0.7816164E-02  0.1226708E+00
        -11   -1    0    0    0    0  0.00000000000E+00  0.00000000000E+00  0.45593999997E+02  0.45594000000E+02  0.51100000000E-03 0. -1.
         11   -1    0    0    0    0 -0.00000000000E+00 -0.00000000000E+00 -0.45593999997E+02  0.45594000000E+02  0.51100000000E-03 0.  1.
    9900012    2    1    2    0    0  0.38899835260E+01  0.17641447703E+02 -0.49323855592E+01  0.72461519386E+02  0.69999933682E+02 0.  0.
        -12    1    1    2    0    0 -0.38899835260E+01 -0.17641447703E+02  0.49323855592E+01  0.18726480614E+02  0.00000000000E+00 0.  1.
         11    1    3    3    0    0 -0.70412515866E+01  0.23141990881E+02 -0.11299319747E+02  0.26698419295E+02  0.51100000000E-03 0. -1.
        -11    1    3    3    0    0  0.67215105656E+01  0.17571061831E+02 -0.53331022284E+01  0.19554101815E+02  0.51100000000E-03 0.  1.
        -12    1    3    3    0    0  0.42097245470E+01 -0.23071605009E+02  0.11700036416E+02  0.26208998275E+02  0.00000000000E+00 0.  1.
</event>
<event>
 7    1  0.2641045E-013  0.7246148E+02  0.7816164E-02  0.1226708E+00
        -11   -1    0    0    0    0  0.00000000000E+00  0.00000000000E+00  0.45593999997E+02  0.45594000000E+02  0.51100000000E-03 0.  1.
         11   -1    0    0    0    0 -0.00000000000E+00 -0.00000000000E+00 -0.45593999997E+02  0.45594000000E+02  0.51100000000E-03 0. -1.
    9900012    2    1    2    0    0 -0.19316601335E+01 -0.18269759554E+02  0.36286278229E+01  0.72461484977E+02  0.69999888859E+02 0.  0.
        -12    1    1    2    0    0  0.19316601335E+01  0.18269759554E+02 -0.36286278229E+01  0.18726515023E+02  0.00000000000E+00 0.  1.
         11    1    3    3    0    0  0.16235935915E+02  0.69319553405E+01 -0.19233726588E+02  0.26107352578E+02  0.51100000000E-03 0. -1.
        -11    1    3    3    0    0 -0.56222670524E+00  0.20204984155E+01 -0.38258362095E+01  0.43629732612E+01  0.51100000000E-03 0.  1.
        -12    1    3    3    0    0 -0.17605369343E+02 -0.27222213310E+02  0.26688190621E+02  0.41991159138E+02  0.00000000000E+00 0.  1.
</event>
<event>
 7    1  0.2641045E-013  0.7246161E+02  0.7816164E-02  0.1226708E+00
        -11   -1    0    0    0    0  0.00000000000E+00  0.00000000000E+00  0.45593999997E+02  0.45594000000E+02  0.51100000000E-03 0.  1.
         11   -1    0    0    0    0 -0.00000000000E+00 -0.00000000000E+00 -0.45593999997E+02  0.45594000000E+02  0.51100000000E-03 0. -1.
    9900012    2    1    2    0    0  0.12674119318E+02 -0.12012995931E+02 -0.67625793798E+01  0.72461605484E+02  0.70000045841E+02 0.  0.
        -12    1    1    2    0    0 -0.12674119318E+02  0.12012995931E+02  0.67625793798E+01  0.18726394516E+02  0.00000000000E+00 0.  1.
         11    1    3    3    0    0  0.28898941146E+02  0.78929380383E+00  0.13424788298E+02  0.31874703530E+02  0.51100000000E-03 0. -1.
        -11    1    3    3    0    0  0.67033974860E+01 -0.69425162816E+01 -0.26791520516E+00  0.96543176348E+01  0.51100000000E-03 0.  1.
        -12    1    3    3    0    0 -0.22928219314E+02 -0.58597734529E+01 -0.19919452472E+02  0.30932584319E+02  0.00000000000E+00 0.  1.
</event>
<event>
 7    1  0.2641045E-013  0.7246160E+02  0.7816164E-02  0.1226708E+00
        -11   -1    0    0    0    0  0.00000000000E+00  0.00000000000E+00  0.45593999997E+02  0.45594000000E+02  0.51100000000E-03 0.  1.
         11   -1    0    0    0    0 -0.00000000000E+00 -0.00000000000E+00 -0.45593999997E+02  0.45594000000E+02  0.51100000000E-03 0. -1.
    9900012    2    1    2    0    0  0.17491475477E+01  0.15004376478E+02 -0.11067387348E+02  0.72461604369E+02  0.70000044388E+02 0.  0.
        -12    1    1    2    0    0 -0.17491475477E+01 -0.15004376478E+02  0.11067387348E+02  0.18726395631E+02  0.00000000000E+00 0.  1.
         11    1    3    3    0    0  0.25477154322E+01 -0.10942911541E+02 -0.17393944934E+02  0.20707184443E+02  0.51100000000E-03 0. -1.
        -11    1    3    3    0    0  0.18493332265E+02 -0.52747361229E-01  0.57749993732E+01  0.19374125492E+02  0.51100000000E-03 0.  1.
        -12    1    3    3    0    0 -0.19291900150E+02  0.26000035380E+02  0.55155821285E+00  0.32380294434E+02  0.00000000000E+00 0.  1.
</event>
<event>
 7    1  0.2641045E-013  0.7246158E+02  0.7816164E-02  0.1226708E+00
        -11   -1    0    0    0    0  0.00000000000E+00  0.00000000000E+00  0.45593999997E+02  0.45594000000E+02  0.51100000000E-03 0.  1.
         11   -1    0    0    0    0 -0.00000000000E+00 -0.00000000000E+00 -0.45593999997E+02  0.45594000000E+02  0.51100000000E-03 0. -1.
    9900012    2    1    2    0    0 -0.72541358718E+01 -0.62978607294E+01 -0.16074620192E+02  0.72461576120E+02  0.70000007590E+02 0.  0.
        -12    1    1    2    0    0  0.72541358718E+01  0.62978607294E+01  0.16074620192E+02  0.18726423880E+02  0.00000000000E+00 0.  1.
         11    1    3    3    0    0  0.14209593368E+02  0.49015576462E+01 -0.69470987463E+01  0.16558985243E+02  0.51100000000E-03 0. -1.
        -11    1    3    3    0    0  0.14685960957E+02  0.26214343027E+01 -0.85544005177E+01  0.17196718743E+02  0.51100000000E-03 0.  1.
         12    1    3    3    0    0 -0.36149690197E+02 -0.13820852678E+02 -0.57312092749E+00  0.38705872134E+02  0.00000000000E+00 0. -1.
</event>
<event>
 7    1  0.2641045E-013  0.7246157E+02  0.7816164E-02  0.1226708E+00
        -11   -1    0    0    0    0  0.00000000000E+00  0.00000000000E+00  0.45593999997E+02  0.45594000000E+02  0.51100000000E-03 0. -1.
         11   -1    0    0    0    0 -0.00000000000E+00 -0.00000000000E+00 -0.45593999997E+02  0.45594000000E+02  0.51100000000E-03 0.  1.
    9900012    2    1    2    0    0 -0.10438618167E+02  0.23855166415E+01  0.15363069613E+02  0.72461565560E+02  0.69999993833E+02 0.  0.
        -12    1    1    2    0    0  0.10438618167E+02 -0.23855166415E+01 -0.15363069613E+02  0.18726434440E+02  0.00000000000E+00 0.  1.
         11    1    3    3    0    0 -0.51275482047E+01 -0.14969625768E+02 -0.77124334569E+01  0.17602928061E+02  0.51100000000E-03 0.  1.
        -11    1    3    3    0    0  0.16015218827E+02 -0.99520166287E+00 -0.32005496097E+01  0.16362187461E+02  0.51100000000E-03 0. -1.
        -12    1    3    3    0    0 -0.21326288790E+02  0.18350344073E+02  0.26276052680E+02  0.38496450038E+02  0.00000000000E+00 0.  1.
</event>
<event>
 7    1  0.2641045E-013  0.7246133E+02  0.7816164E-02  0.1226709E+00
        -11   -1    0    0    0    0  0.00000000000E+00  0.00000000000E+00  0.45593999997E+02  0.45594000000E+02  0.51100000000E-03 0.  1.
         11   -1    0    0    0    0 -0.00000000000E+00 -0.00000000000E+00 -0.45593999997E+02  0.45594000000E+02  0.51100000000E-03 0. -1.
    9900012    2    1    2    0    0  0.77992926396E+01  0.10915917271E+02 -0.13065292483E+02  0.72461332298E+02  0.69999689965E+02 0.  0.
        -12    1    1    2    0    0 -0.77992926396E+01 -0.10915917271E+02  0.13065292483E+02  0.18726667702E+02  0.00000000000E+00 0.  1.
         11    1    3    3    0    0 -0.96490650254E+01  0.19448444109E+02 -0.19387254723E+02  0.29106907772E+02  0.51100000000E-03 0. -1.
        -11    1    3    3    0    0 -0.10946209145E+02 -0.84925198190E+01  0.56209729638E+01  0.14951178042E+02  0.51100000000E-03 0.  1.
         12    1    3    3    0    0  0.28394566810E+02 -0.40007018568E-01  0.70098927640E+00  0.28403246484E+02  0.00000000000E+00 0. -1.
</event>
<event>
 7    1  0.2641045E-013  0.7246158E+02  0.7816164E-02  0.1226708E+00
        -11   -1    0    0    0    0  0.00000000000E+00  0.00000000000E+00  0.45593999997E+02  0.45594000000E+02  0.51100000000E-03 0. -1.
         11   -1    0    0    0    0 -0.00000000000E+00 -0.00000000000E+00 -0.45593999997E+02  0.45594000000E+02  0.51100000000E-03 0.  1.
    9900012    2    1    2    0    0  0.74746443179E+00 -0.49120048577E+00  0.18705045911E+02  0.72461582203E+02  0.70000015513E+02 0.  0.
        -12    1    1    2    0    0 -0.74746443179E+00  0.49120048577E+00 -0.18705045911E+02  0.18726417797E+02  0.00000000000E+00 0.  1.
         11    1    3    3    0    0 -0.80633273455E+00  0.17451836896E+02  0.95524222975E+01  0.19911442829E+02  0.51100000000E-03 0. -1.
        -11    1    3    3    0    0  0.20299523219E+02 -0.79841954568E+01 -0.99665266549E+01  0.23982278329E+02  0.51100000000E-03 0.  1.
         12    1    3    3    0    0 -0.18745726053E+02 -0.99588419247E+01  0.19119150268E+02  0.28567861045E+02  0.00000000000E+00 0. -1.
</event>
<event>
 7    1  0.2641045E-013  0.7246172E+02  0.7816164E-02  0.1226708E+00
        -11   -1    0    0    0    0  0.00000000000E+00  0.00000000000E+00  0.45593999997E+02  0.45594000000E+02  0.51100000000E-03 0. -1.
         11   -1    0    0    0    0 -0.00000000000E+00 -0.00000000000E+00 -0.45593999997E+02  0.45594000000E+02  0.51100000000E-03 0.  1.
    9900012    2    1    2    0    0 -0.12452799040E+01 -0.28819150355E+01  0.18461237213E+02  0.72461723388E+02  0.70000199432E+02 0.  0.
        -12    1    1    2    0    0  0.12452799040E+01  0.28819150355E+01 -0.18461237213E+02  0.18726276612E+02  0.00000000000E+00 0.  1.
         11    1    3    3    0    0  0.29677011984E+01 -0.10007728773E+02  0.12304933216E+01  0.10510756380E+02  0.51100000000E-03 0. -1.
        -11    1    3    3    0    0 -0.87937406567E+01 -0.25053152285E+02  0.39709116276E+01  0.26846944958E+02  0.51100000000E-03 0.  1.
         12    1    3    3    0    0  0.45807595543E+01  0.32178966023E+02  0.13259832264E+02  0.35104022050E+02  0.00000000000E+00 0. -1.
</event>
<event>
 7    1  0.2641045E-013  0.7246149E+02  0.7816164E-02  0.1226708E+00
        -11   -1    0    0    0    0  0.00000000000E+00  0.00000000000E+00  0.45593999997E+02  0.45594000000E+02  0.51100000000E-03 0.  1.
         11   -1    0    0    0    0 -0.00000000000E+00 -0.00000000000E+00 -0.45593999997E+02  0.45594000000E+02  0.51100000000E-03 0. -1.
    9900012    2    1    2    0    0  0.12877808412E+01 -0.95848491805E+01 -0.16036039061E+02  0.72461487723E+02  0.69999892435E+02 0.  0.
        -12    1    1    2    0    0 -0.12877808412E+01  0.95848491805E+01  0.16036039061E+02  0.18726512277E+02  0.00000000000E+00 0.  1.
         11    1    3    3    0    0 -0.62403741836E+01  0.32174267380E+01 -0.20213250724E+02  0.21397887976E+02  0.51100000000E-03 0. -1.
        -11    1    3    3    0    0 -0.19688905117E+02 -0.28863654680E+00 -0.38208647694E+01  0.20058297624E+02  0.51100000000E-03 0.  1.
        -12    1    3    3    0    0  0.27217060141E+02 -0.12513639372E+02  0.79980764326E+01  0.31005302122E+02  0.00000000000E+00 0.  1.
</event>
<event>
 7    1  0.2641045E-013  0.7246169E+02  0.7816164E-02  0.1226708E+00
        -11   -1    0    0    0    0  0.00000000000E+00  0.00000000000E+00  0.45593999997E+02  0.45594000000E+02  0.51100000000E-03 0.  1.
         11   -1    0    0    0    0 -0.00000000000E+00 -0.00000000000E+00 -0.45593999997E+02  0.45594000000E+02  0.51100000000E-03 0. -1.
    9900012    2    1    2    0    0 -0.11269339259E+02  0.14895014561E+02 -0.13473381980E+01  0.72461687327E+02  0.70000152457E+02 0.  0.
        -12    1    1    2    0    0  0.11269339259E+02 -0.14895014561E+02  0.13473381980E+01  0.18726312673E+02  0.00000000000E+00 0.  1.
         11    1    3    3    0    0 -0.96588562562E+01  0.13171180764E+02 -0.26652344640E+02  0.31258934434E+02  0.51100000000E-03 0. -1.
        -11    1    3    3    0    0  0.59770885110E+01  0.57711063046E+01 -0.50028911446E+01  0.96984625128E+01  0.51100000000E-03 0.  1.
        -12    1    3    3    0    0 -0.75875715140E+01 -0.40472725077E+01  0.30307897586E+02  0.31504290380E+02  0.00000000000E+00 0.  1.
</event>
<event>
 7    1  0.2641045E-013  0.7246157E+02  0.7816164E-02  0.1226708E+00
        -11   -1    0    0    0    0  0.00000000000E+00  0.00000000000E+00  0.45593999997E+02  0.45594000000E+02  0.51100000000E-03 0.  1.
         11   -1    0    0    0    0 -0.00000000000E+00 -0.00000000000E+00 -0.45593999997E+02  0.45594000000E+02  0.51100000000E-03 0. -1.
    9900012    2    1    2    0    0  0.56752731923E+01 -0.57641412491E+01 -0.16889206479E+02  0.72461565592E+02  0.69999993875E+02 0.  0.
        -12    1    1    2    0    0 -0.56752731923E+01  0.57641412491E+01  0.16889206479E+02  0.18726434408E+02  0.00000000000E+00 0.  1.
         11    1    3    3    0    0 -0.23156488433E+02 -0.44077430214E+01  0.81154858734E+01  0.24930147739E+02  0.51100000000E-03 0. -1.
        -11    1    3    3    0    0  0.97392765978E+01  0.46851251345E+01  0.46360496747E+01  0.11759968666E+02  0.51100000000E-03 0.  1.
        -12    1    3    3    0    0  0.19092485027E+02 -0.60415233622E+01 -0.29640742027E+02  0.35771449187E+02  0.00000000000E+00 0.  1.
</event>
<event>
 7    1  0.2641045E-013  0.7246161E+02  0.7816164E-02  0.1226708E+00
        -11   -1    0    0    0    0  0.00000000000E+00  0.00000000000E+00  0.45593999997E+02  0.45594000000E+02  0.51100000000E-03 0.  1.
         11   -1    0    0    0    0 -0.00000000000E+00 -0.00000000000E+00 -0.45593999997E+02  0.45594000000E+02  0.51100000000E-03 0. -1.
    9900012    2    1    2    0    0  0.18520176375E+02 -0.26273785245E+01  0.88183166025E+00  0.72461610120E+02  0.70000051880E+02 0.  0.
        -12    1    1    2    0    0 -0.18520176375E+02  0.26273785245E+01 -0.88183166025E+00  0.18726389880E+02  0.00000000000E+00 0.  1.
         11    1    3    3    0    0  0.12376937974E+02 -0.15418004258E+02  0.11836745178E+02  0.23043697307E+02  0.51100000000E-03 0. -1.
        -11    1    3    3    0    0 -0.72150526780E+01 -0.10156580657E+02  0.96907703854E+01  0.15783667087E+02  0.51100000000E-03 0.  1.
         12    1    3    3    0    0  0.13358291079E+02  0.22947206390E+02 -0.20645683903E+02  0.33634245726E+02  0.00000000000E+00 0. -1.
</event>
<event>
 7    1  0.2641045E-013  0.7246151E+02  0.7816164E-02  0.1226708E+00
        -11   -1    0    0    0    0  0.00000000000E+00  0.00000000000E+00  0.45593999997E+02  0.45594000000E+02  0.51100000000E-03 0.  1.
         11   -1    0    0    0    0 -0.00000000000E+00 -0.00000000000E+00 -0.45593999997E+02  0.45594000000E+02  0.51100000000E-03 0. -1.
    9900012    2    1    2    0    0 -0.16390104298E+02  0.52696790692E+01 -0.73672449165E+01  0.72461512501E+02  0.69999924713E+02 0.  0.
        -12    1    1    2    0    0  0.16390104298E+02 -0.52696790692E+01  0.73672449165E+01  0.18726487499E+02  0.00000000000E+00 0.  1.
         11    1    3    3    0    0 -0.15079483985E+02 -0.24441560443E+02 -0.22451995364E+01  0.28806624852E+02  0.51100000000E-03 0. -1.
        -11    1    3    3    0    0 -0.61566821095E+01 -0.74030488976E+00  0.80188261287E+01  0.10136782461E+02  0.51100000000E-03 0.  1.
        -12    1    3    3    0    0  0.48460617969E+01  0.30451544402E+02 -0.13140871509E+02  0.33518105188E+02  0.00000000000E+00 0.  1.
</event>
<event>
 7    1  0.2641045E-013  0.7246159E+02  0.7816164E-02  0.1226708E+00
        -11   -1    0    0    0    0  0.00000000000E+00  0.00000000000E+00  0.45593999997E+02  0.45594000000E+02  0.51100000000E-03 0.  1.
         11   -1    0    0    0    0 -0.00000000000E+00 -0.00000000000E+00 -0.45593999997E+02  0.45594000000E+02  0.51100000000E-03 0. -1.
    9900012    2    1    2    0    0  0.14909785807E+02  0.78664524457E+01  0.81544889067E+01  0.72461588805E+02  0.70000024114E+02 0.  0.
        -12    1    1    2    0    0 -0.14909785807E+02 -0.78664524457E+01 -0.81544889067E+01  0.18726411195E+02  0.00000000000E+00 0.  1.
         11    1    3    3    0    0 -0.65170213116E+01 -0.11294310590E+02 -0.67176336143E+01  0.14668320290E+02  0.51100000000E-03 0. -1.
        -11    1    3    3    0    0  0.76042731368E+00 -0.10891774801E+02  0.18142280473E+02  0.21174308703E+02  0.51100000000E-03 0.  1.
        -12    1    3    3    0    0  0.20666379805E+02  0.30052537837E+02 -0.32701579525E+01  0.36618959812E+02  0.00000000000E+00 0.  1.
</event>
<event>
 7    1  0.2641045E-013  0.7246159E+02  0.7816164E-02  0.1226708E+00
        -11   -1    0    0    0    0  0.00000000000E+00  0.00000000000E+00  0.45593999997E+02  0.45594000000E+02  0.51100000000E-03 0.  1.
         11   -1    0    0    0    0 -0.00000000000E+00 -0.00000000000E+00 -0.45593999997E+02  0.45594000000E+02  0.51100000000E-03 0. -1.
    9900012    2    1    2    0    0 -0.99711012620E+01  0.13739861426E+02 -0.79039093748E+01  0.72461589885E+02  0.70000025521E+02 0.  0.
        -12    1    1    2    0    0  0.99711012620E+01 -0.13739861426E+02  0.79039093748E+01  0.18726410115E+02  0.00000000000E+00 0.  1.
         11    1    3    3    0    0  0.43703259496E+01  0.21584881298E+00 -0.13787742473E+01  0.45877399994E+01  0.51100000000E-03 0. -1.
        -11    1    3    3    0    0  0.27399395243E+01  0.36798095696E+02  0.40648567595E+01  0.37123175729E+02  0.51100000000E-03 0.  1.
         12    1    3    3    0    0 -0.17081366736E+02 -0.23274083083E+02 -0.10589991887E+02  0.30750674157E+02  0.00000000000E+00 0. -1.
</event>
<event>
 7    1  0.2641045E-013  0.7246166E+02  0.7816164E-02  0.1226708E+00
        -11   -1    0    0    0    0  0.00000000000E+00  0.00000000000E+00  0.45593999997E+02  0.45594000000E+02  0.51100000000E-03 0.  1.
         11   -1    0    0    0    0 -0.00000000000E+00 -0.00000000000E+00 -0.45593999997E+02  0.45594000000E+02  0.51100000000E-03 0. -1.
    9900012    2    1    2    0    0  0.33320071209E+01  0.16862072323E+02 -0.74326380587E+01  0.72461658579E+02  0.70000115008E+02 0.  0.
        -12    1    1    2    0    0 -0.33320071209E+01 -0.16862072323E+02  0.74326380587E+01  0.18726341421E+02  0.00000000000E+00 0.  1.
         11    1    3    3    0    0 -0.40620440701E+01  0.57234457921E+01  0.25466405577E+00  0.70230255450E+01  0.51100000000E-03 0. -1.
        -11    1    3    3    0    0 -0.19913666607E+02  0.24220069488E+02 -0.14273377869E+02  0.34451345399E+02  0.51100000000E-03 0.  1.
         12    1    3    3    0    0  0.27307717798E+02 -0.13081442957E+02  0.65860757542E+01  0.30987287636E+02  0.00000000000E+00 0. -1.
</event>
<event>
 7    1  0.2641045E-013  0.7246158E+02  0.7816164E-02  0.1226708E+00
        -11   -1    0    0    0    0  0.00000000000E+00  0.00000000000E+00  0.45593999997E+02  0.45594000000E+02  0.51100000000E-03 0.  1.
         11   -1    0    0    0    0 -0.00000000000E+00 -0.00000000000E+00 -0.45593999997E+02  0.45594000000E+02  0.51100000000E-03 0. -1.
    9900012    2    1    2    0    0  0.15687244996E+02 -0.92825072685E+01 -0.42923296518E+01  0.72461583082E+02  0.70000016658E+02 0.  0.
        -12    1    1    2    0    0 -0.15687244996E+02  0.92825072685E+01  0.42923296518E+01  0.18726416918E+02  0.00000000000E+00 0.  1.
         11    1    3    3    0    0 -0.49740488974E+01  0.40519119522E+01  0.67908322294E+00  0.64513802545E+01  0.51100000000E-03 0. -1.
        -11    1    3    3    0    0  0.28588683928E+02  0.14276266959E+02 -0.15370716913E+02  0.35459604985E+02  0.51100000000E-03 0.  1.
         12    1    3    3    0    0 -0.79273900342E+01 -0.27610686180E+02  0.10399304038E+02  0.30550597843E+02  0.00000000000E+00 0. -1.
</event>
<event>
 7    1  0.2641045E-013  0.7246156E+02  0.7816164E-02  0.1226708E+00
        -11   -1    0    0    0    0  0.00000000000E+00  0.00000000000E+00  0.45593999997E+02  0.45594000000E+02  0.51100000000E-03 0. -1.
         11   -1    0    0    0    0 -0.00000000000E+00 -0.00000000000E+00 -0.45593999997E+02  0.45594000000E+02  0.51100000000E-03 0.  1.
    9900012    2    1    2    0    0  0.15276876684E+02 -0.10651204607E+02 -0.19617902142E+01  0.72461555018E+02  0.69999980100E+02 0.  0.
        -12    1    1    2    0    0 -0.15276876684E+02  0.10651204607E+02  0.19617902142E+01  0.18726444982E+02  0.00000000000E+00 0.  1.
         11    1    3    3    0    0 -0.12887430379E+01  0.87010828642E-01 -0.10650957861E+01  0.16741740641E+01  0.51100000000E-03 0. -1.
        -11    1    3    3    0    0 -0.18383164661E+02 -0.57186817235E+01 -0.22330152524E+02  0.29483550933E+02  0.51100000000E-03 0.  1.
         12    1    3    3    0    0  0.34948784383E+02 -0.50195337120E+01  0.21433458096E+02  0.41303830022E+02  0.00000000000E+00 0. -1.
</event>
<event>
 7    1  0.2641045E-013  0.7246158E+02  0.7816164E-02  0.1226708E+00
        -11   -1    0    0    0    0  0.00000000000E+00  0.00000000000E+00  0.45593999997E+02  0.45594000000E+02  0.51100000000E-03 0. -1.
         11   -1    0    0    0    0 -0.00000000000E+00 -0.00000000000E+00 -0.45593999997E+02  0.45594000000E+02  0.51100000000E-03 0.  1.
    9900012    2    1    2    0    0 -0.15976213103E+02  0.57454995977E+01  0.79011789267E+01  0.72461580717E+02  0.70000013577E+02 0.  0.
        -12    1    1    2    0    0  0.15976213103E+02 -0.57454995977E+01 -0.79011789267E+01  0.18726419283E+02  0.00000000000E+00 0.  1.
         11    1    3    3    0    0  0.11275237588E+02 -0.44876964774E+01 -0.12506583302E+02  0.17426561006E+02  0.51100000000E-03 0. -1.
        -11    1    3    3    0    0 -0.82878583281E+01 -0.15862846741E+02  0.23083353691E+01  0.18045689647E+02  0.51100000000E-03 0.  1.
         12    1    3    3    0    0 -0.18963592363E+02  0.26096042816E+02  0.18099426860E+02  0.36989330064E+02  0.00000000000E+00 0. -1.
</event>
<event>
 7    1  0.2641045E-013  0.7246153E+02  0.7816164E-02  0.1226708E+00
        -11   -1    0    0    0    0  0.00000000000E+00  0.00000000000E+00  0.45593999997E+02  0.45594000000E+02  0.51100000000E-03 0.  1.
         11   -1    0    0    0    0 -0.00000000000E+00 -0.00000000000E+00 -0.45593999997E+02  0.45594000000E+02  0.51100000000E-03 0. -1.
    9900012    2    1    2    0    0  0.15388903667E+02  0.95648557981E+01 -0.47303058815E+01  0.72461531667E+02  0.69999949680E+02 0.  0.
        -12    1    1    2    0    0 -0.15388903667E+02 -0.95648557981E+01  0.47303058815E+01  0.18726468333E+02  0.00000000000E+00 0.  1.
         11    1    3    3    0    0  0.64741282501E+01  0.10129938297E+02 -0.62071258152E-01  0.12022222740E+02  0.51100000000E-03 0. -1.
        -11    1    3    3    0    0  0.32258322468E+02 -0.11736862095E+02 -0.14127447157E+01  0.34356209747E+02  0.51100000000E-03 0.  1.
         12    1    3    3    0    0 -0.23343547051E+02  0.11171779596E+02 -0.32554899076E+01  0.26083099180E+02  0.00000000000E+00 0. -1.
</event>
<event>
 7    1  0.2641045E-013  0.7246150E+02  0.7816164E-02  0.1226708E+00
        -11   -1    0    0    0    0  0.00000000000E+00  0.00000000000E+00  0.45593999997E+02  0.45594000000E+02  0.51100000000E-03 0.  1.
         11   -1    0    0    0    0 -0.00000000000E+00 -0.00000000000E+00 -0.45593999997E+02  0.45594000000E+02  0.51100000000E-03 0. -1.
    9900012    2    1    2    0    0  0.45684029825E+00 -0.11721959669E+02  0.14596868648E+02  0.72461504976E+02  0.69999914911E+02 0.  0.
        -12    1    1    2    0    0 -0.45684029825E+00  0.11721959669E+02 -0.14596868648E+02  0.18726495024E+02  0.00000000000E+00 0.  1.
         11    1    3    3    0    0  0.32234155072E+00  0.53828425388E+01 -0.20029919407E+01  0.57524668490E+01  0.51100000000E-03 0. -1.
        -11    1    3    3    0    0  0.29196505695E+02  0.81517316552E+00  0.14214437144E+02  0.32483082915E+02  0.51100000000E-03 0.  1.
         12    1    3    3    0    0 -0.29062006947E+02 -0.17919975374E+02  0.23854234451E+01  0.34225955212E+02  0.00000000000E+00 0. -1.
</event>
<event>
 7    1  0.2641045E-013  0.7246158E+02  0.7816164E-02  0.1226708E+00
        -11   -1    0    0    0    0  0.00000000000E+00  0.00000000000E+00  0.45593999997E+02  0.45594000000E+02  0.51100000000E-03 0. -1.
         11   -1    0    0    0    0 -0.00000000000E+00 -0.00000000000E+00 -0.45593999997E+02  0.45594000000E+02  0.51100000000E-03 0.  1.
    9900012    2    1    2    0    0 -0.18472150114E+02 -0.26521236372E+01 -0.15571867004E+01  0.72461576956E+02  0.70000008678E+02 0.  0.
        -12    1    1    2    0    0  0.18472150114E+02  0.26521236372E+01  0.15571867004E+01  0.18726423044E+02  0.00000000000E+00 0.  1.
         11    1    3    3    0    0 -0.44087903860E+01 -0.95454786192E+01  0.86637489339E+01  0.13624028060E+02  0.51100000000E-03 0. -1.
        -11    1    3    3    0    0 -0.32627786751E+02  0.14816828114E+02  0.79347268275E+00  0.35843276396E+02  0.51100000000E-03 0.  1.
        -12    1    3    3    0    0  0.18564427024E+02 -0.79234731320E+01 -0.11014408317E+02  0.22994272499E+02  0.00000000000E+00 0.  1.
</event>
<event>
 7    1  0.2641045E-013  0.7246144E+02  0.7816164E-02  0.1226708E+00
        -11   -1    0    0    0    0  0.00000000000E+00  0.00000000000E+00  0.45593999997E+02  0.45594000000E+02  0.51100000000E-03 0. -1.
         11   -1    0    0    0    0 -0.00000000000E+00 -0.00000000000E+00 -0.45593999997E+02  0.45594000000E+02  0.51100000000E-03 0.  1.
    9900012    2    1    2    0    0 -0.12245907153E+02 -0.11168730785E+02 -0.87167130436E+01  0.72461444641E+02  0.69999836313E+02 0.  0.
        -12    1    1    2    0    0  0.12245907153E+02  0.11168730785E+02  0.87167130436E+01  0.18726555359E+02  0.00000000000E+00 0.  1.
         11    1    3    3    0    0 -0.51899882096E+01 -0.23317917676E+02  0.11668305183E+02  0.26585909961E+02  0.51100000000E-03 0. -1.
        -11    1    3    3    0    0 -0.12519612562E+02  0.16207919269E+02  0.37311794798E+01  0.20817277591E+02  0.51100000000E-03 0.  1.
        -12    1    3    3    0    0  0.54636936191E+01 -0.40587323777E+01 -0.24116197706E+02  0.25058257088E+02  0.00000000000E+00 0.  1.
</event>
<event>
 7    1  0.2641045E-013  0.7246157E+02  0.7816164E-02  0.1226708E+00
        -11   -1    0    0    0    0  0.00000000000E+00  0.00000000000E+00  0.45593999997E+02  0.45594000000E+02  0.51100000000E-03 0.  1.
         11   -1    0    0    0    0 -0.00000000000E+00 -0.00000000000E+00 -0.45593999997E+02  0.45594000000E+02  0.51100000000E-03 0. -1.
    9900012    2    1    2    0    0 -0.41179671504E+01 -0.31088179144E+01 -0.18001574185E+02  0.72461572807E+02  0.70000003274E+02 0.  0.
        -12    1    1    2    0    0  0.41179671504E+01  0.31088179144E+01  0.18001574185E+02  0.18726427193E+02  0.00000000000E+00 0.  1.
         11    1    3    3    0    0  0.20931972812E+02 -0.12409757805E+01 -0.22432117682E+02  0.30706471804E+02  0.51100000000E-03 0. -1.
        -11    1    3    3    0    0 -0.57864336518E+01  0.67502976917E+01 -0.12052738880E+02  0.14977244343E+02  0.51100000000E-03 0.  1.
        -12    1    3    3    0    0 -0.19263506310E+02 -0.86181398256E+01  0.16483282377E+02  0.26777856661E+02  0.00000000000E+00 0.  1.
</event>
<event>
 7    1  0.2641045E-013  0.7246154E+02  0.7816164E-02  0.1226708E+00
        -11   -1    0    0    0    0  0.00000000000E+00  0.00000000000E+00  0.45593999997E+02  0.45594000000E+02  0.51100000000E-03 0.  1.
         11   -1    0    0    0    0 -0.00000000000E+00 -0.00000000000E+00 -0.45593999997E+02  0.45594000000E+02  0.51100000000E-03 0. -1.
    9900012    2    1    2    0    0  0.17622195144E+02 -0.63354302400E+01 -0.31893921924E-01  0.72461535965E+02  0.69999955280E+02 0.  0.
        -12    1    1    2    0    0 -0.17622195144E+02  0.63354302400E+01  0.31893921924E-01  0.18726464035E+02  0.00000000000E+00 0.  1.
         11    1    3    3    0    0  0.75036519621E+00  0.25385209595E+02  0.64413442020E+01  0.26200435674E+02  0.51100000000E-03 0. -1.
        -11    1    3    3    0    0 -0.63596580014E+01  0.11872545007E+00 -0.14956128931E+01  0.65342332231E+01  0.51100000000E-03 0.  1.
        -12    1    3    3    0    0  0.23231487949E+02 -0.31839365285E+02 -0.49776252308E+01  0.39726867068E+02  0.00000000000E+00 0.  1.
</event>
<event>
 7    1  0.2641045E-013  0.7246154E+02  0.7816164E-02  0.1226708E+00
        -11   -1    0    0    0    0  0.00000000000E+00  0.00000000000E+00  0.45593999997E+02  0.45594000000E+02  0.51100000000E-03 0. -1.
         11   -1    0    0    0    0 -0.00000000000E+00 -0.00000000000E+00 -0.45593999997E+02  0.45594000000E+02  0.51100000000E-03 0.  1.
    9900012    2    1    2    0    0 -0.15997409610E+02 -0.78928012447E+01 -0.56979667836E+01  0.72461541414E+02  0.69999962378E+02 0.  0.
        -12    1    1    2    0    0  0.15997409610E+02  0.78928012447E+01  0.56979667836E+01  0.18726458586E+02  0.00000000000E+00 0.  1.
         11    1    3    3    0    0  0.76078963969E-01 -0.13336364081E+02  0.21361166264E+02  0.25182609462E+02  0.51100000000E-03 0. -1.
        -11    1    3    3    0    0  0.13327510172E+01 -0.93768812758E+00  0.77076796565E+01  0.78780587867E+01  0.51100000000E-03 0.  1.
        -12    1    3    3    0    0 -0.17406239591E+02  0.63812509636E+01 -0.34766812704E+02  0.39400873165E+02  0.00000000000E+00 0.  1.
</event>
<event>
 7    1  0.2641045E-013  0.7246118E+02  0.7816164E-02  0.1226709E+00
        -11   -1    0    0    0    0  0.00000000000E+00  0.00000000000E+00  0.45593999997E+02  0.45594000000E+02  0.51100000000E-03 0.  1.
         11   -1    0    0    0    0 -0.00000000000E+00 -0.00000000000E+00 -0.45593999997E+02  0.45594000000E+02  0.51100000000E-03 0. -1.
    9900012    2    1    2    0    0 -0.24634367401E+01  0.18519104910E+02  0.12914616698E+01  0.72461183920E+02  0.69999496674E+02 0.  0.
        -12    1    1    2    0    0  0.24634367401E+01 -0.18519104910E+02 -0.12914616698E+01  0.18726816080E+02  0.00000000000E+00 0.  1.
         11    1    3    3    0    0  0.14760667586E+01  0.20639077707E+02 -0.45000282555E+01  0.21175470626E+02  0.51100000000E-03 0. -1.
        -11    1    3    3    0    0  0.56036027049E+01  0.70549662488E+01 -0.20199414321E+02  0.22117623092E+02  0.51100000000E-03 0.  1.
        -12    1    3    3    0    0 -0.95431062036E+01 -0.91749390451E+01  0.25990904247E+02  0.29168090202E+02  0.00000000000E+00 0.  1.
</event>
<event>
 7    1  0.2641045E-013  0.7246162E+02  0.7816164E-02  0.1226708E+00
        -11   -1    0    0    0    0  0.00000000000E+00  0.00000000000E+00  0.45593999997E+02  0.45594000000E+02  0.51100000000E-03 0.  1.
         11   -1    0    0    0    0 -0.00000000000E+00 -0.00000000000E+00 -0.45593999997E+02  0.45594000000E+02  0.51100000000E-03 0. -1.
    9900012    2    1    2    0    0 -0.36129241166E+01 -0.14781486893E+02 -0.10914749599E+02  0.72461619297E+02  0.70000063835E+02 0.  0.
        -12    1    1    2    0    0  0.36129241166E+01  0.14781486893E+02  0.10914749599E+02  0.18726380703E+02  0.00000000000E+00 0.  1.
         11    1    3    3    0    0 -0.21829986694E+02 -0.43566343998E+01 -0.28500915642E+02  0.36163943024E+02  0.51100000000E-03 0. -1.
        -11    1    3    3    0    0 -0.46828028194E+01 -0.51315223705E+01  0.67085074998E-02  0.69470288146E+01  0.51100000000E-03 0.  1.
        -12    1    3    3    0    0  0.22899865397E+02 -0.52933301225E+01  0.17579457536E+02  0.29350647458E+02  0.00000000000E+00 0.  1.
</event>
<event>
 7    1  0.2641045E-013  0.7246157E+02  0.7816164E-02  0.1226708E+00
        -11   -1    0    0    0    0  0.00000000000E+00  0.00000000000E+00  0.45593999997E+02  0.45594000000E+02  0.51100000000E-03 0. -1.
         11   -1    0    0    0    0 -0.00000000000E+00 -0.00000000000E+00 -0.45593999997E+02  0.45594000000E+02  0.51100000000E-03 0.  1.
    9900012    2    1    2    0    0 -0.62678511461E+01  0.13871532790E+02  0.10907512243E+02  0.72461569393E+02  0.69999998826E+02 0.  0.
        -12    1    1    2    0    0  0.62678511461E+01 -0.13871532790E+02 -0.10907512243E+02  0.18726430607E+02  0.00000000000E+00 0.  1.
         11    1    3    3    0    0 -0.51852615480E+01 -0.10237428080E+02  0.16321443812E+02  0.19951977330E+02  0.51100000000E-03 0. -1.
        -11    1    3    3    0    0 -0.14470150928E+02  0.32638817650E+02  0.10724161838E+00  0.35702789618E+02  0.51100000000E-03 0.  1.
         12    1    3    3    0    0  0.13387561330E+02 -0.85298567796E+01 -0.55211731874E+01  0.16806802445E+02  0.00000000000E+00 0. -1.
</event>
<event>
 7    1  0.2641045E-013  0.7246160E+02  0.7816164E-02  0.1226708E+00
        -11   -1    0    0    0    0  0.00000000000E+00  0.00000000000E+00  0.45593999997E+02  0.45594000000E+02  0.51100000000E-03 0.  1.
         11   -1    0    0    0    0 -0.00000000000E+00 -0.00000000000E+00 -0.45593999997E+02  0.45594000000E+02  0.51100000000E-03 0. -1.
    9900012    2    1    2    0    0  0.10893460152E+02 -0.11863712942E+02 -0.95531580130E+01  0.72461601871E+02  0.70000041134E+02 0.  0.
        -12    1    1    2    0    0 -0.10893460152E+02  0.11863712942E+02  0.95531580130E+01  0.18726398129E+02  0.00000000000E+00 0.  1.
         11    1    3    3    0    0  0.74088532361E+01 -0.10143427848E+02 -0.32883010055E+01  0.12984342823E+02  0.51100000000E-03 0. -1.
        -11    1    3    3    0    0  0.29790359804E+02  0.12897024115E+01 -0.12407490067E+02  0.32296666694E+02  0.51100000000E-03 0.  1.
         12    1    3    3    0    0 -0.26305752888E+02 -0.30099875054E+01  0.61426330592E+01  0.27180592353E+02  0.00000000000E+00 0. -1.
</event>
<event>
 7    1  0.2641045E-013  0.7246154E+02  0.7816164E-02  0.1226708E+00
        -11   -1    0    0    0    0  0.00000000000E+00  0.00000000000E+00  0.45593999997E+02  0.45594000000E+02  0.51100000000E-03 0.  1.
         11   -1    0    0    0    0 -0.00000000000E+00 -0.00000000000E+00 -0.45593999997E+02  0.45594000000E+02  0.51100000000E-03 0. -1.
    9900012    2    1    2    0    0  0.14326745500E+02 -0.90158168180E+01 -0.80087241954E+01  0.72461541372E+02  0.69999962323E+02 0.  0.
        -12    1    1    2    0    0 -0.14326745500E+02  0.90158168180E+01  0.80087241954E+01  0.18726458628E+02  0.00000000000E+00 0.  1.
         11    1    3    3    0    0 -0.86861338366E+01 -0.46014846458E+01 -0.41006819339E+00  0.98382284054E+01  0.51100000000E-03 0. -1.
        -11    1    3    3    0    0 -0.22531127446E+01  0.14203953161E+02  0.17346254112E+02  0.22532672598E+02  0.51100000000E-03 0.  1.
         12    1    3    3    0    0  0.25265992081E+02 -0.18618285333E+02 -0.24944910114E+02  0.40090640369E+02  0.00000000000E+00 0. -1.
</event>
<event>
 7    1  0.2641045E-013  0.7246150E+02  0.7816164E-02  0.1226708E+00
        -11   -1    0    0    0    0  0.00000000000E+00  0.00000000000E+00  0.45593999997E+02  0.45594000000E+02  0.51100000000E-03 0.  1.
         11   -1    0    0    0    0 -0.00000000000E+00 -0.00000000000E+00 -0.45593999997E+02  0.45594000000E+02  0.51100000000E-03 0. -1.
    9900012    2    1    2    0    0  0.17283069206E+01  0.65017244222E+01 -0.17476338571E+02  0.72461498054E+02  0.69999905894E+02 0.  0.
        -12    1    1    2    0    0 -0.17283069206E+01 -0.65017244222E+01  0.17476338571E+02  0.18726501946E+02  0.00000000000E+00 0.  1.
         11    1    3    3    0    0 -0.62985915654E+01 -0.75477544198E+01 -0.32299308658E+02  0.33762200647E+02  0.51100000000E-03 0. -1.
        -11    1    3    3    0    0  0.17032451623E+02  0.12457363175E+02 -0.21021403801E+00  0.21102949930E+02  0.51100000000E-03 0.  1.
        -12    1    3    3    0    0 -0.90055531368E+01  0.15921156669E+01  0.15033184125E+02  0.17596347477E+02  0.00000000000E+00 0.  1.
</event>
<event>
 7    1  0.2641045E-013  0.7246159E+02  0.7816164E-02  0.1226708E+00
        -11   -1    0    0    0    0  0.00000000000E+00  0.00000000000E+00  0.45593999997E+02  0.45594000000E+02  0.51100000000E-03 0.  1.
         11   -1    0    0    0    0 -0.00000000000E+00 -0.00000000000E+00 -0.45593999997E+02  0.45594000000E+02  0.51100000000E-03 0. -1.
    9900012    2    1    2    0    0  0.11480433569E+00 -0.18710216445E+02 -0.76998725882E+00  0.72461594583E+02  0.70000031641E+02 0.  0.
        -12    1    1    2    0    0 -0.11480433569E+00  0.18710216445E+02  0.76998725882E+00  0.18726405417E+02  0.00000000000E+00 0.  1.
         11    1    3    3    0    0 -0.10763028159E+02  0.20684312582E+01  0.23344116539E+01  0.11205831564E+02  0.51100000000E-03 0. -1.
        -11    1    3    3    0    0 -0.41992402100E+01  0.17673682492E+02  0.56728950996E+01  0.19030880438E+02  0.51100000000E-03 0.  1.
         12    1    3    3    0    0  0.15077072704E+02 -0.38452330195E+02 -0.87772940123E+01  0.42224882581E+02  0.00000000000E+00 0. -1.
</event>
<event>
 7    1  0.2641045E-013  0.7246165E+02  0.7816164E-02  0.1226708E+00
        -11   -1    0    0    0    0  0.00000000000E+00  0.00000000000E+00  0.45593999997E+02  0.45594000000E+02  0.51100000000E-03 0. -1.
         11   -1    0    0    0    0 -0.00000000000E+00 -0.00000000000E+00 -0.45593999997E+02  0.45594000000E+02  0.51100000000E-03 0.  1.
    9900012    2    1    2    0    0  0.69477864877E+01  0.16029500667E+02  0.67423697055E+01  0.72461650170E+02  0.70000104052E+02 0.  0.
        -12    1    1    2    0    0 -0.69477864877E+01 -0.16029500667E+02 -0.67423697055E+01  0.18726349830E+02  0.00000000000E+00 0.  1.
         11    1    3    3    0    0  0.17142218039E+02  0.26625763373E+02  0.11509500519E+02  0.33693553047E+02  0.51100000000E-03 0. -1.
        -11    1    3    3    0    0  0.10548656642E+02 -0.33952103045E+01  0.77225389005E+01  0.13507006230E+02  0.51100000000E-03 0.  1.
        -12    1    3    3    0    0 -0.20743088194E+02 -0.72010524010E+01 -0.12489669714E+02  0.25261090892E+02  0.00000000000E+00 0.  1.
</event>
<event>
 7    1  0.2641045E-013  0.7246157E+02  0.7816164E-02  0.1226708E+00
        -11   -1    0    0    0    0  0.00000000000E+00  0.00000000000E+00  0.45593999997E+02  0.45594000000E+02  0.51100000000E-03 0.  1.
         11   -1    0    0    0    0 -0.00000000000E+00 -0.00000000000E+00 -0.45593999997E+02  0.45594000000E+02  0.51100000000E-03 0. -1.
    9900012    2    1    2    0    0  0.12337397574E+02  0.13240973111E+00 -0.14087243318E+02  0.72461565861E+02  0.69999994225E+02 0.  0.
        -12    1    1    2    0    0 -0.12337397574E+02 -0.13240973111E+00  0.14087243318E+02  0.18726434139E+02  0.00000000000E+00 0.  1.
         11    1    3    3    0    0 -0.79280601716E+01 -0.28533878558E+02 -0.13782522281E+02  0.32664878453E+02  0.51100000000E-03 0. -1.
        -11    1    3    3    0    0 -0.25250247620E+01 -0.33016288423E+00 -0.13873385604E+01  0.28999079505E+01  0.51100000000E-03 0.  1.
        -12    1    3    3    0    0  0.22790482508E+02  0.28996451174E+02  0.10826175233E+01  0.36896779457E+02  0.00000000000E+00 0.  1.
</event>
<event>
 7    1  0.2641045E-013  0.7246168E+02  0.7816164E-02  0.1226708E+00
        -11   -1    0    0    0    0  0.00000000000E+00  0.00000000000E+00  0.45593999997E+02  0.45594000000E+02  0.51100000000E-03 0. -1.
         11   -1    0    0    0    0 -0.00000000000E+00 -0.00000000000E+00 -0.45593999997E+02  0.45594000000E+02  0.51100000000E-03 0.  1.
    9900012    2    1    2    0    0  0.38133010281E+01  0.18320205837E+02  0.70974114407E+00  0.72461683247E+02  0.70000147141E+02 0.  0.
        -12    1    1    2    0    0 -0.38133010281E+01 -0.18320205837E+02 -0.70974114407E+00  0.18726316753E+02  0.00000000000E+00 0.  1.
         11    1    3    3    0    0  0.11124005307E+02 -0.54295197942E+01  0.29459062208E+01  0.12724053716E+02  0.51100000000E-03 0. -1.
        -11    1    3    3    0    0 -0.17275725912E+01 -0.17497227788E+02 -0.41685137858E+01  0.18069698248E+02  0.51100000000E-03 0.  1.
         12    1    3    3    0    0 -0.55831316873E+01  0.41246953420E+02  0.19323487091E+01  0.41667931282E+02  0.00000000000E+00 0. -1.
</event>
<event>
 7    1  0.2641045E-013  0.7246158E+02  0.7816164E-02  0.1226708E+00
        -11   -1    0    0    0    0  0.00000000000E+00  0.00000000000E+00  0.45593999997E+02  0.45594000000E+02  0.51100000000E-03 0. -1.
         11   -1    0    0    0    0 -0.00000000000E+00 -0.00000000000E+00 -0.45593999997E+02  0.45594000000E+02  0.51100000000E-03 0.  1.
    9900012    2    1    2    0    0 -0.28264411784E+01 -0.12260726181E+02  0.13869551763E+02  0.72461584370E+02  0.70000018337E+02 0.  0.
        -12    1    1    2    0    0  0.28264411784E+01  0.12260726181E+02 -0.13869551763E+02  0.18726415630E+02  0.00000000000E+00 0.  1.
         11    1    3    3    0    0  0.20075301025E+02 -0.54193829261E+01  0.55508579968E+01  0.21522068844E+02  0.51100000000E-03 0. -1.
        -11    1    3    3    0    0  0.78842040609E+01  0.11440254016E+02  0.57688652488E+01  0.15043932071E+02  0.51100000000E-03 0.  1.
        -12    1    3    3    0    0 -0.30785946265E+02 -0.18281597271E+02  0.25498285175E+01  0.35895583456E+02  0.00000000000E+00 0.  1.
</event>
<event>
 7    1  0.2641045E-013  0.7246160E+02  0.7816164E-02  0.1226708E+00
        -11   -1    0    0    0    0  0.00000000000E+00  0.00000000000E+00  0.45593999997E+02  0.45594000000E+02  0.51100000000E-03 0.  1.
         11   -1    0    0    0    0 -0.00000000000E+00 -0.00000000000E+00 -0.45593999997E+02  0.45594000000E+02  0.51100000000E-03 0. -1.
    9900012    2    1    2    0    0  0.16004881683E+02 -0.78463252846E+01  0.57408313320E+01  0.72461596113E+02  0.70000033634E+02 0.  0.
        -12    1    1    2    0    0 -0.16004881683E+02  0.78463252846E+01 -0.57408313320E+01  0.18726403887E+02  0.00000000000E+00 0.  1.
         11    1    3    3    0    0  0.24908488392E+02 -0.11186292304E+02 -0.23073432858E+02  0.35748415819E+02  0.51100000000E-03 0. -1.
        -11    1    3    3    0    0  0.61350649441E+01 -0.89536191362E+00  0.39620001606E+01  0.73578624857E+01  0.51100000000E-03 0.  1.
        -12    1    3    3    0    0 -0.15038671653E+02  0.42353289329E+01  0.24852264029E+02  0.29355317808E+02  0.00000000000E+00 0.  1.
</event>
<event>
 7    1  0.2641045E-013  0.7246151E+02  0.7816164E-02  0.1226708E+00
        -11   -1    0    0    0    0  0.00000000000E+00  0.00000000000E+00  0.45593999997E+02  0.45594000000E+02  0.51100000000E-03 0. -1.
         11   -1    0    0    0    0 -0.00000000000E+00 -0.00000000000E+00 -0.45593999997E+02  0.45594000000E+02  0.51100000000E-03 0.  1.
    9900012    2    1    2    0    0 -0.21945179385E+01  0.37902896402E+01  0.18207121502E+02  0.72461508659E+02  0.69999919709E+02 0.  0.
        -12    1    1    2    0    0  0.21945179385E+01 -0.37902896402E+01 -0.18207121502E+02  0.18726491341E+02  0.00000000000E+00 0.  1.
         11    1    3    3    0    0 -0.13686994154E+02 -0.13133088835E+02  0.31880795181E+02  0.37097128365E+02  0.51100000000E-03 0. -1.
        -11    1    3    3    0    0 -0.43025557883E+01 -0.38495355858E+01  0.26464438675E+00  0.57793552798E+01  0.51100000000E-03 0.  1.
        -12    1    3    3    0    0  0.15795032004E+02  0.20772914061E+02 -0.13938318065E+02  0.29585025014E+02  0.00000000000E+00 0.  1.
</event>
<event>
 7    1  0.2641045E-013  0.7246150E+02  0.7816164E-02  0.1226708E+00
        -11   -1    0    0    0    0  0.00000000000E+00  0.00000000000E+00  0.45593999997E+02  0.45594000000E+02  0.51100000000E-03 0. -1.
         11   -1    0    0    0    0 -0.00000000000E+00 -0.00000000000E+00 -0.45593999997E+02  0.45594000000E+02  0.51100000000E-03 0.  1.
    9900012    2    1    2    0    0 -0.39997188420E+01  0.92414331298E+01  0.15788597638E+02  0.72461503999E+02  0.69999913638E+02 0.  0.
        -12    1    1    2    0    0  0.39997188420E+01 -0.92414331298E+01 -0.15788597638E+02  0.18726496001E+02  0.00000000000E+00 0.  1.
         11    1    3    3    0    0 -0.12138418092E+01 -0.44376205475E+01 -0.82947275661E+00  0.46748169350E+01  0.51100000000E-03 0. -1.
        -11    1    3    3    0    0  0.99937015012E+01 -0.15715771450E+02 -0.14124284199E+02  0.23374236808E+02  0.51100000000E-03 0.  1.
         12    1    3    3    0    0 -0.12779578534E+02  0.29394825127E+02  0.30742354593E+02  0.44412450256E+02  0.00000000000E+00 0. -1.
</event>
<event>
 7    1  0.2641045E-013  0.7246153E+02  0.7816164E-02  0.1226708E+00
        -11   -1    0    0    0    0  0.00000000000E+00  0.00000000000E+00  0.45593999997E+02  0.45594000000E+02  0.51100000000E-03 0.  1.
         11   -1    0    0    0    0 -0.00000000000E+00 -0.00000000000E+00 -0.45593999997E+02  0.45594000000E+02  0.51100000000E-03 0. -1.
    9900012    2    1    2    0    0  0.45989187514E+01 -0.98294161271E+01  0.15261497525E+02  0.72461527246E+02  0.69999943922E+02 0.  0.
        -12    1    1    2    0    0 -0.45989187514E+01  0.98294161271E+01 -0.15261497525E+02  0.18726472754E+02  0.00000000000E+00 0.  1.
         11    1    3    3    0    0 -0.15262880281E+02  0.85197363818E+01 -0.94343299145E+01  0.19863232458E+02  0.51100000000E-03 0. -1.
        -11    1    3    3    0    0 -0.70950145438E+01  0.28819095855E+01 -0.32748458434E+01  0.83288204324E+01  0.51100000000E-03 0.  1.
        -12    1    3    3    0    0  0.26956813576E+02 -0.21231062094E+02  0.27970673283E+02  0.44269474356E+02  0.00000000000E+00 0.  1.
</event>
<event>
 7    1  0.2641045E-013  0.7246156E+02  0.7816164E-02  0.1226708E+00
        -11   -1    0    0    0    0  0.00000000000E+00  0.00000000000E+00  0.45593999997E+02  0.45594000000E+02  0.51100000000E-03 0.  1.
         11   -1    0    0    0    0 -0.00000000000E+00 -0.00000000000E+00 -0.45593999997E+02  0.45594000000E+02  0.51100000000E-03 0. -1.
    9900012    2    1    2    0    0  0.50160202451E+01  0.36061443304E+01 -0.17678090312E+02  0.72461558451E+02  0.69999984572E+02 0.  0.
        -12    1    1    2    0    0 -0.50160202451E+01 -0.36061443304E+01  0.17678090312E+02  0.18726441549E+02  0.00000000000E+00 0.  1.
         11    1    3    3    0    0  0.18658674431E+02 -0.10590620221E+02 -0.11723562567E+02  0.24448911790E+02  0.51100000000E-03 0. -1.
        -11    1    3    3    0    0  0.16140037879E+01 -0.88681166710E+01 -0.16185850831E+02  0.18526474811E+02  0.51100000000E-03 0.  1.
        -12    1    3    3    0    0 -0.15256657973E+02  0.23064881222E+02  0.10231323087E+02  0.29486171851E+02  0.00000000000E+00 0.  1.
</event>
<event>
 7    1  0.2641045E-013  0.7246153E+02  0.7816164E-02  0.1226708E+00
        -11   -1    0    0    0    0  0.00000000000E+00  0.00000000000E+00  0.45593999997E+02  0.45594000000E+02  0.51100000000E-03 0. -1.
         11   -1    0    0    0    0 -0.00000000000E+00 -0.00000000000E+00 -0.45593999997E+02  0.45594000000E+02  0.51100000000E-03 0.  1.
    9900012    2    1    2    0    0 -0.15981398673E+02  0.10777629211E+01  0.97012286354E+01  0.72461534410E+02  0.69999953254E+02 0.  0.
        -12    1    1    2    0    0  0.15981398673E+02 -0.10777629211E+01 -0.97012286354E+01  0.18726465590E+02  0.00000000000E+00 0.  1.
         11    1    3    3    0    0  0.89322999439E+01 -0.15612019234E+01  0.89938318988E+00  0.91122019356E+01  0.51100000000E-03 0. -1.
        -11    1    3    3    0    0  0.17090286556E+02 -0.85719653886E+01  0.74030602192E+00  0.19133858431E+02  0.51100000000E-03 0.  1.
         12    1    3    3    0    0 -0.42003985172E+02  0.11210930233E+02  0.80615394236E+01  0.44215474044E+02  0.00000000000E+00 0. -1.
</event>
<event>
 7    1  0.2641045E-013  0.7246156E+02  0.7816164E-02  0.1226708E+00
        -11   -1    0    0    0    0  0.00000000000E+00  0.00000000000E+00  0.45593999997E+02  0.45594000000E+02  0.51100000000E-03 0.  1.
         11   -1    0    0    0    0 -0.00000000000E+00 -0.00000000000E+00 -0.45593999997E+02  0.45594000000E+02  0.51100000000E-03 0. -1.
    9900012    2    1    2    0    0 -0.59870137007E+01 -0.17644327855E+02  0.18742956917E+01  0.72461558190E+02  0.69999984232E+02 0.  0.
        -12    1    1    2    0    0  0.59870137007E+01  0.17644327855E+02 -0.18742956917E+01  0.18726441810E+02  0.00000000000E+00 0.  1.
         11    1    3    3    0    0  0.13678433038E+02 -0.15016369368E+02  0.70666811848E+01  0.21506484199E+02  0.51100000000E-03 0. -1.
        -11    1    3    3    0    0  0.10272676493E+02 -0.36443555861E+01 -0.15784413161E+02  0.19182202925E+02  0.51100000000E-03 0.  1.
        -12    1    3    3    0    0 -0.29938123231E+02  0.10163970989E+01  0.10592027668E+02  0.31772871066E+02  0.00000000000E+00 0.  1.
</event>
<event>
 7    1  0.2641045E-013  0.7246154E+02  0.7816164E-02  0.1226708E+00
        -11   -1    0    0    0    0  0.00000000000E+00  0.00000000000E+00  0.45593999997E+02  0.45594000000E+02  0.51100000000E-03 0.  1.
         11   -1    0    0    0    0 -0.00000000000E+00 -0.00000000000E+00 -0.45593999997E+02  0.45594000000E+02  0.51100000000E-03 0. -1.
    9900012    2    1    2    0    0 -0.89738620983E+01  0.41794849371E+01 -0.15895970729E+02  0.72461543295E+02  0.69999964829E+02 0.  0.
        -12    1    1    2    0    0  0.89738620983E+01 -0.41794849371E+01  0.15895970729E+02  0.18726456705E+02  0.00000000000E+00 0.  1.
         11    1    3    3    0    0 -0.14674354342E+02 -0.85756171809E+01 -0.22082809103E+02  0.27866258155E+02  0.51100000000E-03 0.  1.
        -11    1    3    3    0    0 -0.11387721200E+02  0.13626373490E+02 -0.10553669230E+02  0.20657642245E+02  0.51100000000E-03 0. -1.
        -12    1    3    3    0    0  0.17088213444E+02 -0.87127137234E+00  0.16740507605E+02  0.23937642895E+02  0.00000000000E+00 0.  1.
</event>
<event>
 7    1  0.2641045E-013  0.7246155E+02  0.7816164E-02  0.1226708E+00
        -11   -1    0    0    0    0  0.00000000000E+00  0.00000000000E+00  0.45593999997E+02  0.45594000000E+02  0.51100000000E-03 0.  1.
         11   -1    0    0    0    0 -0.00000000000E+00 -0.00000000000E+00 -0.45593999997E+02  0.45594000000E+02  0.51100000000E-03 0. -1.
    9900012    2    1    2    0    0 -0.15899991234E+02  0.55527649895E+01  0.81876085051E+01  0.72461552038E+02  0.69999976217E+02 0.  0.
        -12    1    1    2    0    0  0.15899991234E+02 -0.55527649895E+01 -0.81876085051E+01  0.18726447962E+02  0.00000000000E+00 0.  1.
         11    1    3    3    0    0  0.60226766007E+01 -0.12467381899E+02 -0.13052154814E+01  0.13907258270E+02  0.51100000000E-03 0. -1.
        -11    1    3    3    0    0  0.73981934500E+01 -0.12452456194E+02 -0.22686544177E+01  0.14660959202E+02  0.51100000000E-03 0.  1.
        -12    1    3    3    0    0 -0.29320861284E+02  0.30472603083E+02  0.11761478404E+02  0.43893334566E+02  0.00000000000E+00 0.  1.
</event>
<event>
 7    1  0.2641045E-013  0.7246157E+02  0.7816164E-02  0.1226708E+00
        -11   -1    0    0    0    0  0.00000000000E+00  0.00000000000E+00  0.45593999997E+02  0.45594000000E+02  0.51100000000E-03 0.  1.
         11   -1    0    0    0    0 -0.00000000000E+00 -0.00000000000E+00 -0.45593999997E+02  0.45594000000E+02  0.51100000000E-03 0. -1.
    9900012    2    1    2    0    0 -0.29189781776E+01  0.18124300426E+02 -0.36970695080E+01  0.72461574220E+02  0.70000005114E+02 0.  0.
        -12    1    1    2    0    0  0.29189781776E+01 -0.18124300426E+02  0.36970695080E+01  0.18726425780E+02  0.00000000000E+00 0.  1.
         11    1    3    3    0    0 -0.21473500205E+02  0.35883020068E+02 -0.13680943023E+02  0.43998528868E+02  0.51100000000E-03 0. -1.
        -11    1    3    3    0    0 -0.19829825673E+00  0.44007188730E+00 -0.17091552183E-01  0.48298845420E+00  0.51100000000E-03 0.  1.
        -12    1    3    3    0    0  0.18752820284E+02 -0.18198791529E+02  0.10000965067E+02  0.27980056898E+02  0.00000000000E+00 0.  1.
</event>
<event>
 7    1  0.2641045E-013  0.7246156E+02  0.7816164E-02  0.1226708E+00
        -11   -1    0    0    0    0  0.00000000000E+00  0.00000000000E+00  0.45593999997E+02  0.45594000000E+02  0.51100000000E-03 0. -1.
         11   -1    0    0    0    0 -0.00000000000E+00 -0.00000000000E+00 -0.45593999997E+02  0.45594000000E+02  0.51100000000E-03 0.  1.
    9900012    2    1    2    0    0 -0.76518850964E+01 -0.16514009791E+02 -0.44063038614E+01  0.72461564711E+02  0.69999992727E+02 0.  0.
        -12    1    1    2    0    0  0.76518850964E+01  0.16514009791E+02  0.44063038614E+01  0.18726435289E+02  0.00000000000E+00 0.  1.
         11    1    3    3    0    0 -0.62232294153E+01 -0.57490648108E+00 -0.26132629730E+01  0.67740863181E+01  0.51100000000E-03 0. -1.
        -11    1    3    3    0    0  0.17724630988E+02  0.12147489398E+02 -0.17995754843E+02  0.28028043723E+02  0.51100000000E-03 0.  1.
         12    1    3    3    0    0 -0.19153286669E+02 -0.28086592707E+02  0.16202713955E+02  0.37659434670E+02  0.00000000000E+00 0. -1.
</event>
<event>
 7    1  0.2641045E-013  0.7246158E+02  0.7816164E-02  0.1226708E+00
        -11   -1    0    0    0    0  0.00000000000E+00  0.00000000000E+00  0.45593999997E+02  0.45594000000E+02  0.51100000000E-03 0.  1.
         11   -1    0    0    0    0 -0.00000000000E+00 -0.00000000000E+00 -0.45593999997E+02  0.45594000000E+02  0.51100000000E-03 0. -1.
    9900012    2    1    2    0    0  0.23442316155E+01 -0.14284466080E+01 -0.18524113090E+02  0.72461584237E+02  0.70000018162E+02 0.  0.
        -12    1    1    2    0    0 -0.23442316155E+01  0.14284466080E+01  0.18524113090E+02  0.18726415763E+02  0.00000000000E+00 0.  1.
         11    1    3    3    0    0  0.62343730562E+01 -0.46961765259E+00 -0.17367398075E+02  0.18458452381E+02  0.51100000000E-03 0. -1.
        -11    1    3    3    0    0  0.53020312840E+01 -0.12729608296E+02  0.22286027080E+02  0.26207278881E+02  0.51100000000E-03 0.  1.
         12    1    3    3    0    0 -0.91921727247E+01  0.11770779340E+02 -0.23442742095E+02  0.27795852975E+02  0.00000000000E+00 0. -1.
</event>
<event>
 7    1  0.2641045E-013  0.7246159E+02  0.7816164E-02  0.1226708E+00
        -11   -1    0    0    0    0  0.00000000000E+00  0.00000000000E+00  0.45593999997E+02  0.45594000000E+02  0.51100000000E-03 0.  1.
         11   -1    0    0    0    0 -0.00000000000E+00 -0.00000000000E+00 -0.45593999997E+02  0.45594000000E+02  0.51100000000E-03 0. -1.
    9900012    2    1    2    0    0 -0.12587948152E+02 -0.13821261722E+02 -0.10929482798E+01  0.72461594841E+02  0.70000031976E+02 0.  0.
        -12    1    1    2    0    0  0.12587948152E+02  0.13821261722E+02  0.10929482798E+01  0.18726405159E+02  0.00000000000E+00 0.  1.
         11    1    3    3    0    0 -0.33553695382E+01  0.10443235198E+02  0.62921031569E+01  0.12645561615E+02  0.51100000000E-03 0. -1.
        -11    1    3    3    0    0  0.14598693550E+02 -0.25842485279E+02  0.88084513024E+01  0.30960373276E+02  0.51100000000E-03 0.  1.
         12    1    3    3    0    0 -0.23831272163E+02  0.15779883592E+01 -0.16193502739E+02  0.28855659950E+02  0.00000000000E+00 0. -1.
</event>
<event>
 7    1  0.2641045E-013  0.7246180E+02  0.7816164E-02  0.1226707E+00
        -11   -1    0    0    0    0  0.00000000000E+00  0.00000000000E+00  0.45593999997E+02  0.45594000000E+02  0.51100000000E-03 0. -1.
         11   -1    0    0    0    0 -0.00000000000E+00 -0.00000000000E+00 -0.45593999997E+02  0.45594000000E+02  0.51100000000E-03 0.  1.
    9900012    2    1    2    0    0 -0.29761191921E+01  0.92156210562E-01  0.18487965683E+02  0.72461797681E+02  0.70000296212E+02 0.  0.
        -12    1    1    2    0    0  0.29761191921E+01 -0.92156210562E-01 -0.18487965683E+02  0.18726202319E+02  0.00000000000E+00 0.  1.
         11    1    3    3    0    0 -0.26788987308E+02  0.78540165522E+01 -0.12742032417E+02  0.30687046247E+02  0.51100000000E-03 0. -1.
        -11    1    3    3    0    0  0.38154633978E+01  0.11464986653E+01  0.45823089220E+00  0.40102613308E+01  0.51100000000E-03 0.  1.
        -12    1    3    3    0    0  0.19997404718E+02 -0.89083590069E+01  0.30771767207E+02  0.37764490103E+02  0.00000000000E+00 0.  1.
</event>
<event>
 7    1  0.2641045E-013  0.7246198E+02  0.7816164E-02  0.1226707E+00
        -11   -1    0    0    0    0  0.00000000000E+00  0.00000000000E+00  0.45593999997E+02  0.45594000000E+02  0.51100000000E-03 0. -1.
         11   -1    0    0    0    0 -0.00000000000E+00 -0.00000000000E+00 -0.45593999997E+02  0.45594000000E+02  0.51100000000E-03 0.  1.
    9900012    2    1    2    0    0  0.16263393762E+02 -0.59070247860E+01 -0.71605173391E+01  0.72461977277E+02  0.70000530168E+02 0.  0.
        -12    1    1    2    0    0 -0.16263393762E+02  0.59070247860E+01  0.71605173391E+01  0.18726022723E+02  0.00000000000E+00 0.  1.
         11    1    3    3    0    0  0.27804921302E+02  0.18198329206E+02 -0.19588392446E+02  0.38574576516E+02  0.51100000000E-03 0. -1.
        -11    1    3    3    0    0 -0.62025734199E+01 -0.33394668113E+00 -0.63306318061E+00  0.62437333917E+01  0.51100000000E-03 0.  1.
         12    1    3    3    0    0 -0.53389541208E+01 -0.23771407311E+02  0.13060938288E+02  0.27643667369E+02  0.00000000000E+00 0. -1.
</event>
<event>
 7    1  0.2641045E-013  0.7246160E+02  0.7816164E-02  0.1226708E+00
        -11   -1    0    0    0    0  0.00000000000E+00  0.00000000000E+00  0.45593999997E+02  0.45594000000E+02  0.51100000000E-03 0.  1.
         11   -1    0    0    0    0 -0.00000000000E+00 -0.00000000000E+00 -0.45593999997E+02  0.45594000000E+02  0.51100000000E-03 0. -1.
    9900012    2    1    2    0    0 -0.11259264671E+02  0.11778943280E+02 -0.92284086012E+01  0.72461599624E+02  0.70000038208E+02 0.  0.
        -12    1    1    2    0    0  0.11259264671E+02 -0.11778943280E+02  0.92284086012E+01  0.18726400376E+02  0.00000000000E+00 0.  1.
         11    1    3    3    0    0 -0.19761385041E+01  0.20649588974E+01  0.26685028563E+01  0.39102540059E+01  0.51100000000E-03 0. -1.
        -11    1    3    3    0    0 -0.10565611677E+02 -0.26778924120E+02 -0.13926537275E+02  0.31979546086E+02  0.51100000000E-03 0.  1.
         12    1    3    3    0    0  0.12824855100E+01  0.36492908503E+02  0.20296258175E+01  0.36571799532E+02  0.00000000000E+00 0. -1.
</event>
<event>
 7    1  0.2641045E-013  0.7246155E+02  0.7816164E-02  0.1226708E+00
        -11   -1    0    0    0    0  0.00000000000E+00  0.00000000000E+00  0.45593999997E+02  0.45594000000E+02  0.51100000000E-03 0.  1.
         11   -1    0    0    0    0 -0.00000000000E+00 -0.00000000000E+00 -0.45593999997E+02  0.45594000000E+02  0.51100000000E-03 0. -1.
    9900012    2    1    2    0    0 -0.14857316456E+02  0.10397802297E+02 -0.46718200732E+01  0.72461546847E+02  0.69999969456E+02 0.  0.
        -12    1    1    2    0    0  0.14857316456E+02 -0.10397802297E+02  0.46718200732E+01  0.18726453153E+02  0.00000000000E+00 0.  1.
         11    1    3    3    0    0 -0.18053208722E+02 -0.12021988413E+01 -0.29775307048E+02  0.34841534657E+02  0.51100000000E-03 0. -1.
        -11    1    3    3    0    0 -0.89699476805E+01  0.46467289562E+01  0.15597579528E+01  0.10221785388E+02  0.51100000000E-03 0.  1.
        -12    1    3    3    0    0  0.12165839946E+02  0.69532721818E+01  0.23543729022E+02  0.27398226802E+02  0.00000000000E+00 0.  1.
</event>
<event>
 7    1  0.2641045E-013  0.7246157E+02  0.7816164E-02  0.1226708E+00
        -11   -1    0    0    0    0  0.00000000000E+00  0.00000000000E+00  0.45593999997E+02  0.45594000000E+02  0.51100000000E-03 0.  1.
         11   -1    0    0    0    0 -0.00000000000E+00 -0.00000000000E+00 -0.45593999997E+02  0.45594000000E+02  0.51100000000E-03 0. -1.
    9900012    2    1    2    0    0  0.96882687349E+01  0.15414881446E+02 -0.43815644567E+01  0.72461568729E+02  0.69999997961E+02 0.  0.
        -12    1    1    2    0    0 -0.96882687349E+01 -0.15414881446E+02  0.43815644567E+01  0.18726431271E+02  0.00000000000E+00 0.  1.
         11    1    3    3    0    0  0.10865423051E+02 -0.34124355170E+01 -0.15345475927E+01  0.11491604362E+02  0.51100000000E-03 0. -1.
        -11    1    3    3    0    0 -0.18172223106E+02 -0.83391136769E+01 -0.16707914527E+02  0.26056187704E+02  0.51100000000E-03 0.  1.
        -12    1    3    3    0    0  0.16995068790E+02  0.27166430639E+02  0.13860897663E+02  0.34913776663E+02  0.00000000000E+00 0.  1.
</event>
<event>
 7    1  0.2641045E-013  0.7246157E+02  0.7816164E-02  0.1226708E+00
        -11   -1    0    0    0    0  0.00000000000E+00  0.00000000000E+00  0.45593999997E+02  0.45594000000E+02  0.51100000000E-03 0. -1.
         11   -1    0    0    0    0 -0.00000000000E+00 -0.00000000000E+00 -0.45593999997E+02  0.45594000000E+02  0.51100000000E-03 0.  1.
    9900012    2    1    2    0    0 -0.63984883128E+01  0.14250780326E+02  0.10327323375E+02  0.72461574802E+02  0.70000005872E+02 0.  0.
        -12    1    1    2    0    0  0.63984883128E+01 -0.14250780326E+02 -0.10327323375E+02  0.18726425198E+02  0.00000000000E+00 0.  1.
         11    1    3    3    0    0 -0.20744040732E+02 -0.28602115943E+00  0.19612458442E+02  0.28549002792E+02  0.51100000000E-03 0. -1.
        -11    1    3    3    0    0 -0.18367865766E+01 -0.11830162009E+02 -0.21457417775E+01  0.12162677588E+02  0.51100000000E-03 0.  1.
         12    1    3    3    0    0  0.16182338996E+02  0.26366963494E+02 -0.71393932891E+01  0.31749894422E+02  0.00000000000E+00 0. -1.
</event>
<event>
 7    1  0.2641045E-013  0.7246187E+02  0.7816164E-02  0.1226707E+00
        -11   -1    0    0    0    0  0.00000000000E+00  0.00000000000E+00  0.45593999997E+02  0.45594000000E+02  0.51100000000E-03 0.  1.
         11   -1    0    0    0    0 -0.00000000000E+00 -0.00000000000E+00 -0.45593999997E+02  0.45594000000E+02  0.51100000000E-03 0. -1.
    9900012    2    1    2    0    0 -0.16478942480E+02  0.75124871531E+01  0.47618180116E+01  0.72461870682E+02  0.70000391309E+02 0.  0.
        -12    1    1    2    0    0  0.16478942480E+02 -0.75124871531E+01 -0.47618180116E+01  0.18726129318E+02  0.00000000000E+00 0.  1.
         11    1    3    3    0    0 -0.21731537509E+02 -0.84711012330E+01  0.24775776429E+01  0.23455440091E+02  0.51100000000E-03 0. -1.
        -11    1    3    3    0    0  0.19980419596E+01  0.27956111336E+02  0.14533484823E+02  0.31571482608E+02  0.51100000000E-03 0.  1.
         12    1    3    3    0    0  0.32545530703E+01 -0.11972522950E+02 -0.12249244454E+02  0.17434947983E+02  0.00000000000E+00 0. -1.
</event>
<event>
 7    1  0.2641045E-013  0.7246164E+02  0.7816164E-02  0.1226708E+00
        -11   -1    0    0    0    0  0.00000000000E+00  0.00000000000E+00  0.45593999997E+02  0.45594000000E+02  0.51100000000E-03 0. -1.
         11   -1    0    0    0    0 -0.00000000000E+00 -0.00000000000E+00 -0.45593999997E+02  0.45594000000E+02  0.51100000000E-03 0.  1.
    9900012    2    1    2    0    0 -0.50033263226E+01 -0.13344227582E+02  0.12148043584E+02  0.72461637648E+02  0.70000087740E+02 0.  0.
        -12    1    1    2    0    0  0.50033263226E+01  0.13344227582E+02 -0.12148043584E+02  0.18726362352E+02  0.00000000000E+00 0.  1.
         11    1    3    3    0    0 -0.94693159993E+01  0.41134334902E+01  0.29901168208E+02  0.31633339075E+02  0.51100000000E-03 0. -1.
        -11    1    3    3    0    0  0.17433046193E+01  0.93817214306E+01 -0.26154454360E+01  0.98942590974E+01  0.51100000000E-03 0.  1.
        -12    1    3    3    0    0  0.27226850573E+01 -0.26839382502E+02 -0.15137679188E+02  0.30934039475E+02  0.00000000000E+00 0.  1.
</event>
<event>
 7    1  0.2641045E-013  0.7246156E+02  0.7816164E-02  0.1226708E+00
        -11   -1    0    0    0    0  0.00000000000E+00  0.00000000000E+00  0.45593999997E+02  0.45594000000E+02  0.51100000000E-03 0. -1.
         11   -1    0    0    0    0 -0.00000000000E+00 -0.00000000000E+00 -0.45593999997E+02  0.45594000000E+02  0.51100000000E-03 0.  1.
    9900012    2    1    2    0    0 -0.85721492215E+00 -0.89206965204E+01  0.16442806270E+02  0.72461560886E+02  0.69999987745E+02 0.  0.
        -12    1    1    2    0    0  0.85721492215E+00  0.89206965204E+01 -0.16442806270E+02  0.18726439114E+02  0.00000000000E+00 0.  1.
         11    1    3    3    0    0  0.66324376527E+01 -0.15080442723E+02 -0.30540666113E+01  0.16755187408E+02  0.51100000000E-03 0. -1.
        -11    1    3    3    0    0 -0.51409580018E+00  0.10509385439E+02 -0.16066473169E+02  0.19205286698E+02  0.51100000000E-03 0.  1.
         12    1    3    3    0    0 -0.69755567746E+01 -0.43496392366E+01  0.35563346051E+02  0.36501086780E+02  0.00000000000E+00 0. -1.
</event>
<event>
 7    1  0.2641045E-013  0.7246161E+02  0.7816164E-02  0.1226708E+00
        -11   -1    0    0    0    0  0.00000000000E+00  0.00000000000E+00  0.45593999997E+02  0.45594000000E+02  0.51100000000E-03 0.  1.
         11   -1    0    0    0    0 -0.00000000000E+00 -0.00000000000E+00 -0.45593999997E+02  0.45594000000E+02  0.51100000000E-03 0. -1.
    9900012    2    1    2    0    0 -0.47866186091E+01  0.14608346172E+01 -0.18045279377E+02  0.72461605171E+02  0.70000045434E+02 0.  0.
        -12    1    1    2    0    0  0.47866186091E+01 -0.14608346172E+01  0.18045279377E+02  0.18726394829E+02  0.00000000000E+00 0.  1.
         11    1    3    3    0    0 -0.80509379640E+01  0.59076228650E+01 -0.35000954094E+02  0.36397587801E+02  0.51100000000E-03 0. -1.
        -11    1    3    3    0    0  0.12854973892E+02  0.59416969919E+01  0.23062149283E+00  0.14163590768E+02  0.51100000000E-03 0.  1.
        -12    1    3    3    0    0 -0.95906545371E+01 -0.10388485240E+02  0.16725053224E+02  0.21900426602E+02  0.00000000000E+00 0.  1.
</event>
<event>
 7    1  0.2641045E-013  0.7246150E+02  0.7816164E-02  0.1226708E+00
        -11   -1    0    0    0    0  0.00000000000E+00  0.00000000000E+00  0.45593999997E+02  0.45594000000E+02  0.51100000000E-03 0.  1.
         11   -1    0    0    0    0 -0.00000000000E+00 -0.00000000000E+00 -0.45593999997E+02  0.45594000000E+02  0.51100000000E-03 0. -1.
    9900012    2    1    2    0    0 -0.17299201475E+02 -0.51823109283E+01 -0.49561313744E+01  0.72461495883E+02  0.69999903065E+02 0.  0.
        -12    1    1    2    0    0  0.17299201475E+02  0.51823109283E+01  0.49561313744E+01  0.18726504117E+02  0.00000000000E+00 0.  1.
         11    1    3    3    0    0 -0.59869115118E+01 -0.18694214001E+02  0.83801047147E+01  0.21343451030E+02  0.51100000000E-03 0. -1.
        -11    1    3    3    0    0 -0.17255396969E+02 -0.55019462300E+01  0.97955258960E+01  0.20590591656E+02  0.51100000000E-03 0.  1.
         12    1    3    3    0    0  0.59431070058E+01  0.19013849303E+02 -0.23131761985E+02  0.30527453198E+02  0.00000000000E+00 0. -1.
</event>
<event>
 7    1  0.2641045E-013  0.7246078E+02  0.7816164E-02  0.1226710E+00
        -11   -1    0    0    0    0  0.00000000000E+00  0.00000000000E+00  0.45593999997E+02  0.45594000000E+02  0.51100000000E-03 0.  1.
         11   -1    0    0    0    0 -0.00000000000E+00 -0.00000000000E+00 -0.45593999997E+02  0.45594000000E+02  0.51100000000E-03 0. -1.
    9900012    2    1    2    0    0  0.11865225828E+02  0.12226134489E+02 -0.77747652128E+01  0.72460775897E+02  0.69998965143E+02 0.  0.
        -12    1    1    2    0    0 -0.11865225828E+02 -0.12226134489E+02  0.77747652128E+01  0.18727224103E+02  0.00000000000E+00 0.  1.
         11    1    3    3    0    0  0.40918143630E+01  0.33995025773E+01 -0.32953581102E+02  0.33380204767E+02  0.51100000000E-03 0. -1.
        -11    1    3    3    0    0  0.13842904833E+01  0.52313108394E+01 -0.53942863796E+01  0.76407590622E+01  0.51100000000E-03 0.  1.
        -12    1    3    3    0    0  0.63891209814E+01  0.35953210722E+01  0.30573102269E+02  0.31439812068E+02  0.00000000000E+00 0.  1.
</event>
<event>
 7    1  0.2641045E-013  0.7246154E+02  0.7816164E-02  0.1226708E+00
        -11   -1    0    0    0    0  0.00000000000E+00  0.00000000000E+00  0.45593999997E+02  0.45594000000E+02  0.51100000000E-03 0. -1.
         11   -1    0    0    0    0 -0.00000000000E+00 -0.00000000000E+00 -0.45593999997E+02  0.45594000000E+02  0.51100000000E-03 0.  1.
    9900012    2    1    2    0    0  0.75226994321E+01 -0.33155723688E+00  0.17145827813E+02  0.72461538819E+02  0.69999958998E+02 0.  0.
        -12    1    1    2    0    0 -0.75226994321E+01  0.33155723688E+00 -0.17145827813E+02  0.18726461181E+02  0.00000000000E+00 0.  1.
         11    1    3    3    0    0  0.89383283453E+00  0.12026464526E+02  0.38530249796E+01  0.12660196993E+02  0.51100000000E-03 0. -1.
        -11    1    3    3    0    0  0.26807135639E+02 -0.16370521585E+02 -0.55571302104E+01  0.31898247516E+02  0.51100000000E-03 0.  1.
         12    1    3    3    0    0 -0.20178269042E+02  0.40124998223E+01  0.18849933044E+02  0.27903094311E+02  0.00000000000E+00 0. -1.
</event>
<event>
 7    1  0.2641045E-013  0.7246157E+02  0.7816164E-02  0.1226708E+00
        -11   -1    0    0    0    0  0.00000000000E+00  0.00000000000E+00  0.45593999997E+02  0.45594000000E+02  0.51100000000E-03 0.  1.
         11   -1    0    0    0    0 -0.00000000000E+00 -0.00000000000E+00 -0.45593999997E+02  0.45594000000E+02  0.51100000000E-03 0. -1.
    9900012    2    1    2    0    0 -0.28824424346E+01  0.10428932904E+02 -0.15284240713E+02  0.72461571348E+02  0.70000001372E+02 0.  0.
        -12    1    1    2    0    0  0.28824424346E+01 -0.10428932904E+02  0.15284240713E+02  0.18726428652E+02  0.00000000000E+00 0.  1.
         11    1    3    3    0    0 -0.24130066094E+02  0.15090235890E+01 -0.21553472982E+02  0.32389650194E+02  0.51100000000E-03 0.  1.
        -11    1    3    3    0    0  0.84994752614E+01  0.19092475633E+02 -0.33070375910E+01  0.21158927274E+02  0.51100000000E-03 0. -1.
        -12    1    3    3    0    0  0.12748148398E+02 -0.10172566318E+02  0.95762698597E+01  0.18912993879E+02  0.00000000000E+00 0.  1.
</event>
<event>
 7    1  0.2641045E-013  0.7246157E+02  0.7816164E-02  0.1226708E+00
        -11   -1    0    0    0    0  0.00000000000E+00  0.00000000000E+00  0.45593999997E+02  0.45594000000E+02  0.51100000000E-03 0.  1.
         11   -1    0    0    0    0 -0.00000000000E+00 -0.00000000000E+00 -0.45593999997E+02  0.45594000000E+02  0.51100000000E-03 0. -1.
    9900012    2    1    2    0    0  0.85715659425E+01  0.16205499229E+02  0.38195687561E+01  0.72461573393E+02  0.70000004037E+02 0.  0.
        -12    1    1    2    0    0 -0.85715659425E+01 -0.16205499229E+02 -0.38195687561E+01  0.18726426607E+02  0.00000000000E+00 0.  1.
         11    1    3    3    0    0  0.24492037195E+02  0.15922238774E+02 -0.44505338129E+01  0.29549700929E+02  0.51100000000E-03 0. -1.
        -11    1    3    3    0    0  0.12263274410E+02  0.52412876052E+01  0.92881770182E+00  0.13368683465E+02  0.51100000000E-03 0.  1.
         12    1    3    3    0    0 -0.28183745662E+02 -0.49580271497E+01  0.73412848672E+01  0.29543188999E+02  0.00000000000E+00 0. -1.
</event>
<event>
 7    1  0.2641045E-013  0.7246157E+02  0.7816164E-02  0.1226708E+00
        -11   -1    0    0    0    0  0.00000000000E+00  0.00000000000E+00  0.45593999997E+02  0.45594000000E+02  0.51100000000E-03 0. -1.
         11   -1    0    0    0    0 -0.00000000000E+00 -0.00000000000E+00 -0.45593999997E+02  0.45594000000E+02  0.51100000000E-03 0.  1.
    9900012    2    1    2    0    0  0.80211417203E+01  0.69417722336E+01  0.15432176877E+02  0.72461574837E+02  0.70000005917E+02 0.  0.
        -12    1    1    2    0    0 -0.80211417203E+01 -0.69417722336E+01 -0.15432176877E+02  0.18726425163E+02  0.00000000000E+00 0.  1.
         11    1    3    3    0    0  0.13820559259E+02  0.35224313741E+02  0.12176691978E+02  0.39749615904E+02  0.51100000000E-03 0.  1.
        -11    1    3    3    0    0  0.31898118758E+01 -0.44451534822E+01  0.46748676363E+01  0.71964350175E+01  0.51100000000E-03 0. -1.
        -12    1    3    3    0    0 -0.89892294143E+01 -0.23837388025E+02 -0.14193827370E+01  0.25515523915E+02  0.00000000000E+00 0.  1.
</event>
<event>
 7    1  0.2641045E-013  0.7246157E+02  0.7816164E-02  0.1226708E+00
        -11   -1    0    0    0    0  0.00000000000E+00  0.00000000000E+00  0.45593999997E+02  0.45594000000E+02  0.51100000000E-03 0. -1.
         11   -1    0    0    0    0 -0.00000000000E+00 -0.00000000000E+00 -0.45593999997E+02  0.45594000000E+02  0.51100000000E-03 0.  1.
    9900012    2    1    2    0    0  0.11204379569E+02  0.29471527049E+00  0.15001808628E+02  0.72461568393E+02  0.69999997524E+02 0.  0.
        -12    1    1    2    0    0 -0.11204379569E+02 -0.29471527049E+00 -0.15001808628E+02  0.18726431607E+02  0.00000000000E+00 0.  1.
         11    1    3    3    0    0  0.37172045444E+02  0.50227042821E+01  0.62734300664E+00  0.37515091368E+02  0.51100000000E-03 0. -1.
        -11    1    3    3    0    0  0.16178020949E+01  0.10617740815E+01 -0.16326743183E+01  0.25318517945E+01  0.51100000000E-03 0.  1.
        -12    1    3    3    0    0 -0.27585467971E+02 -0.57897630931E+01  0.16007139940E+02  0.32414625231E+02  0.00000000000E+00 0.  1.
</event>
<event>
 7    1  0.2641045E-013  0.7246160E+02  0.7816164E-02  0.1226708E+00
        -11   -1    0    0    0    0  0.00000000000E+00  0.00000000000E+00  0.45593999997E+02  0.45594000000E+02  0.51100000000E-03 0. -1.
         11   -1    0    0    0    0 -0.00000000000E+00 -0.00000000000E+00 -0.45593999997E+02  0.45594000000E+02  0.51100000000E-03 0.  1.
    9900012    2    1    2    0    0  0.16212488309E+02  0.93716517487E+01  0.74274376369E-01  0.72461597507E+02  0.70000035449E+02 0.  0.
        -12    1    1    2    0    0 -0.16212488309E+02 -0.93716517487E+01 -0.74274376369E-01  0.18726402493E+02  0.00000000000E+00 0.  1.
         11    1    3    3    0    0 -0.40555864018E+01  0.76818771634E+01 -0.61502951446E+01  0.10643549617E+02  0.51100000000E-03 0. -1.
        -11    1    3    3    0    0 -0.48180812548E+01 -0.23900160228E+02 -0.36369252467E+01  0.24650736124E+02  0.51100000000E-03 0.  1.
         12    1    3    3    0    0  0.25086155965E+02  0.25589934814E+02  0.98614947677E+01  0.37167311766E+02  0.00000000000E+00 0. -1.
</event>
<event>
 7    1  0.2641045E-013  0.7246160E+02  0.7816164E-02  0.1226708E+00
        -11   -1    0    0    0    0  0.00000000000E+00  0.00000000000E+00  0.45593999997E+02  0.45594000000E+02  0.51100000000E-03 0.  1.
         11   -1    0    0    0    0 -0.00000000000E+00 -0.00000000000E+00 -0.45593999997E+02  0.45594000000E+02  0.51100000000E-03 0. -1.
    9900012    2    1    2    0    0 -0.82629579744E+01  0.99666034650E+01 -0.13530277348E+02  0.72461599806E+02  0.70000038444E+02 0.  0.
        -12    1    1    2    0    0  0.82629579744E+01 -0.99666034650E+01  0.13530277348E+02  0.18726400194E+02  0.00000000000E+00 0.  1.
         11    1    3    3    0    0 -0.12506429114E+02 -0.15412813669E+02 -0.17269801760E+02  0.26309915383E+02  0.51100000000E-03 0. -1.
        -11    1    3    3    0    0  0.21013018801E+01  0.13410366304E+02 -0.17216240248E+02  0.21923784403E+02  0.51100000000E-03 0.  1.
        -12    1    3    3    0    0  0.21421692599E+01  0.11969050829E+02  0.20955764660E+02  0.24227900019E+02  0.00000000000E+00 0.  1.
</event>
<event>
 7    1  0.2641045E-013  0.7246157E+02  0.7816164E-02  0.1226708E+00
        -11   -1    0    0    0    0  0.00000000000E+00  0.00000000000E+00  0.45593999997E+02  0.45594000000E+02  0.51100000000E-03 0. -1.
         11   -1    0    0    0    0 -0.00000000000E+00 -0.00000000000E+00 -0.45593999997E+02  0.45594000000E+02  0.51100000000E-03 0.  1.
    9900012    2    1    2    0    0  0.58526386325E+01  0.15538996732E+01  0.17720363936E+02  0.72461567313E+02  0.69999996117E+02 0.  0.
        -12    1    1    2    0    0 -0.58526386325E+01 -0.15538996732E+01 -0.17720363936E+02  0.18726432687E+02  0.00000000000E+00 0.  1.
         11    1    3    3    0    0  0.10555780830E+02  0.83093517703E+01  0.24511134011E+02  0.27951127465E+02  0.51100000000E-03 0. -1.
        -11    1    3    3    0    0 -0.20351622495E+02 -0.64240554749E+00  0.82419145712E+01  0.21966574133E+02  0.51100000000E-03 0.  1.
        -12    1    3    3    0    0  0.15648480298E+02 -0.61130465496E+01 -0.15032684647E+02  0.22543865716E+02  0.00000000000E+00 0.  1.
</event>
<event>
 7    1  0.2641045E-013  0.7246148E+02  0.7816164E-02  0.1226708E+00
        -11   -1    0    0    0    0  0.00000000000E+00  0.00000000000E+00  0.45593999997E+02  0.45594000000E+02  0.51100000000E-03 0.  1.
         11   -1    0    0    0    0 -0.00000000000E+00 -0.00000000000E+00 -0.45593999997E+02  0.45594000000E+02  0.51100000000E-03 0. -1.
    9900012    2    1    2    0    0 -0.31590985313E+01  0.17680224639E+02 -0.53020903385E+01  0.72461483806E+02  0.69999887333E+02 0.  0.
        -12    1    1    2    0    0  0.31590985313E+01 -0.17680224639E+02  0.53020903385E+01  0.18726516194E+02  0.00000000000E+00 0.  1.
         11    1    3    3    0    0  0.91546781596E+01 -0.14372643830E+02  0.19453592303E+01  0.17151252014E+02  0.51100000000E-03 0. -1.
        -11    1    3    3    0    0  0.12714858182E+02  0.14347448096E+02  0.83527690600E+01  0.20911375772E+02  0.51100000000E-03 0.  1.
         12    1    3    3    0    0 -0.25028634873E+02  0.17705420372E+02 -0.15600218629E+02  0.34398856020E+02  0.00000000000E+00 0. -1.
</event>
<event>
 7    1  0.2641045E-013  0.7246147E+02  0.7816164E-02  0.1226708E+00
        -11   -1    0    0    0    0  0.00000000000E+00  0.00000000000E+00  0.45593999997E+02  0.45594000000E+02  0.51100000000E-03 0.  1.
         11   -1    0    0    0    0 -0.00000000000E+00 -0.00000000000E+00 -0.45593999997E+02  0.45594000000E+02  0.51100000000E-03 0. -1.
    9900012    2    1    2    0    0  0.87828323825E+01  0.11511956383E+01 -0.16499081240E+02  0.72461465942E+02  0.69999864062E+02 0.  0.
        -12    1    1    2    0    0 -0.87828323825E+01 -0.11511956383E+01  0.16499081240E+02  0.18726534058E+02  0.00000000000E+00 0.  1.
         11    1    3    3    0    0 -0.74512760914E+01 -0.74514716470E+01 -0.19151110034E+02  0.21858887458E+02  0.51100000000E-03 0. -1.
        -11    1    3    3    0    0  0.10363542481E+01  0.16575525546E+02 -0.17504544583E+02  0.24129466603E+02  0.51100000000E-03 0.  1.
        -12    1    3    3    0    0  0.15197754226E+02 -0.79728582607E+01  0.20156573377E+02  0.26473111881E+02  0.00000000000E+00 0.  1.
</event>
<event>
 7    1  0.2641045E-013  0.7246153E+02  0.7816164E-02  0.1226708E+00
        -11   -1    0    0    0    0  0.00000000000E+00  0.00000000000E+00  0.45593999997E+02  0.45594000000E+02  0.51100000000E-03 0.  1.
         11   -1    0    0    0    0 -0.00000000000E+00 -0.00000000000E+00 -0.45593999997E+02  0.45594000000E+02  0.51100000000E-03 0. -1.
    9900012    2    1    2    0    0 -0.16690896876E+02 -0.44086088140E+01 -0.72566324926E+01  0.72461532492E+02  0.69999950756E+02 0.  0.
        -12    1    1    2    0    0  0.16690896876E+02  0.44086088140E+01  0.72566324926E+01  0.18726467508E+02  0.00000000000E+00 0.  1.
         11    1    3    3    0    0 -0.10900751804E+02 -0.13468682097E+02  0.17925978123E+02  0.24931355343E+02  0.51100000000E-03 0. -1.
        -11    1    3    3    0    0 -0.21628920394E+02 -0.69528365376E+00 -0.12156333706E+02  0.24820758776E+02  0.51100000000E-03 0.  1.
        -12    1    3    3    0    0  0.15838775323E+02  0.97553569371E+01 -0.13026276910E+02  0.22709418373E+02  0.00000000000E+00 0.  1.
</event>
<event>
 7    1  0.2641045E-013  0.7246157E+02  0.7816164E-02  0.1226708E+00
        -11   -1    0    0    0    0  0.00000000000E+00  0.00000000000E+00  0.45593999997E+02  0.45594000000E+02  0.51100000000E-03 0.  1.
         11   -1    0    0    0    0 -0.00000000000E+00 -0.00000000000E+00 -0.45593999997E+02  0.45594000000E+02  0.51100000000E-03 0. -1.
    9900012    2    1    2    0    0  0.11627412763E+02  0.14598163014E+02  0.15414623919E+01  0.72461569554E+02  0.69999999036E+02 0.  0.
        -12    1    1    2    0    0 -0.11627412763E+02 -0.14598163014E+02 -0.15414623919E+01  0.18726430446E+02  0.00000000000E+00 0.  1.
         11    1    3    3    0    0 -0.50696973661E+01 -0.65771531598E+01 -0.16931924579E+01  0.84751210040E+01  0.51100000000E-03 0. -1.
        -11    1    3    3    0    0 -0.82706574381E+01  0.24544128335E+02  0.20846081300E+02  0.33247212154E+02  0.51100000000E-03 0.  1.
         12    1    3    3    0    0  0.24967767567E+02 -0.33688121610E+01 -0.17611426450E+02  0.30739236396E+02  0.00000000000E+00 0. -1.
</event>
<event>
 7    1  0.2641045E-013  0.7246157E+02  0.7816164E-02  0.1226708E+00
        -11   -1    0    0    0    0  0.00000000000E+00  0.00000000000E+00  0.45593999997E+02  0.45594000000E+02  0.51100000000E-03 0.  1.
         11   -1    0    0    0    0 -0.00000000000E+00 -0.00000000000E+00 -0.45593999997E+02  0.45594000000E+02  0.51100000000E-03 0. -1.
    9900012    2    1    2    0    0 -0.94414961990E+01 -0.15785922844E+02  0.35131003822E+01  0.72461572556E+02  0.70000002946E+02 0.  0.
        -12    1    1    2    0    0  0.94414961990E+01  0.15785922844E+02 -0.35131003822E+01  0.18726427444E+02  0.00000000000E+00 0.  1.
         11    1    3    3    0    0 -0.16808034446E+02  0.74519078089E+01 -0.15262799376E+02  0.23895480681E+02  0.51100000000E-03 0. -1.
        -11    1    3    3    0    0 -0.54865167908E+01  0.45852059962E+01 -0.58591648366E+01  0.92442302744E+01  0.51100000000E-03 0.  1.
        -12    1    3    3    0    0  0.12853055037E+02 -0.27823036649E+02  0.24635064594E+02  0.39321861601E+02  0.00000000000E+00 0.  1.
</event>
<event>
 7    1  0.2641045E-013  0.7246159E+02  0.7816164E-02  0.1226708E+00
        -11   -1    0    0    0    0  0.00000000000E+00  0.00000000000E+00  0.45593999997E+02  0.45594000000E+02  0.51100000000E-03 0.  1.
         11   -1    0    0    0    0 -0.00000000000E+00 -0.00000000000E+00 -0.45593999997E+02  0.45594000000E+02  0.51100000000E-03 0. -1.
    9900012    2    1    2    0    0  0.13742744715E+02 -0.10936255866E+02  0.64971970105E+01  0.72461593680E+02  0.70000030464E+02 0.  0.
        -12    1    1    2    0    0 -0.13742744715E+02  0.10936255866E+02 -0.64971970105E+01  0.18726406320E+02  0.00000000000E+00 0.  1.
         11    1    3    3    0    0 -0.19435458208E+02 -0.11814497671E+02 -0.14675423944E+02  0.27068200146E+02  0.51100000000E-03 0. -1.
        -11    1    3    3    0    0 -0.25594648235E+01 -0.23546506386E+01 -0.43728238733E+00  0.35052041253E+01  0.51100000000E-03 0.  1.
        -12    1    3    3    0    0  0.35737667746E+02  0.32328924442E+01  0.21609903341E+02  0.41888189409E+02  0.00000000000E+00 0.  1.
</event>
<event>
 7    1  0.2641045E-013  0.7246156E+02  0.7816164E-02  0.1226708E+00
        -11   -1    0    0    0    0  0.00000000000E+00  0.00000000000E+00  0.45593999997E+02  0.45594000000E+02  0.51100000000E-03 0. -1.
         11   -1    0    0    0    0 -0.00000000000E+00 -0.00000000000E+00 -0.45593999997E+02  0.45594000000E+02  0.51100000000E-03 0.  1.
    9900012    2    1    2    0    0  0.16306052632E+02 -0.76373914506E+01 -0.51441732571E+01  0.72461558290E+02  0.69999984363E+02 0.  0.
        -12    1    1    2    0    0 -0.16306052632E+02  0.76373914506E+01  0.51441732571E+01  0.18726441710E+02  0.00000000000E+00 0.  1.
         11    1    3    3    0    0  0.18462696946E+02  0.39214043987E+01  0.64368414116E+01  0.19941953731E+02  0.51100000000E-03 0. -1.
        -11    1    3    3    0    0 -0.12558810692E+01 -0.27514077497E+02 -0.20392785592E+02  0.34270503385E+02  0.51100000000E-03 0.  1.
         12    1    3    3    0    0 -0.90076324532E+00  0.15955281648E+02  0.88117709233E+01  0.18249101175E+02  0.00000000000E+00 0. -1.
</event>
<event>
 7    1  0.2641045E-013  0.7246111E+02  0.7816164E-02  0.1226709E+00
        -11   -1    0    0    0    0  0.00000000000E+00  0.00000000000E+00  0.45593999997E+02  0.45594000000E+02  0.51100000000E-03 0.  1.
         11   -1    0    0    0    0 -0.00000000000E+00 -0.00000000000E+00 -0.45593999997E+02  0.45594000000E+02  0.51100000000E-03 0. -1.
    9900012    2    1    2    0    0 -0.88228391343E+01 -0.27846403948E+01 -0.16281886133E+02  0.72461106809E+02  0.69999396222E+02 0.  0.
        -12    1    1    2    0    0  0.88228391343E+01  0.27846403948E+01  0.16281886133E+02  0.18726893191E+02  0.00000000000E+00 0.  1.
         11    1    3    3    0    0  0.65016636264E+01 -0.43498737639E+01  0.11254310684E+02  0.13705930866E+02  0.51100000000E-03 0.  1.
        -11    1    3    3    0    0 -0.31836201116E+02  0.72586835733E+00 -0.27722753752E+02  0.42221104464E+02  0.51100000000E-03 0. -1.
         12    1    3    3    0    0  0.16511698355E+02  0.83936501177E+00  0.18655693470E+00  0.16534071479E+02  0.00000000000E+00 0. -1.
</event>
<event>
 7    1  0.2641045E-013  0.7246161E+02  0.7816164E-02  0.1226708E+00
        -11   -1    0    0    0    0  0.00000000000E+00  0.00000000000E+00  0.45593999997E+02  0.45594000000E+02  0.51100000000E-03 0. -1.
         11   -1    0    0    0    0 -0.00000000000E+00 -0.00000000000E+00 -0.45593999997E+02  0.45594000000E+02  0.51100000000E-03 0.  1.
    9900012    2    1    2    0    0  0.16123018223E+02  0.88844071201E+01 -0.34341398981E+01  0.72461608908E+02  0.70000050301E+02 0.  0.
        -12    1    1    2    0    0 -0.16123018223E+02 -0.88844071201E+01  0.34341398981E+01  0.18726391092E+02  0.00000000000E+00 0.  1.
         11    1    3    3    0    0  0.10119932037E+02  0.24091661758E+02  0.24095439848E+01  0.26241705226E+02  0.51100000000E-03 0. -1.
        -11    1    3    3    0    0  0.16516399292E+02  0.87626551686E+01 -0.71394928450E+01  0.20013693550E+02  0.51100000000E-03 0.  1.
         12    1    3    3    0    0 -0.10513313107E+02 -0.23969909806E+02  0.12958089621E+01  0.26206210132E+02  0.00000000000E+00 0. -1.
</event>
<event>
 7    1  0.2641045E-013  0.7246151E+02  0.7816164E-02  0.1226708E+00
        -11   -1    0    0    0    0  0.00000000000E+00  0.00000000000E+00  0.45593999997E+02  0.45594000000E+02  0.51100000000E-03 0.  1.
         11   -1    0    0    0    0 -0.00000000000E+00 -0.00000000000E+00 -0.45593999997E+02  0.45594000000E+02  0.51100000000E-03 0. -1.
    9900012    2    1    2    0    0  0.16266619811E+02 -0.77711173374E+01  0.50683468104E+01  0.72461512766E+02  0.69999925059E+02 0.  0.
        -12    1    1    2    0    0 -0.16266619811E+02  0.77711173374E+01 -0.50683468104E+01  0.18726487234E+02  0.00000000000E+00 0.  1.
         11    1    3    3    0    0  0.59923281155E+01 -0.25013987316E+02 -0.13745345685E+02  0.29164054690E+02  0.51100000000E-03 0. -1.
        -11    1    3    3    0    0  0.22176289513E+02  0.69996391381E+01  0.10280744811E+02  0.25425901729E+02  0.51100000000E-03 0.  1.
        -12    1    3    3    0    0 -0.11901997818E+02  0.10243230840E+02  0.85329476835E+01  0.17871556347E+02  0.00000000000E+00 0.  1.
</event>
<event>
 7    1  0.2641045E-013  0.7246160E+02  0.7816164E-02  0.1226708E+00
        -11   -1    0    0    0    0  0.00000000000E+00  0.00000000000E+00  0.45593999997E+02  0.45594000000E+02  0.51100000000E-03 0.  1.
         11   -1    0    0    0    0 -0.00000000000E+00 -0.00000000000E+00 -0.45593999997E+02  0.45594000000E+02  0.51100000000E-03 0. -1.
    9900012    2    1    2    0    0  0.14611271630E+02  0.74905894265E+01 -0.90044264417E+01  0.72461604614E+02  0.70000044707E+02 0.  0.
        -12    1    1    2    0    0 -0.14611271630E+02 -0.74905894265E+01  0.90044264417E+01  0.18726395386E+02  0.00000000000E+00 0.  1.
         11    1    3    3    0    0  0.31122952301E+02  0.20031622799E+02 -0.73673629771E+01  0.37738337396E+02  0.51100000000E-03 0. -1.
        -11    1    3    3    0    0  0.36864445912E+01  0.23855537766E+01  0.69156200316E+01  0.81918582280E+01  0.51100000000E-03 0.  1.
        -12    1    3    3    0    0 -0.20198125262E+02 -0.14926587149E+02 -0.85526834962E+01  0.26531408990E+02  0.00000000000E+00 0.  1.
</event>
<event>
 7    1  0.2641045E-013  0.7246152E+02  0.7816164E-02  0.1226708E+00
        -11   -1    0    0    0    0  0.00000000000E+00  0.00000000000E+00  0.45593999997E+02  0.45594000000E+02  0.51100000000E-03 0. -1.
         11   -1    0    0    0    0 -0.00000000000E+00 -0.00000000000E+00 -0.45593999997E+02  0.45594000000E+02  0.51100000000E-03 0.  1.
    9900012    2    1    2    0    0 -0.55780254348E+01 -0.22406549373E+01  0.17735446600E+02  0.72461522264E+02  0.69999937432E+02 0.  0.
        -12    1    1    2    0    0  0.55780254348E+01  0.22406549373E+01 -0.17735446600E+02  0.18726477736E+02  0.00000000000E+00 0.  1.
         11    1    3    3    0    0 -0.31900534103E+01 -0.29563843580E+01  0.17851816625E+02  0.18374003546E+02  0.51100000000E-03 0. -1.
        -11    1    3    3    0    0 -0.28123756852E+02 -0.19892518632E+01 -0.71418909718E+00  0.28203065237E+02  0.51100000000E-03 0.  1.
         12    1    3    3    0    0  0.25735784827E+02  0.27049812839E+01  0.59781907237E+00  0.25884453482E+02  0.00000000000E+00 0. -1.
</event>
<event>
 7    1  0.2641045E-013  0.7246157E+02  0.7816164E-02  0.1226708E+00
        -11   -1    0    0    0    0  0.00000000000E+00  0.00000000000E+00  0.45593999997E+02  0.45594000000E+02  0.51100000000E-03 0.  1.
         11   -1    0    0    0    0 -0.00000000000E+00 -0.00000000000E+00 -0.45593999997E+02  0.45594000000E+02  0.51100000000E-03 0. -1.
    9900012    2    1    2    0    0 -0.17220111095E+02 -0.53053386729E+01 -0.50990530953E+01  0.72461569827E+02  0.69999999391E+02 0.  0.
        -12    1    1    2    0    0  0.17220111095E+02  0.53053386729E+01  0.50990530953E+01  0.18726430173E+02  0.00000000000E+00 0.  1.
         11    1    3    3    0    0 -0.44025645115E+01  0.20549874832E+02 -0.72254133805E+01  0.22223557966E+02  0.51100000000E-03 0. -1.
        -11    1    3    3    0    0  0.93418053992E+01 -0.25143920480E+01  0.13054979053E+02  0.16248814536E+02  0.51100000000E-03 0.  1.
         12    1    3    3    0    0 -0.22159351983E+02 -0.23340821457E+02 -0.10928618768E+02  0.33989197325E+02  0.00000000000E+00 0. -1.
</event>
<event>
 7    1  0.2641045E-013  0.7246151E+02  0.7816164E-02  0.1226708E+00
        -11   -1    0    0    0    0  0.00000000000E+00  0.00000000000E+00  0.45593999997E+02  0.45594000000E+02  0.51100000000E-03 0.  1.
         11   -1    0    0    0    0 -0.00000000000E+00 -0.00000000000E+00 -0.45593999997E+02  0.45594000000E+02  0.51100000000E-03 0. -1.
    9900012    2    1    2    0    0  0.20972466397E+01  0.13693118142E+02 -0.12600847362E+02  0.72461513887E+02  0.69999926518E+02 0.  0.
        -12    1    1    2    0    0 -0.20972466397E+01 -0.13693118142E+02  0.12600847362E+02  0.18726486113E+02  0.00000000000E+00 0.  1.
         11    1    3    3    0    0  0.18522928137E+02 -0.57787899046E+01 -0.79135220826E+01  0.20955121368E+02  0.51100000000E-03 0. -1.
        -11    1    3    3    0    0  0.41437023393E+01 -0.11273737982E+02  0.53921114595E+01  0.13165952431E+02  0.51100000000E-03 0.  1.
        -12    1    3    3    0    0 -0.20569383836E+02  0.30745646029E+02 -0.10079436739E+02  0.38340440088E+02  0.00000000000E+00 0.  1.
</event>
<event>
 7    1  0.2641045E-013  0.7246151E+02  0.7816164E-02  0.1226708E+00
        -11   -1    0    0    0    0  0.00000000000E+00  0.00000000000E+00  0.45593999997E+02  0.45594000000E+02  0.51100000000E-03 0. -1.
         11   -1    0    0    0    0 -0.00000000000E+00 -0.00000000000E+00 -0.45593999997E+02  0.45594000000E+02  0.51100000000E-03 0.  1.
    9900012    2    1    2    0    0 -0.73147635107E+01 -0.16980523385E+02  0.29727796563E+01  0.72461511847E+02  0.69999923862E+02 0.  0.
        -12    1    1    2    0    0  0.73147635107E+01  0.16980523385E+02 -0.29727796563E+01  0.18726488153E+02  0.00000000000E+00 0.  1.
         11    1    3    3    0    0  0.29382994863E+01 -0.61116754346E+01 -0.15645116591E+01  0.69594451993E+01  0.51100000000E-03 0. -1.
        -11    1    3    3    0    0  0.12838957154E+02 -0.25821809629E+02 -0.14272076666E+02  0.32176029058E+02  0.51100000000E-03 0.  1.
         12    1    3    3    0    0 -0.23092020151E+02  0.14952961678E+02  0.18809367981E+02  0.33326037590E+02  0.00000000000E+00 0. -1.
</event>
<event>
 7    1  0.2641045E-013  0.7246159E+02  0.7816164E-02  0.1226708E+00
        -11   -1    0    0    0    0  0.00000000000E+00  0.00000000000E+00  0.45593999997E+02  0.45594000000E+02  0.51100000000E-03 0. -1.
         11   -1    0    0    0    0 -0.00000000000E+00 -0.00000000000E+00 -0.45593999997E+02  0.45594000000E+02  0.51100000000E-03 0.  1.
    9900012    2    1    2    0    0 -0.88083058804E+01 -0.73235663116E+00  0.16509265841E+02  0.72461589310E+02  0.70000024771E+02 0.  0.
        -12    1    1    2    0    0  0.88083058804E+01  0.73235663116E+00 -0.16509265841E+02  0.18726410690E+02  0.00000000000E+00 0.  1.
         11    1    3    3    0    0  0.78089456456E+01 -0.35003218211E+01  0.29354893754E+01  0.90470427810E+01  0.51100000000E-03 0. -1.
        -11    1    3    3    0    0  0.21183785270E+02 -0.32643811253E+01 -0.31084546016E+01  0.21658056994E+02  0.51100000000E-03 0.  1.
         12    1    3    3    0    0 -0.37801036796E+02  0.60323463152E+01  0.16682231068E+02  0.41756489535E+02  0.00000000000E+00 0. -1.
</event>
<event>
 7    1  0.2641045E-013  0.7246157E+02  0.7816164E-02  0.1226708E+00
        -11   -1    0    0    0    0  0.00000000000E+00  0.00000000000E+00  0.45593999997E+02  0.45594000000E+02  0.51100000000E-03 0. -1.
         11   -1    0    0    0    0 -0.00000000000E+00 -0.00000000000E+00 -0.45593999997E+02  0.45594000000E+02  0.51100000000E-03 0.  1.
    9900012    2    1    2    0    0  0.91599157374E+01 -0.15203645424E+02  0.59685960636E+01  0.72461574034E+02  0.70000004872E+02 0.  0.
        -12    1    1    2    0    0 -0.91599157374E+01  0.15203645424E+02 -0.59685960636E+01  0.18726425966E+02  0.00000000000E+00 0.  1.
         11    1    3    3    0    0 -0.48501887244E+01  0.12712930154E+02 -0.12870971959E+02  0.18729784921E+02  0.51100000000E-03 0. -1.
        -11    1    3    3    0    0 -0.12070813061E+01  0.48722286281E+00 -0.10242875558E+02  0.10325256964E+02  0.51100000000E-03 0.  1.
         12    1    3    3    0    0  0.15217185768E+02 -0.28403798441E+02  0.29082443581E+02  0.43406532149E+02  0.00000000000E+00 0. -1.
</event>
<event>
 7    1  0.2641045E-013  0.7246159E+02  0.7816164E-02  0.1226708E+00
        -11   -1    0    0    0    0  0.00000000000E+00  0.00000000000E+00  0.45593999997E+02  0.45594000000E+02  0.51100000000E-03 0. -1.
         11   -1    0    0    0    0 -0.00000000000E+00 -0.00000000000E+00 -0.45593999997E+02  0.45594000000E+02  0.51100000000E-03 0.  1.
    9900012    2    1    2    0    0 -0.18963671756E+01 -0.66565038452E+01  0.17400374824E+02  0.72461593620E+02  0.70000030386E+02 0.  0.
        -12    1    1    2    0    0  0.18963671756E+01  0.66565038452E+01 -0.17400374824E+02  0.18726406380E+02  0.00000000000E+00 0.  1.
         11    1    3    3    0    0  0.55709879016E+01 -0.19786569864E+01  0.78753298026E+00  0.59641594652E+01  0.51100000000E-03 0. -1.
        -11    1    3    3    0    0 -0.36787508780E+01  0.99833146742E+01 -0.22318508307E+02  0.24724797132E+02  0.51100000000E-03 0.  1.
         12    1    3    3    0    0 -0.37886041993E+01 -0.14661161533E+02  0.38931350151E+02  0.41772637023E+02  0.00000000000E+00 0. -1.
</event>
<event>
 7    1  0.2641045E-013  0.7246154E+02  0.7816164E-02  0.1226708E+00
        -11   -1    0    0    0    0  0.00000000000E+00  0.00000000000E+00  0.45593999997E+02  0.45594000000E+02  0.51100000000E-03 0.  1.
         11   -1    0    0    0    0 -0.00000000000E+00 -0.00000000000E+00 -0.45593999997E+02  0.45594000000E+02  0.51100000000E-03 0. -1.
    9900012    2    1    2    0    0 -0.12606699335E+02  0.13208873146E+02 -0.41565895683E+01  0.72461536513E+02  0.69999955993E+02 0.  0.
        -12    1    1    2    0    0  0.12606699335E+02 -0.13208873146E+02  0.41565895683E+01  0.18726463487E+02  0.00000000000E+00 0.  1.
         11    1    3    3    0    0 -0.64309482359E+01 -0.11688611817E+02  0.12238280157E+02  0.18104039408E+02  0.51100000000E-03 0. -1.
        -11    1    3    3    0    0  0.94969211325E+01  0.13134376474E+02 -0.27435353523E+02  0.31865372735E+02  0.51100000000E-03 0.  1.
         12    1    3    3    0    0 -0.15672672232E+02  0.11763108488E+02  0.11040483798E+02  0.22492124370E+02  0.00000000000E+00 0. -1.
</event>
<event>
 7    1  0.2641045E-013  0.7246157E+02  0.7816164E-02  0.1226708E+00
        -11   -1    0    0    0    0  0.00000000000E+00  0.00000000000E+00  0.45593999997E+02  0.45594000000E+02  0.51100000000E-03 0. -1.
         11   -1    0    0    0    0 -0.00000000000E+00 -0.00000000000E+00 -0.45593999997E+02  0.45594000000E+02  0.51100000000E-03 0.  1.
    9900012    2    1    2    0    0 -0.15565237591E+02 -0.10076183327E+02 -0.26216851134E+01  0.72461566155E+02  0.69999994608E+02 0.  0.
        -12    1    1    2    0    0  0.15565237591E+02  0.10076183327E+02  0.26216851134E+01  0.18726433845E+02  0.00000000000E+00 0.  1.
         11    1    3    3    0    0  0.53065570100E+01  0.22972909293E+01  0.63780488831E+01  0.86090998792E+01  0.51100000000E-03 0. -1.
        -11    1    3    3    0    0  0.29238597657E+01 -0.68680617888E+01 -0.30446706653E+02  0.31348383928E+02  0.51100000000E-03 0.  1.
         12    1    3    3    0    0 -0.23795654367E+02 -0.55054124673E+01  0.21446972656E+02  0.32504082348E+02  0.00000000000E+00 0. -1.
</event>
<event>
 7    1  0.2641045E-013  0.7246164E+02  0.7816164E-02  0.1226708E+00
        -11   -1    0    0    0    0  0.00000000000E+00  0.00000000000E+00  0.45593999997E+02  0.45594000000E+02  0.51100000000E-03 0.  1.
         11   -1    0    0    0    0 -0.00000000000E+00 -0.00000000000E+00 -0.45593999997E+02  0.45594000000E+02  0.51100000000E-03 0. -1.
    9900012    2    1    2    0    0  0.41708692073E+01 -0.16260794476E+02 -0.82986155665E+01  0.72461638707E+02  0.70000089120E+02 0.  0.
        -12    1    1    2    0    0 -0.41708692073E+01  0.16260794476E+02  0.82986155665E+01  0.18726361293E+02  0.00000000000E+00 0.  1.
         11    1    3    3    0    0 -0.21589570667E+02 -0.79487982968E+01 -0.10755387082E+02  0.25396285309E+02  0.51100000000E-03 0.  1.
        -11    1    3    3    0    0 -0.59921693761E+01 -0.77893641378E+01  0.10422017541E+02  0.14324759592E+02  0.51100000000E-03 0. -1.
         12    1    3    3    0    0  0.31752609251E+02 -0.52263204180E+00 -0.79652460253E+01  0.32740593805E+02  0.00000000000E+00 0. -1.
</event>
<event>
 7    1  0.2641045E-013  0.7246149E+02  0.7816164E-02  0.1226708E+00
        -11   -1    0    0    0    0  0.00000000000E+00  0.00000000000E+00  0.45593999997E+02  0.45594000000E+02  0.51100000000E-03 0.  1.
         11   -1    0    0    0    0 -0.00000000000E+00 -0.00000000000E+00 -0.45593999997E+02  0.45594000000E+02  0.51100000000E-03 0. -1.
    9900012    2    1    2    0    0  0.17088880513E+02  0.50742961962E+01 -0.57361970135E+01  0.72461487371E+02  0.69999891977E+02 0.  0.
        -12    1    1    2    0    0 -0.17088880513E+02 -0.50742961962E+01  0.57361970135E+01  0.18726512629E+02  0.00000000000E+00 0.  1.
         11    1    3    3    0    0  0.34681355844E+02  0.47473567998E+01  0.12043721819E+02  0.37018712501E+02  0.51100000000E-03 0. -1.
        -11    1    3    3    0    0  0.42016457196E+01  0.23965484618E+01  0.26355991049E+01  0.55085074372E+01  0.51100000000E-03 0.  1.
        -12    1    3    3    0    0 -0.21794121050E+02 -0.20696090654E+01 -0.20415517938E+02  0.29934267432E+02  0.00000000000E+00 0.  1.
</event>
<event>
 7    1  0.2641045E-013  0.7246152E+02  0.7816164E-02  0.1226708E+00
        -11   -1    0    0    0    0  0.00000000000E+00  0.00000000000E+00  0.45593999997E+02  0.45594000000E+02  0.51100000000E-03 0.  1.
         11   -1    0    0    0    0 -0.00000000000E+00 -0.00000000000E+00 -0.45593999997E+02  0.45594000000E+02  0.51100000000E-03 0. -1.
    9900012    2    1    2    0    0 -0.35652480189E+00  0.11863776460E+02 -0.14484639188E+02  0.72461519438E+02  0.69999933750E+02 0.  0.
        -12    1    1    2    0    0  0.35652480189E+00 -0.11863776460E+02  0.14484639188E+02  0.18726480562E+02  0.00000000000E+00 0.  1.
         11    1    3    3    0    0  0.10529169039E+02  0.78355034830E+00  0.31273252487E+01  0.11011699019E+02  0.51100000000E-03 0. -1.
        -11    1    3    3    0    0  0.20167713369E+02 -0.51705778091E+01  0.26147124561E+01  0.20983523510E+02  0.51100000000E-03 0.  1.
         12    1    3    3    0    0 -0.31053407210E+02  0.16250803921E+02 -0.20226676892E+02  0.40466296909E+02  0.00000000000E+00 0. -1.
</event>
<event>
 7    1  0.2641045E-013  0.7246161E+02  0.7816164E-02  0.1226708E+00
        -11   -1    0    0    0    0  0.00000000000E+00  0.00000000000E+00  0.45593999997E+02  0.45594000000E+02  0.51100000000E-03 0.  1.
         11   -1    0    0    0    0 -0.00000000000E+00 -0.00000000000E+00 -0.45593999997E+02  0.45594000000E+02  0.51100000000E-03 0. -1.
    9900012    2    1    2    0    0  0.67953465694E+01 -0.16014074647E+02 -0.69318378321E+01  0.72461609597E+02  0.70000051199E+02 0.  0.
        -12    1    1    2    0    0 -0.67953465694E+01  0.16014074647E+02  0.69318378321E+01  0.18726390403E+02  0.00000000000E+00 0.  1.
         11    1    3    3    0    0  0.15705941378E+02 -0.10959930218E+02 -0.19530491456E+01  0.19251261418E+02  0.51100000000E-03 0. -1.
        -11    1    3    3    0    0  0.11011935568E+02 -0.15927842291E+02  0.13778640443E+02  0.23765727797E+02  0.51100000000E-03 0.  1.
         12    1    3    3    0    0 -0.19922530377E+02  0.10873697862E+02 -0.18757429130E+02  0.29444620381E+02  0.00000000000E+00 0. -1.
</event>
<event>
 7    1  0.2641045E-013  0.7246154E+02  0.7816164E-02  0.1226708E+00
        -11   -1    0    0    0    0  0.00000000000E+00  0.00000000000E+00  0.45593999997E+02  0.45594000000E+02  0.51100000000E-03 0. -1.
         11   -1    0    0    0    0 -0.00000000000E+00 -0.00000000000E+00 -0.45593999997E+02  0.45594000000E+02  0.51100000000E-03 0.  1.
    9900012    2    1    2    0    0 -0.99445286029E+01  0.89726510064E+01  0.13087324827E+02  0.72461543145E+02  0.69999964633E+02 0.  0.
        -12    1    1    2    0    0  0.99445286029E+01 -0.89726510064E+01 -0.13087324827E+02  0.18726456855E+02  0.00000000000E+00 0.  1.
         11    1    3    3    0    0 -0.36097415534E+00 -0.65907683024E+01 -0.84274582780E+01  0.10704699082E+02  0.51100000000E-03 0. -1.
        -11    1    3    3    0    0 -0.19321290056E+02 -0.89696608556E+01 -0.74522618572E+01  0.22567748500E+02  0.51100000000E-03 0.  1.
         12    1    3    3    0    0  0.97377356090E+01  0.24533080164E+02  0.28967044962E+02  0.39189095562E+02  0.00000000000E+00 0. -1.
</event>
<event>
 7    1  0.2641045E-013  0.7246158E+02  0.7816164E-02  0.1226708E+00
        -11   -1    0    0    0    0  0.00000000000E+00  0.00000000000E+00  0.45593999997E+02  0.45594000000E+02  0.51100000000E-03 0. -1.
         11   -1    0    0    0    0 -0.00000000000E+00 -0.00000000000E+00 -0.45593999997E+02  0.45594000000E+02  0.51100000000E-03 0.  1.
    9900012    2    1    2    0    0  0.10359107997E+02 -0.14227762475E+02 -0.63983077737E+01  0.72461583207E+02  0.70000016821E+02 0.  0.
        -12    1    1    2    0    0 -0.10359107997E+02  0.14227762475E+02  0.63983077737E+01  0.18726416793E+02  0.00000000000E+00 0.  1.
         11    1    3    3    0    0  0.33746101391E+01  0.13588869032E+02  0.18799130811E+02  0.23440406879E+02  0.51100000000E-03 0. -1.
        -11    1    3    3    0    0  0.27774689784E+01  0.64443069235E+01 -0.73497437778E+01  0.10161799029E+02  0.51100000000E-03 0.  1.
        -12    1    3    3    0    0  0.42070288791E+01 -0.34260938431E+02 -0.17847694807E+02  0.38859377299E+02  0.00000000000E+00 0.  1.
</event>
<event>
 7    1  0.2641045E-013  0.7246172E+02  0.7816164E-02  0.1226708E+00
        -11   -1    0    0    0    0  0.00000000000E+00  0.00000000000E+00  0.45593999997E+02  0.45594000000E+02  0.51100000000E-03 0. -1.
         11   -1    0    0    0    0 -0.00000000000E+00 -0.00000000000E+00 -0.45593999997E+02  0.45594000000E+02  0.51100000000E-03 0.  1.
    9900012    2    1    2    0    0  0.11049245467E+01 -0.17398995105E+02  0.68357731023E+01  0.72461716791E+02  0.70000190838E+02 0.  0.
        -12    1    1    2    0    0 -0.11049245467E+01  0.17398995105E+02 -0.68357731023E+01  0.18726283209E+02  0.00000000000E+00 0.  1.
         11    1    3    3    0    0  0.39039436169E+01 -0.25076112544E+02  0.19117260743E+02  0.31772973652E+02  0.51100000000E-03 0. -1.
        -11    1    3    3    0    0 -0.17653214582E+02 -0.58845455289E+01 -0.46910445733E+01  0.19190355927E+02  0.51100000000E-03 0.  1.
        -12    1    3    3    0    0  0.14854195512E+02  0.13561662968E+02 -0.75904430675E+01  0.21498387212E+02  0.00000000000E+00 0.  1.
</event>
<event>
 7    1  0.2641045E-013  0.7246155E+02  0.7816164E-02  0.1226708E+00
        -11   -1    0    0    0    0  0.00000000000E+00  0.00000000000E+00  0.45593999997E+02  0.45594000000E+02  0.51100000000E-03 0.  1.
         11   -1    0    0    0    0 -0.00000000000E+00 -0.00000000000E+00 -0.45593999997E+02  0.45594000000E+02  0.51100000000E-03 0. -1.
    9900012    2    1    2    0    0  0.62917903196E+01 -0.12910447007E+00 -0.17637363422E+02  0.72461551274E+02  0.69999975223E+02 0.  0.
        -12    1    1    2    0    0 -0.62917903196E+01  0.12910447007E+00  0.17637363422E+02  0.18726448726E+02  0.00000000000E+00 0.  1.
         11    1    3    3    0    0  0.30430946645E+02 -0.25663387160E+01 -0.21054253580E+02  0.37093263569E+02  0.51100000000E-03 0. -1.
        -11    1    3    3    0    0 -0.20193181339E+01 -0.25235381717E+01 -0.89707190010E+01  0.95351817123E+01  0.51100000000E-03 0.  1.
        -12    1    3    3    0    0 -0.22119838191E+02  0.49607724176E+01  0.12387609159E+02  0.25833105993E+02  0.00000000000E+00 0.  1.
</event>
<event>
 7    1  0.2641045E-013  0.7246158E+02  0.7816164E-02  0.1226708E+00
        -11   -1    0    0    0    0  0.00000000000E+00  0.00000000000E+00  0.45593999997E+02  0.45594000000E+02  0.51100000000E-03 0.  1.
         11   -1    0    0    0    0 -0.00000000000E+00 -0.00000000000E+00 -0.45593999997E+02  0.45594000000E+02  0.51100000000E-03 0. -1.
    9900012    2    1    2    0    0  0.71984189779E+01  0.34951927296E+01 -0.16930603121E+02  0.72461576689E+02  0.70000008330E+02 0.  0.
        -12    1    1    2    0    0 -0.71984189779E+01 -0.34951927296E+01  0.16930603121E+02  0.18726423311E+02  0.00000000000E+00 0.  1.
         11    1    3    3    0    0  0.19936839912E+02  0.66506696523E+01  0.16480163590E+01  0.21081388727E+02  0.51100000000E-03 0. -1.
        -11    1    3    3    0    0  0.72455146269E+01 -0.12072165492E+02  0.85912034592E+01  0.16493739388E+02  0.51100000000E-03 0.  1.
         12    1    3    3    0    0 -0.19983935561E+02  0.89166885693E+01 -0.27169822939E+02  0.34886448573E+02  0.00000000000E+00 0. -1.
</event>
<event>
 7    1  0.2641045E-013  0.7246163E+02  0.7816164E-02  0.1226708E+00
        -11   -1    0    0    0    0  0.00000000000E+00  0.00000000000E+00  0.45593999997E+02  0.45594000000E+02  0.51100000000E-03 0.  1.
         11   -1    0    0    0    0 -0.00000000000E+00 -0.00000000000E+00 -0.45593999997E+02  0.45594000000E+02  0.51100000000E-03 0. -1.
    9900012    2    1    2    0    0 -0.94292637019E+01 -0.61198196667E+01 -0.14977106236E+02  0.72461630412E+02  0.70000078315E+02 0.  0.
        -12    1    1    2    0    0  0.94292637019E+01  0.61198196667E+01  0.14977106236E+02  0.18726369588E+02  0.00000000000E+00 0.  1.
         11    1    3    3    0    0  0.60663646379E+01  0.21564480885E+00  0.38027948752E+00  0.60820962959E+01  0.51100000000E-03 0. -1.
        -11    1    3    3    0    0  0.22644957425E+02  0.73924908683E+01 -0.30444951122E+01  0.24014828102E+02  0.51100000000E-03 0.  1.
         12    1    3    3    0    0 -0.38140585765E+02 -0.13727955344E+02 -0.12312890612E+02  0.42364706014E+02  0.00000000000E+00 0. -1.
</event>
<event>
 7    1  0.2641045E-013  0.7246157E+02  0.7816164E-02  0.1226708E+00
        -11   -1    0    0    0    0  0.00000000000E+00  0.00000000000E+00  0.45593999997E+02  0.45594000000E+02  0.51100000000E-03 0.  1.
         11   -1    0    0    0    0 -0.00000000000E+00 -0.00000000000E+00 -0.45593999997E+02  0.45594000000E+02  0.51100000000E-03 0. -1.
    9900012    2    1    2    0    0  0.18786125529E+01  0.40848163559E+01 -0.18178680863E+02  0.72461565537E+02  0.69999993802E+02 0.  0.
        -12    1    1    2    0    0 -0.18786125529E+01 -0.40848163559E+01  0.18178680863E+02  0.18726434463E+02  0.00000000000E+00 0.  1.
         11    1    3    3    0    0  0.85209609380E+01 -0.11945931671E+02 -0.42547785716E+01  0.15277931789E+02  0.51100000000E-03 0. -1.
        -11    1    3    3    0    0 -0.15391060077E+01 -0.31537565929E+01 -0.30878447281E+02  0.31077218903E+02  0.51100000000E-03 0.  1.
        -12    1    3    3    0    0 -0.51032423774E+01  0.19184504620E+02  0.16954544990E+02  0.26106414845E+02  0.00000000000E+00 0.  1.
</event>
<event>
 7    1  0.2641045E-013  0.7246155E+02  0.7816164E-02  0.1226708E+00
        -11   -1    0    0    0    0  0.00000000000E+00  0.00000000000E+00  0.45593999997E+02  0.45594000000E+02  0.51100000000E-03 0.  1.
         11   -1    0    0    0    0 -0.00000000000E+00 -0.00000000000E+00 -0.45593999997E+02  0.45594000000E+02  0.51100000000E-03 0. -1.
    9900012    2    1    2    0    0 -0.35967549932E+01  0.14211308847E+02 -0.11652548071E+02  0.72461552869E+02  0.69999977300E+02 0.  0.
        -12    1    1    2    0    0  0.35967549932E+01 -0.14211308847E+02  0.11652548071E+02  0.18726447131E+02  0.00000000000E+00 0.  1.
         11    1    3    3    0    0 -0.81431192312E+01 -0.13589941640E+02 -0.31231915605E+01  0.16147793360E+02  0.51100000000E-03 0. -1.
        -11    1    3    3    0    0 -0.77562066905E+01 -0.91257033572E+01 -0.12350995679E+02  0.17204194213E+02  0.51100000000E-03 0.  1.
         12    1    3    3    0    0  0.12302570929E+02  0.36926953845E+02  0.38216391690E+01  0.39109565296E+02  0.00000000000E+00 0. -1.
</event>
<event>
 7    1  0.2641045E-013  0.7246160E+02  0.7816164E-02  0.1226708E+00
        -11   -1    0    0    0    0  0.00000000000E+00  0.00000000000E+00  0.45593999997E+02  0.45594000000E+02  0.51100000000E-03 0.  1.
         11   -1    0    0    0    0 -0.00000000000E+00 -0.00000000000E+00 -0.45593999997E+02  0.45594000000E+02  0.51100000000E-03 0. -1.
    9900012    2    1    2    0    0  0.47625643285E+01 -0.11120664054E+02 -0.14294298857E+02  0.72461597040E+02  0.70000034842E+02 0.  0.
        -12    1    1    2    0    0 -0.47625643285E+01  0.11120664054E+02  0.14294298857E+02  0.18726402960E+02  0.00000000000E+00 0.  1.
         11    1    3    3    0    0  0.17403447843E+02  0.20051516611E+01 -0.21552675282E+02  0.27774420643E+02  0.51100000000E-03 0. -1.
        -11    1    3    3    0    0 -0.19810667602E+01 -0.16848567872E+02 -0.13082121346E+02  0.21422902791E+02  0.51100000000E-03 0.  1.
        -12    1    3    3    0    0 -0.10659816754E+02  0.37227521570E+01  0.20340497770E+02  0.23264273605E+02  0.00000000000E+00 0.  1.
</event>
<event>
 7    1  0.2641045E-013  0.7246145E+02  0.7816164E-02  0.1226708E+00
        -11   -1    0    0    0    0  0.00000000000E+00  0.00000000000E+00  0.45593999997E+02  0.45594000000E+02  0.51100000000E-03 0.  1.
         11   -1    0    0    0    0 -0.00000000000E+00 -0.00000000000E+00 -0.45593999997E+02  0.45594000000E+02  0.51100000000E-03 0. -1.
    9900012    2    1    2    0    0  0.10165203335E+02  0.14230012765E+02  0.66977002121E+01  0.72461446386E+02  0.69999838586E+02 0.  0.
        -12    1    1    2    0    0 -0.10165203335E+02 -0.14230012765E+02 -0.66977002121E+01  0.18726553614E+02  0.00000000000E+00 0.  1.
         11    1    3    3    0    0 -0.91474103644E+01 -0.22694276500E+01 -0.98773762902E+01  0.13652398356E+02  0.51100000000E-03 0. -1.
        -11    1    3    3    0    0  0.11028615461E+02 -0.94763915843E+01 -0.12336815492E+02  0.19069068493E+02  0.51100000000E-03 0.  1.
        -12    1    3    3    0    0  0.82839982388E+01  0.25975831999E+02  0.28911891995E+02  0.39739979537E+02  0.00000000000E+00 0.  1.
</event>
<event>
 7    1  0.2641045E-013  0.7246159E+02  0.7816164E-02  0.1226708E+00
        -11   -1    0    0    0    0  0.00000000000E+00  0.00000000000E+00  0.45593999997E+02  0.45594000000E+02  0.51100000000E-03 0.  1.
         11   -1    0    0    0    0 -0.00000000000E+00 -0.00000000000E+00 -0.45593999997E+02  0.45594000000E+02  0.51100000000E-03 0. -1.
    9900012    2    1    2    0    0  0.11766915361E+02 -0.81572512746E+00 -0.14544850364E+02  0.72461591463E+02  0.70000027576E+02 0.  0.
        -12    1    1    2    0    0 -0.11766915361E+02  0.81572512746E+00  0.14544850364E+02  0.18726408537E+02  0.00000000000E+00 0.  1.
         11    1    3    3    0    0 -0.22621603318E+00 -0.49519818455E+01 -0.92380337016E+00  0.50424905374E+01  0.51100000000E-03 0. -1.
        -11    1    3    3    0    0 -0.11641621410E+02 -0.20190469561E+02  0.10737814185E+02  0.25660924845E+02  0.51100000000E-03 0.  1.
         12    1    3    3    0    0  0.23634752804E+02  0.24326726279E+02 -0.24358861179E+02  0.41758176080E+02  0.00000000000E+00 0. -1.
</event>
<event>
 7    1  0.2641045E-013  0.7246154E+02  0.7816164E-02  0.1226708E+00
        -11   -1    0    0    0    0  0.00000000000E+00  0.00000000000E+00  0.45593999997E+02  0.45594000000E+02  0.51100000000E-03 0. -1.
         11   -1    0    0    0    0 -0.00000000000E+00 -0.00000000000E+00 -0.45593999997E+02  0.45594000000E+02  0.51100000000E-03 0.  1.
    9900012    2    1    2    0    0 -0.11719415994E+02  0.42455510209E+01  0.13975361398E+02  0.72461544358E+02  0.69999966213E+02 0.  0.
        -12    1    1    2    0    0  0.11719415994E+02 -0.42455510209E+01 -0.13975361398E+02  0.18726455642E+02  0.00000000000E+00 0.  1.
         11    1    3    3    0    0 -0.10887577712E+02  0.40346889642E+01  0.50915856766E+01  0.12678419004E+02  0.51100000000E-03 0. -1.
        -11    1    3    3    0    0  0.17341597845E+02 -0.23441859707E+02  0.63882715772E+01  0.29850658559E+02  0.51100000000E-03 0.  1.
         12    1    3    3    0    0 -0.18173436127E+02  0.23652721764E+02  0.24955041445E+01  0.29932466795E+02  0.00000000000E+00 0. -1.
</event>
<event>
 7    1  0.2641045E-013  0.7246155E+02  0.7816164E-02  0.1226708E+00
        -11   -1    0    0    0    0  0.00000000000E+00  0.00000000000E+00  0.45593999997E+02  0.45594000000E+02  0.51100000000E-03 0. -1.
         11   -1    0    0    0    0 -0.00000000000E+00 -0.00000000000E+00 -0.45593999997E+02  0.45594000000E+02  0.51100000000E-03 0.  1.
    9900012    2    1    2    0    0  0.35405379763E+01  0.65251911089E+01  0.17192040020E+02  0.72461554309E+02  0.69999979177E+02 0.  0.
        -12    1    1    2    0    0 -0.35405379763E+01 -0.65251911089E+01 -0.17192040020E+02  0.18726445691E+02  0.00000000000E+00 0.  1.
         11    1    3    3    0    0  0.13382928060E+02 -0.18944412594E+02 -0.66772769106E+01  0.24136684926E+02  0.51100000000E-03 0. -1.
        -11    1    3    3    0    0  0.51325912169E+01 -0.73745458266E+00 -0.45268689142E+01  0.68833040241E+01  0.51100000000E-03 0.  1.
        -12    1    3    3    0    0 -0.14974981300E+02  0.26207058286E+02  0.28396185845E+02  0.41441565360E+02  0.00000000000E+00 0.  1.
</event>
<event>
 7    1  0.2641045E-013  0.7246166E+02  0.7816164E-02  0.1226708E+00
        -11   -1    0    0    0    0  0.00000000000E+00  0.00000000000E+00  0.45593999997E+02  0.45594000000E+02  0.51100000000E-03 0.  1.
         11   -1    0    0    0    0 -0.00000000000E+00 -0.00000000000E+00 -0.45593999997E+02  0.45594000000E+02  0.51100000000E-03 0. -1.
    9900012    2    1    2    0    0 -0.61494998714E+01 -0.66430182444E+01 -0.16392978093E+02  0.72461661040E+02  0.70000118213E+02 0.  0.
        -12    1    1    2    0    0  0.61494998714E+01  0.66430182444E+01  0.16392978093E+02  0.18726338960E+02  0.00000000000E+00 0.  1.
         11    1    3    3    0    0  0.88604390312E+01  0.19878481759E+02  0.13090327523E+01  0.21803095740E+02  0.51100000000E-03 0.  1.
        -11    1    3    3    0    0 -0.85200198777E+01  0.82054635008E+01 -0.70006004200E+01  0.13745136466E+02  0.51100000000E-03 0. -1.
        -12    1    3    3    0    0 -0.64899190249E+01 -0.34726963504E+02 -0.10701410426E+02  0.36913428834E+02  0.00000000000E+00 0.  1.
</event>
<event>
 7    1  0.2641045E-013  0.7246209E+02  0.7816164E-02  0.1226707E+00
        -11   -1    0    0    0    0  0.00000000000E+00  0.00000000000E+00  0.45593999997E+02  0.45594000000E+02  0.51100000000E-03 0. -1.
         11   -1    0    0    0    0 -0.00000000000E+00 -0.00000000000E+00 -0.45593999997E+02  0.45594000000E+02  0.51100000000E-03 0.  1.
    9900012    2    1    2    0    0 -0.18607364616E+02 -0.11830135287E+01  0.17395438824E+01  0.72462094097E+02  0.70000682347E+02 0.  0.
        -12    1    1    2    0    0  0.18607364616E+02  0.11830135287E+01 -0.17395438824E+01  0.18725905903E+02  0.00000000000E+00 0.  1.
         11    1    3    3    0    0 -0.16512216116E+02 -0.13577762028E+02  0.28042064806E+02  0.35261399598E+02  0.51100000000E-03 0. -1.
        -11    1    3    3    0    0  0.94436235840E+01  0.21432489519E+01 -0.50121605848E+01  0.10904003689E+02  0.51100000000E-03 0.  1.
        -12    1    3    3    0    0 -0.11538772085E+02  0.10251499547E+02 -0.21290360339E+02  0.26296690810E+02  0.00000000000E+00 0.  1.
</event>
<event>
 7    1  0.2641045E-013  0.7246150E+02  0.7816164E-02  0.1226708E+00
        -11   -1    0    0    0    0  0.00000000000E+00  0.00000000000E+00  0.45593999997E+02  0.45594000000E+02  0.51100000000E-03 0.  1.
         11   -1    0    0    0    0 -0.00000000000E+00 -0.00000000000E+00 -0.45593999997E+02  0.45594000000E+02  0.51100000000E-03 0. -1.
    9900012    2    1    2    0    0  0.78521208388E+01 -0.16146021465E+02 -0.53227944917E+01  0.72461496001E+02  0.69999903219E+02 0.  0.
        -12    1    1    2    0    0 -0.78521208388E+01  0.16146021465E+02  0.53227944917E+01  0.18726503999E+02  0.00000000000E+00 0.  1.
         11    1    3    3    0    0  0.30632639741E+01  0.11631963027E+02  0.10715194073E+02  0.16109051317E+02  0.51100000000E-03 0. -1.
        -11    1    3    3    0    0  0.60318687554E+01  0.10354618124E+02  0.47657854234E+01  0.12896288929E+02  0.51100000000E-03 0.  1.
         12    1    3    3    0    0 -0.12430118907E+01 -0.38132602617E+02 -0.20803773988E+02  0.43456155755E+02  0.00000000000E+00 0. -1.
</event>
<event>
 7    1  0.2641045E-013  0.7246166E+02  0.7816164E-02  0.1226708E+00
        -11   -1    0    0    0    0  0.00000000000E+00  0.00000000000E+00  0.45593999997E+02  0.45594000000E+02  0.51100000000E-03 0. -1.
         11   -1    0    0    0    0 -0.00000000000E+00 -0.00000000000E+00 -0.45593999997E+02  0.45594000000E+02  0.51100000000E-03 0.  1.
    9900012    2    1    2    0    0 -0.11458281095E+02 -0.10911548215E+02 -0.10016081786E+02  0.72461655337E+02  0.70000110784E+02 0.  0.
        -12    1    1    2    0    0  0.11458281095E+02  0.10911548215E+02  0.10016081786E+02  0.18726344663E+02  0.00000000000E+00 0.  1.
         11    1    3    3    0    0 -0.11117420630E+02  0.33959732355E+01  0.77754013397E+00  0.11650504049E+02  0.51100000000E-03 0. -1.
        -11    1    3    3    0    0  0.25075084428E+02  0.73205075692E+01 -0.14827718327E+01  0.26163874000E+02  0.51100000000E-03 0.  1.
         12    1    3    3    0    0 -0.25415944893E+02 -0.21628029019E+02 -0.93108500878E+01  0.34647277287E+02  0.00000000000E+00 0. -1.
</event>
<event>
 7    1  0.2641045E-013  0.7246155E+02  0.7816164E-02  0.1226708E+00
        -11   -1    0    0    0    0  0.00000000000E+00  0.00000000000E+00  0.45593999997E+02  0.45594000000E+02  0.51100000000E-03 0.  1.
         11   -1    0    0    0    0 -0.00000000000E+00 -0.00000000000E+00 -0.45593999997E+02  0.45594000000E+02  0.51100000000E-03 0. -1.
    9900012    2    1    2    0    0  0.20505268332E+01  0.73943298264E+01 -0.17082124998E+02  0.72461554306E+02  0.69999979172E+02 0.  0.
        -12    1    1    2    0    0 -0.20505268332E+01 -0.73943298264E+01  0.17082124998E+02  0.18726445694E+02  0.00000000000E+00 0.  1.
         11    1    3    3    0    0 -0.10863750739E+02 -0.29570931477E+01  0.60719054022E+01  0.12791931655E+02  0.51100000000E-03 0. -1.
        -11    1    3    3    0    0 -0.11291941872E+02 -0.27005021123E+01  0.10881300725E+02  0.15912365275E+02  0.51100000000E-03 0.  1.
         12    1    3    3    0    0  0.24206219445E+02  0.13051925086E+02 -0.34035331125E+02  0.43757257376E+02  0.00000000000E+00 0. -1.
</event>
<event>
 7    1  0.2641045E-013  0.7246156E+02  0.7816164E-02  0.1226708E+00
        -11   -1    0    0    0    0  0.00000000000E+00  0.00000000000E+00  0.45593999997E+02  0.45594000000E+02  0.51100000000E-03 0.  1.
         11   -1    0    0    0    0 -0.00000000000E+00 -0.00000000000E+00 -0.45593999997E+02  0.45594000000E+02  0.51100000000E-03 0. -1.
    9900012    2    1    2    0    0  0.14597350862E+02 -0.83353034324E+01 -0.82534705599E+01  0.72461555816E+02  0.69999981140E+02 0.  0.
        -12    1    1    2    0    0 -0.14597350862E+02  0.83353034324E+01  0.82534705599E+01  0.18726444184E+02  0.00000000000E+00 0.  1.
         11    1    3    3    0    0  0.65839927253E+01  0.31428038828E+01  0.75889661294E+01  0.10527040592E+02  0.51100000000E-03 0. -1.
        -11    1    3    3    0    0 -0.94992005683E+01 -0.31502399649E+02 -0.12162032965E+02  0.35079210954E+02  0.51100000000E-03 0.  1.
         12    1    3    3    0    0  0.17512558705E+02  0.20024292334E+02 -0.36804037246E+01  0.26855304270E+02  0.00000000000E+00 0. -1.
</event>
<event>
 7    1  0.2641045E-013  0.7246172E+02  0.7816164E-02  0.1226708E+00
        -11   -1    0    0    0    0  0.00000000000E+00  0.00000000000E+00  0.45593999997E+02  0.45594000000E+02  0.51100000000E-03 0.  1.
         11   -1    0    0    0    0 -0.00000000000E+00 -0.00000000000E+00 -0.45593999997E+02  0.45594000000E+02  0.51100000000E-03 0. -1.
    9900012    2    1    2    0    0 -0.13393181127E+02 -0.13076260891E+02  0.55458649319E+00  0.72461722586E+02  0.70000198388E+02 0.  0.
        -12    1    1    2    0    0  0.13393181127E+02  0.13076260891E+02 -0.55458649319E+00  0.18726277414E+02  0.00000000000E+00 0.  1.
         11    1    3    3    0    0  0.39437774241E+01  0.13512392091E+02 -0.37776437379E+00  0.14081222481E+02  0.51100000000E-03 0. -1.
        -11    1    3    3    0    0 -0.65673420933E+00  0.13662456073E+02  0.51294424258E+01  0.14608394355E+02  0.51100000000E-03 0.  1.
         12    1    3    3    0    0 -0.16680224342E+02 -0.40251109055E+02 -0.41970915588E+01  0.43772105750E+02  0.00000000000E+00 0. -1.
</event>
<event>
 7    1  0.2641045E-013  0.7246149E+02  0.7816164E-02  0.1226708E+00
        -11   -1    0    0    0    0  0.00000000000E+00  0.00000000000E+00  0.45593999997E+02  0.45594000000E+02  0.51100000000E-03 0.  1.
         11   -1    0    0    0    0 -0.00000000000E+00 -0.00000000000E+00 -0.45593999997E+02  0.45594000000E+02  0.51100000000E-03 0. -1.
    9900012    2    1    2    0    0  0.17989237946E+02 -0.45871200313E+01 -0.24551599425E+01  0.72461490384E+02  0.69999895902E+02 0.  0.
        -12    1    1    2    0    0 -0.17989237946E+02  0.45871200313E+01  0.24551599425E+01  0.18726509616E+02  0.00000000000E+00 0.  1.
         11    1    3    3    0    0 -0.49284971067E+01 -0.19837955485E+01  0.46514562635E+01  0.70612728414E+01  0.51100000000E-03 0. -1.
        -11    1    3    3    0    0 -0.13448626965E+02 -0.19301257849E+02  0.40198255186E+01  0.23865521558E+02  0.51100000000E-03 0.  1.
         12    1    3    3    0    0  0.36366362018E+02  0.16697933366E+02 -0.11126441725E+02  0.41534695985E+02  0.00000000000E+00 0. -1.
</event>
<event>
 7    1  0.2641045E-013  0.7246197E+02  0.7816164E-02  0.1226707E+00
        -11   -1    0    0    0    0  0.00000000000E+00  0.00000000000E+00  0.45593999997E+02  0.45594000000E+02  0.51100000000E-03 0. -1.
         11   -1    0    0    0    0 -0.00000000000E+00 -0.00000000000E+00 -0.45593999997E+02  0.45594000000E+02  0.51100000000E-03 0.  1.
    9900012    2    1    2    0    0  0.96184622091E+01  0.15635598882E+02  0.36982877137E+01  0.72461972667E+02  0.70000524163E+02 0.  0.
        -12    1    1    2    0    0 -0.96184622091E+01 -0.15635598882E+02 -0.36982877137E+01  0.18726027333E+02  0.00000000000E+00 0.  1.
         11    1    3    3    0    0  0.58565195191E+01  0.18938255549E+02  0.54487262695E+01  0.20558330728E+02  0.51100000000E-03 0. -1.
        -11    1    3    3    0    0  0.23967824955E+02  0.11074113110E+02  0.32629718132E+01  0.26603375717E+02  0.51100000000E-03 0.  1.
         12    1    3    3    0    0 -0.20205882265E+02 -0.14376769777E+02 -0.50134103691E+01  0.25300266221E+02  0.00000000000E+00 0. -1.
</event>
<event>
 7    1  0.2641045E-013  0.7246150E+02  0.7816164E-02  0.1226708E+00
        -11   -1    0    0    0    0  0.00000000000E+00  0.00000000000E+00  0.45593999997E+02  0.45594000000E+02  0.51100000000E-03 0.  1.
         11   -1    0    0    0    0 -0.00000000000E+00 -0.00000000000E+00 -0.45593999997E+02  0.45594000000E+02  0.51100000000E-03 0. -1.
    9900012    2    1    2    0    0 -0.89964215472E+01 -0.10773022870E+02 -0.12397101853E+02  0.72461501214E+02  0.69999910010E+02 0.  0.
        -12    1    1    2    0    0  0.89964215472E+01  0.10773022870E+02  0.12397101853E+02  0.18726498786E+02  0.00000000000E+00 0.  1.
         11    1    3    3    0    0 -0.24118287679E+02 -0.17167562761E+02 -0.16495558835E+02  0.33889828464E+02  0.51100000000E-03 0. -1.
        -11    1    3    3    0    0 -0.10995422689E+01  0.11067600362E+02  0.14853170576E+02  0.18555792826E+02  0.51100000000E-03 0.  1.
        -12    1    3    3    0    0  0.16221408401E+02 -0.46730604707E+01 -0.10754713594E+02  0.20015879925E+02  0.00000000000E+00 0.  1.
</event>
<event>
 7    1  0.2641045E-013  0.7246156E+02  0.7816164E-02  0.1226708E+00
        -11   -1    0    0    0    0  0.00000000000E+00  0.00000000000E+00  0.45593999997E+02  0.45594000000E+02  0.51100000000E-03 0. -1.
         11   -1    0    0    0    0 -0.00000000000E+00 -0.00000000000E+00 -0.45593999997E+02  0.45594000000E+02  0.51100000000E-03 0.  1.
    9900012    2    1    2    0    0  0.13110254846E+01 -0.15005352428E+02  0.11126548747E+02  0.72461562102E+02  0.69999989328E+02 0.  0.
        -12    1    1    2    0    0 -0.13110254846E+01  0.15005352428E+02 -0.11126548747E+02  0.18726437898E+02  0.00000000000E+00 0.  1.
         11    1    3    3    0    0 -0.31129909169E+01  0.13721491036E+02  0.13311131577E+02  0.19368950741E+02  0.51100000000E-03 0. -1.
        -11    1    3    3    0    0 -0.74771002794E+01  0.10016741889E+02  0.66880954452E-01  0.12499864799E+02  0.51100000000E-03 0.  1.
         12    1    3    3    0    0  0.11901116681E+02 -0.38743585353E+02 -0.22514637843E+01  0.40592746562E+02  0.00000000000E+00 0. -1.
</event>
<event>
 7    1  0.2641045E-013  0.7246161E+02  0.7816164E-02  0.1226708E+00
        -11   -1    0    0    0    0  0.00000000000E+00  0.00000000000E+00  0.45593999997E+02  0.45594000000E+02  0.51100000000E-03 0.  1.
         11   -1    0    0    0    0 -0.00000000000E+00 -0.00000000000E+00 -0.45593999997E+02  0.45594000000E+02  0.51100000000E-03 0. -1.
    9900012    2    1    2    0    0 -0.11669877874E+01  0.10693588367E+02 -0.15328500853E+02  0.72461611372E+02  0.70000053511E+02 0.  0.
        -12    1    1    2    0    0  0.11669877874E+01 -0.10693588367E+02  0.15328500853E+02  0.18726388628E+02  0.00000000000E+00 0.  1.
         11    1    3    3    0    0  0.25657504347E+02 -0.12943785793E+02 -0.11540306033E+01  0.28760752891E+02  0.51100000000E-03 0. -1.
        -11    1    3    3    0    0 -0.49477718717E+01  0.65138351491E+01 -0.13651438610E+02  0.15914530192E+02  0.51100000000E-03 0.  1.
        -12    1    3    3    0    0 -0.21876720263E+02  0.17123539010E+02 -0.52303163954E+00  0.27786328289E+02  0.00000000000E+00 0.  1.
</event>
<event>
 7    1  0.2641045E-013  0.7246162E+02  0.7816164E-02  0.1226708E+00
        -11   -1    0    0    0    0  0.00000000000E+00  0.00000000000E+00  0.45593999997E+02  0.45594000000E+02  0.51100000000E-03 0.  1.
         11   -1    0    0    0    0 -0.00000000000E+00 -0.00000000000E+00 -0.45593999997E+02  0.45594000000E+02  0.51100000000E-03 0. -1.
    9900012    2    1    2    0    0  0.93168191370E+01 -0.94639311260E+01 -0.13202577657E+02  0.72461623736E+02  0.70000069618E+02 0.  0.
        -12    1    1    2    0    0 -0.93168191370E+01  0.94639311260E+01  0.13202577657E+02  0.18726376264E+02  0.00000000000E+00 0.  1.
         11    1    3    3    0    0 -0.21141607507E+02 -0.10902964856E+02 -0.10913664969E+02  0.26171555054E+02  0.51100000000E-03 0. -1.
        -11    1    3    3    0    0  0.12360397053E+02  0.11567060305E+02 -0.14442356084E+02  0.22252144816E+02  0.51100000000E-03 0.  1.
        -12    1    3    3    0    0  0.18098029591E+02 -0.10128026575E+02  0.12153443397E+02  0.24037923866E+02  0.00000000000E+00 0.  1.
</event>
<event>
 7    1  0.2641045E-013  0.7246156E+02  0.7816164E-02  0.1226708E+00
        -11   -1    0    0    0    0  0.00000000000E+00  0.00000000000E+00  0.45593999997E+02  0.45594000000E+02  0.51100000000E-03 0.  1.
         11   -1    0    0    0    0 -0.00000000000E+00 -0.00000000000E+00 -0.45593999997E+02  0.45594000000E+02  0.51100000000E-03 0. -1.
    9900012    2    1    2    0    0 -0.89270676036E+01 -0.15905514443E+02 -0.42428536199E+01  0.72461555262E+02  0.69999980417E+02 0.  0.
        -12    1    1    2    0    0  0.89270676036E+01  0.15905514443E+02  0.42428536199E+01  0.18726444738E+02  0.00000000000E+00 0.  1.
         11    1    3    3    0    0 -0.91314957270E+00  0.37780987875E+01  0.34067397266E+01  0.51685344553E+01  0.51100000000E-03 0. -1.
        -11    1    3    3    0    0 -0.17924148565E+02 -0.39497678470E+02 -0.11342876855E+02  0.44833052115E+02  0.51100000000E-03 0.  1.
         12    1    3    3    0    0  0.99102305338E+01  0.19814065240E+02  0.36932835084E+01  0.22459968692E+02  0.00000000000E+00 0. -1.
</event>
<event>
 7    1  0.2641045E-013  0.7246158E+02  0.7816164E-02  0.1226708E+00
        -11   -1    0    0    0    0  0.00000000000E+00  0.00000000000E+00  0.45593999997E+02  0.45594000000E+02  0.51100000000E-03 0.  1.
         11   -1    0    0    0    0 -0.00000000000E+00 -0.00000000000E+00 -0.45593999997E+02  0.45594000000E+02  0.51100000000E-03 0. -1.
    9900012    2    1    2    0    0 -0.27659059814E+00  0.11988639173E+02 -0.14383147608E+02  0.72461577312E+02  0.70000009142E+02 0.  0.
        -12    1    1    2    0    0  0.27659059814E+00 -0.11988639173E+02  0.14383147608E+02  0.18726422688E+02  0.00000000000E+00 0.  1.
         11    1    3    3    0    0  0.79784115756E+01  0.22056110410E+02 -0.23970384461E+02  0.33536642485E+02  0.51100000000E-03 0. -1.
        -11    1    3    3    0    0 -0.13893889807E+02  0.92681014839E+01  0.19730666932E+00  0.16702598878E+02  0.51100000000E-03 0.  1.
         12    1    3    3    0    0  0.56388876337E+01 -0.19335572721E+02  0.93899301841E+01  0.22222335949E+02  0.00000000000E+00 0. -1.
</event>
<event>
 7    1  0.2641045E-013  0.7246157E+02  0.7816164E-02  0.1226708E+00
        -11   -1    0    0    0    0  0.00000000000E+00  0.00000000000E+00  0.45593999997E+02  0.45594000000E+02  0.51100000000E-03 0.  1.
         11   -1    0    0    0    0 -0.00000000000E+00 -0.00000000000E+00 -0.45593999997E+02  0.45594000000E+02  0.51100000000E-03 0. -1.
    9900012    2    1    2    0    0 -0.88585063862E+01 -0.15507700469E+02 -0.56317937858E+01  0.72461574540E+02  0.70000005531E+02 0.  0.
        -12    1    1    2    0    0  0.88585063862E+01  0.15507700469E+02  0.56317937858E+01  0.18726425460E+02  0.00000000000E+00 0.  1.
         11    1    3    3    0    0  0.16697325213E+02 -0.69925823174E+01  0.89579564247E+01  0.20197570654E+02  0.51100000000E-03 0. -1.
        -11    1    3    3    0    0  0.38400389376E+01 -0.16092827103E+02  0.35210600578E+01  0.16915166195E+02  0.51100000000E-03 0.  1.
         12    1    3    3    0    0 -0.29395870537E+02  0.75777089510E+01 -0.18110810268E+02  0.35348837692E+02  0.00000000000E+00 0. -1.
</event>
<event>
 7    1  0.2641045E-013  0.7246156E+02  0.7816164E-02  0.1226708E+00
        -11   -1    0    0    0    0  0.00000000000E+00  0.00000000000E+00  0.45593999997E+02  0.45594000000E+02  0.51100000000E-03 0. -1.
         11   -1    0    0    0    0 -0.00000000000E+00 -0.00000000000E+00 -0.45593999997E+02  0.45594000000E+02  0.51100000000E-03 0.  1.
    9900012    2    1    2    0    0  0.16860140255E+02 -0.79723720402E+01  0.16901247543E+01  0.72461559680E+02  0.69999986173E+02 0.  0.
        -12    1    1    2    0    0 -0.16860140255E+02  0.79723720402E+01 -0.16901247543E+01  0.18726440320E+02  0.00000000000E+00 0.  1.
         11    1    3    3    0    0 -0.51727419312E+01 -0.11063313444E+02 -0.22518683698E+02  0.25617284775E+02  0.51100000000E-03 0. -1.
        -11    1    3    3    0    0 -0.64378222097E+01  0.75836558050E+01  0.11880793172E+02  0.15495503762E+02  0.51100000000E-03 0.  1.
         12    1    3    3    0    0  0.28470704396E+02 -0.44927144010E+01  0.12328015280E+02  0.31348771144E+02  0.00000000000E+00 0. -1.
</event>
<event>
 7    1  0.2641045E-013  0.7246159E+02  0.7816164E-02  0.1226708E+00
        -11   -1    0    0    0    0  0.00000000000E+00  0.00000000000E+00  0.45593999997E+02  0.45594000000E+02  0.51100000000E-03 0.  1.
         11   -1    0    0    0    0 -0.00000000000E+00 -0.00000000000E+00 -0.45593999997E+02  0.45594000000E+02  0.51100000000E-03 0. -1.
    9900012    2    1    2    0    0  0.44624422453E+01  0.10961625944E+02 -0.14512336369E+02  0.72461587075E+02  0.70000021860E+02 0.  0.
        -12    1    1    2    0    0 -0.44624422453E+01 -0.10961625944E+02  0.14512336369E+02  0.18726412925E+02  0.00000000000E+00 0.  1.
         11    1    3    3    0    0 -0.12043946854E+02  0.18889694825E+01  0.14021795222E+02  0.18580516759E+02  0.51100000000E-03 0. -1.
        -11    1    3    3    0    0  0.11139267853E+02 -0.74655229330E+01  0.64004255485E+01  0.14858760663E+02  0.51100000000E-03 0.  1.
        -12    1    3    3    0    0  0.53671212469E+01  0.16538179395E+02 -0.34934557139E+02  0.39022309654E+02  0.00000000000E+00 0.  1.
</event>
<event>
 7    1  0.2641045E-013  0.7246162E+02  0.7816164E-02  0.1226708E+00
        -11   -1    0    0    0    0  0.00000000000E+00  0.00000000000E+00  0.45593999997E+02  0.45594000000E+02  0.51100000000E-03 0.  1.
         11   -1    0    0    0    0 -0.00000000000E+00 -0.00000000000E+00 -0.45593999997E+02  0.45594000000E+02  0.51100000000E-03 0. -1.
    9900012    2    1    2    0    0 -0.77607824351E+01 -0.16418825449E+02 -0.45683461618E+01  0.72461618615E+02  0.70000062947E+02 0.  0.
        -12    1    1    2    0    0  0.77607824351E+01  0.16418825449E+02  0.45683461618E+01  0.18726381385E+02  0.00000000000E+00 0.  1.
         11    1    3    3    0    0  0.91721135755E+01 -0.24498811204E+02 -0.13451379892E+02  0.29415285807E+02  0.51100000000E-03 0. -1.
        -11    1    3    3    0    0 -0.93161088725E+00 -0.13438584587E+02 -0.28614226620E+01  0.13771390433E+02  0.51100000000E-03 0.  1.
        -12    1    3    3    0    0 -0.16001285123E+02  0.21518570342E+02  0.11744456392E+02  0.29274942376E+02  0.00000000000E+00 0.  1.
</event>
<event>
 7    1  0.2641045E-013  0.7246166E+02  0.7816164E-02  0.1226708E+00
        -11   -1    0    0    0    0  0.00000000000E+00  0.00000000000E+00  0.45593999997E+02  0.45594000000E+02  0.51100000000E-03 0. -1.
         11   -1    0    0    0    0 -0.00000000000E+00 -0.00000000000E+00 -0.45593999997E+02  0.45594000000E+02  0.51100000000E-03 0.  1.
    9900012    2    1    2    0    0  0.70232270689E+01  0.13335205853E+02  0.11114057178E+02  0.72461662916E+02  0.70000120657E+02 0.  0.
        -12    1    1    2    0    0 -0.70232270689E+01 -0.13335205853E+02 -0.11114057178E+02  0.18726337084E+02  0.00000000000E+00 0.  1.
         11    1    3    3    0    0  0.12605717838E+02  0.48585582226E+01  0.22970117942E+02  0.26648377601E+02  0.51100000000E-03 0. -1.
        -11    1    3    3    0    0  0.40714969427E+01 -0.15410174941E+02  0.27841080774E+01  0.16180291626E+02  0.51100000000E-03 0.  1.
        -12    1    3    3    0    0 -0.96539877122E+01  0.23886822571E+02 -0.14640168841E+02  0.29632993689E+02  0.00000000000E+00 0.  1.
</event>
<event>
 7    1  0.2641045E-013  0.7246159E+02  0.7816164E-02  0.1226708E+00
        -11   -1    0    0    0    0  0.00000000000E+00  0.00000000000E+00  0.45593999997E+02  0.45594000000E+02  0.51100000000E-03 0. -1.
         11   -1    0    0    0    0 -0.00000000000E+00 -0.00000000000E+00 -0.45593999997E+02  0.45594000000E+02  0.51100000000E-03 0.  1.
    9900012    2    1    2    0    0 -0.58088928782E+01 -0.12685182767E+02  0.12490845993E+02  0.72461592659E+02  0.70000029134E+02 0.  0.
        -12    1    1    2    0    0  0.58088928782E+01  0.12685182767E+02 -0.12490845993E+02  0.18726407341E+02  0.00000000000E+00 0.  1.
         11    1    3    3    0    0  0.29966325058E+02 -0.86450193305E+01  0.33532401621E+01  0.31368156091E+02  0.51100000000E-03 0. -1.
        -11    1    3    3    0    0  0.10910077196E+01 -0.21520863763E+01 -0.12877552877E+01  0.27349748732E+01  0.51100000000E-03 0.  1.
        -12    1    3    3    0    0 -0.36866225656E+02 -0.18880770601E+01  0.10425361118E+02  0.38358461694E+02  0.00000000000E+00 0.  1.
</event>
<event>
 7    1  0.2641045E-013  0.7246157E+02  0.7816164E-02  0.1226708E+00
        -11   -1    0    0    0    0  0.00000000000E+00  0.00000000000E+00  0.45593999997E+02  0.45594000000E+02  0.51100000000E-03 0.  1.
         11   -1    0    0    0    0 -0.00000000000E+00 -0.00000000000E+00 -0.45593999997E+02  0.45594000000E+02  0.51100000000E-03 0. -1.
    9900012    2    1    2    0    0 -0.96054130040E+01 -0.38423018736E+01 -0.15609355554E+02  0.72461568853E+02  0.69999998123E+02 0.  0.
        -12    1    1    2    0    0  0.96054130040E+01  0.38423018736E+01  0.15609355554E+02  0.18726431147E+02  0.00000000000E+00 0.  1.
         11    1    3    3    0    0 -0.37048338694E+01  0.38779767634E+01  0.40076276342E+01  0.66951906092E+01  0.51100000000E-03 0. -1.
        -11    1    3    3    0    0  0.15275312900E+02  0.13577981108E+02  0.10718921949E+02  0.23077955784E+02  0.51100000000E-03 0.  1.
         12    1    3    3    0    0 -0.21175892034E+02 -0.21298259745E+02 -0.30335905138E+02  0.42688422460E+02  0.00000000000E+00 0. -1.
</event>
<event>
 7    1  0.2641045E-013  0.7246161E+02  0.7816164E-02  0.1226708E+00
        -11   -1    0    0    0    0  0.00000000000E+00  0.00000000000E+00  0.45593999997E+02  0.45594000000E+02  0.51100000000E-03 0. -1.
         11   -1    0    0    0    0 -0.00000000000E+00 -0.00000000000E+00 -0.45593999997E+02  0.45594000000E+02  0.51100000000E-03 0.  1.
    9900012    2    1    2    0    0 -0.47918655997E+01 -0.14584436010E+02  0.10724273328E+02  0.72461607179E+02  0.70000048050E+02 0.  0.
        -12    1    1    2    0    0  0.47918655997E+01  0.14584436010E+02 -0.10724273328E+02  0.18726392821E+02  0.00000000000E+00 0.  1.
         11    1    3    3    0    0 -0.14522891202E+02 -0.19312605353E+02  0.17115123242E+01  0.24224375515E+02  0.51100000000E-03 0. -1.
        -11    1    3    3    0    0  0.10429808588E+02 -0.17728345938E+02 -0.57455436514E+01  0.21356180113E+02  0.51100000000E-03 0.  1.
        -12    1    3    3    0    0 -0.69878298588E+00  0.22456515281E+02  0.14758304656E+02  0.26881051552E+02  0.00000000000E+00 0.  1.
</event>
<event>
 7    1  0.2641045E-013  0.7246165E+02  0.7816164E-02  0.1226708E+00
        -11   -1    0    0    0    0  0.00000000000E+00  0.00000000000E+00  0.45593999997E+02  0.45594000000E+02  0.51100000000E-03 0. -1.
         11   -1    0    0    0    0 -0.00000000000E+00 -0.00000000000E+00 -0.45593999997E+02  0.45594000000E+02  0.51100000000E-03 0.  1.
    9900012    2    1    2    0    0 -0.13708627408E+02 -0.12505266089E+02  0.25234879437E+01  0.72461651269E+02  0.70000105485E+02 0.  0.
        -12    1    1    2    0    0  0.13708627408E+02  0.12505266089E+02 -0.25234879437E+01  0.18726348731E+02  0.00000000000E+00 0.  1.
         11    1    3    3    0    0  0.84165798222E+01  0.14275173991E+02  0.15125764259E+02  0.22436758969E+02  0.51100000000E-03 0. -1.
        -11    1    3    3    0    0  0.54837954432E+01 -0.18189109884E+02 -0.15180793158E+01  0.19058339274E+02  0.51100000000E-03 0.  1.
        -12    1    3    3    0    0 -0.27609002673E+02 -0.85913301965E+01 -0.11084196999E+02  0.30966553026E+02  0.00000000000E+00 0.  1.
</event>
<event>
 7    1  0.2641045E-013  0.7246159E+02  0.7816164E-02  0.1226708E+00
        -11   -1    0    0    0    0  0.00000000000E+00  0.00000000000E+00  0.45593999997E+02  0.45594000000E+02  0.51100000000E-03 0.  1.
         11   -1    0    0    0    0 -0.00000000000E+00 -0.00000000000E+00 -0.45593999997E+02  0.45594000000E+02  0.51100000000E-03 0. -1.
    9900012    2    1    2    0    0  0.10826181524E+02 -0.11841545331E+02 -0.96566108178E+01  0.72461587244E+02  0.70000022081E+02 0.  0.
        -12    1    1    2    0    0 -0.10826181524E+02  0.11841545331E+02  0.96566108178E+01  0.18726412756E+02  0.00000000000E+00 0.  1.
         11    1    3    3    0    0 -0.26443961291E+01 -0.49556571103E+01 -0.13276624980E+02  0.14415968209E+02  0.51100000000E-03 0. -1.
        -11    1    3    3    0    0 -0.12873795343E+02  0.67030133983E+01  0.19585141277E+02  0.24377094869E+02  0.51100000000E-03 0.  1.
         12    1    3    3    0    0  0.26344372996E+02 -0.13588901619E+02 -0.15965127116E+02  0.33668524167E+02  0.00000000000E+00 0. -1.
</event>
<event>
 7    1  0.2641045E-013  0.7246155E+02  0.7816164E-02  0.1226708E+00
        -11   -1    0    0    0    0  0.00000000000E+00  0.00000000000E+00  0.45593999997E+02  0.45594000000E+02  0.51100000000E-03 0. -1.
         11   -1    0    0    0    0 -0.00000000000E+00 -0.00000000000E+00 -0.45593999997E+02  0.45594000000E+02  0.51100000000E-03 0.  1.
    9900012    2    1    2    0    0 -0.15207628243E+02  0.10743624008E+02  0.19956392468E+01  0.72461548397E+02  0.69999971475E+02 0.  0.
        -12    1    1    2    0    0  0.15207628243E+02 -0.10743624008E+02 -0.19956392468E+01  0.18726451603E+02  0.00000000000E+00 0.  1.
         11    1    3    3    0    0 -0.36154045380E+01 -0.65736385370E+01  0.47643084357E+01  0.88872104015E+01  0.51100000000E-03 0. -1.
        -11    1    3    3    0    0 -0.35738527054E+02  0.16458253428E+02 -0.21511049110E+01  0.39404868665E+02  0.51100000000E-03 0.  1.
        -12    1    3    3    0    0  0.24146303349E+02  0.85900911742E+00 -0.61756427786E+00  0.24169469331E+02  0.00000000000E+00 0.  1.
</event>
<event>
 7    1  0.2641045E-013  0.7246159E+02  0.7816164E-02  0.1226708E+00
        -11   -1    0    0    0    0  0.00000000000E+00  0.00000000000E+00  0.45593999997E+02  0.45594000000E+02  0.51100000000E-03 0.  1.
         11   -1    0    0    0    0 -0.00000000000E+00 -0.00000000000E+00 -0.45593999997E+02  0.45594000000E+02  0.51100000000E-03 0. -1.
    9900012    2    1    2    0    0  0.51871366073E+01 -0.80362600216E+01 -0.16099392121E+02  0.72461593831E+02  0.70000030661E+02 0.  0.
        -12    1    1    2    0    0 -0.51871366073E+01  0.80362600216E+01  0.16099392121E+02  0.18726406169E+02  0.00000000000E+00 0.  1.
         11    1    3    3    0    0  0.95829323463E+01  0.32889280539E+01  0.47359409562E+01  0.11183862352E+02  0.51100000000E-03 0. -1.
        -11    1    3    3    0    0  0.21571136210E+01 -0.30259169692E+01  0.19360670852E+02  0.19714078441E+02  0.51100000000E-03 0.  1.
         12    1    3    3    0    0 -0.65529093600E+01 -0.82992711063E+01 -0.40196003930E+02  0.41563653038E+02  0.00000000000E+00 0. -1.
</event>
<event>
 7    1  0.2641045E-013  0.7246157E+02  0.7816164E-02  0.1226708E+00
        -11   -1    0    0    0    0  0.00000000000E+00  0.00000000000E+00  0.45593999997E+02  0.45594000000E+02  0.51100000000E-03 0.  1.
         11   -1    0    0    0    0 -0.00000000000E+00 -0.00000000000E+00 -0.45593999997E+02  0.45594000000E+02  0.51100000000E-03 0. -1.
    9900012    2    1    2    0    0  0.18137411556E+02 -0.46520059610E+01 -0.26882687119E+00  0.72461571475E+02  0.70000001539E+02 0.  0.
        -12    1    1    2    0    0 -0.18137411556E+02  0.46520059610E+01  0.26882687119E+00  0.18726428525E+02  0.00000000000E+00 0.  1.
         11    1    3    3    0    0  0.34093391534E+02  0.45092749096E+00 -0.24272138413E+02  0.41853307937E+02  0.51100000000E-03 0. -1.
        -11    1    3    3    0    0  0.87593588400E-01  0.59892336501E+00 -0.48964138338E+00  0.77854401245E+00  0.51100000000E-03 0.  1.
        -12    1    3    3    0    0 -0.16043573567E+02 -0.57018568170E+01  0.24492952926E+02  0.29829719525E+02  0.00000000000E+00 0.  1.
</event>
<event>
 7    1  0.2641045E-013  0.7246158E+02  0.7816164E-02  0.1226708E+00
        -11   -1    0    0    0    0  0.00000000000E+00  0.00000000000E+00  0.45593999997E+02  0.45594000000E+02  0.51100000000E-03 0.  1.
         11   -1    0    0    0    0 -0.00000000000E+00 -0.00000000000E+00 -0.45593999997E+02  0.45594000000E+02  0.51100000000E-03 0. -1.
    9900012    2    1    2    0    0 -0.42874495559E+01  0.18211128290E+02 -0.80717530181E+00  0.72461576175E+02  0.70000007661E+02 0.  0.
        -12    1    1    2    0    0  0.42874495559E+01 -0.18211128290E+02  0.80717530181E+00  0.18726423825E+02  0.00000000000E+00 0.  1.
         11    1    3    3    0    0  0.63205127423E+01  0.77353556131E+01 -0.15128928358E+02  0.18129232783E+02  0.51100000000E-03 0. -1.
        -11    1    3    3    0    0  0.10799690375E+02  0.22056147888E+02 -0.25901397786E+01  0.24694448692E+02  0.51100000000E-03 0.  1.
        -12    1    3    3    0    0 -0.21407652673E+02 -0.11580375211E+02  0.16911892835E+02  0.29637894700E+02  0.00000000000E+00 0.  1.
</event>
<event>
 7    1  0.2641045E-013  0.7246147E+02  0.7816164E-02  0.1226708E+00
        -11   -1    0    0    0    0  0.00000000000E+00  0.00000000000E+00  0.45593999997E+02  0.45594000000E+02  0.51100000000E-03 0. -1.
         11   -1    0    0    0    0 -0.00000000000E+00 -0.00000000000E+00 -0.45593999997E+02  0.45594000000E+02  0.51100000000E-03 0.  1.
    9900012    2    1    2    0    0  0.48265122049E+01  0.16002655811E+02  0.84440966359E+01  0.72461468526E+02  0.69999867428E+02 0.  0.
        -12    1    1    2    0    0 -0.48265122049E+01 -0.16002655811E+02 -0.84440966359E+01  0.18726531474E+02  0.00000000000E+00 0.  1.
         11    1    3    3    0    0  0.30941703990E+01  0.57731935475E+01 -0.35601498447E+01  0.74550869461E+01  0.51100000000E-03 0. -1.
        -11    1    3    3    0    0 -0.12616955863E+02  0.18006043441E+02 -0.19588536893E+02  0.29446832656E+02  0.51100000000E-03 0.  1.
         12    1    3    3    0    0  0.14349297669E+02 -0.77765811776E+01  0.31592783373E+02  0.35559548924E+02  0.00000000000E+00 0. -1.
</event>
<event>
 7    1  0.2641045E-013  0.7246158E+02  0.7816164E-02  0.1226708E+00
        -11   -1    0    0    0    0  0.00000000000E+00  0.00000000000E+00  0.45593999997E+02  0.45594000000E+02  0.51100000000E-03 0. -1.
         11   -1    0    0    0    0 -0.00000000000E+00 -0.00000000000E+00 -0.45593999997E+02  0.45594000000E+02  0.51100000000E-03 0.  1.
    9900012    2    1    2    0    0 -0.14344909884E+01 -0.40158127059E+01  0.18234421664E+02  0.72461584179E+02  0.70000018087E+02 0.  0.
        -12    1    1    2    0    0  0.14344909884E+01  0.40158127059E+01 -0.18234421664E+02  0.18726415821E+02  0.00000000000E+00 0.  1.
         11    1    3    3    0    0  0.15567045345E+01 -0.43233873982E+01 -0.32518245239E+01  0.56293312745E+01  0.51100000000E-03 0. -1.
        -11    1    3    3    0    0  0.23556614832E+02 -0.14111618788E+02  0.24063379863E+02  0.36511616479E+02  0.51100000000E-03 0.  1.
         12    1    3    3    0    0 -0.26547810355E+02  0.14419193480E+02 -0.25771336755E+01  0.30320636426E+02  0.00000000000E+00 0. -1.
</event>
<event>
 7    1  0.2641045E-013  0.7246156E+02  0.7816164E-02  0.1226708E+00
        -11   -1    0    0    0    0  0.00000000000E+00  0.00000000000E+00  0.45593999997E+02  0.45594000000E+02  0.51100000000E-03 0.  1.
         11   -1    0    0    0    0 -0.00000000000E+00 -0.00000000000E+00 -0.45593999997E+02  0.45594000000E+02  0.51100000000E-03 0. -1.
    9900012    2    1    2    0    0 -0.89098904788E+01 -0.16210886199E+02  0.29155776962E+01  0.72461559521E+02  0.69999985966E+02 0.  0.
        -12    1    1    2    0    0  0.89098904788E+01  0.16210886199E+02 -0.29155776962E+01  0.18726440479E+02  0.00000000000E+00 0.  1.
         11    1    3    3    0    0  0.53224115318E+01 -0.25093147108E+02  0.19207631956E+02  0.32045705203E+02  0.51100000000E-03 0. -1.
        -11    1    3    3    0    0  0.70727657010E+01 -0.67638825024E+01 -0.89957173583E+00  0.98276828773E+01  0.51100000000E-03 0.  1.
         12    1    3    3    0    0 -0.21305067712E+02  0.15646143411E+02 -0.15392482524E+02  0.30588171441E+02  0.00000000000E+00 0. -1.
</event>
<event>
 7    1  0.2641045E-013  0.7246162E+02  0.7816164E-02  0.1226708E+00
        -11   -1    0    0    0    0  0.00000000000E+00  0.00000000000E+00  0.45593999997E+02  0.45594000000E+02  0.51100000000E-03 0.  1.
         11   -1    0    0    0    0 -0.00000000000E+00 -0.00000000000E+00 -0.45593999997E+02  0.45594000000E+02  0.51100000000E-03 0. -1.
    9900012    2    1    2    0    0 -0.10684762555E+02  0.14111315752E+02 -0.61142468954E+01  0.72461617589E+02  0.70000061610E+02 0.  0.
        -12    1    1    2    0    0  0.10684762555E+02 -0.14111315752E+02  0.61142468954E+01  0.18726382411E+02  0.00000000000E+00 0.  1.
         11    1    3    3    0    0 -0.17356345362E+02 -0.16624112612E+02  0.50363994681E+01  0.24555430445E+02  0.51100000000E-03 0. -1.
        -11    1    3    3    0    0  0.57404439637E+01 -0.68249786609E+01 -0.33926437227E+01  0.95416488256E+01  0.51100000000E-03 0.  1.
        -12    1    3    3    0    0  0.93113884343E+00  0.37560407025E+02 -0.77580026408E+01  0.38364538319E+02  0.00000000000E+00 0.  1.
</event>
<event>
 7    1  0.2641045E-013  0.7246157E+02  0.7816164E-02  0.1226708E+00
        -11   -1    0    0    0    0  0.00000000000E+00  0.00000000000E+00  0.45593999997E+02  0.45594000000E+02  0.51100000000E-03 0. -1.
         11   -1    0    0    0    0 -0.00000000000E+00 -0.00000000000E+00 -0.45593999997E+02  0.45594000000E+02  0.51100000000E-03 0.  1.
    9900012    2    1    2    0    0 -0.13354763615E+02 -0.75513727031E+01  0.10738070834E+02  0.72461571987E+02  0.70000002205E+02 0.  0.
        -12    1    1    2    0    0  0.13354763615E+02  0.75513727031E+01 -0.10738070834E+02  0.18726428013E+02  0.00000000000E+00 0.  1.
         11    1    3    3    0    0 -0.67015341860E+01  0.16090103362E+02  0.21684185503E+02  0.27820961303E+02  0.51100000000E-03 0. -1.
        -11    1    3    3    0    0 -0.14469512702E+01  0.87759431344E+01 -0.74869598340E+01  0.11626066132E+02  0.51100000000E-03 0.  1.
        -12    1    3    3    0    0 -0.52062781584E+01 -0.32417419199E+02 -0.34591548355E+01  0.33014544552E+02  0.00000000000E+00 0.  1.
</event>
<event>
 7    1  0.2641045E-013  0.7246153E+02  0.7816164E-02  0.1226708E+00
        -11   -1    0    0    0    0  0.00000000000E+00  0.00000000000E+00  0.45593999997E+02  0.45594000000E+02  0.51100000000E-03 0. -1.
         11   -1    0    0    0    0 -0.00000000000E+00 -0.00000000000E+00 -0.45593999997E+02  0.45594000000E+02  0.51100000000E-03 0.  1.
    9900012    2    1    2    0    0  0.17518074562E+02  0.62496064144E+01 -0.21771729084E+01  0.72461532139E+02  0.69999950295E+02 0.  0.
        -12    1    1    2    0    0 -0.17518074562E+02 -0.62496064144E+01  0.21771729084E+01  0.18726467861E+02  0.00000000000E+00 0.  1.
         11    1    3    3    0    0 -0.26292118009E+01  0.98421229567E+00  0.39897912922E+00  0.28355974932E+01  0.51100000000E-03 0. -1.
        -11    1    3    3    0    0  0.10775420620E+02  0.29733109002E+02  0.17929765552E+02  0.36354421375E+02  0.51100000000E-03 0.  1.
         12    1    3    3    0    0  0.93718657432E+01 -0.24467714883E+02 -0.20505917590E+02  0.33271513271E+02  0.00000000000E+00 0. -1.
</event>
<event>
 7    1  0.2641045E-013  0.7246158E+02  0.7816164E-02  0.1226708E+00
        -11   -1    0    0    0    0  0.00000000000E+00  0.00000000000E+00  0.45593999997E+02  0.45594000000E+02  0.51100000000E-03 0.  1.
         11   -1    0    0    0    0 -0.00000000000E+00 -0.00000000000E+00 -0.45593999997E+02  0.45594000000E+02  0.51100000000E-03 0. -1.
    9900012    2    1    2    0    0  0.15006551132E+02  0.11146115430E+02  0.11163469892E+01  0.72461582920E+02  0.70000016447E+02 0.  0.
        -12    1    1    2    0    0 -0.15006551132E+02 -0.11146115430E+02 -0.11163469892E+01  0.18726417080E+02  0.00000000000E+00 0.  1.
         11    1    3    3    0    0  0.28678816765E+01  0.17477480019E+01  0.69959693528E+01  0.77603450848E+01  0.51100000000E-03 0. -1.
        -11    1    3    3    0    0 -0.56062009814E+01  0.29258916879E+02  0.12536077637E+02  0.32321307974E+02  0.51100000000E-03 0.  1.
         12    1    3    3    0    0  0.17744870437E+02 -0.19860549450E+02 -0.18415700001E+02  0.32379929861E+02  0.00000000000E+00 0. -1.
</event>
<event>
 7    1  0.2641045E-013  0.7246152E+02  0.7816164E-02  0.1226708E+00
        -11   -1    0    0    0    0  0.00000000000E+00  0.00000000000E+00  0.45593999997E+02  0.45594000000E+02  0.51100000000E-03 0. -1.
         11   -1    0    0    0    0 -0.00000000000E+00 -0.00000000000E+00 -0.45593999997E+02  0.45594000000E+02  0.51100000000E-03 0.  1.
    9900012    2    1    2    0    0  0.10222819644E+01  0.82979986965E+01  0.16756472235E+02  0.72461515959E+02  0.69999929218E+02 0.  0.
        -12    1    1    2    0    0 -0.10222819644E+01 -0.82979986965E+01 -0.16756472235E+02  0.18726484041E+02  0.00000000000E+00 0.  1.
         11    1    3    3    0    0 -0.16453249818E+01  0.15968092598E+02  0.79211753483E+01  0.17900617159E+02  0.51100000000E-03 0. -1.
        -11    1    3    3    0    0 -0.15011795344E+02  0.14699198326E+02 -0.67492292328E+01  0.22067454008E+02  0.51100000000E-03 0.  1.
         12    1    3    3    0    0  0.17679402291E+02 -0.22369292227E+02  0.15584526119E+02  0.32493444792E+02  0.00000000000E+00 0. -1.
</event>
<event>
 7    1  0.2641045E-013  0.7246156E+02  0.7816164E-02  0.1226708E+00
        -11   -1    0    0    0    0  0.00000000000E+00  0.00000000000E+00  0.45593999997E+02  0.45594000000E+02  0.51100000000E-03 0.  1.
         11   -1    0    0    0    0 -0.00000000000E+00 -0.00000000000E+00 -0.45593999997E+02  0.45594000000E+02  0.51100000000E-03 0. -1.
    9900012    2    1    2    0    0  0.75945588741E+00 -0.38283336562E+01 -0.18315201981E+02  0.72461560525E+02  0.69999987273E+02 0.  0.
        -12    1    1    2    0    0 -0.75945588741E+00  0.38283336562E+01  0.18315201981E+02  0.18726439475E+02  0.00000000000E+00 0.  1.
         11    1    3    3    0    0  0.21740414399E+01 -0.12753317905E+02  0.27634484486E+01  0.13229142881E+02  0.51100000000E-03 0. -1.
        -11    1    3    3    0    0  0.13022694882E+02  0.11679812042E+02  0.13213840160E+02  0.21922914117E+02  0.51100000000E-03 0.  1.
         12    1    3    3    0    0 -0.14437280435E+02 -0.27548277931E+01 -0.34292490590E+02  0.37309503526E+02  0.00000000000E+00 0. -1.
</event>
<event>
 7    1  0.2641045E-013  0.7246156E+02  0.7816164E-02  0.1226708E+00
        -11   -1    0    0    0    0  0.00000000000E+00  0.00000000000E+00  0.45593999997E+02  0.45594000000E+02  0.51100000000E-03 0. -1.
         11   -1    0    0    0    0 -0.00000000000E+00 -0.00000000000E+00 -0.45593999997E+02  0.45594000000E+02  0.51100000000E-03 0.  1.
    9900012    2    1    2    0    0 -0.17166519660E+02 -0.60798348860E+01  0.43618647140E+01  0.72461557378E+02  0.69999983174E+02 0.  0.
        -12    1    1    2    0    0  0.17166519660E+02  0.60798348860E+01 -0.43618647140E+01  0.18726442622E+02  0.00000000000E+00 0.  1.
         11    1    3    3    0    0 -0.10048728130E+02  0.79351724004E+01  0.13908194223E+02  0.18904543498E+02  0.51100000000E-03 0. -1.
        -11    1    3    3    0    0 -0.61649864885E+01 -0.85205824749E+01  0.20477171706E+02  0.23020033567E+02  0.51100000000E-03 0.  1.
        -12    1    3    3    0    0 -0.95280504181E+00 -0.54944248116E+01 -0.30023501215E+02  0.30536980313E+02  0.00000000000E+00 0.  1.
</event>
<event>
 7    1  0.2641045E-013  0.7246158E+02  0.7816164E-02  0.1226708E+00
        -11   -1    0    0    0    0  0.00000000000E+00  0.00000000000E+00  0.45593999997E+02  0.45594000000E+02  0.51100000000E-03 0.  1.
         11   -1    0    0    0    0 -0.00000000000E+00 -0.00000000000E+00 -0.45593999997E+02  0.45594000000E+02  0.51100000000E-03 0. -1.
    9900012    2    1    2    0    0 -0.37548448104E+01  0.22305974061E+01 -0.18210011540E+02  0.72461576299E+02  0.70000007822E+02 0.  0.
        -12    1    1    2    0    0  0.37548448104E+01 -0.22305974061E+01  0.18210011540E+02  0.18726423701E+02  0.00000000000E+00 0.  1.
         11    1    3    3    0    0 -0.11979619814E+02 -0.17111801414E+02 -0.57697905173E+01  0.21670614237E+02  0.51100000000E-03 0. -1.
        -11    1    3    3    0    0 -0.15589932816E+02  0.24342582218E+01 -0.14609781584E+02  0.21503891194E+02  0.51100000000E-03 0.  1.
        -12    1    3    3    0    0  0.23814707819E+02  0.16908140598E+02  0.21695605612E+01  0.29287070868E+02  0.00000000000E+00 0.  1.
</event>
<event>
 7    1  0.2641045E-013  0.7246154E+02  0.7816164E-02  0.1226708E+00
        -11   -1    0    0    0    0  0.00000000000E+00  0.00000000000E+00  0.45593999997E+02  0.45594000000E+02  0.51100000000E-03 0.  1.
         11   -1    0    0    0    0 -0.00000000000E+00 -0.00000000000E+00 -0.45593999997E+02  0.45594000000E+02  0.51100000000E-03 0. -1.
    9900012    2    1    2    0    0 -0.63256721697E+01 -0.14394424515E+02 -0.10171851780E+02  0.72461544004E+02  0.69999965753E+02 0.  0.
        -12    1    1    2    0    0  0.63256721697E+01  0.14394424515E+02  0.10171851780E+02  0.18726455996E+02  0.00000000000E+00 0.  1.
         11    1    3    3    0    0 -0.13691239895E+02  0.10519969353E+01 -0.11383989675E+01  0.13778704579E+02  0.51100000000E-03 0. -1.
        -11    1    3    3    0    0  0.19598942726E+01  0.20974686874E+02 -0.16568899573E+01  0.21131113545E+02  0.51100000000E-03 0.  1.
         12    1    3    3    0    0  0.54056734523E+01 -0.36421108325E+02 -0.73765628549E+01  0.37551725881E+02  0.00000000000E+00 0. -1.
</event>
<event>
 7    1  0.2641045E-013  0.7246169E+02  0.7816164E-02  0.1226708E+00
        -11   -1    0    0    0    0  0.00000000000E+00  0.00000000000E+00  0.45593999997E+02  0.45594000000E+02  0.51100000000E-03 0.  1.
         11   -1    0    0    0    0 -0.00000000000E+00 -0.00000000000E+00 -0.45593999997E+02  0.45594000000E+02  0.51100000000E-03 0. -1.
    9900012    2    1    2    0    0  0.11025646745E+01  0.41495236531E+01 -0.18227464033E+02  0.72461691221E+02  0.70000157529E+02 0.  0.
        -12    1    1    2    0    0 -0.11025646745E+01 -0.41495236531E+01  0.18227464033E+02  0.18726308779E+02  0.00000000000E+00 0.  1.
         11    1    3    3    0    0  0.12893827165E+02 -0.13495006168E+02  0.36511583844E+01  0.19018331374E+02  0.51100000000E-03 0. -1.
        -11    1    3    3    0    0 -0.72539940938E+01 -0.63715790570E+01  0.95832671038E+01  0.13603545811E+02  0.51100000000E-03 0.  1.
        -12    1    3    3    0    0 -0.45372683972E+01  0.24016108878E+02 -0.31461889521E+02  0.39839814036E+02  0.00000000000E+00 0.  1.
</event>
<event>
 7    1  0.2641045E-013  0.7246134E+02  0.7816164E-02  0.1226709E+00
        -11   -1    0    0    0    0  0.00000000000E+00  0.00000000000E+00  0.45593999997E+02  0.45594000000E+02  0.51100000000E-03 0.  1.
         11   -1    0    0    0    0 -0.00000000000E+00 -0.00000000000E+00 -0.45593999997E+02  0.45594000000E+02  0.51100000000E-03 0. -1.
    9900012    2    1    2    0    0 -0.73636350537E+01  0.16248796492E+02 -0.56957282969E+01  0.72461339073E+02  0.69999698791E+02 0.  0.
        -12    1    1    2    0    0  0.73636350537E+01 -0.16248796492E+02  0.56957282969E+01  0.18726660927E+02  0.00000000000E+00 0.  1.
         11    1    3    3    0    0 -0.15192317569E+02 -0.96171831151E+01 -0.11357257164E+02  0.21266970041E+02  0.51100000000E-03 0. -1.
        -11    1    3    3    0    0 -0.13381849266E+02 -0.30490927828E+01 -0.35365037575E+01  0.14173133587E+02  0.51100000000E-03 0.  1.
        -12    1    3    3    0    0  0.21210531781E+02  0.28915072390E+02  0.91980326249E+01  0.37021235445E+02  0.00000000000E+00 0.  1.
</event>
<event>
 7    1  0.2641045E-013  0.7246154E+02  0.7816164E-02  0.1226708E+00
        -11   -1    0    0    0    0  0.00000000000E+00  0.00000000000E+00  0.45593999997E+02  0.45594000000E+02  0.51100000000E-03 0.  1.
         11   -1    0    0    0    0 -0.00000000000E+00 -0.00000000000E+00 -0.45593999997E+02  0.45594000000E+02  0.51100000000E-03 0. -1.
    9900012    2    1    2    0    0  0.12230857771E+02 -0.88245846112E+01 -0.11100145635E+02  0.72461537214E+02  0.69999956906E+02 0.  0.
        -12    1    1    2    0    0 -0.12230857771E+02  0.88245846112E+01  0.11100145635E+02  0.18726462786E+02  0.00000000000E+00 0.  1.
         11    1    3    3    0    0  0.18094321062E+01 -0.19293941838E+02  0.43557363902E+00  0.19383497126E+02  0.51100000000E-03 0. -1.
        -11    1    3    3    0    0  0.79327300259E+01 -0.19847184406E+02 -0.40917108593E+01  0.21761917023E+02  0.51100000000E-03 0.  1.
        -12    1    3    3    0    0  0.24886956390E+01  0.30316541632E+02 -0.74440084144E+01  0.31316123065E+02  0.00000000000E+00 0.  1.
</event>
<event>
 7    1  0.2641045E-013  0.7246157E+02  0.7816164E-02  0.1226708E+00
        -11   -1    0    0    0    0  0.00000000000E+00  0.00000000000E+00  0.45593999997E+02  0.45594000000E+02  0.51100000000E-03 0.  1.
         11   -1    0    0    0    0 -0.00000000000E+00 -0.00000000000E+00 -0.45593999997E+02  0.45594000000E+02  0.51100000000E-03 0. -1.
    9900012    2    1    2    0    0  0.25857607365E+01  0.13539866944E+02  0.12675366669E+02  0.72461572801E+02  0.70000003266E+02 0.  0.
        -12    1    1    2    0    0 -0.25857607365E+01 -0.13539866944E+02 -0.12675366669E+02  0.18726427199E+02  0.00000000000E+00 0.  1.
         11    1    3    3    0    0 -0.16322391977E+02 -0.16052190959E+01 -0.26242076542E+01  0.16609746364E+02  0.51100000000E-03 0. -1.
        -11    1    3    3    0    0 -0.13892117587E+02 -0.42451334715E+01  0.93805972782E+01  0.17291838966E+02  0.51100000000E-03 0.  1.
        -12    1    3    3    0    0  0.32800270301E+02  0.19390219511E+02  0.59189770453E+01  0.38559987471E+02  0.00000000000E+00 0.  1.
</event>
<event>
 7    1  0.2641045E-013  0.7246158E+02  0.7816164E-02  0.1226708E+00
        -11   -1    0    0    0    0  0.00000000000E+00  0.00000000000E+00  0.45593999997E+02  0.45594000000E+02  0.51100000000E-03 0. -1.
         11   -1    0    0    0    0 -0.00000000000E+00 -0.00000000000E+00 -0.45593999997E+02  0.45594000000E+02  0.51100000000E-03 0.  1.
    9900012    2    1    2    0    0 -0.97926626750E+01 -0.13891817896E+02  0.78613014011E+01  0.72461577319E+02  0.70000009151E+02 0.  0.
        -12    1    1    2    0    0  0.97926626750E+01  0.13891817896E+02 -0.78613014011E+01  0.18726422681E+02  0.00000000000E+00 0.  1.
         11    1    3    3    0    0  0.35919127233E+01  0.39064448662E+01  0.69369793948E+00  0.53519497006E+01  0.51100000000E-03 0. -1.
        -11    1    3    3    0    0  0.10522680440E+01  0.21641206122E+02 -0.70257574984E+01  0.22777408525E+02  0.51100000000E-03 0.  1.
         12    1    3    3    0    0 -0.14436843442E+02 -0.39439468883E+02  0.14193360960E+02  0.44332219093E+02  0.00000000000E+00 0. -1.
</event>
<event>
 7    1  0.2641045E-013  0.7246153E+02  0.7816164E-02  0.1226708E+00
        -11   -1    0    0    0    0  0.00000000000E+00  0.00000000000E+00  0.45593999997E+02  0.45594000000E+02  0.51100000000E-03 0.  1.
         11   -1    0    0    0    0 -0.00000000000E+00 -0.00000000000E+00 -0.45593999997E+02  0.45594000000E+02  0.51100000000E-03 0. -1.
    9900012    2    1    2    0    0  0.11202714954E+02  0.12535626709E+02 -0.82485175319E+01  0.72461526739E+02  0.69999943261E+02 0.  0.
        -12    1    1    2    0    0 -0.11202714954E+02 -0.12535626709E+02  0.82485175319E+01  0.18726473261E+02  0.00000000000E+00 0.  1.
         11    1    3    3    0    0 -0.11195177512E+02  0.33364906682E+02 -0.39932954841E+01  0.35418856652E+02  0.51100000000E-03 0. -1.
        -11    1    3    3    0    0 -0.76695810742E+00 -0.10668482983E+02  0.22371794921E+01  0.10927475748E+02  0.51100000000E-03 0.  1.
        -12    1    3    3    0    0  0.23164850574E+02 -0.10160796991E+02 -0.64924015399E+01  0.26115194339E+02  0.00000000000E+00 0.  1.
</event>
<event>
 7    1  0.2641045E-013  0.7246164E+02  0.7816164E-02  0.1226708E+00
        -11   -1    0    0    0    0  0.00000000000E+00  0.00000000000E+00  0.45593999997E+02  0.45594000000E+02  0.51100000000E-03 0. -1.
         11   -1    0    0    0    0 -0.00000000000E+00 -0.00000000000E+00 -0.45593999997E+02  0.45594000000E+02  0.51100000000E-03 0.  1.
    9900012    2    1    2    0    0  0.13579906315E+02  0.82079913314E+01  0.99444312221E+01  0.72461636511E+02  0.70000086259E+02 0.  0.
        -12    1    1    2    0    0 -0.13579906315E+02 -0.82079913314E+01 -0.99444312221E+01  0.18726363489E+02  0.00000000000E+00 0.  1.
         11    1    3    3    0    0  0.16438810797E+02 -0.48944711983E+01  0.15154408123E+02  0.22887691769E+02  0.51100000000E-03 0. -1.
        -11    1    3    3    0    0 -0.63075348560E+01 -0.13922922487E+02  0.10101758336E+02  0.18321525272E+02  0.51100000000E-03 0.  1.
         12    1    3    3    0    0  0.34486303740E+01  0.27025385017E+02 -0.15311735237E+02  0.31252419470E+02  0.00000000000E+00 0. -1.
</event>
<event>
 7    1  0.2641045E-013  0.7246137E+02  0.7816164E-02  0.1226709E+00
        -11   -1    0    0    0    0  0.00000000000E+00  0.00000000000E+00  0.45593999997E+02  0.45594000000E+02  0.51100000000E-03 0.  1.
         11   -1    0    0    0    0 -0.00000000000E+00 -0.00000000000E+00 -0.45593999997E+02  0.45594000000E+02  0.51100000000E-03 0. -1.
    9900012    2    1    2    0    0  0.12604207668E+02  0.79314953396E+01  0.11353946353E+02  0.72461367440E+02  0.69999735744E+02 0.  0.
        -12    1    1    2    0    0 -0.12604207668E+02 -0.79314953396E+01 -0.11353946353E+02  0.18726632560E+02  0.00000000000E+00 0.  1.
         11    1    3    3    0    0  0.10719709849E+02 -0.16738164706E+01  0.33611654421E+02  0.35319359479E+02  0.51100000000E-03 0. -1.
        -11    1    3    3    0    0  0.43467670846E+01 -0.66884481812E+01  0.16105777533E+01  0.81377935659E+01  0.51100000000E-03 0.  1.
         12    1    3    3    0    0 -0.24622692658E+01  0.16293759991E+02 -0.23868285822E+02  0.29004214395E+02  0.00000000000E+00 0. -1.
</event>
<event>
 7    1  0.2641045E-013  0.7246159E+02  0.7816164E-02  0.1226708E+00
        -11   -1    0    0    0    0  0.00000000000E+00  0.00000000000E+00  0.45593999997E+02  0.45594000000E+02  0.51100000000E-03 0.  1.
         11   -1    0    0    0    0 -0.00000000000E+00 -0.00000000000E+00 -0.45593999997E+02  0.45594000000E+02  0.51100000000E-03 0. -1.
    9900012    2    1    2    0    0 -0.87145514547E+00 -0.11894179814E+02 -0.14437704275E+02  0.72461594785E+02  0.70000031904E+02 0.  0.
        -12    1    1    2    0    0  0.87145514547E+00  0.11894179814E+02  0.14437704275E+02  0.18726405215E+02  0.00000000000E+00 0.  1.
         11    1    3    3    0    0  0.92422546863E+01 -0.65905080204E+01 -0.65911040062E+01  0.13126184516E+02  0.51100000000E-03 0. -1.
        -11    1    3    3    0    0  0.20965551481E+02 -0.97600611019E+01 -0.14425601771E+02  0.27256396099E+02  0.51100000000E-03 0.  1.
        -12    1    3    3    0    0 -0.31079261312E+02  0.44563893078E+01  0.65790015023E+01  0.32079014171E+02  0.00000000000E+00 0.  1.
</event>
<event>
 7    1  0.2641045E-013  0.7246152E+02  0.7816164E-02  0.1226708E+00
        -11   -1    0    0    0    0  0.00000000000E+00  0.00000000000E+00  0.45593999997E+02  0.45594000000E+02  0.51100000000E-03 0.  1.
         11   -1    0    0    0    0 -0.00000000000E+00 -0.00000000000E+00 -0.45593999997E+02  0.45594000000E+02  0.51100000000E-03 0. -1.
    9900012    2    1    2    0    0  0.91550384487E+01 -0.96389162736E+01 -0.13189296600E+02  0.72461521935E+02  0.69999937003E+02 0.  0.
        -12    1    1    2    0    0 -0.91550384487E+01  0.96389162736E+01  0.13189296600E+02  0.18726478065E+02  0.00000000000E+00 0.  1.
         11    1    3    3    0    0  0.28074362141E+02 -0.13075062795E+02 -0.19038383301E+02  0.36353639648E+02  0.51100000000E-03 0. -1.
        -11    1    3    3    0    0  0.71074515804E+01 -0.77897810665E+00 -0.37192173521E+01  0.80594821689E+01  0.51100000000E-03 0.  1.
         12    1    3    3    0    0 -0.26026775272E+02  0.42151246280E+01  0.95683040535E+01  0.28048400118E+02  0.00000000000E+00 0. -1.
</event>
<event>
 7    1  0.2641045E-013  0.7246198E+02  0.7816164E-02  0.1226707E+00
        -11   -1    0    0    0    0  0.00000000000E+00  0.00000000000E+00  0.45593999997E+02  0.45594000000E+02  0.51100000000E-03 0.  1.
         11   -1    0    0    0    0 -0.00000000000E+00 -0.00000000000E+00 -0.45593999997E+02  0.45594000000E+02  0.51100000000E-03 0. -1.
    9900012    2    1    2    0    0  0.12974772979E+02 -0.68290019785E+01 -0.11648339161E+02  0.72461980480E+02  0.70000534340E+02 0.  0.
        -12    1    1    2    0    0 -0.12974772979E+02  0.68290019785E+01  0.11648339161E+02  0.18726019520E+02  0.00000000000E+00 0.  1.
         11    1    3    3    0    0 -0.82515036412E+01 -0.18392209627E+02 -0.24352727874E+02  0.31613542074E+02  0.51100000000E-03 0. -1.
        -11    1    3    3    0    0 -0.46788972185E+01  0.37460678370E+01 -0.55815691818E+01  0.81901781552E+01  0.51100000000E-03 0.  1.
        -12    1    3    3    0    0  0.25905173839E+02  0.78171398117E+01  0.18285957895E+02  0.32658260250E+02  0.00000000000E+00 0.  1.
</event>
<event>
 7    1  0.2641045E-013  0.7246167E+02  0.7816164E-02  0.1226708E+00
        -11   -1    0    0    0    0  0.00000000000E+00  0.00000000000E+00  0.45593999997E+02  0.45594000000E+02  0.51100000000E-03 0.  1.
         11   -1    0    0    0    0 -0.00000000000E+00 -0.00000000000E+00 -0.45593999997E+02  0.45594000000E+02  0.51100000000E-03 0. -1.
    9900012    2    1    2    0    0  0.11213058218E+01  0.15217909764E+00 -0.18692106052E+02  0.72461673241E+02  0.70000134107E+02 0.  0.
        -12    1    1    2    0    0 -0.11213058218E+01 -0.15217909764E+00  0.18692106052E+02  0.18726326759E+02  0.00000000000E+00 0.  1.
         11    1    3    3    0    0  0.75337231781E+01  0.60190486909E+01 -0.51553681581E+01  0.10934521168E+02  0.51100000000E-03 0. -1.
        -11    1    3    3    0    0 -0.53573291139E+01  0.26764053935E+02 -0.46178581844E+01  0.27682849794E+02  0.51100000000E-03 0.  1.
         12    1    3    3    0    0 -0.10550882424E+01 -0.32630923528E+02 -0.89188797093E+01  0.33844302279E+02  0.00000000000E+00 0. -1.
</event>
<event>
 7    1  0.2641045E-013  0.7246184E+02  0.7816164E-02  0.1226707E+00
        -11   -1    0    0    0    0  0.00000000000E+00  0.00000000000E+00  0.45593999997E+02  0.45594000000E+02  0.51100000000E-03 0.  1.
         11   -1    0    0    0    0 -0.00000000000E+00 -0.00000000000E+00 -0.45593999997E+02  0.45594000000E+02  0.51100000000E-03 0. -1.
    9900012    2    1    2    0    0 -0.10879673418E+02 -0.10449540024E+02 -0.11095443350E+02  0.72461840662E+02  0.70000352204E+02 0.  0.
        -12    1    1    2    0    0  0.10879673418E+02  0.10449540024E+02  0.11095443350E+02  0.18726159338E+02  0.00000000000E+00 0.  1.
         11    1    3    3    0    0 -0.83907026888E+01 -0.20572457124E+02 -0.30022462536E+02  0.37349406163E+02  0.51100000000E-03 0. -1.
        -11    1    3    3    0    0  0.49900879760E+01 -0.55810338577E+01 -0.21459591849E+01  0.77880715208E+01  0.51100000000E-03 0.  1.
        -12    1    3    3    0    0 -0.74790587054E+01  0.15703950957E+02  0.21072978371E+02  0.27324362979E+02  0.00000000000E+00 0.  1.
</event>
<event>
 7    1  0.2641045E-013  0.7246155E+02  0.7816164E-02  0.1226708E+00
        -11   -1    0    0    0    0  0.00000000000E+00  0.00000000000E+00  0.45593999997E+02  0.45594000000E+02  0.51100000000E-03 0. -1.
         11   -1    0    0    0    0 -0.00000000000E+00 -0.00000000000E+00 -0.45593999997E+02  0.45594000000E+02  0.51100000000E-03 0.  1.
    9900012    2    1    2    0    0 -0.97060284426E+01  0.11157663607E+01  0.15975857023E+02  0.72461549981E+02  0.69999973538E+02 0.  0.
        -12    1    1    2    0    0  0.97060284426E+01 -0.11157663607E+01 -0.15975857023E+02  0.18726450019E+02  0.00000000000E+00 0.  1.
         11    1    3    3    0    0 -0.87637342331E+01  0.12261806333E+02  0.71772542342E+01  0.16693349300E+02  0.51100000000E-03 0. -1.
        -11    1    3    3    0    0  0.11158838457E+02  0.74162039522E+01 -0.17074180480E+02  0.21703626335E+02  0.51100000000E-03 0.  1.
        -12    1    3    3    0    0 -0.12101132666E+02 -0.18562243925E+02  0.25872783268E+02  0.34064574346E+02  0.00000000000E+00 0.  1.
</event>
<event>
 7    1  0.2641045E-013  0.7246178E+02  0.7816164E-02  0.1226707E+00
        -11   -1    0    0    0    0  0.00000000000E+00  0.00000000000E+00  0.45593999997E+02  0.45594000000E+02  0.51100000000E-03 0.  1.
         11   -1    0    0    0    0 -0.00000000000E+00 -0.00000000000E+00 -0.45593999997E+02  0.45594000000E+02  0.51100000000E-03 0. -1.
    9900012    2    1    2    0    0 -0.14554361818E+01  0.17336652489E+02 -0.69277323587E+01  0.72461780690E+02  0.70000274079E+02 0.  0.
        -12    1    1    2    0    0  0.14554361818E+01 -0.17336652489E+02  0.69277323587E+01  0.18726219310E+02  0.00000000000E+00 0.  1.
         11    1    3    3    0    0 -0.11109643950E+02  0.38425242969E+01  0.18865331177E+02  0.22228133128E+02  0.51100000000E-03 0.  1.
        -11    1    3    3    0    0  0.15980141595E+02  0.23630101481E+01  0.49794702986E+01  0.16903960100E+02  0.51100000000E-03 0. -1.
         12    1    3    3    0    0 -0.63259338272E+01  0.11131118045E+02 -0.30772533834E+02  0.33329687462E+02  0.00000000000E+00 0. -1.
</event>
<event>
 7    1  0.2641045E-013  0.7246156E+02  0.7816164E-02  0.1226708E+00
        -11   -1    0    0    0    0  0.00000000000E+00  0.00000000000E+00  0.45593999997E+02  0.45594000000E+02  0.51100000000E-03 0.  1.
         11   -1    0    0    0    0 -0.00000000000E+00 -0.00000000000E+00 -0.45593999997E+02  0.45594000000E+02  0.51100000000E-03 0. -1.
    9900012    2    1    2    0    0  0.11570756727E+01 -0.10719705359E+02 -0.15311064114E+02  0.72461559030E+02  0.69999985326E+02 0.  0.
        -12    1    1    2    0    0 -0.11570756727E+01  0.10719705359E+02  0.15311064114E+02  0.18726440970E+02  0.00000000000E+00 0.  1.
         11    1    3    3    0    0 -0.58940154039E+00  0.12743762939E+02 -0.68648568869E+01  0.14487137342E+02  0.51100000000E-03 0. -1.
        -11    1    3    3    0    0 -0.59047917213E+01  0.13846409579E+02 -0.12642477874E+02  0.19657616095E+02  0.51100000000E-03 0.  1.
        -12    1    3    3    0    0  0.76512689344E+01 -0.37309877877E+02  0.41962706467E+01  0.38316805593E+02  0.00000000000E+00 0.  1.
</event>
<event>
 7    1  0.2641045E-013  0.7246156E+02  0.7816164E-02  0.1226708E+00
        -11   -1    0    0    0    0  0.00000000000E+00  0.00000000000E+00  0.45593999997E+02  0.45594000000E+02  0.51100000000E-03 0.  1.
         11   -1    0    0    0    0 -0.00000000000E+00 -0.00000000000E+00 -0.45593999997E+02  0.45594000000E+02  0.51100000000E-03 0. -1.
    9900012    2    1    2    0    0 -0.56601636927E+01  0.29247335665E+01 -0.17609315018E+02  0.72461561608E+02  0.69999988684E+02 0.  0.
        -12    1    1    2    0    0  0.56601636927E+01 -0.29247335665E+01  0.17609315018E+02  0.18726438392E+02  0.00000000000E+00 0.  1.
         11    1    3    3    0    0  0.14942141428E+02  0.22053847714E+02 -0.88496157890E+01  0.28070544871E+02  0.51100000000E-03 0. -1.
        -11    1    3    3    0    0 -0.70119356063E+01  0.23894595786E+01  0.10234184878E+02  0.12633894824E+02  0.51100000000E-03 0.  1.
        -12    1    3    3    0    0 -0.13590369515E+02 -0.21518573726E+02 -0.18993884107E+02  0.31757121914E+02  0.00000000000E+00 0.  1.
</event>
<event>
 7    1  0.2641045E-013  0.7246157E+02  0.7816164E-02  0.1226708E+00
        -11   -1    0    0    0    0  0.00000000000E+00  0.00000000000E+00  0.45593999997E+02  0.45594000000E+02  0.51100000000E-03 0.  1.
         11   -1    0    0    0    0 -0.00000000000E+00 -0.00000000000E+00 -0.45593999997E+02  0.45594000000E+02  0.51100000000E-03 0. -1.
    9900012    2    1    2    0    0  0.63286702129E+01 -0.16732821515E+02 -0.55353273263E+01  0.72461568649E+02  0.69999997857E+02 0.  0.
        -12    1    1    2    0    0 -0.63286702129E+01  0.16732821515E+02  0.55353273263E+01  0.18726431351E+02  0.00000000000E+00 0.  1.
         11    1    3    3    0    0  0.14076802905E+02 -0.29588403305E+02  0.17024582557E+02  0.36925145926E+02  0.51100000000E-03 0. -1.
        -11    1    3    3    0    0 -0.11826646960E+02  0.41703697191E+01 -0.18033821022E+01  0.12669402085E+02  0.51100000000E-03 0.  1.
        -12    1    3    3    0    0  0.40785142685E+01  0.86852120707E+01 -0.20756527781E+02  0.22867020639E+02  0.00000000000E+00 0.  1.
</event>
<event>
 7    1  0.2641045E-013  0.7246155E+02  0.7816164E-02  0.1226708E+00
        -11   -1    0    0    0    0  0.00000000000E+00  0.00000000000E+00  0.45593999997E+02  0.45594000000E+02  0.51100000000E-03 0.  1.
         11   -1    0    0    0    0 -0.00000000000E+00 -0.00000000000E+00 -0.45593999997E+02  0.45594000000E+02  0.51100000000E-03 0. -1.
    9900012    2    1    2    0    0 -0.14598299187E+02 -0.83835660363E+01 -0.82027600408E+01  0.72461553703E+02  0.69999978387E+02 0.  0.
        -12    1    1    2    0    0  0.14598299187E+02  0.83835660363E+01  0.82027600408E+01  0.18726446297E+02  0.00000000000E+00 0.  1.
         11    1    3    3    0    0 -0.17193175050E+02 -0.23639063038E+02 -0.55385729045E+01  0.29750401000E+02  0.51100000000E-03 0. -1.
        -11    1    3    3    0    0 -0.48100676413E+01 -0.20952335434E+01  0.15596905605E+02  0.16455704756E+02  0.51100000000E-03 0.  1.
        -12    1    3    3    0    0  0.74049435046E+01  0.17350730545E+02 -0.18261092741E+02  0.26255447946E+02  0.00000000000E+00 0.  1.
</event>
<event>
 7    1  0.2641045E-013  0.7246161E+02  0.7816164E-02  0.1226708E+00
        -11   -1    0    0    0    0  0.00000000000E+00  0.00000000000E+00  0.45593999997E+02  0.45594000000E+02  0.51100000000E-03 0.  1.
         11   -1    0    0    0    0 -0.00000000000E+00 -0.00000000000E+00 -0.45593999997E+02  0.45594000000E+02  0.51100000000E-03 0. -1.
    9900012    2    1    2    0    0 -0.10329545327E+02 -0.14060118358E+02 -0.68037718897E+01  0.72461608280E+02  0.70000049484E+02 0.  0.
        -12    1    1    2    0    0  0.10329545327E+02  0.14060118358E+02  0.68037718897E+01  0.18726391720E+02  0.00000000000E+00 0.  1.
         11    1    3    3    0    0 -0.21841831622E+02  0.13131059150E+01 -0.25196242218E+02  0.33371252268E+02  0.51100000000E-03 0. -1.
        -11    1    3    3    0    0 -0.30808602205E+01 -0.91675243967E+01 -0.49549227211E+01  0.10866759531E+02  0.51100000000E-03 0.  1.
        -12    1    3    3    0    0  0.14593146515E+02 -0.62056998764E+01  0.23347393049E+02  0.28223596482E+02  0.00000000000E+00 0.  1.
</event>
<event>
 7    1  0.2641045E-013  0.7246155E+02  0.7816164E-02  0.1226708E+00
        -11   -1    0    0    0    0  0.00000000000E+00  0.00000000000E+00  0.45593999997E+02  0.45594000000E+02  0.51100000000E-03 0. -1.
         11   -1    0    0    0    0 -0.00000000000E+00 -0.00000000000E+00 -0.45593999997E+02  0.45594000000E+02  0.51100000000E-03 0.  1.
    9900012    2    1    2    0    0 -0.91694703479E+01  0.79927187612E+01  0.14237876551E+02  0.72461551636E+02  0.69999975694E+02 0.  0.
        -12    1    1    2    0    0  0.91694703479E+01 -0.79927187612E+01 -0.14237876551E+02  0.18726448364E+02  0.00000000000E+00 0.  1.
         11    1    3    3    0    0 -0.26284099161E+02  0.25131412523E+02  0.19120933734E+02  0.41085908426E+02  0.51100000000E-03 0. -1.
        -11    1    3    3    0    0 -0.18205859395E+01 -0.12667474222E+01  0.44436379020E+01  0.49663971106E+01  0.51100000000E-03 0.  1.
        -12    1    3    3    0    0  0.18935214752E+02 -0.15871946340E+02 -0.93266950847E+01  0.26409246099E+02  0.00000000000E+00 0.  1.
</event>
<event>
 7    1  0.2641045E-013  0.7246153E+02  0.7816164E-02  0.1226708E+00
        -11   -1    0    0    0    0  0.00000000000E+00  0.00000000000E+00  0.45593999997E+02  0.45594000000E+02  0.51100000000E-03 0. -1.
         11   -1    0    0    0    0 -0.00000000000E+00 -0.00000000000E+00 -0.45593999997E+02  0.45594000000E+02  0.51100000000E-03 0.  1.
    9900012    2    1    2    0    0 -0.32995731554E+01  0.11881649783E+02  0.14093259399E+02  0.72461528227E+02  0.69999945200E+02 0.  0.
        -12    1    1    2    0    0  0.32995731554E+01 -0.11881649783E+02 -0.14093259399E+02  0.18726471773E+02  0.00000000000E+00 0.  1.
         11    1    3    3    0    0  0.22465668238E+02  0.88882246551E+01 -0.41359547829E+01  0.24511485250E+02  0.51100000000E-03 0. -1.
        -11    1    3    3    0    0 -0.12812658001E+02  0.18345644498E+02  0.26563927839E+01  0.22534047572E+02  0.51100000000E-03 0.  1.
         12    1    3    3    0    0 -0.12952583393E+02 -0.15352219371E+02  0.15572821398E+02  0.25415995405E+02  0.00000000000E+00 0. -1.
</event>
<event>
 7    1  0.2641045E-013  0.7246157E+02  0.7816164E-02  0.1226708E+00
        -11   -1    0    0    0    0  0.00000000000E+00  0.00000000000E+00  0.45593999997E+02  0.45594000000E+02  0.51100000000E-03 0.  1.
         11   -1    0    0    0    0 -0.00000000000E+00 -0.00000000000E+00 -0.45593999997E+02  0.45594000000E+02  0.51100000000E-03 0. -1.
    9900012    2    1    2    0    0 -0.45766365198E+01  0.12179113871E+02 -0.13468584742E+02  0.72461569708E+02  0.69999999237E+02 0.  0.
        -12    1    1    2    0    0  0.45766365198E+01 -0.12179113871E+02  0.13468584742E+02  0.18726430292E+02  0.00000000000E+00 0.  1.
         11    1    3    3    0    0 -0.70176539781E+01  0.12108861814E+02  0.39272898755E+01  0.14536010725E+02  0.51100000000E-03 0. -1.
        -11    1    3    3    0    0 -0.14774973065E+01  0.11508901675E+02  0.17498284344E+02  0.20995898916E+02  0.51100000000E-03 0.  1.
         12    1    3    3    0    0  0.39185147648E+01 -0.11438649617E+02 -0.34894158962E+02  0.36929660067E+02  0.00000000000E+00 0. -1.
</event>
<event>
 7    1  0.2641045E-013  0.7246228E+02  0.7816164E-02  0.1226706E+00
        -11   -1    0    0    0    0  0.00000000000E+00  0.00000000000E+00  0.45593999997E+02  0.45594000000E+02  0.51100000000E-03 0. -1.
         11   -1    0    0    0    0 -0.00000000000E+00 -0.00000000000E+00 -0.45593999997E+02  0.45594000000E+02  0.51100000000E-03 0.  1.
    9900012    2    1    2    0    0 -0.81292898410E+01 -0.15399788895E+02 -0.68857759531E+01  0.72462275399E+02  0.70000918524E+02 0.  0.
        -12    1    1    2    0    0  0.81292898410E+01  0.15399788895E+02  0.68857759531E+01  0.18725724601E+02  0.00000000000E+00 0.  1.
         11    1    3    3    0    0 -0.15824254378E+02 -0.73970462019E+01  0.58270977575E+01  0.18414081233E+02  0.51100000000E-03 0. -1.
        -11    1    3    3    0    0 -0.34183946739E+01  0.21091879728E+02 -0.44444386861E+01  0.21824432366E+02  0.51100000000E-03 0.  1.
         12    1    3    3    0    0  0.11113359210E+02 -0.29094622422E+02 -0.82684350245E+01  0.32223761800E+02  0.00000000000E+00 0. -1.
</event>
<event>
 7    1  0.2641045E-013  0.7246160E+02  0.7816164E-02  0.1226708E+00
        -11   -1    0    0    0    0  0.00000000000E+00  0.00000000000E+00  0.45593999997E+02  0.45594000000E+02  0.51100000000E-03 0.  1.
         11   -1    0    0    0    0 -0.00000000000E+00 -0.00000000000E+00 -0.45593999997E+02  0.45594000000E+02  0.51100000000E-03 0. -1.
    9900012    2    1    2    0    0 -0.63072093280E-01  0.18231842037E+02 -0.42748075259E+01  0.72461600945E+02  0.70000039929E+02 0.  0.
        -12    1    1    2    0    0  0.63072093280E-01 -0.18231842037E+02  0.42748075259E+01  0.18726399055E+02  0.00000000000E+00 0.  1.
         11    1    3    3    0    0  0.16557757818E+02 -0.18230751218E+02  0.22675180272E+01  0.24731786676E+02  0.51100000000E-03 0. -1.
        -11    1    3    3    0    0 -0.20212965713E+01 -0.38338306597E+00  0.58527352159E+01  0.62037998173E+01  0.51100000000E-03 0.  1.
        -12    1    3    3    0    0 -0.14599533340E+02  0.36845976321E+02 -0.12395060769E+02  0.41526014452E+02  0.00000000000E+00 0.  1.
</event>
<event>
 7    1  0.2641045E-013  0.7246159E+02  0.7816164E-02  0.1226708E+00
        -11   -1    0    0    0    0  0.00000000000E+00  0.00000000000E+00  0.45593999997E+02  0.45594000000E+02  0.51100000000E-03 0. -1.
         11   -1    0    0    0    0 -0.00000000000E+00 -0.00000000000E+00 -0.45593999997E+02  0.45594000000E+02  0.51100000000E-03 0.  1.
    9900012    2    1    2    0    0 -0.15875635784E+02 -0.44550138505E+01  0.88766813254E+01  0.72461590005E+02  0.70000025677E+02 0.  0.
        -12    1    1    2    0    0  0.15875635784E+02  0.44550138505E+01 -0.88766813254E+01  0.18726409995E+02  0.00000000000E+00 0.  1.
         11    1    3    3    0    0 -0.84487063296E+01  0.10305798815E+02  0.57950123528E+01  0.14531768519E+02  0.51100000000E-03 0. -1.
        -11    1    3    3    0    0 -0.22698259444E+02 -0.54153335091E+00  0.20620948932E+02  0.30671285843E+02  0.51100000000E-03 0.  1.
         12    1    3    3    0    0  0.15271329990E+02 -0.14219279315E+02 -0.17539279960E+02  0.27258535643E+02  0.00000000000E+00 0. -1.
</event>
<event>
 7    1  0.2641045E-013  0.7246159E+02  0.7816164E-02  0.1226708E+00
        -11   -1    0    0    0    0  0.00000000000E+00  0.00000000000E+00  0.45593999997E+02  0.45594000000E+02  0.51100000000E-03 0. -1.
         11   -1    0    0    0    0 -0.00000000000E+00 -0.00000000000E+00 -0.45593999997E+02  0.45594000000E+02  0.51100000000E-03 0.  1.
    9900012    2    1    2    0    0 -0.10345289959E+02  0.27424548467E+01  0.15366595541E+02  0.72461592404E+02  0.70000028802E+02 0.  0.
        -12    1    1    2    0    0  0.10345289959E+02 -0.27424548467E+01 -0.15366595541E+02  0.18726407596E+02  0.00000000000E+00 0.  1.
         11    1    3    3    0    0 -0.64159754027E+01 -0.17341318172E+01 -0.30509310351E+01  0.73130112791E+01  0.51100000000E-03 0. -1.
        -11    1    3    3    0    0 -0.30456180998E+02 -0.53957989179E+01 -0.79302714872E+00  0.30940628618E+02  0.51100000000E-03 0.  1.
         12    1    3    3    0    0  0.26526866442E+02  0.98723855817E+01  0.19210553725E+02  0.34207952507E+02  0.00000000000E+00 0. -1.
</event>
<event>
 7    1  0.2641045E-013  0.7246164E+02  0.7816164E-02  0.1226708E+00
        -11   -1    0    0    0    0  0.00000000000E+00  0.00000000000E+00  0.45593999997E+02  0.45594000000E+02  0.51100000000E-03 0.  1.
         11   -1    0    0    0    0 -0.00000000000E+00 -0.00000000000E+00 -0.45593999997E+02  0.45594000000E+02  0.51100000000E-03 0. -1.
    9900012    2    1    2    0    0 -0.10232830369E+02 -0.13891904510E+02 -0.72787814020E+01  0.72461641920E+02  0.70000093305E+02 0.  0.
        -12    1    1    2    0    0  0.10232830369E+02  0.13891904510E+02  0.72787814020E+01  0.18726358080E+02  0.00000000000E+00 0.  1.
         11    1    3    3    0    0  0.60236225874E+01 -0.14364382580E+02 -0.16207699002E+02  0.22479079678E+02  0.51100000000E-03 0. -1.
        -11    1    3    3    0    0 -0.17203815093E+02 -0.16959505609E+02 -0.82132376449E+01  0.25515747238E+02  0.51100000000E-03 0.  1.
        -12    1    3    3    0    0  0.94736213679E+00  0.17431983679E+02  0.17142155245E+02  0.24466815004E+02  0.00000000000E+00 0.  1.
</event>
<event>
 7    1  0.2641045E-013  0.7246198E+02  0.7816164E-02  0.1226707E+00
        -11   -1    0    0    0    0  0.00000000000E+00  0.00000000000E+00  0.45593999997E+02  0.45594000000E+02  0.51100000000E-03 0.  1.
         11   -1    0    0    0    0 -0.00000000000E+00 -0.00000000000E+00 -0.45593999997E+02  0.45594000000E+02  0.51100000000E-03 0. -1.
    9900012    2    1    2    0    0  0.10859172109E+02  0.13629946853E+02 -0.68532183795E+01  0.72461984079E+02  0.70000539029E+02 0.  0.
        -12    1    1    2    0    0 -0.10859172109E+02 -0.13629946853E+02  0.68532183795E+01  0.18726015921E+02  0.00000000000E+00 0.  1.
         11    1    3    3    0    0  0.10374995462E+02  0.28025964011E+02  0.14266044644E+02  0.33115181105E+02  0.51100000000E-03 0. -1.
        -11    1    3    3    0    0 -0.57842522589E+01  0.69078386701E+01 -0.12756494990E+02  0.15617425331E+02  0.51100000000E-03 0.  1.
        -12    1    3    3    0    0  0.62684289063E+01 -0.21303855828E+02 -0.83627680337E+01  0.23729377642E+02  0.00000000000E+00 0.  1.
</event>
<event>
 7    1  0.2641045E-013  0.7246158E+02  0.7816164E-02  0.1226708E+00
        -11   -1    0    0    0    0  0.00000000000E+00  0.00000000000E+00  0.45593999997E+02  0.45594000000E+02  0.51100000000E-03 0. -1.
         11   -1    0    0    0    0 -0.00000000000E+00 -0.00000000000E+00 -0.45593999997E+02  0.45594000000E+02  0.51100000000E-03 0.  1.
    9900012    2    1    2    0    0 -0.10554362073E+02  0.13131574488E+02  0.81759349354E+01  0.72461582313E+02  0.70000015657E+02 0.  0.
        -12    1    1    2    0    0  0.10554362073E+02 -0.13131574488E+02 -0.81759349354E+01  0.18726417687E+02  0.00000000000E+00 0.  1.
         11    1    3    3    0    0 -0.25883612975E+02  0.17477710761E+02  0.16632718972E+02  0.35384730248E+02  0.51100000000E-03 0. -1.
        -11    1    3    3    0    0 -0.68308896273E+01  0.54666562924E+01  0.42339237492E+01  0.97196447824E+01  0.51100000000E-03 0.  1.
        -12    1    3    3    0    0  0.22160140529E+02 -0.98127925652E+01 -0.12690707786E+02  0.27357207283E+02  0.00000000000E+00 0.  1.
</event>
<event>
 7    1  0.2641045E-013  0.7246160E+02  0.7816164E-02  0.1226708E+00
        -11   -1    0    0    0    0  0.00000000000E+00  0.00000000000E+00  0.45593999997E+02  0.45594000000E+02  0.51100000000E-03 0.  1.
         11   -1    0    0    0    0 -0.00000000000E+00 -0.00000000000E+00 -0.45593999997E+02  0.45594000000E+02  0.51100000000E-03 0. -1.
    9900012    2    1    2    0    0  0.89737638032E+00  0.14162937876E+02 -0.12218176717E+02  0.72461603231E+02  0.70000042906E+02 0.  0.
        -12    1    1    2    0    0 -0.89737638032E+00 -0.14162937876E+02  0.12218176717E+02  0.18726396769E+02  0.00000000000E+00 0.  1.
         11    1    3    3    0    0 -0.19879359825E+02  0.12431985147E+02  0.20721901520E+01  0.23537994265E+02  0.51100000000E-03 0. -1.
        -11    1    3    3    0    0 -0.97454478462E+00 -0.10733486049E+02 -0.20443090675E+02  0.23110115034E+02  0.51100000000E-03 0.  1.
        -12    1    3    3    0    0  0.21751280990E+02  0.12464438779E+02  0.61527238058E+01  0.25813493932E+02  0.00000000000E+00 0.  1.
</event>
<event>
 7    1  0.2641045E-013  0.7246157E+02  0.7816164E-02  0.1226708E+00
        -11   -1    0    0    0    0  0.00000000000E+00  0.00000000000E+00  0.45593999997E+02  0.45594000000E+02  0.51100000000E-03 0. -1.
         11   -1    0    0    0    0 -0.00000000000E+00 -0.00000000000E+00 -0.45593999997E+02  0.45594000000E+02  0.51100000000E-03 0.  1.
    9900012    2    1    2    0    0 -0.51676752807E+01  0.45371202851E+01  0.17418062158E+02  0.72461569010E+02  0.69999998326E+02 0.  0.
        -12    1    1    2    0    0  0.51676752807E+01 -0.45371202851E+01 -0.17418062158E+02  0.18726430990E+02  0.00000000000E+00 0.  1.
         11    1    3    3    0    0 -0.22694786825E+01  0.93384578329E+01  0.10987290032E+02  0.14597187082E+02  0.51100000000E-03 0. -1.
        -11    1    3    3    0    0 -0.13760289508E+02  0.18715828939E+02  0.18103885970E+02  0.29451290425E+02  0.51100000000E-03 0.  1.
        -12    1    3    3    0    0  0.10862092910E+02 -0.23517166486E+02 -0.11673113844E+02  0.28413091503E+02  0.00000000000E+00 0.  1.
</event>
<event>
 7    1  0.2641045E-013  0.7246160E+02  0.7816164E-02  0.1226708E+00
        -11   -1    0    0    0    0  0.00000000000E+00  0.00000000000E+00  0.45593999997E+02  0.45594000000E+02  0.51100000000E-03 0.  1.
         11   -1    0    0    0    0 -0.00000000000E+00 -0.00000000000E+00 -0.45593999997E+02  0.45594000000E+02  0.51100000000E-03 0. -1.
    9900012    2    1    2    0    0 -0.58095048146E+01 -0.63859335710E+00 -0.17791003514E+02  0.72461602757E+02  0.70000042289E+02 0.  0.
        -12    1    1    2    0    0  0.58095048146E+01  0.63859335710E+00  0.17791003514E+02  0.18726397243E+02  0.00000000000E+00 0.  1.
         11    1    3    3    0    0  0.24573255110E+02  0.12098293861E+02  0.79714997424E+01  0.28526450698E+02  0.51100000000E-03 0. -1.
        -11    1    3    3    0    0 -0.13814417245E+02 -0.12609966854E+02 -0.10731166584E+02  0.21564028483E+02  0.51100000000E-03 0.  1.
        -12    1    3    3    0    0 -0.16568342679E+02 -0.12692036442E+00 -0.15031336672E+02  0.22371123576E+02  0.00000000000E+00 0.  1.
</event>
<event>
 7    1  0.2641045E-013  0.7246156E+02  0.7816164E-02  0.1226708E+00
        -11   -1    0    0    0    0  0.00000000000E+00  0.00000000000E+00  0.45593999997E+02  0.45594000000E+02  0.51100000000E-03 0. -1.
         11   -1    0    0    0    0 -0.00000000000E+00 -0.00000000000E+00 -0.45593999997E+02  0.45594000000E+02  0.51100000000E-03 0.  1.
    9900012    2    1    2    0    0 -0.62287372909E+01 -0.17094105608E+02  0.44355500988E+01  0.72461555611E+02  0.69999980872E+02 0.  0.
        -12    1    1    2    0    0  0.62287372909E+01  0.17094105608E+02 -0.44355500988E+01  0.18726444389E+02  0.00000000000E+00 0.  1.
         11    1    3    3    0    0 -0.51849444147E+01  0.15496056737E+02 -0.62973005262E+01  0.17511922144E+02  0.51100000000E-03 0. -1.
        -11    1    3    3    0    0 -0.31722888409E+01 -0.23543872671E+02 -0.14655761240E+02  0.27913593366E+02  0.51100000000E-03 0.  1.
         12    1    3    3    0    0  0.21284959647E+01 -0.90462896742E+01  0.25388611865E+02  0.27036040101E+02  0.00000000000E+00 0. -1.
</event>
<event>
 7    1  0.2641045E-013  0.7246151E+02  0.7816164E-02  0.1226708E+00
        -11   -1    0    0    0    0  0.00000000000E+00  0.00000000000E+00  0.45593999997E+02  0.45594000000E+02  0.51100000000E-03 0.  1.
         11   -1    0    0    0    0 -0.00000000000E+00 -0.00000000000E+00 -0.45593999997E+02  0.45594000000E+02  0.51100000000E-03 0. -1.
    9900012    2    1    2    0    0 -0.10838393852E+02 -0.12352391733E+02  0.89793607173E+01  0.72461513899E+02  0.69999926534E+02 0.  0.
        -12    1    1    2    0    0  0.10838393852E+02  0.12352391733E+02 -0.89793607173E+01  0.18726486101E+02  0.00000000000E+00 0.  1.
         11    1    3    3    0    0 -0.55098787850E+01  0.32568174871E+01  0.22713537706E+01  0.67915147487E+01  0.51100000000E-03 0. -1.
        -11    1    3    3    0    0  0.10023051632E+02  0.17817970715E+02  0.17951111109E+02  0.27206323433E+02  0.51100000000E-03 0.  1.
         12    1    3    3    0    0 -0.15351566699E+02 -0.33427179935E+02 -0.11243104162E+02  0.38463675718E+02  0.00000000000E+00 0. -1.
</event>
<event>
 7    1  0.2641045E-013  0.7246157E+02  0.7816164E-02  0.1226708E+00
        -11   -1    0    0    0    0  0.00000000000E+00  0.00000000000E+00  0.45593999997E+02  0.45594000000E+02  0.51100000000E-03 0.  1.
         11   -1    0    0    0    0 -0.00000000000E+00 -0.00000000000E+00 -0.45593999997E+02  0.45594000000E+02  0.51100000000E-03 0. -1.
    9900012    2    1    2    0    0 -0.11666593234E+02  0.11898463112E+02 -0.85437815702E+01  0.72461574136E+02  0.70000005005E+02 0.  0.
        -12    1    1    2    0    0  0.11666593234E+02 -0.11898463112E+02  0.85437815702E+01  0.18726425864E+02  0.00000000000E+00 0.  1.
         11    1    3    3    0    0 -0.21814708341E+02 -0.22575377534E+01  0.20752145781E+02  0.30193203399E+02  0.51100000000E-03 0. -1.
        -11    1    3    3    0    0 -0.57063627176E+01 -0.34290509169E+01 -0.81485209499E+01  0.10522326719E+02  0.51100000000E-03 0.  1.
        -12    1    3    3    0    0  0.15854477825E+02  0.17585051782E+02 -0.21147406401E+02  0.31746044018E+02  0.00000000000E+00 0.  1.
</event>
<event>
 7    1  0.2641045E-013  0.7246159E+02  0.7816164E-02  0.1226708E+00
        -11   -1    0    0    0    0  0.00000000000E+00  0.00000000000E+00  0.45593999997E+02  0.45594000000E+02  0.51100000000E-03 0.  1.
         11   -1    0    0    0    0 -0.00000000000E+00 -0.00000000000E+00 -0.45593999997E+02  0.45594000000E+02  0.51100000000E-03 0. -1.
    9900012    2    1    2    0    0 -0.13535937058E+01  0.10148609229E+02 -0.15679666075E+02  0.72461590482E+02  0.70000026298E+02 0.  0.
        -12    1    1    2    0    0  0.13535937058E+01 -0.10148609229E+02  0.15679666075E+02  0.18726409518E+02  0.00000000000E+00 0.  1.
         11    1    3    3    0    0 -0.11137263098E+02 -0.39163182739E+01  0.79338710873E+00  0.11832397961E+02  0.51100000000E-03 0. -1.
        -11    1    3    3    0    0  0.16496677948E+02 -0.12038797665E+02  0.10096636125E+02  0.22781902770E+02  0.51100000000E-03 0.  1.
         12    1    3    3    0    0 -0.67130085555E+01  0.26103725168E+02 -0.26569689309E+02  0.37847289751E+02  0.00000000000E+00 0. -1.
</event>
<event>
 7    1  0.2641045E-013  0.7246154E+02  0.7816164E-02  0.1226708E+00
        -11   -1    0    0    0    0  0.00000000000E+00  0.00000000000E+00  0.45593999997E+02  0.45594000000E+02  0.51100000000E-03 0. -1.
         11   -1    0    0    0    0 -0.00000000000E+00 -0.00000000000E+00 -0.45593999997E+02  0.45594000000E+02  0.51100000000E-03 0.  1.
    9900012    2    1    2    0    0  0.33258355144E+01 -0.16057665079E+02  0.90426964889E+01  0.72461544130E+02  0.69999965916E+02 0.  0.
        -12    1    1    2    0    0 -0.33258355144E+01  0.16057665079E+02 -0.90426964889E+01  0.18726455870E+02  0.00000000000E+00 0.  1.
         11    1    3    3    0    0 -0.25887745548E+02  0.54410458804E+01  0.17289591585E+02  0.31602378506E+02  0.51100000000E-03 0. -1.
        -11    1    3    3    0    0  0.39248622338E+01 -0.14561201527E+01 -0.74920934614E+01  0.85823245189E+01  0.51100000000E-03 0.  1.
        -12    1    3    3    0    0  0.25288718828E+02 -0.20042590807E+02 -0.75480163443E+00  0.32276841105E+02  0.00000000000E+00 0.  1.
</event>
<event>
 7    1  0.2641045E-013  0.7246148E+02  0.7816164E-02  0.1226708E+00
        -11   -1    0    0    0    0  0.00000000000E+00  0.00000000000E+00  0.45593999997E+02  0.45594000000E+02  0.51100000000E-03 0.  1.
         11   -1    0    0    0    0 -0.00000000000E+00 -0.00000000000E+00 -0.45593999997E+02  0.45594000000E+02  0.51100000000E-03 0. -1.
    9900012    2    1    2    0    0  0.62817373755E+01 -0.41751309701E+01 -0.17140315921E+02  0.72461484762E+02  0.69999888579E+02 0.  0.
        -12    1    1    2    0    0 -0.62817373755E+01  0.41751309701E+01  0.17140315921E+02  0.18726515238E+02  0.00000000000E+00 0.  1.
         11    1    3    3    0    0  0.11956698197E+02 -0.58363619789E+01 -0.78437643101E+00  0.13328203164E+02  0.51100000000E-03 0. -1.
        -11    1    3    3    0    0  0.24812306980E+02 -0.48770921889E+01 -0.10634224160E+02  0.27432158676E+02  0.51100000000E-03 0.  1.
        -12    1    3    3    0    0 -0.30487267802E+02  0.65383231977E+01 -0.57217153304E+01  0.31701122923E+02  0.00000000000E+00 0.  1.
</event>
<event>
 7    1  0.2641045E-013  0.7246160E+02  0.7816164E-02  0.1226708E+00
        -11   -1    0    0    0    0  0.00000000000E+00  0.00000000000E+00  0.45593999997E+02  0.45594000000E+02  0.51100000000E-03 0.  1.
         11   -1    0    0    0    0 -0.00000000000E+00 -0.00000000000E+00 -0.45593999997E+02  0.45594000000E+02  0.51100000000E-03 0. -1.
    9900012    2    1    2    0    0 -0.59331562057E+01 -0.16533305947E+02 -0.64904253886E+01  0.72461596986E+02  0.70000034771E+02 0.  0.
        -12    1    1    2    0    0  0.59331562057E+01  0.16533305947E+02  0.64904253886E+01  0.18726403014E+02  0.00000000000E+00 0.  1.
         11    1    3    3    0    0  0.99994055064E+01 -0.35280834045E+01 -0.10287354773E+01  0.10653345950E+02  0.51100000000E-03 0. -1.
        -11    1    3    3    0    0  0.21805522832E+02 -0.22135787204E+01  0.13998833443E+01  0.21962250121E+02  0.51100000000E-03 0.  1.
         12    1    3    3    0    0 -0.37738084544E+02 -0.10791643822E+02 -0.68615732557E+01  0.39846000916E+02  0.00000000000E+00 0. -1.
</event>
<event>
 7    1  0.2641045E-013  0.7246154E+02  0.7816164E-02  0.1226708E+00
        -11   -1    0    0    0    0  0.00000000000E+00  0.00000000000E+00  0.45593999997E+02  0.45594000000E+02  0.51100000000E-03 0. -1.
         11   -1    0    0    0    0 -0.00000000000E+00 -0.00000000000E+00 -0.45593999997E+02  0.45594000000E+02  0.51100000000E-03 0.  1.
    9900012    2    1    2    0    0 -0.70133364126E+01 -0.16847271933E+02  0.42027157219E+01  0.72461540680E+02  0.69999961422E+02 0.  0.
        -12    1    1    2    0    0  0.70133364126E+01  0.16847271933E+02 -0.42027157219E+01  0.18726459320E+02  0.00000000000E+00 0.  1.
         11    1    3    3    0    0 -0.11401852606E+01  0.58028175899E+01  0.18198155445E+02  0.19134930788E+02  0.51100000000E-03 0. -1.
        -11    1    3    3    0    0 -0.23685463898E+02 -0.79424183633E+01  0.22554751688E+01  0.25083268887E+02  0.51100000000E-03 0.  1.
        -12    1    3    3    0    0  0.17812312746E+02 -0.14707671160E+02 -0.16250914892E+02  0.28243341005E+02  0.00000000000E+00 0.  1.
</event>
<event>
 7    1  0.2641045E-013  0.7246153E+02  0.7816164E-02  0.1226708E+00
        -11   -1    0    0    0    0  0.00000000000E+00  0.00000000000E+00  0.45593999997E+02  0.45594000000E+02  0.51100000000E-03 0.  1.
         11   -1    0    0    0    0 -0.00000000000E+00 -0.00000000000E+00 -0.45593999997E+02  0.45594000000E+02  0.51100000000E-03 0. -1.
    9900012    2    1    2    0    0 -0.73620469487E+01  0.14361942812E+02 -0.94981818467E+01  0.72461532234E+02  0.69999950419E+02 0.  0.
        -12    1    1    2    0    0  0.73620469487E+01 -0.14361942812E+02  0.94981818467E+01  0.18726467766E+02  0.00000000000E+00 0.  1.
         11    1    3    3    0    0  0.14949475336E+02 -0.66225891682E+01 -0.22183296674E+02  0.27558014292E+02  0.51100000000E-03 0. -1.
        -11    1    3    3    0    0 -0.13290741742E+02  0.22523173672E+02 -0.34252482129E+01  0.26375547272E+02  0.51100000000E-03 0.  1.
        -12    1    3    3    0    0 -0.90207805430E+01 -0.15386416921E+01  0.16110363040E+02  0.18527970670E+02  0.00000000000E+00 0.  1.
</event>
<event>
 7    1  0.2641045E-013  0.7246149E+02  0.7816164E-02  0.1226708E+00
        -11   -1    0    0    0    0  0.00000000000E+00  0.00000000000E+00  0.45593999997E+02  0.45594000000E+02  0.51100000000E-03 0.  1.
         11   -1    0    0    0    0 -0.00000000000E+00 -0.00000000000E+00 -0.45593999997E+02  0.45594000000E+02  0.51100000000E-03 0. -1.
    9900012    2    1    2    0    0  0.11128268524E+01 -0.11108713386E+02 -0.15034632890E+02  0.72461492509E+02  0.69999898670E+02 0.  0.
        -12    1    1    2    0    0 -0.11128268524E+01  0.11108713386E+02  0.15034632890E+02  0.18726507491E+02  0.00000000000E+00 0.  1.
         11    1    3    3    0    0  0.14147670705E+02  0.22049007738E+02 -0.22040094787E+02  0.34235670098E+02  0.51100000000E-03 0. -1.
        -11    1    3    3    0    0 -0.33764481286E+01 -0.95418752626E+00 -0.10328211843E+01  0.36575395637E+01  0.51100000000E-03 0.  1.
        -12    1    3    3    0    0 -0.96583957236E+01 -0.32203533597E+02  0.80382830818E+01  0.34568282847E+02  0.00000000000E+00 0.  1.
</event>
<event>
 7    1  0.2641045E-013  0.7246179E+02  0.7816164E-02  0.1226707E+00
        -11   -1    0    0    0    0  0.00000000000E+00  0.00000000000E+00  0.45593999997E+02  0.45594000000E+02  0.51100000000E-03 0.  1.
         11   -1    0    0    0    0 -0.00000000000E+00 -0.00000000000E+00 -0.45593999997E+02  0.45594000000E+02  0.51100000000E-03 0. -1.
    9900012    2    1    2    0    0  0.60037741166E+01 -0.16997521829E+02  0.50704768726E+01  0.72461794092E+02  0.70000291538E+02 0.  0.
        -12    1    1    2    0    0 -0.60037741166E+01  0.16997521829E+02 -0.50704768726E+01  0.18726205908E+02  0.00000000000E+00 0.  1.
         11    1    3    3    0    0  0.34159824478E+02 -0.49405757724E+01  0.10799938848E+02  0.36165474927E+02  0.51100000000E-03 0. -1.
        -11    1    3    3    0    0 -0.13617189422E+02 -0.96870920932E+01  0.56945432998E+01  0.17654898036E+02  0.51100000000E-03 0.  1.
        -12    1    3    3    0    0 -0.14538860938E+02 -0.23698539638E+01 -0.11424005276E+02  0.18641421130E+02  0.00000000000E+00 0.  1.
</event>
<event>
 7    1  0.2641045E-013  0.7246158E+02  0.7816164E-02  0.1226708E+00
        -11   -1    0    0    0    0  0.00000000000E+00  0.00000000000E+00  0.45593999997E+02  0.45594000000E+02  0.51100000000E-03 0.  1.
         11   -1    0    0    0    0 -0.00000000000E+00 -0.00000000000E+00 -0.45593999997E+02  0.45594000000E+02  0.51100000000E-03 0. -1.
    9900012    2    1    2    0    0  0.12974967554E+02  0.67964538323E+01 -0.11667780920E+02  0.72461583383E+02  0.70000017050E+02 0.  0.
        -12    1    1    2    0    0 -0.12974967554E+02 -0.67964538323E+01  0.11667780920E+02  0.18726416617E+02  0.00000000000E+00 0.  1.
         11    1    3    3    0    0  0.60941281391E+01  0.23524809849E+02 -0.13520338263E+02  0.27809254273E+02  0.51100000000E-03 0. -1.
        -11    1    3    3    0    0 -0.16476174336E+02 -0.14067005053E+01 -0.10416305523E+01  0.16568890172E+02  0.51100000000E-03 0.  1.
        -12    1    3    3    0    0  0.23357013751E+02 -0.15321655512E+02  0.28941878953E+01  0.28083438938E+02  0.00000000000E+00 0.  1.
</event>
<event>
 7    1  0.2641045E-013  0.7246156E+02  0.7816164E-02  0.1226708E+00
        -11   -1    0    0    0    0  0.00000000000E+00  0.00000000000E+00  0.45593999997E+02  0.45594000000E+02  0.51100000000E-03 0. -1.
         11   -1    0    0    0    0 -0.00000000000E+00 -0.00000000000E+00 -0.45593999997E+02  0.45594000000E+02  0.51100000000E-03 0.  1.
    9900012    2    1    2    0    0  0.15657475924E+02  0.92919142862E+01 -0.43798620922E+01  0.72461563730E+02  0.69999991449E+02 0.  0.
        -12    1    1    2    0    0 -0.15657475924E+02 -0.92919142862E+01  0.43798620922E+01  0.18726436270E+02  0.00000000000E+00 0.  1.
         11    1    3    3    0    0  0.15109776924E+02  0.14686085544E+02 -0.14233281053E+02  0.25427794971E+02  0.51100000000E-03 0. -1.
        -11    1    3    3    0    0 -0.15542031901E+02 -0.15703986383E+02 -0.52106830594E+01  0.22700686380E+02  0.51100000000E-03 0.  1.
         12    1    3    3    0    0  0.16089730900E+02  0.10309815126E+02  0.15064102020E+02  0.24333082379E+02  0.00000000000E+00 0. -1.
</event>
<event>
 7    1  0.2641045E-013  0.7246158E+02  0.7816164E-02  0.1226708E+00
        -11   -1    0    0    0    0  0.00000000000E+00  0.00000000000E+00  0.45593999997E+02  0.45594000000E+02  0.51100000000E-03 0.  1.
         11   -1    0    0    0    0 -0.00000000000E+00 -0.00000000000E+00 -0.45593999997E+02  0.45594000000E+02  0.51100000000E-03 0. -1.
    9900012    2    1    2    0    0 -0.14697949076E+02 -0.68443651395E+01 -0.93703759169E+01  0.72461575194E+02  0.70000006382E+02 0.  0.
        -12    1    1    2    0    0  0.14697949076E+02  0.68443651395E+01  0.93703759169E+01  0.18726424806E+02  0.00000000000E+00 0.  1.
         11    1    3    3    0    0 -0.10318928507E+02  0.11390820400E+02  0.19283653067E+02  0.24659488048E+02  0.51100000000E-03 0. -1.
        -11    1    3    3    0    0 -0.32121452857E+00  0.39358492888E+01  0.55669448302E+01  0.68253178242E+01  0.51100000000E-03 0.  1.
         12    1    3    3    0    0 -0.40578060408E+01 -0.22171034829E+02 -0.34220973814E+02  0.40976769321E+02  0.00000000000E+00 0. -1.
</event>
<event>
 7    1  0.2641045E-013  0.7246156E+02  0.7816164E-02  0.1226708E+00
        -11   -1    0    0    0    0  0.00000000000E+00  0.00000000000E+00  0.45593999997E+02  0.45594000000E+02  0.51100000000E-03 0. -1.
         11   -1    0    0    0    0 -0.00000000000E+00 -0.00000000000E+00 -0.45593999997E+02  0.45594000000E+02  0.51100000000E-03 0.  1.
    9900012    2    1    2    0    0 -0.18548865945E+02  0.12927598865E+01 -0.22243784211E+01  0.72461561061E+02  0.69999987972E+02 0.  0.
        -12    1    1    2    0    0  0.18548865945E+02 -0.12927598865E+01  0.22243784211E+01  0.18726438939E+02  0.00000000000E+00 0.  1.
         11    1    3    3    0    0 -0.16689835834E+02  0.16222104833E+01  0.17841711480E+02  0.24484869937E+02  0.51100000000E-03 0.  1.
        -11    1    3    3    0    0 -0.13085486477E+02  0.16246624755E+02 -0.19070931469E+01  0.20948025606E+02  0.51100000000E-03 0. -1.
        -12    1    3    3    0    0  0.11226456365E+02 -0.16576075351E+02 -0.18158996754E+02  0.27028665518E+02  0.00000000000E+00 0.  1.
</event>
<event>
 7    1  0.2641045E-013  0.7246156E+02  0.7816164E-02  0.1226708E+00
        -11   -1    0    0    0    0  0.00000000000E+00  0.00000000000E+00  0.45593999997E+02  0.45594000000E+02  0.51100000000E-03 0.  1.
         11   -1    0    0    0    0 -0.00000000000E+00 -0.00000000000E+00 -0.45593999997E+02  0.45594000000E+02  0.51100000000E-03 0. -1.
    9900012    2    1    2    0    0  0.18629938548E+02  0.14755828706E+01 -0.11947643814E+01  0.72461563685E+02  0.69999991391E+02 0.  0.
        -12    1    1    2    0    0 -0.18629938548E+02 -0.14755828706E+01  0.11947643814E+01  0.18726436315E+02  0.00000000000E+00 0.  1.
         11    1    3    3    0    0  0.42086830136E+02  0.11179979801E+02  0.16690878503E+01  0.43578424407E+02  0.51100000000E-03 0. -1.
        -11    1    3    3    0    0 -0.93276768898E+01 -0.40126361166E+01  0.54554026073E+01  0.11526847905E+02  0.51100000000E-03 0.  1.
        -12    1    3    3    0    0 -0.14129214699E+02 -0.56917608135E+01 -0.83192548390E+01  0.17356291373E+02  0.00000000000E+00 0.  1.
</event>
<event>
 7    1  0.2641045E-013  0.7246156E+02  0.7816164E-02  0.1226708E+00
        -11   -1    0    0    0    0  0.00000000000E+00  0.00000000000E+00  0.45593999997E+02  0.45594000000E+02  0.51100000000E-03 0. -1.
         11   -1    0    0    0    0 -0.00000000000E+00 -0.00000000000E+00 -0.45593999997E+02  0.45594000000E+02  0.51100000000E-03 0.  1.
    9900012    2    1    2    0    0  0.10857318002E+02 -0.15196869916E+02  0.13613886829E+01  0.72461559105E+02  0.69999985424E+02 0.  0.
        -12    1    1    2    0    0 -0.10857318002E+02  0.15196869916E+02 -0.13613886829E+01  0.18726440895E+02  0.00000000000E+00 0.  1.
         11    1    3    3    0    0  0.14295932061E+02 -0.91282234826E+01 -0.12431857383E+02  0.21029722198E+02  0.51100000000E-03 0.  1.
        -11    1    3    3    0    0 -0.16296271733E+02 -0.20892955738E+02  0.17094539946E+02  0.31532639726E+02  0.51100000000E-03 0. -1.
         12    1    3    3    0    0  0.12857657673E+02  0.14824309304E+02 -0.33012938800E+01  0.19899197181E+02  0.00000000000E+00 0. -1.
</event>
<event>
 7    1  0.2641045E-013  0.7246164E+02  0.7816164E-02  0.1226708E+00
        -11   -1    0    0    0    0  0.00000000000E+00  0.00000000000E+00  0.45593999997E+02  0.45594000000E+02  0.51100000000E-03 0.  1.
         11   -1    0    0    0    0 -0.00000000000E+00 -0.00000000000E+00 -0.45593999997E+02  0.45594000000E+02  0.51100000000E-03 0. -1.
    9900012    2    1    2    0    0 -0.13353378372E+02 -0.36022220542E+00 -0.13123804328E+02  0.72461635857E+02  0.70000085408E+02 0.  0.
        -12    1    1    2    0    0  0.13353378372E+02  0.36022220542E+00  0.13123804328E+02  0.18726364143E+02  0.00000000000E+00 0.  1.
         11    1    3    3    0    0 -0.25750988738E+02 -0.15767560253E+02 -0.31453877124E+02  0.43601327546E+02  0.51100000000E-03 0. -1.
        -11    1    3    3    0    0 -0.16089496435E+01  0.52777485610E+00  0.24611356291E+01  0.29873824830E+01  0.51100000000E-03 0.  1.
        -12    1    3    3    0    0  0.14006560010E+02  0.14879563192E+02  0.15868937167E+02  0.25872925828E+02  0.00000000000E+00 0.  1.
</event>
<event>
 7    1  0.2641045E-013  0.7246151E+02  0.7816164E-02  0.1226708E+00
        -11   -1    0    0    0    0  0.00000000000E+00  0.00000000000E+00  0.45593999997E+02  0.45594000000E+02  0.51100000000E-03 0.  1.
         11   -1    0    0    0    0 -0.00000000000E+00 -0.00000000000E+00 -0.45593999997E+02  0.45594000000E+02  0.51100000000E-03 0. -1.
    9900012    2    1    2    0    0 -0.72674458300E+00  0.59176870891E+01 -0.17752025561E+02  0.72461505675E+02  0.69999915821E+02 0.  0.
        -12    1    1    2    0    0  0.72674458300E+00 -0.59176870891E+01  0.17752025561E+02  0.18726494325E+02  0.00000000000E+00 0.  1.
         11    1    3    3    0    0 -0.94666511233E+01  0.91439435905E+01 -0.16847804082E+02  0.21379375354E+02  0.51100000000E-03 0. -1.
        -11    1    3    3    0    0  0.28137903684E+02 -0.33668649864E+00 -0.94566731046E+01  0.29686421947E+02  0.51100000000E-03 0.  1.
         12    1    3    3    0    0 -0.19397997144E+02 -0.28895700028E+01  0.85524516254E+01  0.21395708374E+02  0.00000000000E+00 0. -1.
</event>
<event>
 7    1  0.2641045E-013  0.7246144E+02  0.7816164E-02  0.1226708E+00
        -11   -1    0    0    0    0  0.00000000000E+00  0.00000000000E+00  0.45593999997E+02  0.45594000000E+02  0.51100000000E-03 0. -1.
         11   -1    0    0    0    0 -0.00000000000E+00 -0.00000000000E+00 -0.45593999997E+02  0.45594000000E+02  0.51100000000E-03 0.  1.
    9900012    2    1    2    0    0 -0.85683229976E+01 -0.16241173666E+02 -0.36731876087E+01  0.72461436294E+02  0.69999825439E+02 0.  0.
        -12    1    1    2    0    0  0.85683229976E+01  0.16241173666E+02  0.36731876087E+01  0.18726563706E+02  0.00000000000E+00 0.  1.
         11    1    3    3    0    0 -0.28986060874E+02 -0.25042780857E+01  0.21126593400E+02  0.35955473612E+02  0.51100000000E-03 0. -1.
        -11    1    3    3    0    0  0.34766484018E+01 -0.27827367579E+01 -0.11526887505E+02  0.12357177824E+02  0.51100000000E-03 0.  1.
        -12    1    3    3    0    0  0.16941089475E+02 -0.10954158822E+02 -0.13272893504E+02  0.24148784857E+02  0.00000000000E+00 0.  1.
</event>
<event>
 7    1  0.2641045E-013  0.7246166E+02  0.7816164E-02  0.1226708E+00
        -11   -1    0    0    0    0  0.00000000000E+00  0.00000000000E+00  0.45593999997E+02  0.45594000000E+02  0.51100000000E-03 0.  1.
         11   -1    0    0    0    0 -0.00000000000E+00 -0.00000000000E+00 -0.45593999997E+02  0.45594000000E+02  0.51100000000E-03 0. -1.
    9900012    2    1    2    0    0 -0.16838325883E+02 -0.77933957195E+01 -0.25317054461E+01  0.72461661120E+02  0.70000118317E+02 0.  0.
        -12    1    1    2    0    0  0.16838325883E+02  0.77933957195E+01  0.25317054461E+01  0.18726338880E+02  0.00000000000E+00 0.  1.
         11    1    3    3    0    0 -0.58948131427E+01  0.65361441554E+01 -0.20189824886E+02  0.22024963828E+02  0.51100000000E-03 0. -1.
        -11    1    3    3    0    0  0.15248027149E+02  0.33443051884E+01  0.49015667936E+01  0.16361909009E+02  0.51100000000E-03 0.  1.
         12    1    3    3    0    0 -0.26191539890E+02 -0.17673845063E+02  0.12756552647E+02  0.34074788283E+02  0.00000000000E+00 0. -1.
</event>
<event>
 7    1  0.2641045E-013  0.7246164E+02  0.7816164E-02  0.1226708E+00
        -11   -1    0    0    0    0  0.00000000000E+00  0.00000000000E+00  0.45593999997E+02  0.45594000000E+02  0.51100000000E-03 0. -1.
         11   -1    0    0    0    0 -0.00000000000E+00 -0.00000000000E+00 -0.45593999997E+02  0.45594000000E+02  0.51100000000E-03 0.  1.
    9900012    2    1    2    0    0  0.83945750595E+01 -0.82187747537E+01  0.14582847099E+02  0.72461639479E+02  0.70000090125E+02 0.  0.
        -12    1    1    2    0    0 -0.83945750595E+01  0.82187747537E+01 -0.14582847099E+02  0.18726360521E+02  0.00000000000E+00 0.  1.
         11    1    3    3    0    0 -0.37631307366E+01 -0.72838495698E+00 -0.19125403699E+02  0.19505711073E+02  0.51100000000E-03 0. -1.
        -11    1    3    3    0    0  0.75148397830E+01  0.14619817381E+02  0.67176589357E+01  0.17757781930E+02  0.51100000000E-03 0.  1.
         12    1    3    3    0    0  0.46428660131E+01 -0.22110207178E+02  0.26990591861E+02  0.35198146475E+02  0.00000000000E+00 0. -1.
</event>
<event>
 7    1  0.2641045E-013  0.7246141E+02  0.7816164E-02  0.1226708E+00
        -11   -1    0    0    0    0  0.00000000000E+00  0.00000000000E+00  0.45593999997E+02  0.45594000000E+02  0.51100000000E-03 0.  1.
         11   -1    0    0    0    0 -0.00000000000E+00 -0.00000000000E+00 -0.45593999997E+02  0.45594000000E+02  0.51100000000E-03 0. -1.
    9900012    2    1    2    0    0  0.10524397836E+01 -0.16077604515E+02 -0.95440214103E+01  0.72461405512E+02  0.69999785339E+02 0.  0.
        -12    1    1    2    0    0 -0.10524397836E+01  0.16077604515E+02  0.95440214103E+01  0.18726594488E+02  0.00000000000E+00 0.  1.
         11    1    3    3    0    0  0.19030211690E+01 -0.21168892099E+02 -0.29205244042E+02  0.36120489505E+02  0.51100000000E-03 0. -1.
        -11    1    3    3    0    0 -0.11800495831E+02  0.61897415931E+01 -0.54040060996E+00  0.13336290186E+02  0.51100000000E-03 0.  1.
        -12    1    3    3    0    0  0.10949914445E+02 -0.10984540097E+01  0.20201623241E+02  0.23004625821E+02  0.00000000000E+00 0.  1.
</event>
<event>
 7    1  0.2641045E-013  0.7246155E+02  0.7816164E-02  0.1226708E+00
        -11   -1    0    0    0    0  0.00000000000E+00  0.00000000000E+00  0.45593999997E+02  0.45594000000E+02  0.51100000000E-03 0. -1.
         11   -1    0    0    0    0 -0.00000000000E+00 -0.00000000000E+00 -0.45593999997E+02  0.45594000000E+02  0.51100000000E-03 0.  1.
    9900012    2    1    2    0    0  0.14977187567E+02  0.10310062078E+02  0.44795422267E+01  0.72461552765E+02  0.69999977165E+02 0.  0.
        -12    1    1    2    0    0 -0.14977187567E+02 -0.10310062078E+02 -0.44795422267E+01  0.18726447235E+02  0.00000000000E+00 0.  1.
         11    1    3    3    0    0  0.44453156412E+01 -0.20547975182E+02  0.83108007284E+01  0.22606404496E+02  0.51100000000E-03 0.  1.
        -11    1    3    3    0    0  0.17838596889E+02  0.20164054124E+02  0.11936723194E+02  0.29449787411E+02  0.51100000000E-03 0. -1.
        -12    1    3    3    0    0 -0.73067249626E+01  0.10693983136E+02 -0.15767981696E+02  0.20405360858E+02  0.00000000000E+00 0.  1.
</event>
<event>
 7    1  0.2641045E-013  0.7246156E+02  0.7816164E-02  0.1226708E+00
        -11   -1    0    0    0    0  0.00000000000E+00  0.00000000000E+00  0.45593999997E+02  0.45594000000E+02  0.51100000000E-03 0.  1.
         11   -1    0    0    0    0 -0.00000000000E+00 -0.00000000000E+00 -0.45593999997E+02  0.45594000000E+02  0.51100000000E-03 0. -1.
    9900012    2    1    2    0    0  0.36251215425E+01  0.18149911338E+02 -0.28493404958E+01  0.72461560695E+02  0.69999987495E+02 0.  0.
        -12    1    1    2    0    0 -0.36251215425E+01 -0.18149911338E+02  0.28493404958E+01  0.18726439305E+02  0.00000000000E+00 0.  1.
         11    1    3    3    0    0 -0.11925153048E+01  0.86473944693E+01 -0.61698395466E+01  0.10689548361E+02  0.51100000000E-03 0. -1.
        -11    1    3    3    0    0  0.22753618461E+02  0.23347013925E+02  0.15444938173E+02  0.36074316733E+02  0.51100000000E-03 0.  1.
         12    1    3    3    0    0 -0.17935981614E+02 -0.13844497056E+02 -0.12124439122E+02  0.25697695601E+02  0.00000000000E+00 0. -1.
</event>
<event>
 7    1  0.2641045E-013  0.7246152E+02  0.7816164E-02  0.1226708E+00
        -11   -1    0    0    0    0  0.00000000000E+00  0.00000000000E+00  0.45593999997E+02  0.45594000000E+02  0.51100000000E-03 0.  1.
         11   -1    0    0    0    0 -0.00000000000E+00 -0.00000000000E+00 -0.45593999997E+02  0.45594000000E+02  0.51100000000E-03 0. -1.
    9900012    2    1    2    0    0 -0.24811906497E+00 -0.11826115995E+02 -0.14517667092E+02  0.72461515001E+02  0.69999927971E+02 0.  0.
        -12    1    1    2    0    0  0.24811906497E+00  0.11826115995E+02  0.14517667092E+02  0.18726484999E+02  0.00000000000E+00 0.  1.
         11    1    3    3    0    0 -0.15728810127E+01  0.24926554676E+01 -0.11325732996E+02  0.11702970312E+02  0.51100000000E-03 0. -1.
        -11    1    3    3    0    0  0.29220303633E+02 -0.77311930863E+01 -0.89501382385E+01  0.31523046580E+02  0.51100000000E-03 0.  1.
         12    1    3    3    0    0 -0.27895541685E+02 -0.65875783764E+01  0.57582041426E+01  0.29235498109E+02  0.00000000000E+00 0. -1.
</event>
<event>
 7    1  0.2641045E-013  0.7246154E+02  0.7816164E-02  0.1226708E+00
        -11   -1    0    0    0    0  0.00000000000E+00  0.00000000000E+00  0.45593999997E+02  0.45594000000E+02  0.51100000000E-03 0. -1.
         11   -1    0    0    0    0 -0.00000000000E+00 -0.00000000000E+00 -0.45593999997E+02  0.45594000000E+02  0.51100000000E-03 0.  1.
    9900012    2    1    2    0    0  0.14568926474E+02 -0.92786589852E+01 -0.72341636441E+01  0.72461541317E+02  0.69999962252E+02 0.  0.
        -12    1    1    2    0    0 -0.14568926474E+02  0.92786589852E+01  0.72341636441E+01  0.18726458683E+02  0.00000000000E+00 0.  1.
         11    1    3    3    0    0  0.64305959806E+01 -0.13645902170E+01  0.19649831851E+02  0.20720293511E+02  0.51100000000E-03 0. -1.
        -11    1    3    3    0    0  0.21718464260E+02 -0.17088186067E+02 -0.19134099296E+02  0.33612669472E+02  0.51100000000E-03 0.  1.
         12    1    3    3    0    0 -0.13580133766E+02  0.91741172991E+01 -0.77498961994E+01  0.18128578335E+02  0.00000000000E+00 0. -1.
</event>
<event>
 7    1  0.2641045E-013  0.7246159E+02  0.7816164E-02  0.1226708E+00
        -11   -1    0    0    0    0  0.00000000000E+00  0.00000000000E+00  0.45593999997E+02  0.45594000000E+02  0.51100000000E-03 0.  1.
         11   -1    0    0    0    0 -0.00000000000E+00 -0.00000000000E+00 -0.45593999997E+02  0.45594000000E+02  0.51100000000E-03 0. -1.
    9900012    2    1    2    0    0 -0.81068580909E+01  0.35911846743E+01 -0.16494260865E+02  0.72461590922E+02  0.70000026871E+02 0.  0.
        -12    1    1    2    0    0  0.81068580909E+01 -0.35911846743E+01  0.16494260865E+02  0.18726409078E+02  0.00000000000E+00 0.  1.
         11    1    3    3    0    0 -0.50969638679E+01  0.14287187411E+02 -0.70642585883E+01  0.16733395186E+02  0.51100000000E-03 0. -1.
        -11    1    3    3    0    0 -0.30941102111E+01  0.88252676385E+01  0.19037378917E+02  0.21210390453E+02  0.51100000000E-03 0.  1.
        -12    1    3    3    0    0  0.84215988123E-01 -0.19521270376E+02 -0.28467381194E+02  0.34517805282E+02  0.00000000000E+00 0.  1.
</event>
<event>
 7    1  0.2641045E-013  0.7246159E+02  0.7816164E-02  0.1226708E+00
        -11   -1    0    0    0    0  0.00000000000E+00  0.00000000000E+00  0.45593999997E+02  0.45594000000E+02  0.51100000000E-03 0.  1.
         11   -1    0    0    0    0 -0.00000000000E+00 -0.00000000000E+00 -0.45593999997E+02  0.45594000000E+02  0.51100000000E-03 0. -1.
    9900012    2    1    2    0    0 -0.51665228104E+00  0.55843761802E+01 -0.17866905267E+02  0.72461588418E+02  0.70000023609E+02 0.  0.
        -12    1    1    2    0    0  0.51665228104E+00 -0.55843761802E+01  0.17866905267E+02  0.18726411582E+02  0.00000000000E+00 0.  1.
         11    1    3    3    0    0 -0.49790149339E+01  0.86997229758E+00  0.40112866775E+01  0.64527407031E+01  0.51100000000E-03 0. -1.
        -11    1    3    3    0    0 -0.10255732089E+02  0.20779222313E+02 -0.33947092403E+02  0.41101839418E+02  0.51100000000E-03 0.  1.
         12    1    3    3    0    0  0.14718094742E+02 -0.16064818431E+02  0.12068900458E+02  0.24907008297E+02  0.00000000000E+00 0. -1.
</event>
<event>
 7    1  0.2641045E-013  0.7246162E+02  0.7816164E-02  0.1226708E+00
        -11   -1    0    0    0    0  0.00000000000E+00  0.00000000000E+00  0.45593999997E+02  0.45594000000E+02  0.51100000000E-03 0.  1.
         11   -1    0    0    0    0 -0.00000000000E+00 -0.00000000000E+00 -0.45593999997E+02  0.45594000000E+02  0.51100000000E-03 0. -1.
    9900012    2    1    2    0    0  0.16853217306E+02 -0.49519618490E+01 -0.64903436091E+01  0.72461617010E+02  0.70000060856E+02 0.  0.
        -12    1    1    2    0    0 -0.16853217306E+02  0.49519618490E+01  0.64903436091E+01  0.18726382990E+02  0.00000000000E+00 0.  1.
         11    1    3    3    0    0 -0.75533043818E+01  0.32543295092E+01  0.80031552309E+01  0.11475781522E+02  0.51100000000E-03 0.  1.
        -11    1    3    3    0    0  0.32265900226E+02  0.12640349421E+02 -0.16940987748E+02  0.38572837814E+02  0.51100000000E-03 0. -1.
         12    1    3    3    0    0 -0.78593785387E+01 -0.20846640779E+02  0.24474889082E+01  0.22412997674E+02  0.00000000000E+00 0. -1.
</event>
<event>
 7    1  0.2641045E-013  0.7246155E+02  0.7816164E-02  0.1226708E+00
        -11   -1    0    0    0    0  0.00000000000E+00  0.00000000000E+00  0.45593999997E+02  0.45594000000E+02  0.51100000000E-03 0. -1.
         11   -1    0    0    0    0 -0.00000000000E+00 -0.00000000000E+00 -0.45593999997E+02  0.45594000000E+02  0.51100000000E-03 0.  1.
    9900012    2    1    2    0    0 -0.78316573626E+01 -0.13122953248E+02  0.10822806678E+02  0.72461550700E+02  0.69999974475E+02 0.  0.
        -12    1    1    2    0    0  0.78316573626E+01  0.13122953248E+02 -0.10822806678E+02  0.18726449300E+02  0.00000000000E+00 0.  1.
         11    1    3    3    0    0  0.88454710376E+00  0.83492674377E+01 -0.17330130612E+02  0.19256845994E+02  0.51100000000E-03 0. -1.
        -11    1    3    3    0    0 -0.11985376102E+02  0.33390060362E+01 -0.34326553526E+01  0.12906638782E+02  0.51100000000E-03 0.  1.
         12    1    3    3    0    0  0.32691716356E+01 -0.24811226722E+02  0.31585592643E+02  0.40298065924E+02  0.00000000000E+00 0. -1.
</event>
<event>
 7    1  0.2641045E-013  0.7246156E+02  0.7816164E-02  0.1226708E+00
        -11   -1    0    0    0    0  0.00000000000E+00  0.00000000000E+00  0.45593999997E+02  0.45594000000E+02  0.51100000000E-03 0.  1.
         11   -1    0    0    0    0 -0.00000000000E+00 -0.00000000000E+00 -0.45593999997E+02  0.45594000000E+02  0.51100000000E-03 0. -1.
    9900012    2    1    2    0    0 -0.76513100043E+01  0.61639019156E+01 -0.15941869059E+02  0.72461563588E+02  0.69999991264E+02 0.  0.
        -12    1    1    2    0    0  0.76513100043E+01 -0.61639019156E+01  0.15941869059E+02  0.18726436412E+02  0.00000000000E+00 0.  1.
         11    1    3    3    0    0  0.93685415020E+01 -0.67307326660E+01 -0.33277496400E+02  0.35220222870E+02  0.51100000000E-03 0. -1.
        -11    1    3    3    0    0 -0.69891100819E+01 -0.63858016402E+01  0.42514868908E-01  0.94672028657E+01  0.51100000000E-03 0.  1.
        -12    1    3    3    0    0 -0.10030741424E+02  0.19280436222E+02  0.17293112473E+02  0.27774137852E+02  0.00000000000E+00 0.  1.
</event>
<event>
 7    1  0.2641045E-013  0.7246157E+02  0.7816164E-02  0.1226708E+00
        -11   -1    0    0    0    0  0.00000000000E+00  0.00000000000E+00  0.45593999997E+02  0.45594000000E+02  0.51100000000E-03 0.  1.
         11   -1    0    0    0    0 -0.00000000000E+00 -0.00000000000E+00 -0.45593999997E+02  0.45594000000E+02  0.51100000000E-03 0. -1.
    9900012    2    1    2    0    0 -0.32781475414E+01  0.17511914044E+02 -0.57676403853E+01  0.72461573207E+02  0.70000003795E+02 0.  0.
        -12    1    1    2    0    0  0.32781475414E+01 -0.17511914044E+02  0.57676403853E+01  0.18726426793E+02  0.00000000000E+00 0.  1.
         11    1    3    3    0    0 -0.46472118653E+01 -0.16982997230E+01 -0.28272741344E+02  0.28702416335E+02  0.51100000000E-03 0. -1.
        -11    1    3    3    0    0  0.68208806264E+01 -0.59498805947E+01 -0.72953033932E+00  0.90806225771E+01  0.51100000000E-03 0.  1.
        -12    1    3    3    0    0 -0.54518163025E+01  0.25160094362E+02  0.23234631298E+02  0.34678534296E+02  0.00000000000E+00 0.  1.
</event>
<event>
 7    1  0.2641045E-013  0.7246178E+02  0.7816164E-02  0.1226707E+00
        -11   -1    0    0    0    0  0.00000000000E+00  0.00000000000E+00  0.45593999997E+02  0.45594000000E+02  0.51100000000E-03 0.  1.
         11   -1    0    0    0    0 -0.00000000000E+00 -0.00000000000E+00 -0.45593999997E+02  0.45594000000E+02  0.51100000000E-03 0. -1.
    9900012    2    1    2    0    0 -0.83034998168E+01 -0.10013904663E+02 -0.13470143412E+02  0.72461784169E+02  0.70000278610E+02 0.  0.
        -12    1    1    2    0    0  0.83034998168E+01  0.10013904663E+02  0.13470143412E+02  0.18726215831E+02  0.00000000000E+00 0.  1.
         11    1    3    3    0    0  0.14053871977E+02  0.13006895571E+02  0.80611274685E+01  0.20776727997E+02  0.51100000000E-03 0. -1.
        -11    1    3    3    0    0 -0.14550129722E+02 -0.11220435388E+01  0.58877797534E+01  0.15736302212E+02  0.51100000000E-03 0.  1.
         12    1    3    3    0    0 -0.78072420718E+01 -0.21898756695E+02 -0.27419050634E+02  0.35948753960E+02  0.00000000000E+00 0. -1.
</event>
<event>
 7    1  0.2641045E-013  0.7246157E+02  0.7816164E-02  0.1226708E+00
        -11   -1    0    0    0    0  0.00000000000E+00  0.00000000000E+00  0.45593999997E+02  0.45594000000E+02  0.51100000000E-03 0. -1.
         11   -1    0    0    0    0 -0.00000000000E+00 -0.00000000000E+00 -0.45593999997E+02  0.45594000000E+02  0.51100000000E-03 0.  1.
    9900012    2    1    2    0    0 -0.56759619255E+01 -0.16817161838E+02  0.59703869921E+01  0.72461574903E+02  0.70000006004E+02 0.  0.
        -12    1    1    2    0    0  0.56759619255E+01  0.16817161838E+02 -0.59703869921E+01  0.18726425097E+02  0.00000000000E+00 0.  1.
         11    1    3    3    0    0 -0.20060349440E+02  0.38175125770E+01 -0.24598281912E+02  0.31969774713E+02  0.51100000000E-03 0.  1.
        -11    1    3    3    0    0  0.47720760210E+00 -0.67981071020E+01  0.96460263367E+01  0.11810495824E+02  0.51100000000E-03 0. -1.
        -12    1    3    3    0    0  0.13907179912E+02 -0.13836567313E+02  0.20922642567E+02  0.28681304366E+02  0.00000000000E+00 0.  1.
</event>
<event>
 7    1  0.2641045E-013  0.7246212E+02  0.7816164E-02  0.1226707E+00
        -11   -1    0    0    0    0  0.00000000000E+00  0.00000000000E+00  0.45593999997E+02  0.45594000000E+02  0.51100000000E-03 0.  1.
         11   -1    0    0    0    0 -0.00000000000E+00 -0.00000000000E+00 -0.45593999997E+02  0.45594000000E+02  0.51100000000E-03 0. -1.
    9900012    2    1    2    0    0  0.69691756304E+01  0.79603593433E+01 -0.15450631663E+02  0.72462115545E+02  0.70000710287E+02 0.  0.
        -12    1    1    2    0    0 -0.69691756304E+01 -0.79603593433E+01  0.15450631663E+02  0.18725884455E+02  0.00000000000E+00 0.  1.
         11    1    3    3    0    0 -0.20818222140E+01  0.70381392416E+01 -0.43216939078E+01  0.85174189875E+01  0.51100000000E-03 0. -1.
        -11    1    3    3    0    0 -0.51640892201E+01  0.28654252171E+02  0.38488298537E+01  0.29369158593E+02  0.51100000000E-03 0.  1.
         12    1    3    3    0    0  0.14215087065E+02 -0.27732032070E+02 -0.14977767609E+02  0.34575537964E+02  0.00000000000E+00 0. -1.
</event>
<event>
 7    1  0.2641045E-013  0.7246153E+02  0.7816164E-02  0.1226708E+00
        -11   -1    0    0    0    0  0.00000000000E+00  0.00000000000E+00  0.45593999997E+02  0.45594000000E+02  0.51100000000E-03 0.  1.
         11   -1    0    0    0    0 -0.00000000000E+00 -0.00000000000E+00 -0.45593999997E+02  0.45594000000E+02  0.51100000000E-03 0. -1.
    9900012    2    1    2    0    0  0.87692578976E+01 -0.15782626017E+02 -0.49688512494E+01  0.72461530744E+02  0.69999948478E+02 0.  0.
        -12    1    1    2    0    0 -0.87692578976E+01  0.15782626017E+02  0.49688512494E+01  0.18726469256E+02  0.00000000000E+00 0.  1.
         11    1    3    3    0    0 -0.17048336536E+02 -0.21569596918E+02 -0.23384098722E+02  0.36093065305E+02  0.51100000000E-03 0. -1.
        -11    1    3    3    0    0 -0.16915930258E+01  0.30784720050E+01  0.83860908301E+00  0.36113352525E+01  0.51100000000E-03 0.  1.
        -12    1    3    3    0    0  0.27509187459E+02  0.27084988959E+01  0.17576638389E+02  0.32757130186E+02  0.00000000000E+00 0.  1.
</event>
<event>
 7    1  0.2641045E-013  0.7246159E+02  0.7816164E-02  0.1226708E+00
        -11   -1    0    0    0    0  0.00000000000E+00  0.00000000000E+00  0.45593999997E+02  0.45594000000E+02  0.51100000000E-03 0. -1.
         11   -1    0    0    0    0 -0.00000000000E+00 -0.00000000000E+00 -0.45593999997E+02  0.45594000000E+02  0.51100000000E-03 0.  1.
    9900012    2    1    2    0    0 -0.10964087973E+02  0.12589126701E+02  0.84841702046E+01  0.72461588699E+02  0.70000023975E+02 0.  0.
        -12    1    1    2    0    0  0.10964087973E+02 -0.12589126701E+02 -0.84841702046E+01  0.18726411301E+02  0.00000000000E+00 0.  1.
         11    1    3    3    0    0 -0.41450606352E+01 -0.29605025958E+01 -0.66629600963E+01  0.83869625488E+01  0.51100000000E-03 0. -1.
        -11    1    3    3    0    0 -0.84273265021E+01 -0.19057363825E+02 -0.80966454342E+01  0.22355281601E+02  0.51100000000E-03 0.  1.
        -12    1    3    3    0    0  0.16082991648E+01  0.34606993122E+02  0.23243775735E+02  0.41719344549E+02  0.00000000000E+00 0.  1.
</event>
<event>
 7    1  0.2641045E-013  0.7246165E+02  0.7816164E-02  0.1226708E+00
        -11   -1    0    0    0    0  0.00000000000E+00  0.00000000000E+00  0.45593999997E+02  0.45594000000E+02  0.51100000000E-03 0. -1.
         11   -1    0    0    0    0 -0.00000000000E+00 -0.00000000000E+00 -0.45593999997E+02  0.45594000000E+02  0.51100000000E-03 0.  1.
    9900012    2    1    2    0    0  0.18369531124E+02  0.99006850190E+00  0.35009109467E+01  0.72461647264E+02  0.70000100267E+02 0.  0.
        -12    1    1    2    0    0 -0.18369531124E+02 -0.99006850190E+00 -0.35009109467E+01  0.18726352736E+02  0.00000000000E+00 0.  1.
         11    1    3    3    0    0  0.10187867035E+02  0.17302534659E+02  0.75943164064E+01  0.21467277011E+02  0.51100000000E-03 0. -1.
        -11    1    3    3    0    0  0.27610985270E+02 -0.81486034569E+01  0.25403471894E+01  0.28900166262E+02  0.51100000000E-03 0.  1.
         12    1    3    3    0    0 -0.19429321181E+02 -0.81638626999E+01 -0.66337526491E+01  0.22094203990E+02  0.00000000000E+00 0. -1.
</event>
<event>
 7    1  0.2641045E-013  0.7246150E+02  0.7816164E-02  0.1226708E+00
        -11   -1    0    0    0    0  0.00000000000E+00  0.00000000000E+00  0.45593999997E+02  0.45594000000E+02  0.51100000000E-03 0. -1.
         11   -1    0    0    0    0 -0.00000000000E+00 -0.00000000000E+00 -0.45593999997E+02  0.45594000000E+02  0.51100000000E-03 0.  1.
    9900012    2    1    2    0    0 -0.15082099544E+02 -0.94783944525E+01  0.57768511132E+01  0.72461502815E+02  0.69999912095E+02 0.  0.
        -12    1    1    2    0    0  0.15082099544E+02  0.94783944525E+01 -0.57768511132E+01  0.18726497185E+02  0.00000000000E+00 0.  1.
         11    1    3    3    0    0 -0.61103868373E+01  0.13855365891E+01  0.99406871051E+01  0.11750480812E+02  0.51100000000E-03 0. -1.
        -11    1    3    3    0    0  0.61069882718E+00  0.35275904381E+01  0.25837405385E+02  0.26084255110E+02  0.51100000000E-03 0.  1.
        -12    1    3    3    0    0 -0.95824115337E+01 -0.14391521480E+02 -0.30001241376E+02  0.34626766893E+02  0.00000000000E+00 0.  1.
</event>
<event>
 7    1  0.2641045E-013  0.7246158E+02  0.7816164E-02  0.1226708E+00
        -11   -1    0    0    0    0  0.00000000000E+00  0.00000000000E+00  0.45593999997E+02  0.45594000000E+02  0.51100000000E-03 0. -1.
         11   -1    0    0    0    0 -0.00000000000E+00 -0.00000000000E+00 -0.45593999997E+02  0.45594000000E+02  0.51100000000E-03 0.  1.
    9900012    2    1    2    0    0 -0.14582008466E+02 -0.64578337035E+01  0.98153018637E+01  0.72461581823E+02  0.70000015019E+02 0.  0.
        -12    1    1    2    0    0  0.14582008466E+02  0.64578337035E+01 -0.98153018637E+01  0.18726418177E+02  0.00000000000E+00 0.  1.
         11    1    3    3    0    0  0.11705406322E+01 -0.81275709642E+01  0.88018836496E+01  0.12037471960E+02  0.51100000000E-03 0. -1.
        -11    1    3    3    0    0 -0.28992901226E+02 -0.19850438718E+02  0.11649698965E+01  0.35156583935E+02  0.51100000000E-03 0.  1.
         12    1    3    3    0    0  0.13240352128E+02  0.21520175979E+02 -0.15155168235E+00  0.25267525929E+02  0.00000000000E+00 0. -1.
</event>
<event>
 7    1  0.2641045E-013  0.7246154E+02  0.7816164E-02  0.1226708E+00
        -11   -1    0    0    0    0  0.00000000000E+00  0.00000000000E+00  0.45593999997E+02  0.45594000000E+02  0.51100000000E-03 0.  1.
         11   -1    0    0    0    0 -0.00000000000E+00 -0.00000000000E+00 -0.45593999997E+02  0.45594000000E+02  0.51100000000E-03 0. -1.
    9900012    2    1    2    0    0 -0.81827229946E+01  0.13133801161E+02 -0.10546409415E+02  0.72461536370E+02  0.69999955807E+02 0.  0.
        -12    1    1    2    0    0  0.81827229946E+01 -0.13133801161E+02  0.10546409415E+02  0.18726463630E+02  0.00000000000E+00 0.  1.
         11    1    3    3    0    0 -0.52340094873E+01  0.64497567715E+01  0.61665827867E+00  0.83291347341E+01  0.51100000000E-03 0. -1.
        -11    1    3    3    0    0 -0.60367827905E+01  0.28588271725E+02  0.12464132502E+02  0.31766123874E+02  0.51100000000E-03 0.  1.
        -12    1    3    3    0    0  0.30880692833E+01 -0.21904227335E+02 -0.23627200195E+02  0.32366277761E+02  0.00000000000E+00 0.  1.
</event>
<event>
 7    1  0.2641045E-013  0.7246158E+02  0.7816164E-02  0.1226708E+00
        -11   -1    0    0    0    0  0.00000000000E+00  0.00000000000E+00  0.45593999997E+02  0.45594000000E+02  0.51100000000E-03 0. -1.
         11   -1    0    0    0    0 -0.00000000000E+00 -0.00000000000E+00 -0.45593999997E+02  0.45594000000E+02  0.51100000000E-03 0.  1.
    9900012    2    1    2    0    0  0.83402646619E+00 -0.12849062662E+02  0.13597229630E+02  0.72461583764E+02  0.70000017547E+02 0.  0.
        -12    1    1    2    0    0 -0.83402646619E+00  0.12849062662E+02 -0.13597229630E+02  0.18726416236E+02  0.00000000000E+00 0.  1.
         11    1    3    3    0    0  0.11678509520E+02 -0.40606485098E+01  0.55758283474E+01  0.13563418188E+02  0.51100000000E-03 0. -1.
        -11    1    3    3    0    0  0.19532736346E+02 -0.10192660310E+02  0.16271317025E+02  0.27389302133E+02  0.51100000000E-03 0.  1.
         12    1    3    3    0    0 -0.30377219399E+02  0.14042461578E+01 -0.82499157424E+01  0.31508863443E+02  0.00000000000E+00 0. -1.
</event>
<event>
 7    1  0.2641045E-013  0.7246162E+02  0.7816164E-02  0.1226708E+00
        -11   -1    0    0    0    0  0.00000000000E+00  0.00000000000E+00  0.45593999997E+02  0.45594000000E+02  0.51100000000E-03 0.  1.
         11   -1    0    0    0    0 -0.00000000000E+00 -0.00000000000E+00 -0.45593999997E+02  0.45594000000E+02  0.51100000000E-03 0. -1.
    9900012    2    1    2    0    0  0.17775953546E+02 -0.34396034608E+01 -0.47813941315E+01  0.72461624850E+02  0.70000071068E+02 0.  0.
        -12    1    1    2    0    0 -0.17775953546E+02  0.34396034608E+01  0.47813941315E+01  0.18726375150E+02  0.00000000000E+00 0.  1.
         11    1    3    3    0    0  0.22488764036E+02 -0.26937776468E+02 -0.12470234575E+02  0.37241039990E+02  0.51100000000E-03 0. -1.
        -11    1    3    3    0    0 -0.77153771776E+01 -0.17974890728E+01  0.55193764145E+01  0.96551296328E+01  0.51100000000E-03 0.  1.
        -12    1    3    3    0    0  0.30025666877E+01  0.25295662080E+02  0.21694640287E+01  0.25565455227E+02  0.00000000000E+00 0.  1.
</event>
<event>
 7    1  0.2641045E-013  0.7246161E+02  0.7816164E-02  0.1226708E+00
        -11   -1    0    0    0    0  0.00000000000E+00  0.00000000000E+00  0.45593999997E+02  0.45594000000E+02  0.51100000000E-03 0.  1.
         11   -1    0    0    0    0 -0.00000000000E+00 -0.00000000000E+00 -0.45593999997E+02  0.45594000000E+02  0.51100000000E-03 0. -1.
    9900012    2    1    2    0    0  0.38957936335E+01  0.88823847769E+01 -0.16018856910E+02  0.72461608354E+02  0.70000049580E+02 0.  0.
        -12    1    1    2    0    0 -0.38957936335E+01 -0.88823847769E+01  0.16018856910E+02  0.18726391646E+02  0.00000000000E+00 0.  1.
         11    1    3    3    0    0  0.19241923421E+01 -0.29841878624E+01  0.12381423338E+01  0.37604374835E+01  0.51100000000E-03 0. -1.
        -11    1    3    3    0    0  0.30747259697E+02  0.19868888001E+02 -0.86129184713E+01  0.37607832351E+02  0.51100000000E-03 0.  1.
         12    1    3    3    0    0 -0.28775658406E+02 -0.80023153620E+01 -0.86440807728E+01  0.31093338519E+02  0.00000000000E+00 0. -1.
</event>
<event>
 7    1  0.2641045E-013  0.7246156E+02  0.7816164E-02  0.1226708E+00
        -11   -1    0    0    0    0  0.00000000000E+00  0.00000000000E+00  0.45593999997E+02  0.45594000000E+02  0.51100000000E-03 0. -1.
         11   -1    0    0    0    0 -0.00000000000E+00 -0.00000000000E+00 -0.45593999997E+02  0.45594000000E+02  0.51100000000E-03 0.  1.
    9900012    2    1    2    0    0 -0.11802456732E+00  0.18455928062E+02  0.31692541506E+01  0.72461564613E+02  0.69999992599E+02 0.  0.
        -12    1    1    2    0    0  0.11802456732E+00 -0.18455928062E+02 -0.31692541506E+01  0.18726435387E+02  0.00000000000E+00 0.  1.
         11    1    3    3    0    0  0.61064029353E+01  0.73061824121E+01 -0.28605969919E+02  0.30149128901E+02  0.51100000000E-03 0. -1.
        -11    1    3    3    0    0  0.18882347958E+01  0.11663552406E+01 -0.38455094919E+01  0.44400178721E+01  0.51100000000E-03 0.  1.
         12    1    3    3    0    0 -0.81126622984E+01  0.99833904092E+01  0.35620733561E+02  0.37872417840E+02  0.00000000000E+00 0. -1.
</event>
<event>
 7    1  0.2641045E-013  0.7246148E+02  0.7816164E-02  0.1226708E+00
        -11   -1    0    0    0    0  0.00000000000E+00  0.00000000000E+00  0.45593999997E+02  0.45594000000E+02  0.51100000000E-03 0. -1.
         11   -1    0    0    0    0 -0.00000000000E+00 -0.00000000000E+00 -0.45593999997E+02  0.45594000000E+02  0.51100000000E-03 0.  1.
    9900012    2    1    2    0    0  0.81982609742E+01  0.94688058411E+01  0.13921669770E+02  0.72461477198E+02  0.69999878725E+02 0.  0.
        -12    1    1    2    0    0 -0.81982609742E+01 -0.94688058411E+01 -0.13921669770E+02  0.18726522802E+02  0.00000000000E+00 0.  1.
         11    1    3    3    0    0 -0.38563353651E+01 -0.13845464231E+02  0.87300397947E+01  0.16816117189E+02  0.51100000000E-03 0. -1.
        -11    1    3    3    0    0  0.25999857301E+01 -0.15019141696E+02  0.53759580868E+01  0.16162780352E+02  0.51100000000E-03 0.  1.
        -12    1    3    3    0    0  0.94546106091E+01  0.38333411768E+02 -0.18432811147E+00  0.39482579658E+02  0.00000000000E+00 0.  1.
</event>
<event>
 7    1  0.2641045E-013  0.7246160E+02  0.7816164E-02  0.1226708E+00
        -11   -1    0    0    0    0  0.00000000000E+00  0.00000000000E+00  0.45593999997E+02  0.45594000000E+02  0.51100000000E-03 0.  1.
         11   -1    0    0    0    0 -0.00000000000E+00 -0.00000000000E+00 -0.45593999997E+02  0.45594000000E+02  0.51100000000E-03 0. -1.
    9900012    2    1    2    0    0 -0.97958033747E+01 -0.15956118939E+02  0.35015570625E+00  0.72461598734E+02  0.70000037048E+02 0.  0.
        -12    1    1    2    0    0  0.97958033747E+01  0.15956118939E+02 -0.35015570625E+00  0.18726401266E+02  0.00000000000E+00 0.  1.
         11    1    3    3    0    0  0.14216914836E+02  0.56747203943E+01  0.23055028894E+01  0.15480260426E+02  0.51100000000E-03 0. -1.
        -11    1    3    3    0    0 -0.88601175357E+00  0.11164956130E+02  0.10098222026E+02  0.15080296767E+02  0.51100000000E-03 0.  1.
        -12    1    3    3    0    0 -0.23126706457E+02 -0.32795795463E+02 -0.12053569209E+02  0.41901041542E+02  0.00000000000E+00 0.  1.
</event>
<event>
 7    1  0.2641045E-013  0.7246198E+02  0.7816164E-02  0.1226707E+00
        -11   -1    0    0    0    0  0.00000000000E+00  0.00000000000E+00  0.45593999997E+02  0.45594000000E+02  0.51100000000E-03 0. -1.
         11   -1    0    0    0    0 -0.00000000000E+00 -0.00000000000E+00 -0.45593999997E+02  0.45594000000E+02  0.51100000000E-03 0.  1.
    9900012    2    1    2    0    0  0.11904895638E+01  0.11910496540E+02  0.14400924826E+02  0.72461979892E+02  0.70000533575E+02 0.  0.
        -12    1    1    2    0    0 -0.11904895638E+01 -0.11910496540E+02 -0.14400924826E+02  0.18726020108E+02  0.00000000000E+00 0.  1.
         11    1    3    3    0    0 -0.27720947349E+00 -0.19667485556E+02 -0.44460415664E+01  0.20165666839E+02  0.51100000000E-03 0. -1.
        -11    1    3    3    0    0 -0.33727773260E+01 -0.70213970126E+01 -0.21622447169E+01  0.80839931578E+01  0.51100000000E-03 0.  1.
        -12    1    3    3    0    0  0.48404763633E+01  0.38599379109E+02  0.21009211109E+02  0.44212319895E+02  0.00000000000E+00 0.  1.
</event>
<event>
 7    1  0.2641045E-013  0.7246162E+02  0.7816164E-02  0.1226708E+00
        -11   -1    0    0    0    0  0.00000000000E+00  0.00000000000E+00  0.45593999997E+02  0.45594000000E+02  0.51100000000E-03 0. -1.
         11   -1    0    0    0    0 -0.00000000000E+00 -0.00000000000E+00 -0.45593999997E+02  0.45594000000E+02  0.51100000000E-03 0.  1.
    9900012    2    1    2    0    0 -0.17047704368E+01  0.30644909691E+01  0.18395104424E+02  0.72461622509E+02  0.70000068020E+02 0.  0.
        -12    1    1    2    0    0  0.17047704368E+01 -0.30644909691E+01 -0.18395104424E+02  0.18726377491E+02  0.00000000000E+00 0.  1.
         11    1    3    3    0    0 -0.17333373460E+02 -0.86337693113E+01 -0.49350383154E+01  0.19983553524E+02  0.51100000000E-03 0. -1.
        -11    1    3    3    0    0 -0.82649514789E+01 -0.28150030633E+01 -0.70283427155E+01  0.11208535443E+02  0.51100000000E-03 0.  1.
         12    1    3    3    0    0  0.23893554502E+02  0.14513263344E+02  0.30358485455E+02  0.41269533542E+02  0.00000000000E+00 0. -1.
</event>
<event>
 7    1  0.2641045E-013  0.7246124E+02  0.7816164E-02  0.1226709E+00
        -11   -1    0    0    0    0  0.00000000000E+00  0.00000000000E+00  0.45593999997E+02  0.45594000000E+02  0.51100000000E-03 0.  1.
         11   -1    0    0    0    0 -0.00000000000E+00 -0.00000000000E+00 -0.45593999997E+02  0.45594000000E+02  0.51100000000E-03 0. -1.
    9900012    2    1    2    0    0 -0.12850678013E+01 -0.18677123695E+02 -0.45316208483E+00  0.72461235607E+02  0.69999564006E+02 0.  0.
        -12    1    1    2    0    0  0.12850678013E+01  0.18677123695E+02  0.45316208483E+00  0.18726764393E+02  0.00000000000E+00 0.  1.
         11    1    3    3    0    0 -0.33277388960E+02 -0.44896483655E+00  0.63132484373E+01  0.33873932330E+02  0.51100000000E-03 0. -1.
        -11    1    3    3    0    0  0.11244343508E+01 -0.35401540578E+01  0.11969188495E+00  0.37163651288E+01  0.51100000000E-03 0.  1.
        -12    1    3    3    0    0  0.30867886807E+02 -0.14688004800E+02 -0.68861024071E+01  0.34870938148E+02  0.00000000000E+00 0.  1.
</event>
<event>
 7    1  0.2641045E-013  0.7246159E+02  0.7816164E-02  0.1226708E+00
        -11   -1    0    0    0    0  0.00000000000E+00  0.00000000000E+00  0.45593999997E+02  0.45594000000E+02  0.51100000000E-03 0. -1.
         11   -1    0    0    0    0 -0.00000000000E+00 -0.00000000000E+00 -0.45593999997E+02  0.45594000000E+02  0.51100000000E-03 0.  1.
    9900012    2    1    2    0    0  0.17374327992E+02  0.48343379114E-01  0.69863376365E+01  0.72461587535E+02  0.70000022459E+02 0.  0.
        -12    1    1    2    0    0 -0.17374327992E+02 -0.48343379114E-01 -0.69863376365E+01  0.18726412465E+02  0.00000000000E+00 0.  1.
         11    1    3    3    0    0  0.54809907914E+01 -0.19127794340E+02 -0.67502263311E+01  0.21011409571E+02  0.51100000000E-03 0. -1.
        -11    1    3    3    0    0 -0.32654578064E+01  0.17938113079E+02 -0.11806645004E+02  0.21721785885E+02  0.51100000000E-03 0.  1.
         12    1    3    3    0    0  0.15158795007E+02  0.12380246402E+01  0.25543208972E+02  0.29728392080E+02  0.00000000000E+00 0. -1.
</event>
<event>
 7    1  0.2641045E-013  0.7246166E+02  0.7816164E-02  0.1226708E+00
        -11   -1    0    0    0    0  0.00000000000E+00  0.00000000000E+00  0.45593999997E+02  0.45594000000E+02  0.51100000000E-03 0.  1.
         11   -1    0    0    0    0 -0.00000000000E+00 -0.00000000000E+00 -0.45593999997E+02  0.45594000000E+02  0.51100000000E-03 0. -1.
    9900012    2    1    2    0    0  0.15286605717E+02  0.27328142186E+01 -0.10465523180E+02  0.72461661240E+02  0.70000118474E+02 0.  0.
        -12    1    1    2    0    0 -0.15286605717E+02 -0.27328142186E+01  0.10465523180E+02  0.18726338760E+02  0.00000000000E+00 0.  1.
         11    1    3    3    0    0 -0.60035451125E+01  0.26179263589E+01 -0.15914038768E+01  0.67400785529E+01  0.51100000000E-03 0. -1.
        -11    1    3    3    0    0 -0.42258356432E+00 -0.18493618169E+02  0.18481120632E+02  0.26148504927E+02  0.51100000000E-03 0.  1.
         12    1    3    3    0    0  0.21712734394E+02  0.18608506028E+02 -0.27355239936E+02  0.39573077760E+02  0.00000000000E+00 0. -1.
</event>
<event>
 7    1  0.2641045E-013  0.7246155E+02  0.7816164E-02  0.1226708E+00
        -11   -1    0    0    0    0  0.00000000000E+00  0.00000000000E+00  0.45593999997E+02  0.45594000000E+02  0.51100000000E-03 0. -1.
         11   -1    0    0    0    0 -0.00000000000E+00 -0.00000000000E+00 -0.45593999997E+02  0.45594000000E+02  0.51100000000E-03 0.  1.
    9900012    2    1    2    0    0  0.10774735301E+02 -0.11488844579E+02 -0.10128739718E+02  0.72461552424E+02  0.69999976720E+02 0.  0.
        -12    1    1    2    0    0 -0.10774735301E+02  0.11488844579E+02  0.10128739718E+02  0.18726447576E+02  0.00000000000E+00 0.  1.
         11    1    3    3    0    0 -0.51973958567E+01  0.11188429864E+02  0.11566129538E+02  0.16910625041E+02  0.51100000000E-03 0.  1.
        -11    1    3    3    0    0 -0.77438413658E+01  0.42440232664E+00  0.79530312794E+01  0.11108460885E+02  0.51100000000E-03 0. -1.
        -12    1    3    3    0    0  0.23715972523E+02 -0.23101676769E+02 -0.29647900535E+02  0.44442466498E+02  0.00000000000E+00 0.  1.
</event>
<event>
 7    1  0.2641045E-013  0.7246159E+02  0.7816164E-02  0.1226708E+00
        -11   -1    0    0    0    0  0.00000000000E+00  0.00000000000E+00  0.45593999997E+02  0.45594000000E+02  0.51100000000E-03 0. -1.
         11   -1    0    0    0    0 -0.00000000000E+00 -0.00000000000E+00 -0.45593999997E+02  0.45594000000E+02  0.51100000000E-03 0.  1.
    9900012    2    1    2    0    0  0.14032002285E+01 -0.21853463294E+01  0.18545448654E+02  0.72461591502E+02  0.70000027627E+02 0.  0.
        -12    1    1    2    0    0 -0.14032002285E+01  0.21853463294E+01 -0.18545448654E+02  0.18726408498E+02  0.00000000000E+00 0.  1.
         11    1    3    3    0    0 -0.57094444951E+01  0.13845537075E+02 -0.52197657326E+01  0.15860094827E+02  0.51100000000E-03 0. -1.
        -11    1    3    3    0    0  0.14565299571E+02  0.11969189564E+02 -0.42354520317E+00  0.18857063431E+02  0.51100000000E-03 0.  1.
         12    1    3    3    0    0 -0.74526548477E+01 -0.28000072969E+02  0.24188759589E+02  0.37744433245E+02  0.00000000000E+00 0. -1.
</event>
<event>
 7    1  0.2641045E-013  0.7246158E+02  0.7816164E-02  0.1226708E+00
        -11   -1    0    0    0    0  0.00000000000E+00  0.00000000000E+00  0.45593999997E+02  0.45594000000E+02  0.51100000000E-03 0. -1.
         11   -1    0    0    0    0 -0.00000000000E+00 -0.00000000000E+00 -0.45593999997E+02  0.45594000000E+02  0.51100000000E-03 0.  1.
    9900012    2    1    2    0    0 -0.11552053183E+02 -0.11802086351E+02  0.88283514607E+01  0.72461575769E+02  0.70000007131E+02 0.  0.
        -12    1    1    2    0    0  0.11552053183E+02  0.11802086351E+02 -0.88283514607E+01  0.18726424231E+02  0.00000000000E+00 0.  1.
         11    1    3    3    0    0 -0.23639532980E+02 -0.24324064237E+02  0.13183314925E+01  0.33944449012E+02  0.51100000000E-03 0. -1.
        -11    1    3    3    0    0  0.42162309141E+01 -0.89962057555E+01  0.11567019975E+02  0.15248090781E+02  0.51100000000E-03 0.  1.
        -12    1    3    3    0    0  0.78712488835E+01  0.21518183641E+02 -0.40570000066E+01  0.23269035976E+02  0.00000000000E+00 0.  1.
</event>
<event>
 7    1  0.2641045E-013  0.7246147E+02  0.7816164E-02  0.1226708E+00
        -11   -1    0    0    0    0  0.00000000000E+00  0.00000000000E+00  0.45593999997E+02  0.45594000000E+02  0.51100000000E-03 0.  1.
         11   -1    0    0    0    0 -0.00000000000E+00 -0.00000000000E+00 -0.45593999997E+02  0.45594000000E+02  0.51100000000E-03 0. -1.
    9900012    2    1    2    0    0  0.28760702532E+01 -0.14466964917E+02 -0.11537681560E+02  0.72461469361E+02  0.69999868515E+02 0.  0.
        -12    1    1    2    0    0 -0.28760702532E+01  0.14466964917E+02  0.11537681560E+02  0.18726530639E+02  0.00000000000E+00 0.  1.
         11    1    3    3    0    0 -0.14333732267E+02  0.36409649471E+01 -0.24095681830E+02  0.28272148654E+02  0.51100000000E-03 0. -1.
        -11    1    3    3    0    0 -0.49003153505E+01  0.71912714353E+01  0.35923136361E+01  0.94144672134E+01  0.51100000000E-03 0.  1.
        -12    1    3    3    0    0  0.22110117870E+02 -0.25299201299E+02  0.89656866336E+01  0.34774853493E+02  0.00000000000E+00 0.  1.
</event>
<event>
 7    1  0.2641045E-013  0.7246158E+02  0.7816164E-02  0.1226708E+00
        -11   -1    0    0    0    0  0.00000000000E+00  0.00000000000E+00  0.45593999997E+02  0.45594000000E+02  0.51100000000E-03 0. -1.
         11   -1    0    0    0    0 -0.00000000000E+00 -0.00000000000E+00 -0.45593999997E+02  0.45594000000E+02  0.51100000000E-03 0.  1.
    9900012    2    1    2    0    0 -0.72854491254E+01  0.53666930368E+01  0.16395115168E+02  0.72461575769E+02  0.70000007132E+02 0.  0.
        -12    1    1    2    0    0  0.72854491254E+01 -0.53666930368E+01 -0.16395115168E+02  0.18726424231E+02  0.00000000000E+00 0.  1.
         11    1    3    3    0    0 -0.22713140815E+02  0.28546786886E+01  0.22610771249E+02  0.32175812854E+02  0.51100000000E-03 0. -1.
        -11    1    3    3    0    0 -0.55460036458E+01 -0.11806091122E+02  0.27943678044E+01  0.13339806434E+02  0.51100000000E-03 0.  1.
         12    1    3    3    0    0  0.20973695335E+02  0.14318105470E+02 -0.90100238854E+01  0.26945956481E+02  0.00000000000E+00 0. -1.
</event>
<event>
 7    1  0.2641045E-013  0.7246154E+02  0.7816164E-02  0.1226708E+00
        -11   -1    0    0    0    0  0.00000000000E+00  0.00000000000E+00  0.45593999997E+02  0.45594000000E+02  0.51100000000E-03 0. -1.
         11   -1    0    0    0    0 -0.00000000000E+00 -0.00000000000E+00 -0.45593999997E+02  0.45594000000E+02  0.51100000000E-03 0.  1.
    9900012    2    1    2    0    0 -0.12774540555E+02  0.13089776836E+02 -0.40185885530E+01  0.72461542834E+02  0.69999964228E+02 0.  0.
        -12    1    1    2    0    0  0.12774540555E+02 -0.13089776836E+02  0.40185885530E+01  0.18726457166E+02  0.00000000000E+00 0.  1.
         11    1    3    3    0    0  0.75174374441E+01 -0.49407929180E+01  0.49851015652E+01  0.10284674923E+02  0.51100000000E-03 0. -1.
        -11    1    3    3    0    0  0.32943376706E+01 -0.16409130957E+02 -0.11585026698E+02  0.20354976868E+02  0.51100000000E-03 0.  1.
         12    1    3    3    0    0 -0.23586315670E+02  0.34439700711E+02  0.25813365796E+01  0.41821891044E+02  0.00000000000E+00 0. -1.
</event>
<event>
 7    1  0.2641045E-013  0.7246155E+02  0.7816164E-02  0.1226708E+00
        -11   -1    0    0    0    0  0.00000000000E+00  0.00000000000E+00  0.45593999997E+02  0.45594000000E+02  0.51100000000E-03 0. -1.
         11   -1    0    0    0    0 -0.00000000000E+00 -0.00000000000E+00 -0.45593999997E+02  0.45594000000E+02  0.51100000000E-03 0.  1.
    9900012    2    1    2    0    0  0.26881848096E+01 -0.14294352820E+02  0.11795128414E+02  0.72461550405E+02  0.69999974091E+02 0.  0.
        -12    1    1    2    0    0 -0.26881848096E+01  0.14294352820E+02 -0.11795128414E+02  0.18726449595E+02  0.00000000000E+00 0.  1.
         11    1    3    3    0    0  0.77039682570E+01 -0.61136799333E+00  0.13202634631E+02  0.15298184833E+02  0.51100000000E-03 0.  1.
        -11    1    3    3    0    0  0.14694766828E+02  0.11618372197E+02  0.12165731740E+02  0.22336691198E+02  0.51100000000E-03 0. -1.
         12    1    3    3    0    0 -0.19710550275E+02 -0.25301357024E+02 -0.13573237956E+02  0.34826674375E+02  0.00000000000E+00 0. -1.
</event>
<event>
 7    1  0.2641045E-013  0.7246157E+02  0.7816164E-02  0.1226708E+00
        -11   -1    0    0    0    0  0.00000000000E+00  0.00000000000E+00  0.45593999997E+02  0.45594000000E+02  0.51100000000E-03 0. -1.
         11   -1    0    0    0    0 -0.00000000000E+00 -0.00000000000E+00 -0.45593999997E+02  0.45594000000E+02  0.51100000000E-03 0.  1.
    9900012    2    1    2    0    0  0.68491494470E+01 -0.14173017360E+02  0.10143667761E+02  0.72461567748E+02  0.69999996683E+02 0.  0.
        -12    1    1    2    0    0 -0.68491494470E+01  0.14173017360E+02 -0.10143667761E+02  0.18726432252E+02  0.00000000000E+00 0.  1.
         11    1    3    3    0    0 -0.19366709800E+02  0.14179094043E+02  0.73613830304E+01  0.25105898047E+02  0.51100000000E-03 0. -1.
        -11    1    3    3    0    0 -0.24943030512E+01  0.23467343127E+01  0.40507914659E+01  0.53044906831E+01  0.51100000000E-03 0.  1.
        -12    1    3    3    0    0  0.28710162298E+02 -0.30698845716E+02 -0.12685067356E+01  0.42051179018E+02  0.00000000000E+00 0.  1.
</event>
<event>
 7    1  0.2641045E-013  0.7246156E+02  0.7816164E-02  0.1226708E+00
        -11   -1    0    0    0    0  0.00000000000E+00  0.00000000000E+00  0.45593999997E+02  0.45594000000E+02  0.51100000000E-03 0. -1.
         11   -1    0    0    0    0 -0.00000000000E+00 -0.00000000000E+00 -0.45593999997E+02  0.45594000000E+02  0.51100000000E-03 0.  1.
    9900012    2    1    2    0    0  0.33328140465E+01 -0.18405092125E+02 -0.90803194627E+00  0.72461559131E+02  0.69999985458E+02 0.  0.
        -12    1    1    2    0    0 -0.33328140465E+01  0.18405092125E+02  0.90803194627E+00  0.18726440869E+02  0.00000000000E+00 0.  1.
         11    1    3    3    0    0  0.54866428087E+01 -0.12967246364E+02  0.85888057684E+01  0.16493038300E+02  0.51100000000E-03 0. -1.
        -11    1    3    3    0    0  0.53002589405E+01 -0.28777181523E+02 -0.11378290279E+02  0.31395611336E+02  0.51100000000E-03 0.  1.
         12    1    3    3    0    0 -0.74540877026E+01  0.23339335762E+02  0.18814525644E+01  0.24572909495E+02  0.00000000000E+00 0. -1.
</event>
<event>
 7    1  0.2641045E-013  0.7246158E+02  0.7816164E-02  0.1226708E+00
        -11   -1    0    0    0    0  0.00000000000E+00  0.00000000000E+00  0.45593999997E+02  0.45594000000E+02  0.51100000000E-03 0.  1.
         11   -1    0    0    0    0 -0.00000000000E+00 -0.00000000000E+00 -0.45593999997E+02  0.45594000000E+02  0.51100000000E-03 0. -1.
    9900012    2    1    2    0    0 -0.10043467810E+02  0.15558955766E+02 -0.27796264997E+01  0.72461583534E+02  0.70000017247E+02 0.  0.
        -12    1    1    2    0    0  0.10043467810E+02 -0.15558955766E+02  0.27796264997E+01  0.18726416466E+02  0.00000000000E+00 0.  1.
         11    1    3    3    0    0 -0.23603690997E+02 -0.14288289815E+02 -0.26187014350E+01  0.27715465935E+02  0.51100000000E-03 0. -1.
        -11    1    3    3    0    0 -0.26955606131E+01 -0.48713090655E+01  0.29202196994E+01  0.62867624724E+01  0.51100000000E-03 0.  1.
         12    1    3    3    0    0  0.16255783800E+02  0.34718554646E+02 -0.30811447641E+01  0.38459355127E+02  0.00000000000E+00 0. -1.
</event>
<event>
 7    1  0.2641045E-013  0.7246156E+02  0.7816164E-02  0.1226708E+00
        -11   -1    0    0    0    0  0.00000000000E+00  0.00000000000E+00  0.45593999997E+02  0.45594000000E+02  0.51100000000E-03 0.  1.
         11   -1    0    0    0    0 -0.00000000000E+00 -0.00000000000E+00 -0.45593999997E+02  0.45594000000E+02  0.51100000000E-03 0. -1.
    9900012    2    1    2    0    0 -0.95874151941E+01  0.10579045843E+02 -0.12117952005E+02  0.72461561421E+02  0.69999988441E+02 0.  0.
        -12    1    1    2    0    0  0.95874151941E+01 -0.10579045843E+02  0.12117952005E+02  0.18726438579E+02  0.00000000000E+00 0.  1.
         11    1    3    3    0    0  0.84413729225E+01 -0.16657910649E+02 -0.48972441319E+01  0.19306106919E+02  0.51100000000E-03 0. -1.
        -11    1    3    3    0    0 -0.25894950283E+02  0.38786160482E+01  0.32335203341E+01  0.26382717195E+02  0.51100000000E-03 0.  1.
        -12    1    3    3    0    0  0.78661621663E+01  0.23358340444E+02 -0.10454228207E+02  0.26772737307E+02  0.00000000000E+00 0.  1.
</event>
<event>
 7    1  0.2641045E-013  0.7246157E+02  0.7816164E-02  0.1226708E+00
        -11   -1    0    0    0    0  0.00000000000E+00  0.00000000000E+00  0.45593999997E+02  0.45594000000E+02  0.51100000000E-03 0.  1.
         11   -1    0    0    0    0 -0.00000000000E+00 -0.00000000000E+00 -0.45593999997E+02  0.45594000000E+02  0.51100000000E-03 0. -1.
    9900012    2    1    2    0    0  0.16864467139E+02  0.35739730752E+01 -0.73140610226E+01  0.72461574178E+02  0.70000005059E+02 0.  0.
        -12    1    1    2    0    0 -0.16864467139E+02 -0.35739730752E+01  0.73140610226E+01  0.18726425822E+02  0.00000000000E+00 0.  1.
         11    1    3    3    0    0  0.17413417536E+01 -0.17916257036E+02 -0.10614510578E+02  0.20897185752E+02  0.51100000000E-03 0. -1.
        -11    1    3    3    0    0  0.46556144541E+01 -0.12969474962E+02 -0.49055244348E+01  0.14626899774E+02  0.51100000000E-03 0.  1.
        -12    1    3    3    0    0  0.10467510931E+02  0.34459705073E+02  0.82059739900E+01  0.36937488653E+02  0.00000000000E+00 0.  1.
</event>
<event>
 7    1  0.2641045E-013  0.7246155E+02  0.7816164E-02  0.1226708E+00
        -11   -1    0    0    0    0  0.00000000000E+00  0.00000000000E+00  0.45593999997E+02  0.45594000000E+02  0.51100000000E-03 0.  1.
         11   -1    0    0    0    0 -0.00000000000E+00 -0.00000000000E+00 -0.45593999997E+02  0.45594000000E+02  0.51100000000E-03 0. -1.
    9900012    2    1    2    0    0  0.16830800771E+02  0.39613080997E+01 -0.71911212774E+01  0.72461547008E+02  0.69999969665E+02 0.  0.
        -12    1    1    2    0    0 -0.16830800771E+02 -0.39613080997E+01  0.71911212774E+01  0.18726452992E+02  0.00000000000E+00 0.  1.
         11    1    3    3    0    0 -0.17040528724E+01  0.19735088360E+01 -0.29942580774E+02  0.30055892550E+02  0.51100000000E-03 0. -1.
        -11    1    3    3    0    0 -0.16767937137E+01 -0.56970346610E+01 -0.46195689676E+01  0.75238460108E+01  0.51100000000E-03 0.  1.
        -12    1    3    3    0    0  0.20211647357E+02  0.76848339247E+01  0.27371028464E+02  0.34881808447E+02  0.00000000000E+00 0.  1.
</event>
<event>
 7    1  0.2641045E-013  0.7246157E+02  0.7816164E-02  0.1226708E+00
        -11   -1    0    0    0    0  0.00000000000E+00  0.00000000000E+00  0.45593999997E+02  0.45594000000E+02  0.51100000000E-03 0.  1.
         11   -1    0    0    0    0 -0.00000000000E+00 -0.00000000000E+00 -0.45593999997E+02  0.45594000000E+02  0.51100000000E-03 0. -1.
    9900012    2    1    2    0    0 -0.39863859644E+01 -0.10307704785E+02 -0.15117504513E+02  0.72461574989E+02  0.70000006115E+02 0.  0.
        -12    1    1    2    0    0  0.39863859644E+01  0.10307704785E+02  0.15117504513E+02  0.18726425011E+02  0.00000000000E+00 0.  1.
         11    1    3    3    0    0  0.76420547019E+01 -0.10294304433E+02  0.43835811592E+01  0.13549519839E+02  0.51100000000E-03 0. -1.
        -11    1    3    3    0    0  0.16132073701E+02 -0.15333605949E+02 -0.11707535079E+01  0.22287528740E+02  0.51100000000E-03 0.  1.
        -12    1    3    3    0    0 -0.27760514367E+02  0.15320205597E+02 -0.18330332165E+02  0.36624526410E+02  0.00000000000E+00 0.  1.
</event>
<event>
 7    1  0.2641045E-013  0.7246155E+02  0.7816164E-02  0.1226708E+00
        -11   -1    0    0    0    0  0.00000000000E+00  0.00000000000E+00  0.45593999997E+02  0.45594000000E+02  0.51100000000E-03 0. -1.
         11   -1    0    0    0    0 -0.00000000000E+00 -0.00000000000E+00 -0.45593999997E+02  0.45594000000E+02  0.51100000000E-03 0.  1.
    9900012    2    1    2    0    0 -0.98725500634E+01  0.15312578442E+02 -0.43286823360E+01  0.72461553619E+02  0.69999978278E+02 0.  0.
        -12    1    1    2    0    0  0.98725500634E+01 -0.15312578442E+02  0.43286823360E+01  0.18726446381E+02  0.00000000000E+00 0.  1.
         11    1    3    3    0    0 -0.42571771738E+01  0.18994388357E+01 -0.19672831840E+01  0.50598052104E+01  0.51100000000E-03 0. -1.
        -11    1    3    3    0    0 -0.93706304305E+01 -0.62931757640E+01 -0.30683941243E+02  0.32694296541E+02  0.51100000000E-03 0.  1.
         12    1    3    3    0    0  0.37552575409E+01  0.19706315370E+02  0.28322542091E+02  0.34707451868E+02  0.00000000000E+00 0. -1.
</event>
<event>
 7    1  0.2641045E-013  0.7246128E+02  0.7816164E-02  0.1226709E+00
        -11   -1    0    0    0    0  0.00000000000E+00  0.00000000000E+00  0.45593999997E+02  0.45594000000E+02  0.51100000000E-03 0. -1.
         11   -1    0    0    0    0 -0.00000000000E+00 -0.00000000000E+00 -0.45593999997E+02  0.45594000000E+02  0.51100000000E-03 0.  1.
    9900012    2    1    2    0    0 -0.49773241879E+01 -0.70329087545E+00  0.18039449427E+02  0.72461278190E+02  0.69999619479E+02 0.  0.
        -12    1    1    2    0    0  0.49773241879E+01  0.70329087545E+00 -0.18039449427E+02  0.18726721810E+02  0.00000000000E+00 0.  1.
         11    1    3    3    0    0  0.10049736073E+02 -0.64806913958E+01 -0.14123280265E+02  0.18505772121E+02  0.51100000000E-03 0.  1.
        -11    1    3    3    0    0  0.13598449275E+02  0.34941150431E-01  0.14276621841E+02  0.19716515286E+02  0.51100000000E-03 0. -1.
         12    1    3    3    0    0 -0.28625509536E+02  0.57424593699E+01  0.17886107850E+02  0.34238990783E+02  0.00000000000E+00 0. -1.
</event>
<event>
 7    1  0.2641045E-013  0.7246153E+02  0.7816164E-02  0.1226708E+00
        -11   -1    0    0    0    0  0.00000000000E+00  0.00000000000E+00  0.45593999997E+02  0.45594000000E+02  0.51100000000E-03 0.  1.
         11   -1    0    0    0    0 -0.00000000000E+00 -0.00000000000E+00 -0.45593999997E+02  0.45594000000E+02  0.51100000000E-03 0. -1.
    9900012    2    1    2    0    0 -0.12714434552E+02  0.72831743364E+01 -0.11661007939E+02  0.72461532620E+02  0.69999950922E+02 0.  0.
        -12    1    1    2    0    0  0.12714434552E+02 -0.72831743364E+01  0.11661007939E+02  0.18726467380E+02  0.00000000000E+00 0.  1.
         11    1    3    3    0    0 -0.24024362072E+02  0.42513532489E+01 -0.68795993846E+01  0.25349020994E+02  0.51100000000E-03 0. -1.
        -11    1    3    3    0    0  0.10849372036E+02 -0.51434206358E+01  0.18712082145E+02  0.22232986031E+02  0.51100000000E-03 0.  1.
        -12    1    3    3    0    0  0.46055548453E+00  0.81752417232E+01 -0.23493490699E+02  0.24879525594E+02  0.00000000000E+00 0.  1.
</event>
<event>
 7    1  0.2641045E-013  0.7246167E+02  0.7816164E-02  0.1226708E+00
        -11   -1    0    0    0    0  0.00000000000E+00  0.00000000000E+00  0.45593999997E+02  0.45594000000E+02  0.51100000000E-03 0. -1.
         11   -1    0    0    0    0 -0.00000000000E+00 -0.00000000000E+00 -0.45593999997E+02  0.45594000000E+02  0.51100000000E-03 0.  1.
    9900012    2    1    2    0    0  0.59976413624E+01 -0.17234354664E+02 -0.42048630647E+01  0.72461666777E+02  0.70000125686E+02 0.  0.
        -12    1    1    2    0    0 -0.59976413624E+01  0.17234354664E+02  0.42048630647E+01  0.18726333223E+02  0.00000000000E+00 0.  1.
         11    1    3    3    0    0  0.17486203018E+00 -0.11649919494E+02  0.77656646399E+01  0.14002026585E+02  0.51100000000E-03 0. -1.
        -11    1    3    3    0    0  0.30754485627E+02 -0.60562234664E-01 -0.11749057493E+02  0.32922369389E+02  0.51100000000E-03 0.  1.
         12    1    3    3    0    0 -0.24931706295E+02 -0.55238729356E+01 -0.22147021163E+00  0.25537270802E+02  0.00000000000E+00 0. -1.
</event>
<event>
 7    1  0.2641045E-013  0.7246156E+02  0.7816164E-02  0.1226708E+00
        -11   -1    0    0    0    0  0.00000000000E+00  0.00000000000E+00  0.45593999997E+02  0.45594000000E+02  0.51100000000E-03 0.  1.
         11   -1    0    0    0    0 -0.00000000000E+00 -0.00000000000E+00 -0.45593999997E+02  0.45594000000E+02  0.51100000000E-03 0. -1.
    9900012    2    1    2    0    0  0.18213759046E+02 -0.30465555649E+01 -0.31075519293E+01  0.72461564184E+02  0.69999992040E+02 0.  0.
        -12    1    1    2    0    0 -0.18213759046E+02  0.30465555649E+01  0.31075519293E+01  0.18726435816E+02  0.00000000000E+00 0.  1.
         11    1    3    3    0    0 -0.17483133924E+02 -0.56359274165E+01 -0.12761400971E+02  0.22366872930E+02  0.51100000000E-03 0. -1.
        -11    1    3    3    0    0  0.43660589555E+01  0.43767232048E+01 -0.10935193476E+02  0.12561712998E+02  0.51100000000E-03 0.  1.
        -12    1    3    3    0    0  0.31330834015E+02 -0.17873513532E+01  0.20589042518E+02  0.37532978256E+02  0.00000000000E+00 0.  1.
</event>
<event>
 7    1  0.2641045E-013  0.7246152E+02  0.7816164E-02  0.1226708E+00
        -11   -1    0    0    0    0  0.00000000000E+00  0.00000000000E+00  0.45593999997E+02  0.45594000000E+02  0.51100000000E-03 0.  1.
         11   -1    0    0    0    0 -0.00000000000E+00 -0.00000000000E+00 -0.45593999997E+02  0.45594000000E+02  0.51100000000E-03 0. -1.
    9900012    2    1    2    0    0 -0.76780276987E-01  0.17855705535E+02 -0.56434943030E+01  0.72461517593E+02  0.69999931347E+02 0.  0.
        -12    1    1    2    0    0  0.76780276987E-01 -0.17855705535E+02  0.56434943030E+01  0.18726482407E+02  0.00000000000E+00 0.  1.
         11    1    3    3    0    0  0.13510907612E+02  0.13447474240E+02 -0.22845644627E+02  0.29754036140E+02  0.51100000000E-03 0. -1.
        -11    1    3    3    0    0  0.37018630739E+01 -0.13612187899E+02  0.66743683331E+01  0.15605852829E+02  0.51100000000E-03 0.  1.
        -12    1    3    3    0    0 -0.17289550962E+02  0.18020419195E+02  0.10527781991E+02  0.27101628624E+02  0.00000000000E+00 0.  1.
</event>
<event>
 7    1  0.2641045E-013  0.7246160E+02  0.7816164E-02  0.1226708E+00
        -11   -1    0    0    0    0  0.00000000000E+00  0.00000000000E+00  0.45593999997E+02  0.45594000000E+02  0.51100000000E-03 0.  1.
         11   -1    0    0    0    0 -0.00000000000E+00 -0.00000000000E+00 -0.45593999997E+02  0.45594000000E+02  0.51100000000E-03 0. -1.
    9900012    2    1    2    0    0  0.18691901060E+02 -0.11145644544E+01  0.22092252674E+00  0.72461595488E+02  0.70000032820E+02 0.  0.
        -12    1    1    2    0    0 -0.18691901060E+02  0.11145644544E+01 -0.22092252674E+00  0.18726404512E+02  0.00000000000E+00 0.  1.
         11    1    3    3    0    0 -0.46746332771E+01  0.18903102850E+02 -0.55638932446E+01  0.20251824657E+02  0.51100000000E-03 0. -1.
        -11    1    3    3    0    0  0.79690231345E+01 -0.86630289003E+01 -0.18110338754E+02  0.21599485398E+02  0.51100000000E-03 0.  1.
        -12    1    3    3    0    0  0.15397511203E+02 -0.11354638404E+02  0.23895154525E+02  0.30610285433E+02  0.00000000000E+00 0.  1.
</event>
<event>
 7    1  0.2641045E-013  0.7246156E+02  0.7816164E-02  0.1226708E+00
        -11   -1    0    0    0    0  0.00000000000E+00  0.00000000000E+00  0.45593999997E+02  0.45594000000E+02  0.51100000000E-03 0. -1.
         11   -1    0    0    0    0 -0.00000000000E+00 -0.00000000000E+00 -0.45593999997E+02  0.45594000000E+02  0.51100000000E-03 0.  1.
    9900012    2    1    2    0    0 -0.14329849801E+02  0.69357639104E+01  0.98605323883E+01  0.72461561062E+02  0.69999987973E+02 0.  0.
        -12    1    1    2    0    0  0.14329849801E+02 -0.69357639104E+01 -0.98605323883E+01  0.18726438938E+02  0.00000000000E+00 0.  1.
         11    1    3    3    0    0  0.17323119221E+01 -0.49888742217E+01 -0.10241185914E+01  0.53794599864E+01  0.51100000000E-03 0. -1.
        -11    1    3    3    0    0  0.22711293465E+02  0.58389804795E+01  0.14656114620E+02  0.27653177754E+02  0.51100000000E-03 0.  1.
         12    1    3    3    0    0 -0.38773455188E+02  0.60856576526E+01 -0.37714636400E+01  0.39428923321E+02  0.00000000000E+00 0. -1.
</event>
<event>
 7    1  0.2641045E-013  0.7246159E+02  0.7816164E-02  0.1226708E+00
        -11   -1    0    0    0    0  0.00000000000E+00  0.00000000000E+00  0.45593999997E+02  0.45594000000E+02  0.51100000000E-03 0.  1.
         11   -1    0    0    0    0 -0.00000000000E+00 -0.00000000000E+00 -0.45593999997E+02  0.45594000000E+02  0.51100000000E-03 0. -1.
    9900012    2    1    2    0    0 -0.69414009733E+01  0.53475742867E+01 -0.16549893521E+02  0.72461586201E+02  0.70000020721E+02 0.  0.
        -12    1    1    2    0    0  0.69414009733E+01 -0.53475742867E+01  0.16549893521E+02  0.18726413799E+02  0.00000000000E+00 0.  1.
         11    1    3    3    0    0 -0.68133818577E+01  0.58149421456E+01 -0.30914922853E+02  0.32186459572E+02  0.51100000000E-03 0. -1.
        -11    1    3    3    0    0 -0.12157702332E+02 -0.11307639722E+01 -0.81910171484E+01  0.14703098835E+02  0.51100000000E-03 0.  1.
        -12    1    3    3    0    0  0.12029683217E+02  0.66339611328E+00  0.22556046480E+02  0.25572027794E+02  0.00000000000E+00 0.  1.
</event>
<event>
 7    1  0.2641045E-013  0.7246158E+02  0.7816164E-02  0.1226708E+00
        -11   -1    0    0    0    0  0.00000000000E+00  0.00000000000E+00  0.45593999997E+02  0.45594000000E+02  0.51100000000E-03 0. -1.
         11   -1    0    0    0    0 -0.00000000000E+00 -0.00000000000E+00 -0.45593999997E+02  0.45594000000E+02  0.51100000000E-03 0.  1.
    9900012    2    1    2    0    0  0.11758587956E+02 -0.11547816591E+02  0.88917079629E+01  0.72461576710E+02  0.70000008358E+02 0.  0.
        -12    1    1    2    0    0 -0.11758587956E+02  0.11547816591E+02 -0.88917079629E+01  0.18726423290E+02  0.00000000000E+00 0.  1.
         11    1    3    3    0    0  0.84064616537E+01  0.15317732439E+02  0.43243911861E+01  0.18000052333E+02  0.51100000000E-03 0. -1.
        -11    1    3    3    0    0 -0.10050793751E+02 -0.31086301357E+01  0.20378112326E+02  0.22933588872E+02  0.51100000000E-03 0.  1.
        -12    1    3    3    0    0  0.13402920053E+02 -0.23756918894E+02 -0.15810795549E+02  0.31527935505E+02  0.00000000000E+00 0.  1.
</event>
<event>
 7    1  0.2641045E-013  0.7246157E+02  0.7816164E-02  0.1226708E+00
        -11   -1    0    0    0    0  0.00000000000E+00  0.00000000000E+00  0.45593999997E+02  0.45594000000E+02  0.51100000000E-03 0.  1.
         11   -1    0    0    0    0 -0.00000000000E+00 -0.00000000000E+00 -0.45593999997E+02  0.45594000000E+02  0.51100000000E-03 0. -1.
    9900012    2    1    2    0    0  0.13985189257E+02  0.72743483682E+01 -0.10108293875E+02  0.72461567670E+02  0.69999996582E+02 0.  0.
        -12    1    1    2    0    0 -0.13985189257E+02 -0.72743483682E+01  0.10108293875E+02  0.18726432330E+02  0.00000000000E+00 0.  1.
         11    1    3    3    0    0  0.38112437923E+01  0.99665799091E+01  0.49139981901E+01  0.11747581572E+02  0.51100000000E-03 0. -1.
        -11    1    3    3    0    0  0.20782133902E+02  0.15641708058E+02  0.10056339424E+02  0.27887095284E+02  0.51100000000E-03 0.  1.
         12    1    3    3    0    0 -0.10608188438E+02 -0.18333939599E+02 -0.25078631489E+02  0.32826890814E+02  0.00000000000E+00 0. -1.
</event>
<event>
 7    1  0.2641045E-013  0.7246190E+02  0.7816164E-02  0.1226707E+00
        -11   -1    0    0    0    0  0.00000000000E+00  0.00000000000E+00  0.45593999997E+02  0.45594000000E+02  0.51100000000E-03 0.  1.
         11   -1    0    0    0    0 -0.00000000000E+00 -0.00000000000E+00 -0.45593999997E+02  0.45594000000E+02  0.51100000000E-03 0. -1.
    9900012    2    1    2    0    0 -0.18248135980E+01 -0.55617762918E+01 -0.17787736687E+02  0.72461898520E+02  0.70000427573E+02 0.  0.
        -12    1    1    2    0    0  0.18248135980E+01  0.55617762918E+01  0.17787736687E+02  0.18726101480E+02  0.00000000000E+00 0.  1.
         11    1    3    3    0    0 -0.50495798205E+01  0.80684530949E+01 -0.30289645892E+02  0.31749973862E+02  0.51100000000E-03 0. -1.
        -11    1    3    3    0    0 -0.36542020372E+01  0.31757816779E+01 -0.10407426514E+02  0.11478384412E+02  0.51100000000E-03 0.  1.
        -12    1    3    3    0    0  0.68789682597E+01 -0.16806011065E+02  0.22909335719E+02  0.29233540246E+02  0.00000000000E+00 0.  1.
</event>
<event>
 7    1  0.2641045E-013  0.7246156E+02  0.7816164E-02  0.1226708E+00
        -11   -1    0    0    0    0  0.00000000000E+00  0.00000000000E+00  0.45593999997E+02  0.45594000000E+02  0.51100000000E-03 0.  1.
         11   -1    0    0    0    0 -0.00000000000E+00 -0.00000000000E+00 -0.45593999997E+02  0.45594000000E+02  0.51100000000E-03 0. -1.
    9900012    2    1    2    0    0 -0.29097776851E+01  0.17255485764E+02 -0.66679074132E+01  0.72461559217E+02  0.69999985570E+02 0.  0.
        -12    1    1    2    0    0  0.29097776851E+01 -0.17255485764E+02  0.66679074132E+01  0.18726440783E+02  0.00000000000E+00 0.  1.
         11    1    3    3    0    0 -0.28396574960E+01 -0.19951988367E+01 -0.33645074359E+00  0.34867854044E+01  0.51100000000E-03 0. -1.
        -11    1    3    3    0    0 -0.22459601051E+02 -0.66067043512E+01  0.15792240509E+02  0.28239636725E+02  0.51100000000E-03 0.  1.
         12    1    3    3    0    0  0.22389480862E+02  0.25857388952E+02 -0.22123697179E+02  0.40735137088E+02  0.00000000000E+00 0. -1.
</event>
<event>
 7    1  0.2641045E-013  0.7246161E+02  0.7816164E-02  0.1226708E+00
        -11   -1    0    0    0    0  0.00000000000E+00  0.00000000000E+00  0.45593999997E+02  0.45594000000E+02  0.51100000000E-03 0. -1.
         11   -1    0    0    0    0 -0.00000000000E+00 -0.00000000000E+00 -0.45593999997E+02  0.45594000000E+02  0.51100000000E-03 0.  1.
    9900012    2    1    2    0    0  0.27215857704E+01 -0.18242054051E+02  0.32401054149E+01  0.72461605574E+02  0.70000045958E+02 0.  0.
        -12    1    1    2    0    0 -0.27215857704E+01  0.18242054051E+02 -0.32401054149E+01  0.18726394426E+02  0.00000000000E+00 0.  1.
         11    1    3    3    0    0  0.15553079004E+01 -0.15046920979E+02  0.15782741505E+02  0.21861467089E+02  0.51100000000E-03 0. -1.
        -11    1    3    3    0    0 -0.17191429634E+01 -0.15672870942E+02  0.14028037488E+02  0.21104032130E+02  0.51100000000E-03 0.  1.
        -12    1    3    3    0    0  0.28854208335E+01  0.12477737869E+02 -0.26570673578E+02  0.29496106355E+02  0.00000000000E+00 0.  1.
</event>
<event>
 7    1  0.2641045E-013  0.7246157E+02  0.7816164E-02  0.1226708E+00
        -11   -1    0    0    0    0  0.00000000000E+00  0.00000000000E+00  0.45593999997E+02  0.45594000000E+02  0.51100000000E-03 0.  1.
         11   -1    0    0    0    0 -0.00000000000E+00 -0.00000000000E+00 -0.45593999997E+02  0.45594000000E+02  0.51100000000E-03 0. -1.
    9900012    2    1    2    0    0  0.93235168191E+01  0.15399633426E+02 -0.51577652712E+01  0.72461568997E+02  0.69999998310E+02 0.  0.
        -12    1    1    2    0    0 -0.93235168191E+01 -0.15399633426E+02  0.51577652712E+01  0.18726431003E+02  0.00000000000E+00 0.  1.
         11    1    3    3    0    0 -0.45348840799E+00 -0.21466551346E+00  0.10558816237E+01  0.11690249284E+01  0.51100000000E-03 0. -1.
        -11    1    3    3    0    0  0.31149945726E+02 -0.57141431666E+01  0.14341446775E+02  0.34765610115E+02  0.51100000000E-03 0.  1.
         12    1    3    3    0    0 -0.21372940498E+02  0.21328442106E+02 -0.20555093670E+02  0.36526933953E+02  0.00000000000E+00 0. -1.
</event>
<event>
 7    1  0.2641045E-013  0.7246155E+02  0.7816164E-02  0.1226708E+00
        -11   -1    0    0    0    0  0.00000000000E+00  0.00000000000E+00  0.45593999997E+02  0.45594000000E+02  0.51100000000E-03 0. -1.
         11   -1    0    0    0    0 -0.00000000000E+00 -0.00000000000E+00 -0.45593999997E+02  0.45594000000E+02  0.51100000000E-03 0.  1.
    9900012    2    1    2    0    0 -0.14099602640E+02  0.12290909523E+02  0.90251671558E+00  0.72461553783E+02  0.69999978491E+02 0.  0.
        -12    1    1    2    0    0  0.14099602640E+02 -0.12290909523E+02 -0.90251671558E+00  0.18726446217E+02  0.00000000000E+00 0.  1.
         11    1    3    3    0    0 -0.18632935913E+02  0.41394157797E-01  0.20552809918E+02  0.27741773736E+02  0.51100000000E-03 0. -1.
        -11    1    3    3    0    0 -0.16346186484E+02  0.12360407607E+01 -0.60340868759E+01  0.17468137108E+02  0.51100000000E-03 0.  1.
        -12    1    3    3    0    0  0.20879519758E+02  0.11013474604E+02 -0.13616206326E+02  0.27251642939E+02  0.00000000000E+00 0.  1.
</event>
<event>
 7    1  0.2641045E-013  0.7246156E+02  0.7816164E-02  0.1226708E+00
        -11   -1    0    0    0    0  0.00000000000E+00  0.00000000000E+00  0.45593999997E+02  0.45594000000E+02  0.51100000000E-03 0.  1.
         11   -1    0    0    0    0 -0.00000000000E+00 -0.00000000000E+00 -0.45593999997E+02  0.45594000000E+02  0.51100000000E-03 0. -1.
    9900012    2    1    2    0    0 -0.15276542594E+02  0.59435440715E+01 -0.90543476225E+01  0.72461556647E+02  0.69999982222E+02 0.  0.
        -12    1    1    2    0    0  0.15276542594E+02 -0.59435440715E+01  0.90543476225E+01  0.18726443353E+02  0.00000000000E+00 0.  1.
         11    1    3    3    0    0 -0.14182402891E+02 -0.70647635084E+01  0.10131340710E+02  0.18806793986E+02  0.51100000000E-03 0.  1.
        -11    1    3    3    0    0 -0.42180572225E+01  0.20294145810E+02 -0.32271629793E+02  0.38354953405E+02  0.51100000000E-03 0. -1.
         12    1    3    3    0    0  0.31239175187E+01 -0.72858382301E+01  0.13085941461E+02  0.15299809257E+02  0.00000000000E+00 0. -1.
</event>
<event>
 7    1  0.2641045E-013  0.7246145E+02  0.7816164E-02  0.1226708E+00
        -11   -1    0    0    0    0  0.00000000000E+00  0.00000000000E+00  0.45593999997E+02  0.45594000000E+02  0.51100000000E-03 0.  1.
         11   -1    0    0    0    0 -0.00000000000E+00 -0.00000000000E+00 -0.45593999997E+02  0.45594000000E+02  0.51100000000E-03 0. -1.
    9900012    2    1    2    0    0 -0.11990045829E+02 -0.14285864203E+02  0.16842520776E+01  0.72461446124E+02  0.69999838245E+02 0.  0.
        -12    1    1    2    0    0  0.11990045829E+02  0.14285864203E+02 -0.16842520776E+01  0.18726553876E+02  0.00000000000E+00 0.  1.
         11    1    3    3    0    0  0.34495488491E+01  0.14186481298E+01 -0.43861507049E+01  0.57576269457E+01  0.51100000000E-03 0. -1.
        -11    1    3    3    0    0 -0.23744759572E+02  0.15665745826E+02  0.16164899258E+02  0.32719003158E+02  0.51100000000E-03 0.  1.
         12    1    3    3    0    0  0.83051648934E+01 -0.31370258158E+02 -0.10094496475E+02  0.33984816020E+02  0.00000000000E+00 0. -1.
</event>
<event>
 7    1  0.2641045E-013  0.7246148E+02  0.7816164E-02  0.1226708E+00
        -11   -1    0    0    0    0  0.00000000000E+00  0.00000000000E+00  0.45593999997E+02  0.45594000000E+02  0.51100000000E-03 0. -1.
         11   -1    0    0    0    0 -0.00000000000E+00 -0.00000000000E+00 -0.45593999997E+02  0.45594000000E+02  0.51100000000E-03 0.  1.
    9900012    2    1    2    0    0 -0.65858777162E+00  0.16604894110E+02 -0.86328563283E+01  0.72461482581E+02  0.69999885737E+02 0.  0.
        -12    1    1    2    0    0  0.65858777162E+00 -0.16604894110E+02  0.86328563283E+01  0.18726517419E+02  0.00000000000E+00 0.  1.
         11    1    3    3    0    0  0.68870568428E+01  0.69020001786E+00  0.10057912114E+02  0.12209403113E+02  0.51100000000E-03 0.  1.
        -11    1    3    3    0    0  0.99630220437E+01  0.21689356593E+02  0.10219147611E+02  0.25963839774E+02  0.51100000000E-03 0. -1.
        -12    1    3    3    0    0 -0.17508666658E+02 -0.57746625002E+01 -0.28909916053E+02  0.34288239694E+02  0.00000000000E+00 0.  1.
</event>
<event>
 7    1  0.2641045E-013  0.7246159E+02  0.7816164E-02  0.1226708E+00
        -11   -1    0    0    0    0  0.00000000000E+00  0.00000000000E+00  0.45593999997E+02  0.45594000000E+02  0.51100000000E-03 0.  1.
         11   -1    0    0    0    0 -0.00000000000E+00 -0.00000000000E+00 -0.45593999997E+02  0.45594000000E+02  0.51100000000E-03 0. -1.
    9900012    2    1    2    0    0 -0.71542518511E+01 -0.16873113136E+02 -0.38461727395E+01  0.72461593212E+02  0.70000029854E+02 0.  0.
        -12    1    1    2    0    0  0.71542518511E+01  0.16873113136E+02  0.38461727395E+01  0.18726406788E+02  0.00000000000E+00 0.  1.
         11    1    3    3    0    0  0.16163382737E+02 -0.23172467283E+02 -0.11440951807E+02  0.30481364142E+02  0.51100000000E-03 0. -1.
        -11    1    3    3    0    0 -0.29986183602E+01 -0.12304579026E+02 -0.19714471231E+01  0.12817214248E+02  0.51100000000E-03 0.  1.
        -12    1    3    3    0    0 -0.20319016228E+02  0.18603933172E+02  0.95662261901E+01  0.29163014821E+02  0.00000000000E+00 0.  1.
</event>
<event>
 7    1  0.2641045E-013  0.7246158E+02  0.7816164E-02  0.1226708E+00
        -11   -1    0    0    0    0  0.00000000000E+00  0.00000000000E+00  0.45593999997E+02  0.45594000000E+02  0.51100000000E-03 0. -1.
         11   -1    0    0    0    0 -0.00000000000E+00 -0.00000000000E+00 -0.45593999997E+02  0.45594000000E+02  0.51100000000E-03 0.  1.
    9900012    2    1    2    0    0 -0.10879216079E+01 -0.16940935658E+02 -0.79057008844E+01  0.72461575332E+02  0.70000006562E+02 0.  0.
        -12    1    1    2    0    0  0.10879216079E+01  0.16940935658E+02  0.79057008844E+01  0.18726424668E+02  0.00000000000E+00 0.  1.
         11    1    3    3    0    0 -0.20113366890E+01  0.63038135373E+01  0.20853124442E+02  0.21877759018E+02  0.51100000000E-03 0. -1.
        -11    1    3    3    0    0  0.58655547131E+01  0.78889621298E+01 -0.93344684047E+01  0.13556281062E+02  0.51100000000E-03 0.  1.
        -12    1    3    3    0    0 -0.49421396320E+01 -0.31133711325E+02 -0.19424356921E+02  0.37027535252E+02  0.00000000000E+00 0.  1.
</event>
<event>
 7    1  0.2641045E-013  0.7246159E+02  0.7816164E-02  0.1226708E+00
        -11   -1    0    0    0    0  0.00000000000E+00  0.00000000000E+00  0.45593999997E+02  0.45594000000E+02  0.51100000000E-03 0. -1.
         11   -1    0    0    0    0 -0.00000000000E+00 -0.00000000000E+00 -0.45593999997E+02  0.45594000000E+02  0.51100000000E-03 0.  1.
    9900012    2    1    2    0    0 -0.14346375770E+02 -0.58529030384E+01  0.10516810864E+02  0.72461593979E+02  0.70000030854E+02 0.  0.
        -12    1    1    2    0    0  0.14346375770E+02  0.58529030384E+01 -0.10516810864E+02  0.18726406021E+02  0.00000000000E+00 0.  1.
         11    1    3    3    0    0 -0.60091463278E+01 -0.14572191180E+02 -0.77137639213E+01  0.17548810486E+02  0.51100000000E-03 0. -1.
        -11    1    3    3    0    0  0.22372630845E+01  0.23348847138E+02 -0.64583646983E+01  0.24328676158E+02  0.51100000000E-03 0.  1.
         12    1    3    3    0    0 -0.10574492527E+02 -0.14629558996E+02  0.24688939484E+02  0.30584107335E+02  0.00000000000E+00 0. -1.
</event>
<event>
 7    1  0.2641045E-013  0.7246159E+02  0.7816164E-02  0.1226708E+00
        -11   -1    0    0    0    0  0.00000000000E+00  0.00000000000E+00  0.45593999997E+02  0.45594000000E+02  0.51100000000E-03 0. -1.
         11   -1    0    0    0    0 -0.00000000000E+00 -0.00000000000E+00 -0.45593999997E+02  0.45594000000E+02  0.51100000000E-03 0.  1.
    9900012    2    1    2    0    0  0.40988797901E+00 -0.12602893981E+01  0.18679459994E+02  0.72461586483E+02  0.70000021089E+02 0.  0.
        -12    1    1    2    0    0 -0.40988797901E+00  0.12602893981E+01 -0.18679459994E+02  0.18726413517E+02  0.00000000000E+00 0.  1.
         11    1    3    3    0    0  0.19499419617E+02  0.95325732571E+01  0.19258449713E+02  0.29016981302E+02  0.51100000000E-03 0. -1.
        -11    1    3    3    0    0  0.43659386154E+01  0.85619931408E+01  0.72549490322E+01  0.12041737095E+02  0.51100000000E-03 0.  1.
        -12    1    3    3    0    0 -0.23455470253E+02 -0.19354855796E+02 -0.78339387513E+01  0.31402868086E+02  0.00000000000E+00 0.  1.
</event>
<event>
 7    1  0.2641045E-013  0.7246156E+02  0.7816164E-02  0.1226708E+00
        -11   -1    0    0    0    0  0.00000000000E+00  0.00000000000E+00  0.45593999997E+02  0.45594000000E+02  0.51100000000E-03 0.  1.
         11   -1    0    0    0    0 -0.00000000000E+00 -0.00000000000E+00 -0.45593999997E+02  0.45594000000E+02  0.51100000000E-03 0. -1.
    9900012    2    1    2    0    0  0.11952107031E+02 -0.14416119931E+02  0.45983263955E-01  0.72461561716E+02  0.69999988825E+02 0.  0.
        -12    1    1    2    0    0 -0.11952107031E+02  0.14416119931E+02 -0.45983263955E-01  0.18726438284E+02  0.00000000000E+00 0.  1.
         11    1    3    3    0    0  0.12607205473E+02  0.16351398646E+02 -0.16371434783E+02  0.26350213370E+02  0.51100000000E-03 0. -1.
        -11    1    3    3    0    0  0.65443565159E+01 -0.11164708965E+02 -0.70177666709E+01  0.14721697517E+02  0.51100000000E-03 0.  1.
        -12    1    3    3    0    0 -0.71994549580E+01 -0.19602809612E+02  0.23435184718E+02  0.31389650829E+02  0.00000000000E+00 0.  1.
</event>
<event>
 7    1  0.2641045E-013  0.7246159E+02  0.7816164E-02  0.1226708E+00
        -11   -1    0    0    0    0  0.00000000000E+00  0.00000000000E+00  0.45593999997E+02  0.45594000000E+02  0.51100000000E-03 0. -1.
         11   -1    0    0    0    0 -0.00000000000E+00 -0.00000000000E+00 -0.45593999997E+02  0.45594000000E+02  0.51100000000E-03 0.  1.
    9900012    2    1    2    0    0  0.55141311767E+01 -0.17852809285E+02  0.12449502166E+01  0.72461592361E+02  0.70000028746E+02 0.  0.
        -12    1    1    2    0    0 -0.55141311767E+01  0.17852809285E+02 -0.12449502166E+01  0.18726407639E+02  0.00000000000E+00 0.  1.
         11    1    3    3    0    0  0.13024206667E+02  0.20103337058E+01  0.25223592081E+02  0.28458759612E+02  0.51100000000E-03 0. -1.
        -11    1    3    3    0    0  0.25774753229E+01 -0.18399713350E+02 -0.70252900263E+00  0.18592643106E+02  0.51100000000E-03 0.  1.
        -12    1    3    3    0    0 -0.10087550814E+02 -0.14634296413E+01 -0.23276112862E+02  0.25410189643E+02  0.00000000000E+00 0.  1.
</event>
<event>
 7    1  0.2641045E-013  0.7246156E+02  0.7816164E-02  0.1226708E+00
        -11   -1    0    0    0    0  0.00000000000E+00  0.00000000000E+00  0.45593999997E+02  0.45594000000E+02  0.51100000000E-03 0.  1.
         11   -1    0    0    0    0 -0.00000000000E+00 -0.00000000000E+00 -0.45593999997E+02  0.45594000000E+02  0.51100000000E-03 0. -1.
    9900012    2    1    2    0    0  0.88313704887E+01 -0.35328207428E+01 -0.16130890047E+02  0.72461560380E+02  0.69999987085E+02 0.  0.
        -12    1    1    2    0    0 -0.88313704887E+01  0.35328207428E+01  0.16130890047E+02  0.18726439620E+02  0.00000000000E+00 0.  1.
         11    1    3    3    0    0  0.12420461893E+02 -0.17727290394E+01 -0.22963521525E+01  0.12754751089E+02  0.51100000000E-03 0. -1.
        -11    1    3    3    0    0  0.24359337475E+02 -0.48344673348E+01 -0.18808805564E+02  0.31153179029E+02  0.51100000000E-03 0.  1.
        -12    1    3    3    0    0 -0.27948428879E+02  0.30743756314E+01  0.49742676692E+01  0.28553630262E+02  0.00000000000E+00 0.  1.
</event>
<event>
 7    1  0.2641045E-013  0.7246143E+02  0.7816164E-02  0.1226708E+00
        -11   -1    0    0    0    0  0.00000000000E+00  0.00000000000E+00  0.45593999997E+02  0.45594000000E+02  0.51100000000E-03 0. -1.
         11   -1    0    0    0    0 -0.00000000000E+00 -0.00000000000E+00 -0.45593999997E+02  0.45594000000E+02  0.51100000000E-03 0.  1.
    9900012    2    1    2    0    0  0.16514477067E+02 -0.63772785445E+01  0.61062844603E+01  0.72461432126E+02  0.69999820010E+02 0.  0.
        -12    1    1    2    0    0 -0.16514477067E+02  0.63772785445E+01 -0.61062844603E+01  0.18726567874E+02  0.00000000000E+00 0.  1.
         11    1    3    3    0    0 -0.19689566357E+02 -0.22259342192E+01  0.81448100746E+01  0.21423625694E+02  0.51100000000E-03 0. -1.
        -11    1    3    3    0    0 -0.58734177452E+01 -0.85110135278E+00  0.55834885049E+01  0.81484203173E+01  0.51100000000E-03 0.  1.
        -12    1    3    3    0    0  0.42077461169E+02 -0.33002429724E+01 -0.76220141192E+01  0.42889386115E+02  0.00000000000E+00 0.  1.
</event>
<event>
 7    1  0.2641045E-013  0.7246159E+02  0.7816164E-02  0.1226708E+00
        -11   -1    0    0    0    0  0.00000000000E+00  0.00000000000E+00  0.45593999997E+02  0.45594000000E+02  0.51100000000E-03 0.  1.
         11   -1    0    0    0    0 -0.00000000000E+00 -0.00000000000E+00 -0.45593999997E+02  0.45594000000E+02  0.51100000000E-03 0. -1.
    9900012    2    1    2    0    0 -0.23295786606E+01 -0.92676736715E+01 -0.16104706715E+02  0.72461593767E+02  0.70000030578E+02 0.  0.
        -12    1    1    2    0    0  0.23295786606E+01  0.92676736715E+01  0.16104706715E+02  0.18726406233E+02  0.00000000000E+00 0.  1.
         11    1    3    3    0    0 -0.22604659450E+02 -0.83325405570E+00  0.71370438255E+00  0.22631268532E+02  0.51100000000E-03 0. -1.
        -11    1    3    3    0    0 -0.11881196154E+02  0.36330233870E+01 -0.28140930623E+01  0.12738948190E+02  0.51100000000E-03 0.  1.
        -12    1    3    3    0    0  0.32156276943E+02 -0.12067443003E+02 -0.14004318035E+02  0.37091377045E+02  0.00000000000E+00 0.  1.
</event>
<event>
 7    1  0.2641045E-013  0.7246157E+02  0.7816164E-02  0.1226708E+00
        -11   -1    0    0    0    0  0.00000000000E+00  0.00000000000E+00  0.45593999997E+02  0.45594000000E+02  0.51100000000E-03 0.  1.
         11   -1    0    0    0    0 -0.00000000000E+00 -0.00000000000E+00 -0.45593999997E+02  0.45594000000E+02  0.51100000000E-03 0. -1.
    9900012    2    1    2    0    0 -0.25862415981E+01  0.10209686965E+02 -0.15483953556E+02  0.72461570248E+02  0.69999999940E+02 0.  0.
        -12    1    1    2    0    0  0.25862415981E+01 -0.10209686965E+02  0.15483953556E+02  0.18726429752E+02  0.00000000000E+00 0.  1.
         11    1    3    3    0    0 -0.60341161833E+01  0.19837129817E+02 -0.30065605461E+01  0.20951412460E+02  0.51100000000E-03 0. -1.
        -11    1    3    3    0    0  0.37416618227E+01  0.19715964575E+02 -0.13044680382E+01  0.20110219528E+02  0.51100000000E-03 0.  1.
         12    1    3    3    0    0 -0.29378723746E+00 -0.29343407427E+02 -0.11172924972E+02  0.31399938261E+02  0.00000000000E+00 0. -1.
</event>
<event>
 7    1  0.2641045E-013  0.7246173E+02  0.7816164E-02  0.1226708E+00
        -11   -1    0    0    0    0  0.00000000000E+00  0.00000000000E+00  0.45593999997E+02  0.45594000000E+02  0.51100000000E-03 0.  1.
         11   -1    0    0    0    0 -0.00000000000E+00 -0.00000000000E+00 -0.45593999997E+02  0.45594000000E+02  0.51100000000E-03 0. -1.
    9900012    2    1    2    0    0  0.12020055214E+02 -0.13126760984E+02  0.58206300082E+01  0.72461726613E+02  0.70000203633E+02 0.  0.
        -12    1    1    2    0    0 -0.12020055214E+02  0.13126760984E+02 -0.58206300082E+01  0.18726273387E+02  0.00000000000E+00 0.  1.
         11    1    3    3    0    0 -0.56261632723E+01 -0.18876184019E+02  0.14205959228E+02  0.24285248900E+02  0.51100000000E-03 0. -1.
        -11    1    3    3    0    0 -0.10663592124E+02 -0.10206614606E+02 -0.66905285111E+00  0.14776156831E+02  0.51100000000E-03 0.  1.
         12    1    3    3    0    0  0.28309810610E+02  0.15956037642E+02 -0.77162763683E+01  0.33400320882E+02  0.00000000000E+00 0. -1.
</event>
<event>
 7    1  0.2641045E-013  0.7246154E+02  0.7816164E-02  0.1226708E+00
        -11   -1    0    0    0    0  0.00000000000E+00  0.00000000000E+00  0.45593999997E+02  0.45594000000E+02  0.51100000000E-03 0. -1.
         11   -1    0    0    0    0 -0.00000000000E+00 -0.00000000000E+00 -0.45593999997E+02  0.45594000000E+02  0.51100000000E-03 0.  1.
    9900012    2    1    2    0    0 -0.11375345671E+02 -0.13942390830E+02  0.51856890185E+01  0.72461544869E+02  0.69999966878E+02 0.  0.
        -12    1    1    2    0    0  0.11375345671E+02  0.13942390830E+02 -0.51856890185E+01  0.18726455131E+02  0.00000000000E+00 0.  1.
         11    1    3    3    0    0  0.11502574215E+02 -0.84698003355E+00  0.12437063531E+02  0.16961932033E+02  0.51100000000E-03 0.  1.
        -11    1    3    3    0    0 -0.31520801461E+02 -0.13194871856E+02  0.10506532787E+02  0.35749864329E+02  0.51100000000E-03 0. -1.
         12    1    3    3    0    0  0.86428815753E+01  0.99461060145E-01 -0.17757907299E+02  0.19749748507E+02  0.00000000000E+00 0. -1.
</event>
<event>
 7    1  0.2641045E-013  0.7246158E+02  0.7816164E-02  0.1226708E+00
        -11   -1    0    0    0    0  0.00000000000E+00  0.00000000000E+00  0.45593999997E+02  0.45594000000E+02  0.51100000000E-03 0.  1.
         11   -1    0    0    0    0 -0.00000000000E+00 -0.00000000000E+00 -0.45593999997E+02  0.45594000000E+02  0.51100000000E-03 0. -1.
    9900012    2    1    2    0    0  0.86054784017E+01  0.32546423427E+01  0.16310481871E+02  0.72461580851E+02  0.70000013751E+02 0.  0.
        -12    1    1    2    0    0 -0.86054784017E+01 -0.32546423427E+01 -0.16310481871E+02  0.18726419149E+02  0.00000000000E+00 0.  1.
         11    1    3    3    0    0 -0.73700815571E+01  0.28689086330E+02 -0.45985387681E+00  0.29624200283E+02  0.51100000000E-03 0. -1.
        -11    1    3    3    0    0  0.15647266817E+02 -0.33438676356E+01  0.16929716843E+01  0.16089890086E+02  0.51100000000E-03 0.  1.
        -12    1    3    3    0    0  0.32829314180E+00 -0.22090576351E+02  0.15077364063E+02  0.26747490481E+02  0.00000000000E+00 0.  1.
</event>
<event>
 7    1  0.2641045E-013  0.7246160E+02  0.7816164E-02  0.1226708E+00
        -11   -1    0    0    0    0  0.00000000000E+00  0.00000000000E+00  0.45593999997E+02  0.45594000000E+02  0.51100000000E-03 0. -1.
         11   -1    0    0    0    0 -0.00000000000E+00 -0.00000000000E+00 -0.45593999997E+02  0.45594000000E+02  0.51100000000E-03 0.  1.
    9900012    2    1    2    0    0  0.80739376229E+01 -0.12520862714E+02  0.11345372868E+02  0.72461602660E+02  0.70000042162E+02 0.  0.
        -12    1    1    2    0    0 -0.80739376229E+01  0.12520862714E+02 -0.11345372868E+02  0.18726397340E+02  0.00000000000E+00 0.  1.
         11    1    3    3    0    0  0.39493839744E+01 -0.93633912805E+01  0.12311183329E+01  0.10236522000E+02  0.51100000000E-03 0. -1.
        -11    1    3    3    0    0  0.68896279965E+01 -0.18017089827E+02  0.30959316936E+02  0.36476866713E+02  0.51100000000E-03 0.  1.
        -12    1    3    3    0    0 -0.27650743480E+01  0.14859618394E+02 -0.20845062401E+02  0.25748213947E+02  0.00000000000E+00 0.  1.
</event>
<event>
 7    1  0.2641045E-013  0.7246156E+02  0.7816164E-02  0.1226708E+00
        -11   -1    0    0    0    0  0.00000000000E+00  0.00000000000E+00  0.45593999997E+02  0.45594000000E+02  0.51100000000E-03 0. -1.
         11   -1    0    0    0    0 -0.00000000000E+00 -0.00000000000E+00 -0.45593999997E+02  0.45594000000E+02  0.51100000000E-03 0.  1.
    9900012    2    1    2    0    0  0.17213404411E+02  0.41042879753E+01 -0.61264309378E+01  0.72461558074E+02  0.69999984080E+02 0.  0.
        -12    1    1    2    0    0 -0.17213404411E+02 -0.41042879753E+01  0.61264309378E+01  0.18726441926E+02  0.00000000000E+00 0.  1.
         11    1    3    3    0    0  0.72089440779E+01  0.65151966529E+01  0.11602144793E+02  0.15133619072E+02  0.51100000000E-03 0. -1.
        -11    1    3    3    0    0  0.97934292697E+01  0.24471658977E+02 -0.26163391638E+01  0.26488083751E+02  0.51100000000E-03 0.  1.
         12    1    3    3    0    0  0.21103106305E+00 -0.26882567655E+02 -0.15112236567E+02  0.30839855250E+02  0.00000000000E+00 0. -1.
</event>
<event>
 7    1  0.2641045E-013  0.7246137E+02  0.7816164E-02  0.1226709E+00
        -11   -1    0    0    0    0  0.00000000000E+00  0.00000000000E+00  0.45593999997E+02  0.45594000000E+02  0.51100000000E-03 0.  1.
         11   -1    0    0    0    0 -0.00000000000E+00 -0.00000000000E+00 -0.45593999997E+02  0.45594000000E+02  0.51100000000E-03 0. -1.
    9900012    2    1    2    0    0  0.59133855488E+01  0.23051831982E+01 -0.17618300422E+02  0.72461374357E+02  0.69999744755E+02 0.  0.
        -12    1    1    2    0    0 -0.59133855488E+01 -0.23051831982E+01  0.17618300422E+02  0.18726625643E+02  0.00000000000E+00 0.  1.
         11    1    3    3    0    0  0.50691033723E+00 -0.14353109930E+02 -0.12533810669E+01  0.14416646182E+02  0.51100000000E-03 0. -1.
        -11    1    3    3    0    0  0.13125444518E+02 -0.16554467653E+02 -0.99346132764E+01  0.23345754096E+02  0.51100000000E-03 0.  1.
         12    1    3    3    0    0 -0.77189693065E+01  0.33212760782E+02 -0.64303060786E+01  0.34698974080E+02  0.00000000000E+00 0. -1.
</event>
<event>
 7    1  0.2641045E-013  0.7246154E+02  0.7816164E-02  0.1226708E+00
        -11   -1    0    0    0    0  0.00000000000E+00  0.00000000000E+00  0.45593999997E+02  0.45594000000E+02  0.51100000000E-03 0. -1.
         11   -1    0    0    0    0 -0.00000000000E+00 -0.00000000000E+00 -0.45593999997E+02  0.45594000000E+02  0.51100000000E-03 0.  1.
    9900012    2    1    2    0    0 -0.56506766331E+01 -0.16038188407E+02  0.78438947831E+01  0.72461539599E+02  0.69999960014E+02 0.  0.
        -12    1    1    2    0    0  0.56506766331E+01  0.16038188407E+02 -0.78438947831E+01  0.18726460401E+02  0.00000000000E+00 0.  1.
         11    1    3    3    0    0 -0.31106848806E+02 -0.25950886122E+02  0.11920333566E+02  0.42227702824E+02  0.51100000000E-03 0. -1.
        -11    1    3    3    0    0  0.89815302048E+01  0.19138715266E+01  0.42465343936E+01  0.10117501849E+02  0.51100000000E-03 0.  1.
        -12    1    3    3    0    0  0.16474641968E+02  0.79988261889E+01 -0.83229731764E+01  0.20116334927E+02  0.00000000000E+00 0.  1.
</event>
<event>
 7    1  0.2641045E-013  0.7246159E+02  0.7816164E-02  0.1226708E+00
        -11   -1    0    0    0    0  0.00000000000E+00  0.00000000000E+00  0.45593999997E+02  0.45594000000E+02  0.51100000000E-03 0. -1.
         11   -1    0    0    0    0 -0.00000000000E+00 -0.00000000000E+00 -0.45593999997E+02  0.45594000000E+02  0.51100000000E-03 0.  1.
    9900012    2    1    2    0    0 -0.76772130189E+01 -0.15081671839E+02 -0.80176122362E+01  0.72461587339E+02  0.70000022204E+02 0.  0.
        -12    1    1    2    0    0  0.76772130189E+01  0.15081671839E+02  0.80176122362E+01  0.18726412661E+02  0.00000000000E+00 0.  1.
         11    1    3    3    0    0 -0.16294073634E+02 -0.43065102768E+01  0.16339733020E+02  0.23474022701E+02  0.51100000000E-03 0. -1.
        -11    1    3    3    0    0  0.19052244750E+00 -0.12760419329E+02  0.82859570790E+01  0.15215836659E+02  0.51100000000E-03 0.  1.
        -12    1    3    3    0    0  0.84263381675E+01  0.19852577668E+01 -0.32643302336E+02  0.33771727979E+02  0.00000000000E+00 0.  1.
</event>
<event>
 7    1  0.2641045E-013  0.7246171E+02  0.7816164E-02  0.1226708E+00
        -11   -1    0    0    0    0  0.00000000000E+00  0.00000000000E+00  0.45593999997E+02  0.45594000000E+02  0.51100000000E-03 0.  1.
         11   -1    0    0    0    0 -0.00000000000E+00 -0.00000000000E+00 -0.45593999997E+02  0.45594000000E+02  0.51100000000E-03 0. -1.
    9900012    2    1    2    0    0  0.44243320647E+00 -0.44504995021E+01 -0.18184372099E+02  0.72461706143E+02  0.70000176968E+02 0.  0.
        -12    1    1    2    0    0 -0.44243320647E+00  0.44504995021E+01  0.18184372099E+02  0.18726293857E+02  0.00000000000E+00 0.  1.
         11    1    3    3    0    0  0.70357704653E+01 -0.27980795603E+02 -0.10183860176E+02  0.30596372284E+02  0.51100000000E-03 0. -1.
        -11    1    3    3    0    0  0.97855163029E+01 -0.25567279823E+00 -0.85252719970E+01  0.12980830512E+02  0.51100000000E-03 0.  1.
        -12    1    3    3    0    0 -0.16378853562E+02  0.23785968899E+02  0.52476007384E+00  0.28884503347E+02  0.00000000000E+00 0.  1.
</event>
<event>
 7    1  0.2641045E-013  0.7246160E+02  0.7816164E-02  0.1226708E+00
        -11   -1    0    0    0    0  0.00000000000E+00  0.00000000000E+00  0.45593999997E+02  0.45594000000E+02  0.51100000000E-03 0. -1.
         11   -1    0    0    0    0 -0.00000000000E+00 -0.00000000000E+00 -0.45593999997E+02  0.45594000000E+02  0.51100000000E-03 0.  1.
    9900012    2    1    2    0    0 -0.85391083192E+01  0.15694788966E+02 -0.56067270228E+01  0.72461597263E+02  0.70000035131E+02 0.  0.
        -12    1    1    2    0    0  0.85391083192E+01 -0.15694788966E+02  0.56067270228E+01  0.18726402737E+02  0.00000000000E+00 0.  1.
         11    1    3    3    0    0  0.13270074495E+02  0.68521648329E+01 -0.18764677894E+01  0.15052181623E+02  0.51100000000E-03 0.  1.
        -11    1    3    3    0    0 -0.39163423343E+02  0.72253000095E+01 -0.16795518390E+01  0.39859748906E+02  0.51100000000E-03 0. -1.
         12    1    3    3    0    0  0.17354240529E+02  0.16173241233E+01 -0.20507073944E+01  0.17549666734E+02  0.00000000000E+00 0. -1.
</event>
<event>
 7    1  0.2641045E-013  0.7246157E+02  0.7816164E-02  0.1226708E+00
        -11   -1    0    0    0    0  0.00000000000E+00  0.00000000000E+00  0.45593999997E+02  0.45594000000E+02  0.51100000000E-03 0.  1.
         11   -1    0    0    0    0 -0.00000000000E+00 -0.00000000000E+00 -0.45593999997E+02  0.45594000000E+02  0.51100000000E-03 0. -1.
    9900012    2    1    2    0    0  0.10685853218E+02 -0.43404682623E+01 -0.14753029687E+02  0.72461574589E+02  0.70000005594E+02 0.  0.
        -12    1    1    2    0    0 -0.10685853218E+02  0.43404682623E+01  0.14753029687E+02  0.18726425411E+02  0.00000000000E+00 0.  1.
         11    1    3    3    0    0  0.27168358059E+02 -0.11713268298E+02 -0.25306686194E+02  0.38932617434E+02  0.51100000000E-03 0. -1.
        -11    1    3    3    0    0 -0.38321646996E+00 -0.23310131577E+01 -0.72580799770E+01  0.76328371146E+01  0.51100000000E-03 0.  1.
        -12    1    3    3    0    0 -0.16099288372E+02  0.97038131931E+01  0.17811736484E+02  0.25896120040E+02  0.00000000000E+00 0.  1.
</event>
<event>
 7    1  0.2641045E-013  0.7246160E+02  0.7816164E-02  0.1226708E+00
        -11   -1    0    0    0    0  0.00000000000E+00  0.00000000000E+00  0.45593999997E+02  0.45594000000E+02  0.51100000000E-03 0.  1.
         11   -1    0    0    0    0 -0.00000000000E+00 -0.00000000000E+00 -0.45593999997E+02  0.45594000000E+02  0.51100000000E-03 0. -1.
    9900012    2    1    2    0    0  0.14728837483E+01 -0.16030482005E+02  0.95672576614E+01  0.72461597275E+02  0.70000035147E+02 0.  0.
        -12    1    1    2    0    0 -0.14728837483E+01  0.16030482005E+02 -0.95672576614E+01  0.18726402725E+02  0.00000000000E+00 0.  1.
         11    1    3    3    0    0 -0.10368481702E+02  0.10036604645E+02 -0.10501358451E+02  0.17847055084E+02  0.51100000000E-03 0. -1.
        -11    1    3    3    0    0 -0.42598929459E+01 -0.20904487243E+02 -0.72108677384E+01  0.22519788822E+02  0.51100000000E-03 0.  1.
        -12    1    3    3    0    0  0.16101258396E+02 -0.51625994072E+01  0.27279483851E+02  0.32094753368E+02  0.00000000000E+00 0.  1.
</event>
<event>
 7    1  0.2641045E-013  0.7246158E+02  0.7816164E-02  0.1226708E+00
        -11   -1    0    0    0    0  0.00000000000E+00  0.00000000000E+00  0.45593999997E+02  0.45594000000E+02  0.51100000000E-03 0.  1.
         11   -1    0    0    0    0 -0.00000000000E+00 -0.00000000000E+00 -0.45593999997E+02  0.45594000000E+02  0.51100000000E-03 0. -1.
    9900012    2    1    2    0    0  0.85183827315E+01  0.61317027022E+00 -0.16665535749E+02  0.72461577385E+02  0.70000009237E+02 0.  0.
        -12    1    1    2    0    0 -0.85183827315E+01 -0.61317027022E+00  0.16665535749E+02  0.18726422615E+02  0.00000000000E+00 0.  1.
         11    1    3    3    0    0 -0.82582037320E+01 -0.64743621852E+01 -0.27497530065E+02  0.29431776272E+02  0.51100000000E-03 0. -1.
        -11    1    3    3    0    0  0.22831794154E+00 -0.24120319949E+01 -0.12589008474E+02  0.12820029721E+02  0.51100000000E-03 0.  1.
        -12    1    3    3    0    0  0.16548268522E+02  0.94995644504E+01  0.23421002790E+02  0.30209771391E+02  0.00000000000E+00 0.  1.
</event>
<event>
 7    1  0.2641045E-013  0.7246175E+02  0.7816164E-02  0.1226708E+00
        -11   -1    0    0    0    0  0.00000000000E+00  0.00000000000E+00  0.45593999997E+02  0.45594000000E+02  0.51100000000E-03 0.  1.
         11   -1    0    0    0    0 -0.00000000000E+00 -0.00000000000E+00 -0.45593999997E+02  0.45594000000E+02  0.51100000000E-03 0. -1.
    9900012    2    1    2    0    0  0.10345937739E+02 -0.61166630188E+01 -0.14360381705E+02  0.72461746853E+02  0.70000230000E+02 0.  0.
        -12    1    1    2    0    0 -0.10345937739E+02  0.61166630188E+01  0.14360381705E+02  0.18726253147E+02  0.00000000000E+00 0.  1.
         11    1    3    3    0    0 -0.15928549511E+01 -0.17881022232E+02 -0.28673665201E+02  0.33829679562E+02  0.51100000000E-03 0. -1.
        -11    1    3    3    0    0 -0.64677313064E+01 -0.60566123963E+01  0.86719859734E+01  0.12398283871E+02  0.51100000000E-03 0.  1.
        -12    1    3    3    0    0  0.18406523997E+02  0.17820971610E+02  0.56412975225E+01  0.26233783420E+02  0.00000000000E+00 0.  1.
</event>
<event>
 7    1  0.2641045E-013  0.7246157E+02  0.7816164E-02  0.1226708E+00
        -11   -1    0    0    0    0  0.00000000000E+00  0.00000000000E+00  0.45593999997E+02  0.45594000000E+02  0.51100000000E-03 0.  1.
         11   -1    0    0    0    0 -0.00000000000E+00 -0.00000000000E+00 -0.45593999997E+02  0.45594000000E+02  0.51100000000E-03 0. -1.
    9900012    2    1    2    0    0  0.13397586569E+02  0.10009645025E+02 -0.84255969557E+01  0.72461574728E+02  0.70000005776E+02 0.  0.
        -12    1    1    2    0    0 -0.13397586569E+02 -0.10009645025E+02  0.84255969557E+01  0.18726425272E+02  0.00000000000E+00 0.  1.
         11    1    3    3    0    0  0.21594408366E+02  0.20567362964E+01  0.16793506441E+02  0.27433018349E+02  0.51100000000E-03 0.  1.
        -11    1    3    3    0    0  0.60696618466E+01  0.66842510185E+01 -0.28869061815E+02  0.30248020381E+02  0.51100000000E-03 0. -1.
         12    1    3    3    0    0 -0.14266483644E+02  0.12686577105E+01  0.36499584185E+01  0.14780535999E+02  0.00000000000E+00 0. -1.
</event>
<event>
 7    1  0.2641045E-013  0.7246158E+02  0.7816164E-02  0.1226708E+00
        -11   -1    0    0    0    0  0.00000000000E+00  0.00000000000E+00  0.45593999997E+02  0.45594000000E+02  0.51100000000E-03 0. -1.
         11   -1    0    0    0    0 -0.00000000000E+00 -0.00000000000E+00 -0.45593999997E+02  0.45594000000E+02  0.51100000000E-03 0.  1.
    9900012    2    1    2    0    0 -0.17522083925E+02  0.62755819199E+01  0.20670235778E+01  0.72461576423E+02  0.70000007984E+02 0.  0.
        -12    1    1    2    0    0  0.17522083925E+02 -0.62755819199E+01 -0.20670235778E+01  0.18726423577E+02  0.00000000000E+00 0.  1.
         11    1    3    3    0    0 -0.12431321544E+02 -0.25333589302E+02  0.87412927401E+01  0.29542151264E+02  0.51100000000E-03 0. -1.
        -11    1    3    3    0    0 -0.10108198309E+02  0.36284393800E+01  0.54161081638E+01  0.12028111792E+02  0.51100000000E-03 0.  1.
        -12    1    3    3    0    0  0.50174359282E+01  0.27980731842E+02 -0.12090377326E+02  0.30891313368E+02  0.00000000000E+00 0.  1.
</event>
<event>
 7    1  0.2641045E-013  0.7246156E+02  0.7816164E-02  0.1226708E+00
        -11   -1    0    0    0    0  0.00000000000E+00  0.00000000000E+00  0.45593999997E+02  0.45594000000E+02  0.51100000000E-03 0. -1.
         11   -1    0    0    0    0 -0.00000000000E+00 -0.00000000000E+00 -0.45593999997E+02  0.45594000000E+02  0.51100000000E-03 0.  1.
    9900012    2    1    2    0    0  0.14107528968E+02 -0.86253086694E+01  0.87898344089E+01  0.72461561146E+02  0.69999988082E+02 0.  0.
        -12    1    1    2    0    0 -0.14107528968E+02  0.86253086694E+01 -0.87898344089E+01  0.18726438854E+02  0.00000000000E+00 0.  1.
         11    1    3    3    0    0 -0.30867548364E+00 -0.97988920802E+01 -0.19527588030E+02  0.21850406429E+02  0.51100000000E-03 0. -1.
        -11    1    3    3    0    0  0.26359003937E+02  0.33792008965E+01  0.95135000663E+01  0.28226278022E+02  0.51100000000E-03 0.  1.
         12    1    3    3    0    0 -0.11942799485E+02 -0.22056174856E+01  0.18803922373E+02  0.22384876694E+02  0.00000000000E+00 0. -1.
</event>
<event>
 7    1  0.2641045E-013  0.7246158E+02  0.7816164E-02  0.1226708E+00
        -11   -1    0    0    0    0  0.00000000000E+00  0.00000000000E+00  0.45593999997E+02  0.45594000000E+02  0.51100000000E-03 0.  1.
         11   -1    0    0    0    0 -0.00000000000E+00 -0.00000000000E+00 -0.45593999997E+02  0.45594000000E+02  0.51100000000E-03 0. -1.
    9900012    2    1    2    0    0 -0.23615920729E+01  0.13278970115E+02 -0.12991176648E+02  0.72461579223E+02  0.70000011631E+02 0.  0.
        -12    1    1    2    0    0  0.23615920729E+01 -0.13278970115E+02  0.12991176648E+02  0.18726420777E+02  0.00000000000E+00 0.  1.
         11    1    3    3    0    0 -0.75060348243E+01 -0.22210156609E+01  0.12975351224E+01  0.79345489478E+01  0.51100000000E-03 0. -1.
        -11    1    3    3    0    0 -0.24219376793E+02  0.66064000204E+01  0.82853140160E+01  0.26436133645E+02  0.51100000000E-03 0.  1.
         12    1    3    3    0    0  0.29363819545E+02  0.88935857554E+01 -0.22574025787E+02  0.38090896630E+02  0.00000000000E+00 0. -1.
</event>
<event>
 7    1  0.2641045E-013  0.7246159E+02  0.7816164E-02  0.1226708E+00
        -11   -1    0    0    0    0  0.00000000000E+00  0.00000000000E+00  0.45593999997E+02  0.45594000000E+02  0.51100000000E-03 0. -1.
         11   -1    0    0    0    0 -0.00000000000E+00 -0.00000000000E+00 -0.45593999997E+02  0.45594000000E+02  0.51100000000E-03 0.  1.
    9900012    2    1    2    0    0  0.18200241262E+02  0.43849150073E+01  0.44967336958E+00  0.72461589031E+02  0.70000024408E+02 0.  0.
        -12    1    1    2    0    0 -0.18200241262E+02 -0.43849150073E+01 -0.44967336958E+00  0.18726410969E+02  0.00000000000E+00 0.  1.
         11    1    3    3    0    0  0.15345361499E+02  0.65125585061E+01  0.11674905051E+02  0.20351829058E+02  0.51100000000E-03 0. -1.
        -11    1    3    3    0    0  0.17365306902E+02  0.14775170869E+02  0.64247146641E+01  0.23688320261E+02  0.51100000000E-03 0.  1.
         12    1    3    3    0    0 -0.14510427138E+02 -0.16902814368E+02 -0.17649946345E+02  0.28421439712E+02  0.00000000000E+00 0. -1.
</event>
<event>
 7    1  0.2641045E-013  0.7246165E+02  0.7816164E-02  0.1226708E+00
        -11   -1    0    0    0    0  0.00000000000E+00  0.00000000000E+00  0.45593999997E+02  0.45594000000E+02  0.51100000000E-03 0. -1.
         11   -1    0    0    0    0 -0.00000000000E+00 -0.00000000000E+00 -0.45593999997E+02  0.45594000000E+02  0.51100000000E-03 0.  1.
    9900012    2    1    2    0    0 -0.15580253563E+02 -0.58433518602E+01  0.85899468972E+01  0.72461648253E+02  0.70000101555E+02 0.  0.
        -12    1    1    2    0    0  0.15580253563E+02  0.58433518602E+01 -0.85899468972E+01  0.18726351747E+02  0.00000000000E+00 0.  1.
         11    1    3    3    0    0 -0.22150903631E+01 -0.15797847680E+02  0.90130020843E+01  0.18322467723E+02  0.51100000000E-03 0. -1.
        -11    1    3    3    0    0  0.71951677246E+01  0.11054055793E+02  0.20761833351E+02  0.24597079347E+02  0.51100000000E-03 0.  1.
         12    1    3    3    0    0 -0.20560330925E+02 -0.10995599731E+01 -0.21184888538E+02  0.29542101182E+02  0.00000000000E+00 0. -1.
</event>
<event>
 7    1  0.2641045E-013  0.7246157E+02  0.7816164E-02  0.1226708E+00
        -11   -1    0    0    0    0  0.00000000000E+00  0.00000000000E+00  0.45593999997E+02  0.45594000000E+02  0.51100000000E-03 0.  1.
         11   -1    0    0    0    0 -0.00000000000E+00 -0.00000000000E+00 -0.45593999997E+02  0.45594000000E+02  0.51100000000E-03 0. -1.
    9900012    2    1    2    0    0 -0.40416080312E+00  0.18709662437E+02 -0.68134812446E+00  0.72461573493E+02  0.70000004166E+02 0.  0.
        -12    1    1    2    0    0  0.40416080312E+00 -0.18709662437E+02  0.68134812446E+00  0.18726426507E+02  0.00000000000E+00 0.  1.
         11    1    3    3    0    0  0.52373135024E+01  0.45767627870E+01 -0.14848042003E+01  0.71120218015E+01  0.51100000000E-03 0. -1.
        -11    1    3    3    0    0  0.27323804685E+02  0.15769094166E+02  0.54605710641E+01  0.32016752957E+02  0.51100000000E-03 0.  1.
        -12    1    3    3    0    0 -0.32965278991E+02 -0.16361945154E+01 -0.46571149882E+01  0.33332798734E+02  0.00000000000E+00 0.  1.
</event>
<event>
 7    1  0.2641045E-013  0.7246158E+02  0.7816164E-02  0.1226708E+00
        -11   -1    0    0    0    0  0.00000000000E+00  0.00000000000E+00  0.45593999997E+02  0.45594000000E+02  0.51100000000E-03 0.  1.
         11   -1    0    0    0    0 -0.00000000000E+00 -0.00000000000E+00 -0.45593999997E+02  0.45594000000E+02  0.51100000000E-03 0. -1.
    9900012    2    1    2    0    0 -0.56753867371E+01  0.17738907550E+02 -0.19493387383E+01  0.72461580770E+02  0.70000013646E+02 0.  0.
        -12    1    1    2    0    0  0.56753867371E+01 -0.17738907550E+02  0.19493387383E+01  0.18726419230E+02  0.00000000000E+00 0.  1.
         11    1    3    3    0    0 -0.73090669557E+01 -0.18057748498E+02  0.55634957211E+01  0.20259743963E+02  0.51100000000E-03 0. -1.
        -11    1    3    3    0    0 -0.57017204562E+01 -0.40540634695E+01  0.62771713400E+01  0.93993578008E+01  0.51100000000E-03 0.  1.
         12    1    3    3    0    0  0.73354006747E+01  0.39850719517E+02 -0.13790005799E+02  0.42802479005E+02  0.00000000000E+00 0. -1.
</event>
<event>
 7    1  0.2641045E-013  0.7246165E+02  0.7816164E-02  0.1226708E+00
        -11   -1    0    0    0    0  0.00000000000E+00  0.00000000000E+00  0.45593999997E+02  0.45594000000E+02  0.51100000000E-03 0. -1.
         11   -1    0    0    0    0 -0.00000000000E+00 -0.00000000000E+00 -0.45593999997E+02  0.45594000000E+02  0.51100000000E-03 0.  1.
    9900012    2    1    2    0    0  0.36564559832E+01  0.16366351921E+02 -0.83336028699E+01  0.72461652722E+02  0.70000107378E+02 0.  0.
        -12    1    1    2    0    0 -0.36564559832E+01 -0.16366351921E+02  0.83336028699E+01  0.18726347278E+02  0.00000000000E+00 0.  1.
         11    1    3    3    0    0 -0.17003841938E+01 -0.10548886197E+02 -0.26953681858E+01  0.11019769341E+02  0.51100000000E-03 0. -1.
        -11    1    3    3    0    0  0.17605971496E+02 -0.11231877895E+02 -0.44850516793E+01  0.21359798739E+02  0.51100000000E-03 0.  1.
         12    1    3    3    0    0 -0.12249131319E+02  0.38147116013E+02 -0.11531830048E+01  0.40082084642E+02  0.00000000000E+00 0. -1.
</event>
<event>
 7    1  0.2641045E-013  0.7246159E+02  0.7816164E-02  0.1226708E+00
        -11   -1    0    0    0    0  0.00000000000E+00  0.00000000000E+00  0.45593999997E+02  0.45594000000E+02  0.51100000000E-03 0. -1.
         11   -1    0    0    0    0 -0.00000000000E+00 -0.00000000000E+00 -0.45593999997E+02  0.45594000000E+02  0.51100000000E-03 0.  1.
    9900012    2    1    2    0    0 -0.16934574384E+02  0.43368553049E+01 -0.67149278993E+01  0.72461591369E+02  0.70000027454E+02 0.  0.
        -12    1    1    2    0    0  0.16934574384E+02 -0.43368553049E+01  0.67149278993E+01  0.18726408631E+02  0.00000000000E+00 0.  1.
         11    1    3    3    0    0 -0.12342483134E+02 -0.25041192247E+02 -0.22307351701E+01  0.28006684536E+02  0.51100000000E-03 0. -1.
        -11    1    3    3    0    0  0.11569118243E+01  0.75430111421E+01 -0.17003337352E+02  0.18637299789E+02  0.51100000000E-03 0.  1.
        -12    1    3    3    0    0 -0.57490030746E+01  0.21835036410E+02  0.12519144623E+02  0.25817607044E+02  0.00000000000E+00 0.  1.
</event>
<event>
 7    1  0.2641045E-013  0.7246155E+02  0.7816164E-02  0.1226708E+00
        -11   -1    0    0    0    0  0.00000000000E+00  0.00000000000E+00  0.45593999997E+02  0.45594000000E+02  0.51100000000E-03 0.  1.
         11   -1    0    0    0    0 -0.00000000000E+00 -0.00000000000E+00 -0.45593999997E+02  0.45594000000E+02  0.51100000000E-03 0. -1.
    9900012    2    1    2    0    0  0.16863770151E+00  0.17837218023E+02  0.56995612263E+01  0.72461553897E+02  0.69999978640E+02 0.  0.
        -12    1    1    2    0    0 -0.16863770151E+00 -0.17837218023E+02 -0.56995612263E+01  0.18726446103E+02  0.00000000000E+00 0.  1.
         11    1    3    3    0    0 -0.48861364989E+01  0.11758974224E+02 -0.78444197058E+01  0.14956026393E+02  0.51100000000E-03 0. -1.
        -11    1    3    3    0    0  0.29344931037E+02  0.10195057567E+02  0.52215862257E+01  0.31501256155E+02  0.51100000000E-03 0.  1.
        -12    1    3    3    0    0 -0.24290156836E+02 -0.41168137686E+01  0.83223947064E+01  0.26004271349E+02  0.00000000000E+00 0.  1.
</event>
<event>
 7    1  0.2641045E-013  0.7246157E+02  0.7816164E-02  0.1226708E+00
        -11   -1    0    0    0    0  0.00000000000E+00  0.00000000000E+00  0.45593999997E+02  0.45594000000E+02  0.51100000000E-03 0.  1.
         11   -1    0    0    0    0 -0.00000000000E+00 -0.00000000000E+00 -0.45593999997E+02  0.45594000000E+02  0.51100000000E-03 0. -1.
    9900012    2    1    2    0    0 -0.13235296292E+02  0.12448923912E+02 -0.45310337769E+01  0.72461573710E+02  0.70000004450E+02 0.  0.
        -12    1    1    2    0    0  0.13235296292E+02 -0.12448923912E+02  0.45310337769E+01  0.18726426290E+02  0.00000000000E+00 0.  1.
         11    1    3    3    0    0 -0.61791063724E+01  0.26618367818E+01 -0.63174609091E+01  0.92291409792E+01  0.51100000000E-03 0. -1.
        -11    1    3    3    0    0  0.50598551108E+01 -0.23840409606E+02 -0.88679344396E+01  0.25934678047E+02  0.51100000000E-03 0.  1.
        -12    1    3    3    0    0 -0.12116045030E+02  0.33627496737E+02  0.10654361572E+02  0.37297754684E+02  0.00000000000E+00 0.  1.
</event>
<event>
 7    1  0.2641045E-013  0.7246159E+02  0.7816164E-02  0.1226708E+00
        -11   -1    0    0    0    0  0.00000000000E+00  0.00000000000E+00  0.45593999997E+02  0.45594000000E+02  0.51100000000E-03 0. -1.
         11   -1    0    0    0    0 -0.00000000000E+00 -0.00000000000E+00 -0.45593999997E+02  0.45594000000E+02  0.51100000000E-03 0.  1.
    9900012    2    1    2    0    0  0.24208751686E+01 -0.28406997280E+01  0.18350698730E+02  0.72461592032E+02  0.70000028317E+02 0.  0.
        -12    1    1    2    0    0 -0.24208751686E+01  0.28406997280E+01 -0.18350698730E+02  0.18726407968E+02  0.00000000000E+00 0.  1.
         11    1    3    3    0    0  0.38958846129E+01  0.10432855885E+02  0.50580810408E+01  0.12231376983E+02  0.51100000000E-03 0.  1.
        -11    1    3    3    0    0  0.87091785325E+00 -0.26705288118E+02 -0.13671997985E+02  0.30014237298E+02  0.51100000000E-03 0. -1.
         12    1    3    3    0    0 -0.23459272976E+01  0.13431732505E+02  0.26964615674E+02  0.30215977751E+02  0.00000000000E+00 0. -1.
</event>
<event>
 7    1  0.2641045E-013  0.7246160E+02  0.7816164E-02  0.1226708E+00
        -11   -1    0    0    0    0  0.00000000000E+00  0.00000000000E+00  0.45593999997E+02  0.45594000000E+02  0.51100000000E-03 0.  1.
         11   -1    0    0    0    0 -0.00000000000E+00 -0.00000000000E+00 -0.45593999997E+02  0.45594000000E+02  0.51100000000E-03 0. -1.
    9900012    2    1    2    0    0 -0.11180826277E+02 -0.32045438632E+00 -0.15018807078E+02  0.72461597962E+02  0.70000036042E+02 0.  0.
        -12    1    1    2    0    0  0.11180826277E+02  0.32045438632E+00  0.15018807078E+02  0.18726402038E+02  0.00000000000E+00 0.  1.
         11    1    3    3    0    0  0.14061335105E+02  0.14865437314E+02 -0.29452948200E+02  0.35863331264E+02  0.51100000000E-03 0. -1.
        -11    1    3    3    0    0  0.18958997324E+01 -0.64634264094E+00 -0.90865754910E+00  0.21995120840E+01  0.51100000000E-03 0.  1.
        -12    1    3    3    0    0 -0.27138061115E+02 -0.14539549059E+02  0.15342798671E+02  0.34398754613E+02  0.00000000000E+00 0.  1.
</event>
<event>
 7    1  0.2641045E-013  0.7246139E+02  0.7816164E-02  0.1226708E+00
        -11   -1    0    0    0    0  0.00000000000E+00  0.00000000000E+00  0.45593999997E+02  0.45594000000E+02  0.51100000000E-03 0.  1.
         11   -1    0    0    0    0 -0.00000000000E+00 -0.00000000000E+00 -0.45593999997E+02  0.45594000000E+02  0.51100000000E-03 0. -1.
    9900012    2    1    2    0    0  0.16342399821E+01  0.17500201280E+02  0.64620572551E+01  0.72461388744E+02  0.69999763497E+02 0.  0.
        -12    1    1    2    0    0 -0.16342399821E+01 -0.17500201280E+02 -0.64620572551E+01  0.18726611256E+02  0.00000000000E+00 0.  1.
         11    1    3    3    0    0  0.28287694152E+02  0.10000225633E+02 -0.71281859433E+01  0.30838436864E+02  0.51100000000E-03 0. -1.
        -11    1    3    3    0    0 -0.13155292419E+02 -0.75966111499E+01 -0.29507745958E+01  0.15475053815E+02  0.51100000000E-03 0.  1.
        -12    1    3    3    0    0 -0.13498161750E+02  0.15096586796E+02  0.16541017794E+02  0.26147898065E+02  0.00000000000E+00 0.  1.
</event>
<event>
 7    1  0.2641045E-013  0.7246158E+02  0.7816164E-02  0.1226708E+00
        -11   -1    0    0    0    0  0.00000000000E+00  0.00000000000E+00  0.45593999997E+02  0.45594000000E+02  0.51100000000E-03 0. -1.
         11   -1    0    0    0    0 -0.00000000000E+00 -0.00000000000E+00 -0.45593999997E+02  0.45594000000E+02  0.51100000000E-03 0.  1.
    9900012    2    1    2    0    0  0.93254123751E+01 -0.67294899688E+00  0.16225371148E+02  0.72461578954E+02  0.70000011281E+02 0.  0.
        -12    1    1    2    0    0 -0.93254123751E+01  0.67294899688E+00 -0.16225371148E+02  0.18726421046E+02  0.00000000000E+00 0.  1.
         11    1    3    3    0    0  0.15197766871E+02 -0.40149217874E+01 -0.49697309439E+01  0.16486052916E+02  0.51100000000E-03 0. -1.
        -11    1    3    3    0    0 -0.97487573337E-01  0.11774609503E+01 -0.17123296453E+02  0.17164008850E+02  0.51100000000E-03 0.  1.
         12    1    3    3    0    0 -0.57748669224E+01  0.21645118402E+01  0.38318398544E+02  0.38811517189E+02  0.00000000000E+00 0. -1.
</event>
<event>
 7    1  0.2641045E-013  0.7246161E+02  0.7816164E-02  0.1226708E+00
        -11   -1    0    0    0    0  0.00000000000E+00  0.00000000000E+00  0.45593999997E+02  0.45594000000E+02  0.51100000000E-03 0.  1.
         11   -1    0    0    0    0 -0.00000000000E+00 -0.00000000000E+00 -0.45593999997E+02  0.45594000000E+02  0.51100000000E-03 0. -1.
    9900012    2    1    2    0    0 -0.11469823810E+02  0.13995471736E+02 -0.48215687175E+01  0.72461611875E+02  0.70000054166E+02 0.  0.
        -12    1    1    2    0    0  0.11469823810E+02 -0.13995471736E+02  0.48215687175E+01  0.18726388125E+02  0.00000000000E+00 0.  1.
         11    1    3    3    0    0 -0.26731892707E+02  0.26926498924E+01 -0.89210536121E+01  0.28309532828E+02  0.51100000000E-03 0. -1.
        -11    1    3    3    0    0  0.21813576708E+00 -0.59367219373E+01  0.16914314723E+02  0.17927250023E+02  0.51100000000E-03 0.  1.
         12    1    3    3    0    0  0.15043933130E+02  0.17239543780E+02 -0.12814829828E+02  0.26224829023E+02  0.00000000000E+00 0. -1.
</event>
<event>
 7    1  0.2641045E-013  0.7246192E+02  0.7816164E-02  0.1226707E+00
        -11   -1    0    0    0    0  0.00000000000E+00  0.00000000000E+00  0.45593999997E+02  0.45594000000E+02  0.51100000000E-03 0.  1.
         11   -1    0    0    0    0 -0.00000000000E+00 -0.00000000000E+00 -0.45593999997E+02  0.45594000000E+02  0.51100000000E-03 0. -1.
    9900012    2    1    2    0    0  0.14878188451E+02 -0.63358051507E+01 -0.94426301124E+01  0.72461917069E+02  0.70000451737E+02 0.  0.
        -12    1    1    2    0    0 -0.14878188451E+02  0.63358051507E+01  0.94426301124E+01  0.18726082931E+02  0.00000000000E+00 0.  1.
         11    1    3    3    0    0  0.43099380736E+01  0.15990507602E+01  0.17759622661E+02  0.18344937363E+02  0.51100000000E-03 0. -1.
        -11    1    3    3    0    0  0.30581363728E+00 -0.14336355967E+02  0.83292821407E+01  0.16583171157E+02  0.51100000000E-03 0.  1.
         12    1    3    3    0    0  0.10262436741E+02  0.64015000561E+01 -0.35531534914E+02  0.37533808549E+02  0.00000000000E+00 0. -1.
</event>
<event>
 7    1  0.2641045E-013  0.7246156E+02  0.7816164E-02  0.1226708E+00
        -11   -1    0    0    0    0  0.00000000000E+00  0.00000000000E+00  0.45593999997E+02  0.45594000000E+02  0.51100000000E-03 0.  1.
         11   -1    0    0    0    0 -0.00000000000E+00 -0.00000000000E+00 -0.45593999997E+02  0.45594000000E+02  0.51100000000E-03 0. -1.
    9900012    2    1    2    0    0  0.24152288764E+01 -0.18569878771E+02 -0.76872281161E-01  0.72461557801E+02  0.69999983725E+02 0.  0.
        -12    1    1    2    0    0 -0.24152288764E+01  0.18569878771E+02  0.76872281161E-01  0.18726442199E+02  0.00000000000E+00 0.  1.
         11    1    3    3    0    0  0.22004371346E+02 -0.16493356161E+01 -0.33966590460E+01  0.22325992906E+02  0.51100000000E-03 0. -1.
        -11    1    3    3    0    0  0.17422174132E+01 -0.15154907682E+02  0.18438047311E+02  0.23930485521E+02  0.51100000000E-03 0.  1.
        -12    1    3    3    0    0 -0.21331359882E+02 -0.17656354727E+01 -0.15118260546E+02  0.26205079374E+02  0.00000000000E+00 0.  1.
</event>
<event>
 7    1  0.2641045E-013  0.7246159E+02  0.7816164E-02  0.1226708E+00
        -11   -1    0    0    0    0  0.00000000000E+00  0.00000000000E+00  0.45593999997E+02  0.45594000000E+02  0.51100000000E-03 0.  1.
         11   -1    0    0    0    0 -0.00000000000E+00 -0.00000000000E+00 -0.45593999997E+02  0.45594000000E+02  0.51100000000E-03 0. -1.
    9900012    2    1    2    0    0 -0.92905425804E+01 -0.11022150811E+02 -0.11953086078E+02  0.72461594666E+02  0.70000031749E+02 0.  0.
        -12    1    1    2    0    0  0.92905425804E+01  0.11022150811E+02  0.11953086078E+02  0.18726405334E+02  0.00000000000E+00 0.  1.
         11    1    3    3    0    0  0.21843977863E+01  0.19330815093E+02 -0.92145887592E+00  0.19475653842E+02  0.51100000000E-03 0.  1.
        -11    1    3    3    0    0 -0.10958004196E+02 -0.15586020444E+02  0.14189018267E+02  0.23755633624E+02  0.51100000000E-03 0. -1.
         12    1    3    3    0    0 -0.51693617118E+00 -0.14766945460E+02 -0.25220645469E+02  0.29230307201E+02  0.00000000000E+00 0. -1.
</event>
<event>
 7    1  0.2641045E-013  0.7246187E+02  0.7816164E-02  0.1226707E+00
        -11   -1    0    0    0    0  0.00000000000E+00  0.00000000000E+00  0.45593999997E+02  0.45594000000E+02  0.51100000000E-03 0. -1.
         11   -1    0    0    0    0 -0.00000000000E+00 -0.00000000000E+00 -0.45593999997E+02  0.45594000000E+02  0.51100000000E-03 0.  1.
    9900012    2    1    2    0    0  0.18572313831E+01  0.14680642365E+02  0.11475941889E+02  0.72461873575E+02  0.70000395078E+02 0.  0.
        -12    1    1    2    0    0 -0.18572313831E+01 -0.14680642365E+02 -0.11475941889E+02  0.18726126425E+02  0.00000000000E+00 0.  1.
         11    1    3    3    0    0 -0.16547961963E+01  0.98074296474E+01  0.17807580808E+01  0.10104213297E+02  0.51100000000E-03 0. -1.
        -11    1    3    3    0    0  0.29965597381E+02 -0.71099738527E+01 -0.24162934566E+01  0.30892187182E+02  0.51100000000E-03 0.  1.
         12    1    3    3    0    0 -0.26453569802E+02  0.11983186570E+02  0.12111477265E+02  0.31465473096E+02  0.00000000000E+00 0. -1.
</event>
<event>
 7    1  0.2641045E-013  0.7246157E+02  0.7816164E-02  0.1226708E+00
        -11   -1    0    0    0    0  0.00000000000E+00  0.00000000000E+00  0.45593999997E+02  0.45594000000E+02  0.51100000000E-03 0.  1.
         11   -1    0    0    0    0 -0.00000000000E+00 -0.00000000000E+00 -0.45593999997E+02  0.45594000000E+02  0.51100000000E-03 0. -1.
    9900012    2    1    2    0    0  0.10610883025E+02 -0.15417004543E+02 -0.63572986143E+00  0.72461574283E+02  0.70000005196E+02 0.  0.
        -12    1    1    2    0    0 -0.10610883025E+02  0.15417004543E+02  0.63572986143E+00  0.18726425717E+02  0.00000000000E+00 0.  1.
         11    1    3    3    0    0  0.11040287489E+02  0.22710677309E+01 -0.19597415518E+02  0.22607618003E+02  0.51100000000E-03 0. -1.
        -11    1    3    3    0    0  0.19379142290E+02 -0.44684823420E+01  0.16631920755E+02  0.25925649049E+02  0.51100000000E-03 0.  1.
         12    1    3    3    0    0 -0.19808546754E+02 -0.13219589932E+02  0.23297649021E+01  0.23928307232E+02  0.00000000000E+00 0. -1.
</event>
<event>
 7    1  0.2641045E-013  0.7246160E+02  0.7816164E-02  0.1226708E+00
        -11   -1    0    0    0    0  0.00000000000E+00  0.00000000000E+00  0.45593999997E+02  0.45594000000E+02  0.51100000000E-03 0.  1.
         11   -1    0    0    0    0 -0.00000000000E+00 -0.00000000000E+00 -0.45593999997E+02  0.45594000000E+02  0.51100000000E-03 0. -1.
    9900012    2    1    2    0    0 -0.68170864799E+01 -0.76449929386E+01 -0.15676714252E+02  0.72461602727E+02  0.70000042249E+02 0.  0.
        -12    1    1    2    0    0  0.68170864799E+01  0.76449929386E+01  0.15676714252E+02  0.18726397273E+02  0.00000000000E+00 0.  1.
         11    1    3    3    0    0 -0.10962068113E+02 -0.23739650903E+01  0.18857170430E+02  0.21940727528E+02  0.51100000000E-03 0. -1.
        -11    1    3    3    0    0 -0.88640665318E+01  0.11764096956E+02 -0.93339029595E+01  0.17438101886E+02  0.51100000000E-03 0.  1.
        -12    1    3    3    0    0  0.13009048165E+02 -0.17035124805E+02 -0.25199981722E+02  0.33082773313E+02  0.00000000000E+00 0.  1.
</event>
<event>
 7    1  0.2641045E-013  0.7246161E+02  0.7816164E-02  0.1226708E+00
        -11   -1    0    0    0    0  0.00000000000E+00  0.00000000000E+00  0.45593999997E+02  0.45594000000E+02  0.51100000000E-03 0.  1.
         11   -1    0    0    0    0 -0.00000000000E+00 -0.00000000000E+00 -0.45593999997E+02  0.45594000000E+02  0.51100000000E-03 0. -1.
    9900012    2    1    2    0    0 -0.31228901457E+01 -0.18428532433E+02 -0.11465459673E+01  0.72461606377E+02  0.70000047004E+02 0.  0.
        -12    1    1    2    0    0  0.31228901457E+01  0.18428532433E+02  0.11465459673E+01  0.18726393623E+02  0.00000000000E+00 0.  1.
         11    1    3    3    0    0 -0.44980437418E+01  0.19650639135E+02 -0.59466835430E+01  0.21017684490E+02  0.51100000000E-03 0. -1.
        -11    1    3    3    0    0  0.53816906320E+01 -0.14737800291E+02  0.18362618404E+02  0.24152662511E+02  0.51100000000E-03 0.  1.
        -12    1    3    3    0    0 -0.40065370359E+01 -0.23341371276E+02 -0.13562480828E+02  0.27291259375E+02  0.00000000000E+00 0.  1.
</event>
<event>
 7    1  0.2641045E-013  0.7246159E+02  0.7816164E-02  0.1226708E+00
        -11   -1    0    0    0    0  0.00000000000E+00  0.00000000000E+00  0.45593999997E+02  0.45594000000E+02  0.51100000000E-03 0.  1.
         11   -1    0    0    0    0 -0.00000000000E+00 -0.00000000000E+00 -0.45593999997E+02  0.45594000000E+02  0.51100000000E-03 0. -1.
    9900012    2    1    2    0    0  0.63415420755E+01 -0.43566378246E+01 -0.17072872210E+02  0.72461590453E+02  0.70000026260E+02 0.  0.
        -12    1    1    2    0    0 -0.63415420755E+01  0.43566378246E+01  0.17072872210E+02  0.18726409547E+02  0.00000000000E+00 0.  1.
         11    1    3    3    0    0 -0.85033829523E+01 -0.66997336046E+01 -0.84915980763E+01  0.13758676904E+02  0.51100000000E-03 0. -1.
        -11    1    3    3    0    0  0.31386019742E+01 -0.12456574949E+02  0.20407313994E+02  0.24113804066E+02  0.51100000000E-03 0.  1.
         12    1    3    3    0    0  0.11706323054E+02  0.14799670729E+02 -0.28988588128E+02  0.34589109482E+02  0.00000000000E+00 0. -1.
</event>
<event>
 7    1  0.2641045E-013  0.7246156E+02  0.7816164E-02  0.1226708E+00
        -11   -1    0    0    0    0  0.00000000000E+00  0.00000000000E+00  0.45593999997E+02  0.45594000000E+02  0.51100000000E-03 0.  1.
         11   -1    0    0    0    0 -0.00000000000E+00 -0.00000000000E+00 -0.45593999997E+02  0.45594000000E+02  0.51100000000E-03 0. -1.
    9900012    2    1    2    0    0 -0.12723939214E+02  0.12768258578E+02  0.50747062519E+01  0.72461556136E+02  0.69999981557E+02 0.  0.
        -12    1    1    2    0    0  0.12723939214E+02 -0.12768258578E+02 -0.50747062519E+01  0.18726443864E+02  0.00000000000E+00 0.  1.
         11    1    3    3    0    0  0.15122607697E+01  0.20600686667E+02  0.78641154020E+01  0.22102478031E+02  0.51100000000E-03 0. -1.
        -11    1    3    3    0    0 -0.13034643539E+02 -0.60204007135E+01  0.21565193452E+02  0.25907619069E+02  0.51100000000E-03 0.  1.
         12    1    3    3    0    0 -0.12015564450E+01 -0.18120273756E+01 -0.24354602602E+02  0.24451459037E+02  0.00000000000E+00 0. -1.
</event>
<event>
 7    1  0.2641045E-013  0.7246159E+02  0.7816164E-02  0.1226708E+00
        -11   -1    0    0    0    0  0.00000000000E+00  0.00000000000E+00  0.45593999997E+02  0.45594000000E+02  0.51100000000E-03 0.  1.
         11   -1    0    0    0    0 -0.00000000000E+00 -0.00000000000E+00 -0.45593999997E+02  0.45594000000E+02  0.51100000000E-03 0. -1.
    9900012    2    1    2    0    0 -0.14151084045E+02  0.10535812085E+02 -0.62786790641E+01  0.72461592797E+02  0.70000029314E+02 0.  0.
        -12    1    1    2    0    0  0.14151084045E+02 -0.10535812085E+02  0.62786790641E+01  0.18726407203E+02  0.00000000000E+00 0.  1.
         11    1    3    3    0    0  0.43199875572E+01 -0.11861028152E+02 -0.30000328655E+01  0.12974840222E+02  0.51100000000E-03 0. -1.
        -11    1    3    3    0    0 -0.31619616823E+02  0.26170873447E+01 -0.12371522625E+02  0.34054425359E+02  0.51100000000E-03 0.  1.
        -12    1    3    3    0    0  0.13148545221E+02  0.19779752893E+02  0.90928764262E+01  0.25432327216E+02  0.00000000000E+00 0.  1.
</event>
<event>
 7    1  0.2641045E-013  0.7246157E+02  0.7816164E-02  0.1226708E+00
        -11   -1    0    0    0    0  0.00000000000E+00  0.00000000000E+00  0.45593999997E+02  0.45594000000E+02  0.51100000000E-03 0. -1.
         11   -1    0    0    0    0 -0.00000000000E+00 -0.00000000000E+00 -0.45593999997E+02  0.45594000000E+02  0.51100000000E-03 0.  1.
    9900012    2    1    2    0    0 -0.15836394683E+02  0.80615742968E+01 -0.59075337883E+01  0.72461565952E+02  0.69999994343E+02 0.  0.
        -12    1    1    2    0    0  0.15836394683E+02 -0.80615742968E+01  0.59075337883E+01  0.18726434048E+02  0.00000000000E+00 0.  1.
         11    1    3    3    0    0 -0.44786287339E+01  0.19224763544E+02 -0.69588914750E+01  0.20930260855E+02  0.51100000000E-03 0. -1.
        -11    1    3    3    0    0 -0.15497229009E+02 -0.18006313859E+01 -0.21616831997E+02  0.26658841051E+02  0.51100000000E-03 0.  1.
         12    1    3    3    0    0  0.41394630598E+01 -0.93625578611E+01  0.22668189684E+02  0.24872464045E+02  0.00000000000E+00 0. -1.
</event>
<event>
 7    1  0.2641045E-013  0.7246161E+02  0.7816164E-02  0.1226708E+00
        -11   -1    0    0    0    0  0.00000000000E+00  0.00000000000E+00  0.45593999997E+02  0.45594000000E+02  0.51100000000E-03 0. -1.
         11   -1    0    0    0    0 -0.00000000000E+00 -0.00000000000E+00 -0.45593999997E+02  0.45594000000E+02  0.51100000000E-03 0.  1.
    9900012    2    1    2    0    0 -0.32396842930E+01  0.66675994206E+01  0.17196666526E+02  0.72461607503E+02  0.70000048471E+02 0.  0.
        -12    1    1    2    0    0  0.32396842930E+01 -0.66675994206E+01 -0.17196666526E+02  0.18726392497E+02  0.00000000000E+00 0.  1.
         11    1    3    3    0    0  0.13024042579E+01 -0.28413483562E+02  0.12525427756E+02  0.31079070863E+02  0.51100000000E-03 0. -1.
        -11    1    3    3    0    0 -0.86267191838E+00 -0.27982276589E+01  0.12083969777E+01  0.31677285847E+01  0.51100000000E-03 0.  1.
        -12    1    3    3    0    0 -0.36794166325E+01  0.37879310641E+02  0.34628417929E+01  0.38214808055E+02  0.00000000000E+00 0.  1.
</event>
<event>
 7    1  0.2641045E-013  0.7246152E+02  0.7816164E-02  0.1226708E+00
        -11   -1    0    0    0    0  0.00000000000E+00  0.00000000000E+00  0.45593999997E+02  0.45594000000E+02  0.51100000000E-03 0.  1.
         11   -1    0    0    0    0 -0.00000000000E+00 -0.00000000000E+00 -0.45593999997E+02  0.45594000000E+02  0.51100000000E-03 0. -1.
    9900012    2    1    2    0    0  0.15718749209E+02  0.89283635426E+01 -0.48873751407E+01  0.72461516401E+02  0.69999929793E+02 0.  0.
        -12    1    1    2    0    0 -0.15718749209E+02 -0.89283635426E+01  0.48873751407E+01  0.18726483599E+02  0.00000000000E+00 0.  1.
         11    1    3    3    0    0  0.12297671377E+02 -0.28652514075E+01  0.14961488548E+02  0.19577755917E+02  0.51100000000E-03 0. -1.
        -11    1    3    3    0    0  0.13255582615E+02  0.60201913328E+01  0.12119055312E+02  0.18942668135E+02  0.51100000000E-03 0.  1.
         12    1    3    3    0    0 -0.98345047834E+01  0.57734236173E+01 -0.31967919001E+02  0.33941092349E+02  0.00000000000E+00 0. -1.
</event>
<event>
 7    1  0.2641045E-013  0.7246157E+02  0.7816164E-02  0.1226708E+00
        -11   -1    0    0    0    0  0.00000000000E+00  0.00000000000E+00  0.45593999997E+02  0.45594000000E+02  0.51100000000E-03 0.  1.
         11   -1    0    0    0    0 -0.00000000000E+00 -0.00000000000E+00 -0.45593999997E+02  0.45594000000E+02  0.51100000000E-03 0. -1.
    9900012    2    1    2    0    0  0.27133402356E+01  0.16041474843E+02 -0.92729677041E+01  0.72461573208E+02  0.70000003795E+02 0.  0.
        -12    1    1    2    0    0 -0.27133402356E+01 -0.16041474843E+02  0.92729677041E+01  0.18726426792E+02  0.00000000000E+00 0.  1.
         11    1    3    3    0    0 -0.32240139741E+01 -0.17654284977E+02  0.87408147339E+00  0.17967528012E+02  0.51100000000E-03 0. -1.
        -11    1    3    3    0    0  0.17830901572E+02  0.51135612109E+01 -0.14078769424E+02  0.23287363695E+02  0.51100000000E-03 0.  1.
        -12    1    3    3    0    0 -0.11893547362E+02  0.28582198610E+02  0.39317202463E+01  0.31206681501E+02  0.00000000000E+00 0.  1.
</event>
<event>
 7    1  0.2641045E-013  0.7246158E+02  0.7816164E-02  0.1226708E+00
        -11   -1    0    0    0    0  0.00000000000E+00  0.00000000000E+00  0.45593999997E+02  0.45594000000E+02  0.51100000000E-03 0.  1.
         11   -1    0    0    0    0 -0.00000000000E+00 -0.00000000000E+00 -0.45593999997E+02  0.45594000000E+02  0.51100000000E-03 0. -1.
    9900012    2    1    2    0    0 -0.11261195777E+01  0.17510032297E+02  0.65428922709E+01  0.72461579743E+02  0.70000012309E+02 0.  0.
        -12    1    1    2    0    0  0.11261195777E+01 -0.17510032297E+02 -0.65428922709E+01  0.18726420257E+02  0.00000000000E+00 0.  1.
         11    1    3    3    0    0  0.14298340797E+01 -0.11251097223E+01 -0.98457797078E+01  0.10012476002E+02  0.51100000000E-03 0. -1.
        -11    1    3    3    0    0 -0.17056369294E+02 -0.15225154528E+02  0.21714972524E+01  0.22966072030E+02  0.51100000000E-03 0.  1.
        -12    1    3    3    0    0  0.14500415637E+02  0.33860296547E+02  0.14217174726E+02  0.39483031711E+02  0.00000000000E+00 0.  1.
</event>
<event>
 7    1  0.2641045E-013  0.7246153E+02  0.7816164E-02  0.1226708E+00
        -11   -1    0    0    0    0  0.00000000000E+00  0.00000000000E+00  0.45593999997E+02  0.45594000000E+02  0.51100000000E-03 0.  1.
         11   -1    0    0    0    0 -0.00000000000E+00 -0.00000000000E+00 -0.45593999997E+02  0.45594000000E+02  0.51100000000E-03 0. -1.
    9900012    2    1    2    0    0 -0.11284612793E+01 -0.17960567442E+02  0.51792937824E+01  0.72461534990E+02  0.69999954009E+02 0.  0.
        -12    1    1    2    0    0  0.11284612793E+01  0.17960567442E+02 -0.51792937824E+01  0.18726465010E+02  0.00000000000E+00 0.  1.
         11    1    3    3    0    0 -0.58021139494E+01  0.11348554305E+02  0.37931896839E+01  0.13298214141E+02  0.51100000000E-03 0. -1.
        -11    1    3    3    0    0 -0.20985987705E+02 -0.30582552693E+01  0.63086561677E+01  0.22126087502E+02  0.51100000000E-03 0.  1.
        -12    1    3    3    0    0  0.25659640376E+02 -0.26250866478E+02 -0.49225520692E+01  0.37037233346E+02  0.00000000000E+00 0.  1.
</event>
<event>
 7    1  0.2641045E-013  0.7246164E+02  0.7816164E-02  0.1226708E+00
        -11   -1    0    0    0    0  0.00000000000E+00  0.00000000000E+00  0.45593999997E+02  0.45594000000E+02  0.51100000000E-03 0. -1.
         11   -1    0    0    0    0 -0.00000000000E+00 -0.00000000000E+00 -0.45593999997E+02  0.45594000000E+02  0.51100000000E-03 0.  1.
    9900012    2    1    2    0    0  0.16835075671E+02  0.49876533435E+00  0.81858515917E+01  0.72461636071E+02  0.70000085687E+02 0.  0.
        -12    1    1    2    0    0 -0.16835075671E+02 -0.49876533435E+00 -0.81858515917E+01  0.18726363929E+02  0.00000000000E+00 0.  1.
         11    1    3    3    0    0 -0.99046418851E+01  0.10366522349E+01  0.20179556421E+02  0.22503134812E+02  0.51100000000E-03 0. -1.
        -11    1    3    3    0    0  0.84754970135E+01 -0.36530138985E+01  0.14764534551E+02  0.17411778798E+02  0.51100000000E-03 0.  1.
        -12    1    3    3    0    0  0.18264220542E+02  0.31151269980E+01 -0.26758239380E+02  0.32546722461E+02  0.00000000000E+00 0.  1.
</event>
<event>
 7    1  0.2641045E-013  0.7246156E+02  0.7816164E-02  0.1226708E+00
        -11   -1    0    0    0    0  0.00000000000E+00  0.00000000000E+00  0.45593999997E+02  0.45594000000E+02  0.51100000000E-03 0.  1.
         11   -1    0    0    0    0 -0.00000000000E+00 -0.00000000000E+00 -0.45593999997E+02  0.45594000000E+02  0.51100000000E-03 0. -1.
    9900012    2    1    2    0    0  0.38771144500E+01 -0.16427903225E+02 -0.81099537634E+01  0.72461564918E+02  0.69999992997E+02 0.  0.
        -12    1    1    2    0    0 -0.38771144500E+01  0.16427903225E+02  0.81099537634E+01  0.18726435082E+02  0.00000000000E+00 0.  1.
         11    1    3    3    0    0  0.12365528569E+02 -0.22125313918E+02  0.99024520022E+01  0.27212026177E+02  0.51100000000E-03 0. -1.
        -11    1    3    3    0    0  0.90439195083E+01  0.64407523071E+01 -0.24213718246E+02  0.26637941398E+02  0.51100000000E-03 0.  1.
         12    1    3    3    0    0 -0.17532333628E+02 -0.74334161423E+00  0.62013124801E+01  0.18611597343E+02  0.00000000000E+00 0. -1.
</event>
<event>
 7    1  0.2641045E-013  0.7246158E+02  0.7816164E-02  0.1226708E+00
        -11   -1    0    0    0    0  0.00000000000E+00  0.00000000000E+00  0.45593999997E+02  0.45594000000E+02  0.51100000000E-03 0. -1.
         11   -1    0    0    0    0 -0.00000000000E+00 -0.00000000000E+00 -0.45593999997E+02  0.45594000000E+02  0.51100000000E-03 0.  1.
    9900012    2    1    2    0    0 -0.90522159004E+00 -0.84575045660E+01  0.16683225194E+02  0.72461579827E+02  0.70000012419E+02 0.  0.
        -12    1    1    2    0    0  0.90522159004E+00  0.84575045660E+01 -0.16683225194E+02  0.18726420173E+02  0.00000000000E+00 0.  1.
         11    1    3    3    0    0  0.22398942565E+02  0.73522531002E+01 -0.58814428709E+01  0.24297317222E+02  0.51100000000E-03 0. -1.
        -11    1    3    3    0    0 -0.12204984442E+01  0.87239962568E+01  0.13141968931E+01  0.89064493978E+01  0.51100000000E-03 0.  1.
        -12    1    3    3    0    0 -0.22083665711E+02 -0.24533753923E+02  0.21250471172E+02  0.39257813207E+02  0.00000000000E+00 0.  1.
</event>
<event>
 7    1  0.2641045E-013  0.7246153E+02  0.7816164E-02  0.1226708E+00
        -11   -1    0    0    0    0  0.00000000000E+00  0.00000000000E+00  0.45593999997E+02  0.45594000000E+02  0.51100000000E-03 0.  1.
         11   -1    0    0    0    0 -0.00000000000E+00 -0.00000000000E+00 -0.45593999997E+02  0.45594000000E+02  0.51100000000E-03 0. -1.
    9900012    2    1    2    0    0  0.35097687172E+01 -0.17739979415E+02 -0.48636900846E+01  0.72461526030E+02  0.69999942338E+02 0.  0.
        -12    1    1    2    0    0 -0.35097687172E+01  0.17739979415E+02  0.48636900846E+01  0.18726473970E+02  0.00000000000E+00 0.  1.
         11    1    3    3    0    0 -0.96953685838E-01 -0.27428016089E+01  0.12233149439E+02  0.12537236782E+02  0.51100000000E-03 0. -1.
        -11    1    3    3    0    0  0.26930737214E+02 -0.19540287086E+02 -0.13428162218E+02  0.35880398090E+02  0.51100000000E-03 0.  1.
         12    1    3    3    0    0 -0.23324014811E+02  0.45431092804E+01 -0.36686773056E+01  0.24043891158E+02  0.00000000000E+00 0. -1.
</event>
<event>
 7    1  0.2641045E-013  0.7246158E+02  0.7816164E-02  0.1226708E+00
        -11   -1    0    0    0    0  0.00000000000E+00  0.00000000000E+00  0.45593999997E+02  0.45594000000E+02  0.51100000000E-03 0. -1.
         11   -1    0    0    0    0 -0.00000000000E+00 -0.00000000000E+00 -0.45593999997E+02  0.45594000000E+02  0.51100000000E-03 0.  1.
    9900012    2    1    2    0    0  0.13317956482E+02  0.99061330581E+01  0.86705930336E+01  0.72461584952E+02  0.70000019094E+02 0.  0.
        -12    1    1    2    0    0 -0.13317956482E+02 -0.99061330581E+01 -0.86705930336E+01  0.18726415048E+02  0.00000000000E+00 0.  1.
         11    1    3    3    0    0  0.20186823567E+00  0.39119547162E+01  0.22240793588E+02  0.22583114050E+02  0.51100000000E-03 0. -1.
        -11    1    3    3    0    0  0.56919124899E+00  0.16271819466E+02  0.11560492163E+02  0.19968501865E+02  0.51100000000E-03 0.  1.
        -12    1    3    3    0    0  0.12546896997E+02 -0.10277641124E+02 -0.25130692718E+02  0.29909969037E+02  0.00000000000E+00 0.  1.
</event>
<event>
 7    1  0.2641045E-013  0.7246146E+02  0.7816164E-02  0.1226708E+00
        -11   -1    0    0    0    0  0.00000000000E+00  0.00000000000E+00  0.45593999997E+02  0.45594000000E+02  0.51100000000E-03 0.  1.
         11   -1    0    0    0    0 -0.00000000000E+00 -0.00000000000E+00 -0.45593999997E+02  0.45594000000E+02  0.51100000000E-03 0. -1.
    9900012    2    1    2    0    0  0.41107327719E+01 -0.15880523432E+02 -0.90329397657E+01  0.72461464036E+02  0.69999861579E+02 0.  0.
        -12    1    1    2    0    0 -0.41107327719E+01  0.15880523432E+02  0.90329397657E+01  0.18726535964E+02  0.00000000000E+00 0.  1.
         11    1    3    3    0    0  0.46277823944E+01 -0.73360747722E+01 -0.10661688216E+02  0.13744306415E+02  0.51100000000E-03 0. -1.
        -11    1    3    3    0    0  0.19272330922E+02 -0.21023660980E+02  0.14521304227E+02  0.32004458078E+02  0.51100000000E-03 0.  1.
        -12    1    3    3    0    0 -0.19789380544E+02  0.12479212320E+02 -0.12892555776E+02  0.26712699543E+02  0.00000000000E+00 0.  1.
</event>
<event>
 7    1  0.2641045E-013  0.7246156E+02  0.7816164E-02  0.1226708E+00
        -11   -1    0    0    0    0  0.00000000000E+00  0.00000000000E+00  0.45593999997E+02  0.45594000000E+02  0.51100000000E-03 0.  1.
         11   -1    0    0    0    0 -0.00000000000E+00 -0.00000000000E+00 -0.45593999997E+02  0.45594000000E+02  0.51100000000E-03 0. -1.
    9900012    2    1    2    0    0 -0.92132010155E+01 -0.15996479061E+02 -0.31478750776E+01  0.72461560594E+02  0.69999987364E+02 0.  0.
        -12    1    1    2    0    0  0.92132010155E+01  0.15996479061E+02  0.31478750776E+01  0.18726439406E+02  0.00000000000E+00 0.  1.
         11    1    3    3    0    0  0.31739630154E+01  0.88784071180E+01 -0.94884255716E+01  0.13376485871E+02  0.51100000000E-03 0. -1.
        -11    1    3    3    0    0  0.19656785486E+02 -0.10605663674E+02  0.86026142378E+01  0.23934792449E+02  0.51100000000E-03 0.  1.
        -12    1    3    3    0    0 -0.32043949517E+02 -0.14269222506E+02 -0.22620637438E+01  0.35150282274E+02  0.00000000000E+00 0.  1.
</event>
<event>
 7    1  0.2641045E-013  0.7246156E+02  0.7816164E-02  0.1226708E+00
        -11   -1    0    0    0    0  0.00000000000E+00  0.00000000000E+00  0.45593999997E+02  0.45594000000E+02  0.51100000000E-03 0.  1.
         11   -1    0    0    0    0 -0.00000000000E+00 -0.00000000000E+00 -0.45593999997E+02  0.45594000000E+02  0.51100000000E-03 0. -1.
    9900012    2    1    2    0    0 -0.81141736273E+01 -0.10688608311E+02 -0.13061140843E+02  0.72461559831E+02  0.69999986370E+02 0.  0.
        -12    1    1    2    0    0  0.81141736273E+01  0.10688608311E+02  0.13061140843E+02  0.18726440169E+02  0.00000000000E+00 0.  1.
         11    1    3    3    0    0  0.82419524495E+01  0.67414575411E+01  0.20056159199E+01  0.10835106157E+02  0.51100000000E-03 0. -1.
        -11    1    3    3    0    0  0.10088418773E+02 -0.58449600412E+01  0.15621059618E+02  0.19492492275E+02  0.51100000000E-03 0.  1.
         12    1    3    3    0    0 -0.26444544849E+02 -0.11585105810E+02 -0.30687816382E+02  0.42133961399E+02  0.00000000000E+00 0. -1.
</event>
<event>
 7    1  0.2641045E-013  0.7246149E+02  0.7816164E-02  0.1226708E+00
        -11   -1    0    0    0    0  0.00000000000E+00  0.00000000000E+00  0.45593999997E+02  0.45594000000E+02  0.51100000000E-03 0. -1.
         11   -1    0    0    0    0 -0.00000000000E+00 -0.00000000000E+00 -0.45593999997E+02  0.45594000000E+02  0.51100000000E-03 0.  1.
    9900012    2    1    2    0    0  0.62523731708E+01  0.17636479938E+02 -0.73783505120E+00  0.72461494842E+02  0.69999901709E+02 0.  0.
        -12    1    1    2    0    0 -0.62523731708E+01 -0.17636479938E+02  0.73783505120E+00  0.18726505158E+02  0.00000000000E+00 0.  1.
         11    1    3    3    0    0 -0.21714432996E+02 -0.55697714446E+01  0.91620757048E+01  0.24217402539E+02  0.51100000000E-03 0. -1.
        -11    1    3    3    0    0  0.25022396342E+02  0.17927950548E+01 -0.17633457665E+01  0.25148435763E+02  0.51100000000E-03 0.  1.
        -12    1    3    3    0    0  0.29444098249E+01  0.21413456328E+02 -0.81365649895E+01  0.23095656539E+02  0.00000000000E+00 0.  1.
</event>
<event>
 7    1  0.2641045E-013  0.7246156E+02  0.7816164E-02  0.1226708E+00
        -11   -1    0    0    0    0  0.00000000000E+00  0.00000000000E+00  0.45593999997E+02  0.45594000000E+02  0.51100000000E-03 0.  1.
         11   -1    0    0    0    0 -0.00000000000E+00 -0.00000000000E+00 -0.45593999997E+02  0.45594000000E+02  0.51100000000E-03 0. -1.
    9900012    2    1    2    0    0 -0.51850517564E+01  0.20335032226E+01 -0.17879025742E+02  0.72461562577E+02  0.69999989947E+02 0.  0.
        -12    1    1    2    0    0  0.51850517564E+01 -0.20335032226E+01  0.17879025742E+02  0.18726437423E+02  0.00000000000E+00 0.  1.
         11    1    3    3    0    0 -0.39644700857E+01  0.77191910821E+01  0.63230193175E+01  0.10737015767E+02  0.51100000000E-03 0. -1.
        -11    1    3    3    0    0  0.12260967401E+02  0.21702387616E+02 -0.17541555636E+02  0.30480011880E+02  0.51100000000E-03 0.  1.
         12    1    3    3    0    0 -0.13481549072E+02 -0.27388075475E+02 -0.66604894238E+01  0.31244534930E+02  0.00000000000E+00 0. -1.
</event>
<event>
 7    1  0.2641045E-013  0.7246129E+02  0.7816164E-02  0.1226709E+00
        -11   -1    0    0    0    0  0.00000000000E+00  0.00000000000E+00  0.45593999997E+02  0.45594000000E+02  0.51100000000E-03 0.  1.
         11   -1    0    0    0    0 -0.00000000000E+00 -0.00000000000E+00 -0.45593999997E+02  0.45594000000E+02  0.51100000000E-03 0. -1.
    9900012    2    1    2    0    0  0.73642308324E+01 -0.16864451044E+02 -0.34710450644E+01  0.72461287566E+02  0.69999631692E+02 0.  0.
        -12    1    1    2    0    0 -0.73642308324E+01  0.16864451044E+02  0.34710450644E+01  0.18726712434E+02  0.00000000000E+00 0.  1.
         11    1    3    3    0    0  0.86934758602E+01 -0.20503660110E+02 -0.14874601888E+02  0.26781157219E+02  0.51100000000E-03 0. -1.
        -11    1    3    3    0    0 -0.14874748749E+02  0.10189217381E+02 -0.91413652411E+01  0.20214916767E+02  0.51100000000E-03 0.  1.
        -12    1    3    3    0    0  0.13545503721E+02 -0.65500083149E+01  0.20544922065E+02  0.25465213579E+02  0.00000000000E+00 0.  1.
</event>
<event>
 7    1  0.2641045E-013  0.7246150E+02  0.7816164E-02  0.1226708E+00
        -11   -1    0    0    0    0  0.00000000000E+00  0.00000000000E+00  0.45593999997E+02  0.45594000000E+02  0.51100000000E-03 0.  1.
         11   -1    0    0    0    0 -0.00000000000E+00 -0.00000000000E+00 -0.45593999997E+02  0.45594000000E+02  0.51100000000E-03 0. -1.
    9900012    2    1    2    0    0 -0.15048513409E+02 -0.81295196474E+01 -0.76246316238E+01  0.72461498647E+02  0.69999906666E+02 0.  0.
        -12    1    1    2    0    0  0.15048513409E+02  0.81295196474E+01  0.76246316238E+01  0.18726501353E+02  0.00000000000E+00 0.  1.
         11    1    3    3    0    0  0.11628706658E+02  0.13857401533E+02 -0.18538062894E+02  0.25902010963E+02  0.51100000000E-03 0. -1.
        -11    1    3    3    0    0 -0.14563966719E+02 -0.11063903634E+02 -0.93546799106E+01  0.20543347505E+02  0.51100000000E-03 0.  1.
        -12    1    3    3    0    0 -0.12113253348E+02 -0.10923017546E+02  0.20268111181E+02  0.26016140180E+02  0.00000000000E+00 0.  1.
</event>
<event>
 7    1  0.2641045E-013  0.7246169E+02  0.7816164E-02  0.1226708E+00
        -11   -1    0    0    0    0  0.00000000000E+00  0.00000000000E+00  0.45593999997E+02  0.45594000000E+02  0.51100000000E-03 0.  1.
         11   -1    0    0    0    0 -0.00000000000E+00 -0.00000000000E+00 -0.45593999997E+02  0.45594000000E+02  0.51100000000E-03 0. -1.
    9900012    2    1    2    0    0  0.36549455518E+00  0.14122854038E+02 -0.12291701000E+02  0.72461694813E+02  0.70000162209E+02 0.  0.
        -12    1    1    2    0    0 -0.36549455518E+00 -0.14122854038E+02  0.12291701000E+02  0.18726305187E+02  0.00000000000E+00 0.  1.
         11    1    3    3    0    0  0.19354133186E+02 -0.23514535010E+01 -0.84256819984E-01  0.19496638285E+02  0.51100000000E-03 0. -1.
        -11    1    3    3    0    0  0.14376745655E+02  0.75440193101E+01 -0.82132312814E+01  0.18195060080E+02  0.51100000000E-03 0.  1.
        -12    1    3    3    0    0 -0.33365384285E+02  0.89302882294E+01 -0.39942128988E+01  0.34769996449E+02  0.00000000000E+00 0.  1.
</event>
<event>
 7    1  0.2641045E-013  0.7246156E+02  0.7816164E-02  0.1226708E+00
        -11   -1    0    0    0    0  0.00000000000E+00  0.00000000000E+00  0.45593999997E+02  0.45594000000E+02  0.51100000000E-03 0.  1.
         11   -1    0    0    0    0 -0.00000000000E+00 -0.00000000000E+00 -0.45593999997E+02  0.45594000000E+02  0.51100000000E-03 0. -1.
    9900012    2    1    2    0    0  0.44617727021E+01  0.69201490370E+01 -0.16819149016E+02  0.72461557413E+02  0.69999983220E+02 0.  0.
        -12    1    1    2    0    0 -0.44617727021E+01 -0.69201490370E+01  0.16819149016E+02  0.18726442587E+02  0.00000000000E+00 0.  1.
         11    1    3    3    0    0  0.14233869088E+02  0.20896521951E+02 -0.65826120154E+01  0.26126584929E+02  0.51100000000E-03 0. -1.
        -11    1    3    3    0    0 -0.17657386622E+02  0.97268202261E+01 -0.34843822620E+01  0.20458134178E+02  0.51100000000E-03 0.  1.
        -12    1    3    3    0    0  0.78852902363E+01 -0.23703193140E+02 -0.67521547384E+01  0.25876838307E+02  0.00000000000E+00 0.  1.
</event>
<event>
 7    1  0.2641045E-013  0.7246156E+02  0.7816164E-02  0.1226708E+00
        -11   -1    0    0    0    0  0.00000000000E+00  0.00000000000E+00  0.45593999997E+02  0.45594000000E+02  0.51100000000E-03 0. -1.
         11   -1    0    0    0    0 -0.00000000000E+00 -0.00000000000E+00 -0.45593999997E+02  0.45594000000E+02  0.51100000000E-03 0.  1.
    9900012    2    1    2    0    0  0.51563750975E+01 -0.14803827131E+02  0.10243920582E+02  0.72461563853E+02  0.69999991610E+02 0.  0.
        -12    1    1    2    0    0 -0.51563750975E+01  0.14803827131E+02 -0.10243920582E+02  0.18726436147E+02  0.00000000000E+00 0.  1.
         11    1    3    3    0    0  0.13438518243E+01  0.22874600725E+01  0.11036521772E+01  0.28734055924E+01  0.51100000000E-03 0. -1.
        -11    1    3    3    0    0  0.46280131400E+01  0.16254467704E+02 -0.19371314369E+02  0.25707470638E+02  0.51100000000E-03 0.  1.
         12    1    3    3    0    0 -0.81548986685E+00 -0.33345754907E+02  0.28511582773E+02  0.43880687623E+02  0.00000000000E+00 0. -1.
</event>
<event>
 7    1  0.2641045E-013  0.7246163E+02  0.7816164E-02  0.1226708E+00
        -11   -1    0    0    0    0  0.00000000000E+00  0.00000000000E+00  0.45593999997E+02  0.45594000000E+02  0.51100000000E-03 0.  1.
         11   -1    0    0    0    0 -0.00000000000E+00 -0.00000000000E+00 -0.45593999997E+02  0.45594000000E+02  0.51100000000E-03 0. -1.
    9900012    2    1    2    0    0  0.55406138871E+01  0.16323925811E+02 -0.73149199029E+01  0.72461627972E+02  0.70000075136E+02 0.  0.
        -12    1    1    2    0    0 -0.55406138871E+01 -0.16323925811E+02  0.73149199029E+01  0.18726372028E+02  0.00000000000E+00 0.  1.
         11    1    3    3    0    0 -0.10995933848E+02 -0.76618151954E+01 -0.18336220219E+02  0.22711911973E+02  0.51100000000E-03 0. -1.
        -11    1    3    3    0    0  0.14747727243E+02  0.60759739838E+01 -0.12405706897E+02  0.20206792980E+02  0.51100000000E-03 0.  1.
        -12    1    3    3    0    0  0.17888204919E+01  0.17909767023E+02  0.23427007213E+02  0.29542923019E+02  0.00000000000E+00 0.  1.
</event>
<event>
 7    1  0.2641045E-013  0.7246158E+02  0.7816164E-02  0.1226708E+00
        -11   -1    0    0    0    0  0.00000000000E+00  0.00000000000E+00  0.45593999997E+02  0.45594000000E+02  0.51100000000E-03 0.  1.
         11   -1    0    0    0    0 -0.00000000000E+00 -0.00000000000E+00 -0.45593999997E+02  0.45594000000E+02  0.51100000000E-03 0. -1.
    9900012    2    1    2    0    0 -0.10700799719E+02  0.15254234655E+02 -0.18655134522E+01  0.72461576691E+02  0.70000008332E+02 0.  0.
        -12    1    1    2    0    0  0.10700799719E+02 -0.15254234655E+02  0.18655134522E+01  0.18726423309E+02  0.00000000000E+00 0.  1.
         11    1    3    3    0    0  0.38685918022E+01  0.59396837628E+01  0.72245667775E+01  0.10121275173E+02  0.51100000000E-03 0. -1.
        -11    1    3    3    0    0  0.12107584494E+02 -0.16067274568E+02 -0.14935978967E+02  0.25056623521E+02  0.51100000000E-03 0.  1.
         12    1    3    3    0    0 -0.26676976015E+02  0.25381825460E+02  0.58458987375E+01  0.37283677997E+02  0.00000000000E+00 0. -1.
</event>
<event>
 7    1  0.2641045E-013  0.7246160E+02  0.7816164E-02  0.1226708E+00
        -11   -1    0    0    0    0  0.00000000000E+00  0.00000000000E+00  0.45593999997E+02  0.45594000000E+02  0.51100000000E-03 0.  1.
         11   -1    0    0    0    0 -0.00000000000E+00 -0.00000000000E+00 -0.45593999997E+02  0.45594000000E+02  0.51100000000E-03 0. -1.
    9900012    2    1    2    0    0 -0.93832024932E-01  0.18524012236E+02  0.27441369894E+01  0.72461598274E+02  0.70000036449E+02 0.  0.
        -12    1    1    2    0    0  0.93832024932E-01 -0.18524012236E+02 -0.27441369894E+01  0.18726401726E+02  0.00000000000E+00 0.  1.
         11    1    3    3    0    0  0.17338591892E+02  0.19508361556E+02  0.23210867240E+01  0.26202869752E+02  0.51100000000E-03 0. -1.
        -11    1    3    3    0    0  0.12043822843E+01  0.25007164902E+01  0.19303204891E+02  0.19501739384E+02  0.51100000000E-03 0.  1.
         12    1    3    3    0    0 -0.18636806201E+02 -0.34850658105E+01 -0.18880154626E+02  0.26756989139E+02  0.00000000000E+00 0. -1.
</event>
<event>
 7    1  0.2641045E-013  0.7246151E+02  0.7816164E-02  0.1226708E+00
        -11   -1    0    0    0    0  0.00000000000E+00  0.00000000000E+00  0.45593999997E+02  0.45594000000E+02  0.51100000000E-03 0. -1.
         11   -1    0    0    0    0 -0.00000000000E+00 -0.00000000000E+00 -0.45593999997E+02  0.45594000000E+02  0.51100000000E-03 0.  1.
    9900012    2    1    2    0    0  0.11923846686E+02  0.56030164818E+01  0.13308252994E+02  0.72461507770E+02  0.69999918551E+02 0.  0.
        -12    1    1    2    0    0 -0.11923846686E+02 -0.56030164818E+01 -0.13308252994E+02  0.18726492230E+02  0.00000000000E+00 0.  1.
         11    1    3    3    0    0  0.18240071554E+02  0.25448718239E+01  0.21254111869E+02  0.28123190689E+02  0.51100000000E-03 0. -1.
        -11    1    3    3    0    0 -0.91937989090E+01 -0.66096153429E+01  0.15279111309E+02  0.19017470810E+02  0.51100000000E-03 0.  1.
        -12    1    3    3    0    0  0.28775740414E+01  0.96677600007E+01 -0.23224970185E+02  0.25320846271E+02  0.00000000000E+00 0.  1.
</event>
<event>
 7    1  0.2641045E-013  0.7246155E+02  0.7816164E-02  0.1226708E+00
        -11   -1    0    0    0    0  0.00000000000E+00  0.00000000000E+00  0.45593999997E+02  0.45594000000E+02  0.51100000000E-03 0.  1.
         11   -1    0    0    0    0 -0.00000000000E+00 -0.00000000000E+00 -0.45593999997E+02  0.45594000000E+02  0.51100000000E-03 0. -1.
    9900012    2    1    2    0    0 -0.97136565201E+01  0.12949640464E+02 -0.94144409900E+01  0.72461547845E+02  0.69999970756E+02 0.  0.
        -12    1    1    2    0    0  0.97136565201E+01 -0.12949640464E+02  0.94144409900E+01  0.18726452155E+02  0.00000000000E+00 0.  1.
         11    1    3    3    0    0  0.94579548019E+01  0.15066319468E+02 -0.17515613046E+02  0.24964847125E+02  0.51100000000E-03 0. -1.
        -11    1    3    3    0    0  0.49135546343E+01  0.14161909937E+02  0.10539234361E+02  0.18324250963E+02  0.51100000000E-03 0.  1.
        -12    1    3    3    0    0 -0.24085165956E+02 -0.16278588940E+02 -0.24380623043E+01  0.29172449757E+02  0.00000000000E+00 0.  1.
</event>
<event>
 7    1  0.2641045E-013  0.7246161E+02  0.7816164E-02  0.1226708E+00
        -11   -1    0    0    0    0  0.00000000000E+00  0.00000000000E+00  0.45593999997E+02  0.45594000000E+02  0.51100000000E-03 0. -1.
         11   -1    0    0    0    0 -0.00000000000E+00 -0.00000000000E+00 -0.45593999997E+02  0.45594000000E+02  0.51100000000E-03 0.  1.
    9900012    2    1    2    0    0  0.24121167459E+01 -0.31953879740E+01  0.18293406016E+02  0.72461614466E+02  0.70000057542E+02 0.  0.
        -12    1    1    2    0    0 -0.24121167459E+01  0.31953879740E+01 -0.18293406016E+02  0.18726385534E+02  0.00000000000E+00 0.  1.
         11    1    3    3    0    0 -0.71904154041E+01  0.44869098798E+01 -0.75722376178E+01  0.11365439576E+02  0.51100000000E-03 0. -1.
        -11    1    3    3    0    0  0.73084456735E+01  0.19155474230E+02 -0.39885554481E+01  0.20886697823E+02  0.51100000000E-03 0.  1.
         12    1    3    3    0    0  0.22940864765E+01 -0.26837772083E+02  0.29854199082E+02  0.40209477067E+02  0.00000000000E+00 0. -1.
</event>
<event>
 7    1  0.2641045E-013  0.7246164E+02  0.7816164E-02  0.1226708E+00
        -11   -1    0    0    0    0  0.00000000000E+00  0.00000000000E+00  0.45593999997E+02  0.45594000000E+02  0.51100000000E-03 0. -1.
         11   -1    0    0    0    0 -0.00000000000E+00 -0.00000000000E+00 -0.45593999997E+02  0.45594000000E+02  0.51100000000E-03 0.  1.
    9900012    2    1    2    0    0  0.20860916409E+01  0.73317730427E+01  0.17104677448E+02  0.72461637169E+02  0.70000087116E+02 0.  0.
        -12    1    1    2    0    0 -0.20860916409E+01 -0.73317730427E+01 -0.17104677448E+02  0.18726362831E+02  0.00000000000E+00 0.  1.
         11    1    3    3    0    0  0.87233052126E+01  0.20364873976E+02  0.30034837155E+02  0.37321784377E+02  0.51100000000E-03 0. -1.
        -11    1    3    3    0    0  0.47801102569E+01 -0.99686445375E+01  0.61825045134E+01  0.12666755319E+02  0.51100000000E-03 0.  1.
        -12    1    3    3    0    0 -0.11417323829E+02 -0.30644563961E+01 -0.19112664220E+02  0.22473097473E+02  0.00000000000E+00 0.  1.
</event>
<event>
 7    1  0.2641045E-013  0.7246156E+02  0.7816164E-02  0.1226708E+00
        -11   -1    0    0    0    0  0.00000000000E+00  0.00000000000E+00  0.45593999997E+02  0.45594000000E+02  0.51100000000E-03 0. -1.
         11   -1    0    0    0    0 -0.00000000000E+00 -0.00000000000E+00 -0.45593999997E+02  0.45594000000E+02  0.51100000000E-03 0.  1.
    9900012    2    1    2    0    0  0.10503066328E+02 -0.15059618644E+02  0.36841671990E+01  0.72461558695E+02  0.69999984890E+02 0.  0.
        -12    1    1    2    0    0 -0.10503066328E+02  0.15059618644E+02 -0.36841671990E+01  0.18726441305E+02  0.00000000000E+00 0.  1.
         11    1    3    3    0    0 -0.10270548553E+02 -0.29031367110E+02 -0.36597719985E+01  0.31011262071E+02  0.51100000000E-03 0. -1.
        -11    1    3    3    0    0  0.90386564805E+01 -0.24026414903E+01 -0.10836538928E+02  0.14314348511E+02  0.51100000000E-03 0.  1.
        -12    1    3    3    0    0  0.11734958401E+02  0.16374389957E+02  0.18180478125E+02  0.27135948113E+02  0.00000000000E+00 0.  1.
</event>
<event>
 7    1  0.2641045E-013  0.7246158E+02  0.7816164E-02  0.1226708E+00
        -11   -1    0    0    0    0  0.00000000000E+00  0.00000000000E+00  0.45593999997E+02  0.45594000000E+02  0.51100000000E-03 0. -1.
         11   -1    0    0    0    0 -0.00000000000E+00 -0.00000000000E+00 -0.45593999997E+02  0.45594000000E+02  0.51100000000E-03 0.  1.
    9900012    2    1    2    0    0  0.78216753356E+01  0.16932951882E+02  0.16659594745E+01  0.72461577879E+02  0.70000009880E+02 0.  0.
        -12    1    1    2    0    0 -0.78216753356E+01 -0.16932951882E+02 -0.16659594745E+01  0.18726422121E+02  0.00000000000E+00 0.  1.
         11    1    3    3    0    0  0.16890975230E+02  0.34596097520E+02  0.96613106510E+01  0.39693021195E+02  0.51100000000E-03 0. -1.
        -11    1    3    3    0    0  0.68705220976E+01  0.10040129668E+01 -0.36355259513E+01  0.78376760035E+01  0.51100000000E-03 0.  1.
        -12    1    3    3    0    0 -0.15939821992E+02 -0.18667158605E+02 -0.43598252252E+01  0.24930880681E+02  0.00000000000E+00 0.  1.
</event>
<event>
 7    1  0.2641045E-013  0.7246168E+02  0.7816164E-02  0.1226708E+00
        -11   -1    0    0    0    0  0.00000000000E+00  0.00000000000E+00  0.45593999997E+02  0.45594000000E+02  0.51100000000E-03 0. -1.
         11   -1    0    0    0    0 -0.00000000000E+00 -0.00000000000E+00 -0.45593999997E+02  0.45594000000E+02  0.51100000000E-03 0.  1.
    9900012    2    1    2    0    0 -0.96897123299E+01 -0.71020182480E+01 -0.14364740718E+02  0.72461682580E+02  0.70000146272E+02 0.  0.
        -12    1    1    2    0    0  0.96897123299E+01  0.71020182480E+01  0.14364740718E+02  0.18726317420E+02  0.00000000000E+00 0.  1.
         11    1    3    3    0    0 -0.11117341497E+02 -0.21596454459E+02  0.20762212966E+02  0.31954211220E+02  0.51100000000E-03 0. -1.
        -11    1    3    3    0    0 -0.53014726377E+01  0.36245508046E+01 -0.64110271753E+01  0.90743732769E+01  0.51100000000E-03 0.  1.
        -12    1    3    3    0    0  0.67291018053E+01  0.10869885406E+02 -0.28715926509E+02  0.31433098083E+02  0.00000000000E+00 0.  1.
</event>
<event>
 7    1  0.2641045E-013  0.7246137E+02  0.7816164E-02  0.1226709E+00
        -11   -1    0    0    0    0  0.00000000000E+00  0.00000000000E+00  0.45593999997E+02  0.45594000000E+02  0.51100000000E-03 0.  1.
         11   -1    0    0    0    0 -0.00000000000E+00 -0.00000000000E+00 -0.45593999997E+02  0.45594000000E+02  0.51100000000E-03 0. -1.
    9900012    2    1    2    0    0 -0.17273536485E+02 -0.40299686502E+01 -0.60058968785E+01  0.72461374374E+02  0.69999744777E+02 0.  0.
        -12    1    1    2    0    0  0.17273536485E+02  0.40299686502E+01  0.60058968785E+01  0.18726625626E+02  0.00000000000E+00 0.  1.
         11    1    3    3    0    0  0.38591953396E+01  0.49223667011E+01 -0.49020268032E+01  0.79468830147E+01  0.51100000000E-03 0. -1.
        -11    1    3    3    0    0  0.39971369413E+01  0.22431245674E+02  0.62864560522E+01  0.23635934849E+02  0.51100000000E-03 0.  1.
         12    1    3    3    0    0 -0.25129868766E+02 -0.31383581025E+02 -0.73903261275E+01  0.40878556511E+02  0.00000000000E+00 0. -1.
</event>
<event>
 7    1  0.2641045E-013  0.7246177E+02  0.7816164E-02  0.1226707E+00
        -11   -1    0    0    0    0  0.00000000000E+00  0.00000000000E+00  0.45593999997E+02  0.45594000000E+02  0.51100000000E-03 0. -1.
         11   -1    0    0    0    0 -0.00000000000E+00 -0.00000000000E+00 -0.45593999997E+02  0.45594000000E+02  0.51100000000E-03 0.  1.
    9900012    2    1    2    0    0  0.31455166468E+01 -0.30135309417E+01  0.18212529138E+02  0.72461765426E+02  0.70000254195E+02 0.  0.
        -12    1    1    2    0    0 -0.31455166468E+01  0.30135309417E+01 -0.18212529138E+02  0.18726234574E+02  0.00000000000E+00 0.  1.
         11    1    3    3    0    0  0.69562552504E+01  0.38234686749E+01  0.13296807299E+02  0.15485912451E+02  0.51100000000E-03 0. -1.
        -11    1    3    3    0    0  0.70017821568E+01 -0.20336798225E+02 -0.18151755160E+02  0.28144209547E+02  0.51100000000E-03 0.  1.
         12    1    3    3    0    0 -0.10812520760E+02  0.13499798608E+02  0.23067476999E+02  0.28831643428E+02  0.00000000000E+00 0. -1.
</event>
<event>
 7    1  0.2641045E-013  0.7246160E+02  0.7816164E-02  0.1226708E+00
        -11   -1    0    0    0    0  0.00000000000E+00  0.00000000000E+00  0.45593999997E+02  0.45594000000E+02  0.51100000000E-03 0. -1.
         11   -1    0    0    0    0 -0.00000000000E+00 -0.00000000000E+00 -0.45593999997E+02  0.45594000000E+02  0.51100000000E-03 0.  1.
    9900012    2    1    2    0    0 -0.13082783630E+02  0.73965436578E+01  0.11171845254E+02  0.72461595861E+02  0.70000033306E+02 0.  0.
        -12    1    1    2    0    0  0.13082783630E+02 -0.73965436578E+01 -0.11171845254E+02  0.18726404139E+02  0.00000000000E+00 0.  1.
         11    1    3    3    0    0 -0.29636912758E+02  0.18043657425E+02  0.27946607944E+02  0.44552587657E+02  0.51100000000E-03 0. -1.
        -11    1    3    3    0    0  0.64857929276E+01  0.21794219662E+00 -0.15599049515E+01  0.66743023920E+01  0.51100000000E-03 0.  1.
        -12    1    3    3    0    0  0.10068336201E+02 -0.10865055964E+02 -0.15214857738E+02  0.21234705812E+02  0.00000000000E+00 0.  1.
</event>
<event>
 7    1  0.2641045E-013  0.7246156E+02  0.7816164E-02  0.1226708E+00
        -11   -1    0    0    0    0  0.00000000000E+00  0.00000000000E+00  0.45593999997E+02  0.45594000000E+02  0.51100000000E-03 0.  1.
         11   -1    0    0    0    0 -0.00000000000E+00 -0.00000000000E+00 -0.45593999997E+02  0.45594000000E+02  0.51100000000E-03 0. -1.
    9900012    2    1    2    0    0  0.31035526715E+01 -0.16365769180E+02 -0.85562294543E+01  0.72461561404E+02  0.69999988418E+02 0.  0.
        -12    1    1    2    0    0 -0.31035526715E+01  0.16365769180E+02  0.85562294543E+01  0.18726438596E+02  0.00000000000E+00 0.  1.
         11    1    3    3    0    0 -0.32510563571E+01 -0.47278981257E+01  0.12682600310E+01  0.58762974646E+01  0.51100000000E-03 0. -1.
        -11    1    3    3    0    0 -0.27270999063E+02 -0.81890879538E+01 -0.15328982654E+02  0.32338000261E+02  0.51100000000E-03 0.  1.
         12    1    3    3    0    0  0.33625608092E+02 -0.34487831001E+01  0.55044931684E+01  0.34247263678E+02  0.00000000000E+00 0. -1.
</event>
<event>
 7    1  0.2641045E-013  0.7246159E+02  0.7816164E-02  0.1226708E+00
        -11   -1    0    0    0    0  0.00000000000E+00  0.00000000000E+00  0.45593999997E+02  0.45594000000E+02  0.51100000000E-03 0.  1.
         11   -1    0    0    0    0 -0.00000000000E+00 -0.00000000000E+00 -0.45593999997E+02  0.45594000000E+02  0.51100000000E-03 0. -1.
    9900012    2    1    2    0    0 -0.13737301392E+02 -0.22953218654E+01 -0.12517850191E+02  0.72461587492E+02  0.70000022404E+02 0.  0.
        -12    1    1    2    0    0  0.13737301392E+02  0.22953218654E+01  0.12517850191E+02  0.18726412508E+02  0.00000000000E+00 0.  1.
         11    1    3    3    0    0 -0.13739459576E+01  0.67365493955E+01 -0.22239998760E+02  0.23278452920E+02  0.51100000000E-03 0. -1.
        -11    1    3    3    0    0 -0.85840079460E+01  0.12630167377E+02 -0.11116193004E+02  0.18888516817E+02  0.51100000000E-03 0.  1.
        -12    1    3    3    0    0 -0.37793474882E+01 -0.21662038638E+02  0.20838341573E+02  0.30294617755E+02  0.00000000000E+00 0.  1.
</event>
<event>
 7    1  0.2641045E-013  0.7246172E+02  0.7816164E-02  0.1226708E+00
        -11   -1    0    0    0    0  0.00000000000E+00  0.00000000000E+00  0.45593999997E+02  0.45594000000E+02  0.51100000000E-03 0.  1.
         11   -1    0    0    0    0 -0.00000000000E+00 -0.00000000000E+00 -0.45593999997E+02  0.45594000000E+02  0.51100000000E-03 0. -1.
    9900012    2    1    2    0    0  0.10754696943E+02  0.15309184462E+02  0.79936203492E+00  0.72461718605E+02  0.70000193202E+02 0.  0.
        -12    1    1    2    0    0 -0.10754696943E+02 -0.15309184462E+02 -0.79936203492E+00  0.18726281395E+02  0.00000000000E+00 0.  1.
         11    1    3    3    0    0 -0.12315529293E+02  0.46483010039E+01  0.15189209398E+02  0.20099528512E+02  0.51100000000E-03 0. -1.
        -11    1    3    3    0    0 -0.66946407469E+01 -0.10302391865E+02  0.19800960881E+01  0.12445009990E+02  0.51100000000E-03 0.  1.
         12    1    3    3    0    0  0.29764866983E+02  0.20963275323E+02 -0.16369943451E+02  0.39917180103E+02  0.00000000000E+00 0. -1.
</event>
<event>
 7    1  0.2641045E-013  0.7246156E+02  0.7816164E-02  0.1226708E+00
        -11   -1    0    0    0    0  0.00000000000E+00  0.00000000000E+00  0.45593999997E+02  0.45594000000E+02  0.51100000000E-03 0. -1.
         11   -1    0    0    0    0 -0.00000000000E+00 -0.00000000000E+00 -0.45593999997E+02  0.45594000000E+02  0.51100000000E-03 0.  1.
    9900012    2    1    2    0    0 -0.15445278978E+02 -0.51880858878E+01 -0.92307536916E+01  0.72461556355E+02  0.69999981841E+02 0.  0.
        -12    1    1    2    0    0  0.15445278978E+02  0.51880858878E+01  0.92307536916E+01  0.18726443645E+02  0.00000000000E+00 0.  1.
         11    1    3    3    0    0  0.17447870961E+01 -0.11398309793E+02  0.16617491175E+01  0.11650199935E+02  0.51100000000E-03 0. -1.
        -11    1    3    3    0    0  0.12483773007E+02 -0.13553551386E+02  0.84248650294E+01  0.20261334968E+02  0.51100000000E-03 0.  1.
        -12    1    3    3    0    0 -0.29673839081E+02  0.19763775291E+02 -0.19317367838E+02  0.40550021452E+02  0.00000000000E+00 0.  1.
</event>
<event>
 7    1  0.2641045E-013  0.7246157E+02  0.7816164E-02  0.1226708E+00
        -11   -1    0    0    0    0  0.00000000000E+00  0.00000000000E+00  0.45593999997E+02  0.45594000000E+02  0.51100000000E-03 0.  1.
         11   -1    0    0    0    0 -0.00000000000E+00 -0.00000000000E+00 -0.45593999997E+02  0.45594000000E+02  0.51100000000E-03 0. -1.
    9900012    2    1    2    0    0 -0.28133848518E+01  0.36935403422E+00 -0.18510204987E+02  0.72461568269E+02  0.69999997361E+02 0.  0.
        -12    1    1    2    0    0  0.28133848518E+01 -0.36935403422E+00  0.18510204987E+02  0.18726431731E+02  0.00000000000E+00 0.  1.
         11    1    3    3    0    0 -0.87296190451E+01 -0.97214535955E+01 -0.10638252002E+02  0.16848896540E+02  0.51100000000E-03 0. -1.
        -11    1    3    3    0    0 -0.16181871834E+01 -0.13860861310E+02  0.15816832181E+02  0.21092989037E+02  0.51100000000E-03 0.  1.
        -12    1    3    3    0    0  0.75344213767E+01  0.23951668940E+02 -0.23688785166E+02  0.34519682692E+02  0.00000000000E+00 0.  1.
</event>
<event>
 7    1  0.2641045E-013  0.7246163E+02  0.7816164E-02  0.1226708E+00
        -11   -1    0    0    0    0  0.00000000000E+00  0.00000000000E+00  0.45593999997E+02  0.45594000000E+02  0.51100000000E-03 0.  1.
         11   -1    0    0    0    0 -0.00000000000E+00 -0.00000000000E+00 -0.45593999997E+02  0.45594000000E+02  0.51100000000E-03 0. -1.
    9900012    2    1    2    0    0 -0.16997340936E+02  0.63614432207E+01 -0.46151407045E+01  0.72461626020E+02  0.70000072593E+02 0.  0.
        -12    1    1    2    0    0  0.16997340936E+02 -0.63614432207E+01  0.46151407045E+01  0.18726373980E+02  0.00000000000E+00 0.  1.
         11    1    3    3    0    0  0.12692559858E+02 -0.14627231892E+01  0.30760126138E+01  0.13141631890E+02  0.51100000000E-03 0. -1.
        -11    1    3    3    0    0  0.13984452314E+02  0.21601274887E+01  0.18131741315E+01  0.14265996565E+02  0.51100000000E-03 0.  1.
         12    1    3    3    0    0 -0.43674353108E+02  0.56640389213E+01 -0.95043274498E+01  0.45053997565E+02  0.00000000000E+00 0. -1.
</event>
<event>
 7    1  0.2641045E-013  0.7246160E+02  0.7816164E-02  0.1226708E+00
        -11   -1    0    0    0    0  0.00000000000E+00  0.00000000000E+00  0.45593999997E+02  0.45594000000E+02  0.51100000000E-03 0.  1.
         11   -1    0    0    0    0 -0.00000000000E+00 -0.00000000000E+00 -0.45593999997E+02  0.45594000000E+02  0.51100000000E-03 0. -1.
    9900012    2    1    2    0    0 -0.83730949749E+01  0.34875427598E+01 -0.16383112046E+02  0.72461600606E+02  0.70000039486E+02 0.  0.
        -12    1    1    2    0    0  0.83730949749E+01 -0.34875427598E+01  0.16383112046E+02  0.18726399394E+02  0.00000000000E+00 0.  1.
         11    1    3    3    0    0 -0.91066594263E+01  0.92043559300E+01 -0.61118989347E+01  0.14318055833E+02  0.51100000000E-03 0. -1.
        -11    1    3    3    0    0 -0.39756202835E+01  0.10487293646E+02  0.20318365515E+02  0.23208292961E+02  0.51100000000E-03 0.  1.
        -12    1    3    3    0    0  0.47091847349E+01 -0.16204106817E+02 -0.30589578627E+02  0.34935251812E+02  0.00000000000E+00 0.  1.
</event>
<event>
 7    1  0.2641045E-013  0.7246152E+02  0.7816164E-02  0.1226708E+00
        -11   -1    0    0    0    0  0.00000000000E+00  0.00000000000E+00  0.45593999997E+02  0.45594000000E+02  0.51100000000E-03 0. -1.
         11   -1    0    0    0    0 -0.00000000000E+00 -0.00000000000E+00 -0.45593999997E+02  0.45594000000E+02  0.51100000000E-03 0.  1.
    9900012    2    1    2    0    0  0.69125975137E+01  0.15863646883E+02 -0.71583355936E+01  0.72461519677E+02  0.69999934062E+02 0.  0.
        -12    1    1    2    0    0 -0.69125975137E+01 -0.15863646883E+02  0.71583355936E+01  0.18726480323E+02  0.00000000000E+00 0.  1.
         11    1    3    3    0    0 -0.10010153642E+02 -0.73493216032E+01  0.15286327298E+02  0.19694859900E+02  0.51100000000E-03 0. -1.
        -11    1    3    3    0    0  0.39387372379E+00 -0.64340471906E+01  0.57521931911E+01  0.86394343872E+01  0.51100000000E-03 0.  1.
         12    1    3    3    0    0  0.16528877432E+02  0.29647015677E+02 -0.28196856082E+02  0.44127225390E+02  0.00000000000E+00 0. -1.
</event>
<event>
 7    1  0.2641045E-013  0.7246159E+02  0.7816164E-02  0.1226708E+00
        -11   -1    0    0    0    0  0.00000000000E+00  0.00000000000E+00  0.45593999997E+02  0.45594000000E+02  0.51100000000E-03 0. -1.
         11   -1    0    0    0    0 -0.00000000000E+00 -0.00000000000E+00 -0.45593999997E+02  0.45594000000E+02  0.51100000000E-03 0.  1.
    9900012    2    1    2    0    0 -0.92193960681E+01 -0.13650690270E+02  0.89072871200E+01  0.72461591574E+02  0.70000027720E+02 0.  0.
        -12    1    1    2    0    0  0.92193960681E+01  0.13650690270E+02 -0.89072871200E+01  0.18726408426E+02  0.00000000000E+00 0.  1.
         11    1    3    3    0    0  0.52158428232E+01 -0.20677450044E+00 -0.18917778034E+02  0.19624731796E+02  0.51100000000E-03 0. -1.
        -11    1    3    3    0    0 -0.13039869296E+02  0.95087631154E+01 -0.75291398588E+00  0.16156164364E+02  0.51100000000E-03 0.  1.
         12    1    3    3    0    0 -0.13953695958E+01 -0.22952678885E+02  0.28577979140E+02  0.36680695414E+02  0.00000000000E+00 0. -1.
</event>
<event>
 7    1  0.2641045E-013  0.7246163E+02  0.7816164E-02  0.1226708E+00
        -11   -1    0    0    0    0  0.00000000000E+00  0.00000000000E+00  0.45593999997E+02  0.45594000000E+02  0.51100000000E-03 0.  1.
         11   -1    0    0    0    0 -0.00000000000E+00 -0.00000000000E+00 -0.45593999997E+02  0.45594000000E+02  0.51100000000E-03 0. -1.
    9900012    2    1    2    0    0  0.21256131965E+01 -0.11205764660E+02 -0.14852262521E+02  0.72461625682E+02  0.70000072153E+02 0.  0.
        -12    1    1    2    0    0 -0.21256131965E+01  0.11205764660E+02  0.14852262521E+02  0.18726374318E+02  0.00000000000E+00 0.  1.
         11    1    3    3    0    0 -0.26620180370E+01 -0.16404458463E+02 -0.30976014078E+02  0.35152610798E+02  0.51100000000E-03 0. -1.
        -11    1    3    3    0    0 -0.31086861428E+01  0.15069158292E+02 -0.16761684112E+01  0.15477499862E+02  0.51100000000E-03 0.  1.
        -12    1    3    3    0    0  0.78963173764E+01 -0.98704644889E+01  0.17799919967E+02  0.21831515023E+02  0.00000000000E+00 0.  1.
</event>
<event>
 7    1  0.2641045E-013  0.7246157E+02  0.7816164E-02  0.1226708E+00
        -11   -1    0    0    0    0  0.00000000000E+00  0.00000000000E+00  0.45593999997E+02  0.45594000000E+02  0.51100000000E-03 0.  1.
         11   -1    0    0    0    0 -0.00000000000E+00 -0.00000000000E+00 -0.45593999997E+02  0.45594000000E+02  0.51100000000E-03 0. -1.
    9900012    2    1    2    0    0  0.12926510890E+02 -0.12535602228E+02 -0.51422895090E+01  0.72461570858E+02  0.70000000734E+02 0.  0.
        -12    1    1    2    0    0 -0.12926510890E+02  0.12535602228E+02  0.51422895090E+01  0.18726429142E+02  0.00000000000E+00 0.  1.
         11    1    3    3    0    0  0.34618199877E+01 -0.19201973968E+01 -0.17366958662E+02  0.17812428501E+02  0.51100000000E-03 0. -1.
        -11    1    3    3    0    0  0.24293282930E+02 -0.20123909809E+02 -0.25629939760E+01  0.31649712162E+02  0.51100000000E-03 0.  1.
         12    1    3    3    0    0 -0.14828592028E+02  0.95085049779E+01  0.14787663129E+02  0.22999430194E+02  0.00000000000E+00 0. -1.
</event>
<event>
 7    1  0.2641045E-013  0.7246165E+02  0.7816164E-02  0.1226708E+00
        -11   -1    0    0    0    0  0.00000000000E+00  0.00000000000E+00  0.45593999997E+02  0.45594000000E+02  0.51100000000E-03 0. -1.
         11   -1    0    0    0    0 -0.00000000000E+00 -0.00000000000E+00 -0.45593999997E+02  0.45594000000E+02  0.51100000000E-03 0.  1.
    9900012    2    1    2    0    0 -0.52666013888E+01 -0.13776966381E+02 -0.11538381960E+02  0.72461650887E+02  0.70000104987E+02 0.  0.
        -12    1    1    2    0    0  0.52666013888E+01  0.13776966381E+02  0.11538381960E+02  0.18726349113E+02  0.00000000000E+00 0.  1.
         11    1    3    3    0    0  0.42574051108E+01 -0.10351260904E+02 -0.28363313980E+02  0.30491829738E+02  0.51100000000E-03 0. -1.
        -11    1    3    3    0    0  0.41704258809E+01 -0.13414442487E+02 -0.44797881829E+01  0.14744769299E+02  0.51100000000E-03 0.  1.
         12    1    3    3    0    0 -0.13694432381E+02  0.99887370096E+01  0.21304720203E+02  0.27225051850E+02  0.00000000000E+00 0. -1.
</event>
<event>
 7    1  0.2641045E-013  0.7246156E+02  0.7816164E-02  0.1226708E+00
        -11   -1    0    0    0    0  0.00000000000E+00  0.00000000000E+00  0.45593999997E+02  0.45594000000E+02  0.51100000000E-03 0.  1.
         11   -1    0    0    0    0 -0.00000000000E+00 -0.00000000000E+00 -0.45593999997E+02  0.45594000000E+02  0.51100000000E-03 0. -1.
    9900012    2    1    2    0    0 -0.13731497617E+02 -0.87101885386E+01  0.92875180574E+01  0.72461564064E+02  0.69999991884E+02 0.  0.
        -12    1    1    2    0    0  0.13731497617E+02  0.87101885386E+01 -0.92875180574E+01  0.18726435936E+02  0.00000000000E+00 0.  1.
         11    1    3    3    0    0 -0.18437541533E+02  0.13410724032E+02  0.15582067877E+02  0.27615055612E+02  0.51100000000E-03 0. -1.
        -11    1    3    3    0    0 -0.39522595641E+01  0.97816881774E+01  0.20628713759E+01  0.10749754315E+02  0.51100000000E-03 0.  1.
        -12    1    3    3    0    0  0.86583034801E+01 -0.31902600748E+02 -0.83574211952E+01  0.34096754137E+02  0.00000000000E+00 0.  1.
</event>
<event>
 7    1  0.2641045E-013  0.7246158E+02  0.7816164E-02  0.1226708E+00
        -11   -1    0    0    0    0  0.00000000000E+00  0.00000000000E+00  0.45593999997E+02  0.45594000000E+02  0.51100000000E-03 0. -1.
         11   -1    0    0    0    0 -0.00000000000E+00 -0.00000000000E+00 -0.45593999997E+02  0.45594000000E+02  0.51100000000E-03 0.  1.
    9900012    2    1    2    0    0  0.17621765656E+02 -0.23654337624E+01  0.58785080372E+01  0.72461581270E+02  0.70000014297E+02 0.  0.
        -12    1    1    2    0    0 -0.17621765656E+02  0.23654337624E+01 -0.58785080372E+01  0.18726418730E+02  0.00000000000E+00 0.  1.
         11    1    3    3    0    0 -0.89053947379E+01  0.32414741511E+01 -0.10300257985E+02  0.13996732652E+02  0.51100000000E-03 0. -1.
        -11    1    3    3    0    0  0.23093820005E+02  0.44499095876E+00 -0.14323687014E+02  0.27178862179E+02  0.51100000000E-03 0.  1.
         12    1    3    3    0    0  0.34333403886E+01 -0.60518988723E+01  0.30502453037E+02  0.31285986439E+02  0.00000000000E+00 0. -1.
</event>
<event>
 7    1  0.2641045E-013  0.7246156E+02  0.7816164E-02  0.1226708E+00
        -11   -1    0    0    0    0  0.00000000000E+00  0.00000000000E+00  0.45593999997E+02  0.45594000000E+02  0.51100000000E-03 0.  1.
         11   -1    0    0    0    0 -0.00000000000E+00 -0.00000000000E+00 -0.45593999997E+02  0.45594000000E+02  0.51100000000E-03 0. -1.
    9900012    2    1    2    0    0 -0.18722241408E+02 -0.19304048359E+00 -0.34646662833E+00  0.72461558077E+02  0.69999984084E+02 0.  0.
        -12    1    1    2    0    0  0.18722241408E+02  0.19304048359E+00  0.34646662833E+00  0.18726441923E+02  0.00000000000E+00 0.  1.
         11    1    3    3    0    0 -0.22387669116E+02  0.10543821576E+02 -0.23358450092E+02  0.34029356338E+02  0.51100000000E-03 0. -1.
        -11    1    3    3    0    0  0.56488308798E+01  0.80721875685E+01  0.18047044907E+01  0.10016309750E+02  0.51100000000E-03 0.  1.
        -12    1    3    3    0    0 -0.19834031724E+01 -0.18809049628E+02  0.21207278973E+02  0.28415891988E+02  0.00000000000E+00 0.  1.
</event>
<event>
 7    1  0.2641045E-013  0.7246161E+02  0.7816164E-02  0.1226708E+00
        -11   -1    0    0    0    0  0.00000000000E+00  0.00000000000E+00  0.45593999997E+02  0.45594000000E+02  0.51100000000E-03 0. -1.
         11   -1    0    0    0    0 -0.00000000000E+00 -0.00000000000E+00 -0.45593999997E+02  0.45594000000E+02  0.51100000000E-03 0.  1.
    9900012    2    1    2    0    0  0.12995125179E+02  0.10816826026E+02  0.80498877247E+01  0.72461609636E+02  0.70000051249E+02 0.  0.
        -12    1    1    2    0    0 -0.12995125179E+02 -0.10816826026E+02 -0.80498877247E+01  0.18726390364E+02  0.00000000000E+00 0.  1.
         11    1    3    3    0    0  0.23507166066E+02  0.22792125034E+02  0.76714625711E+01  0.33629141503E+02  0.51100000000E-03 0. -1.
        -11    1    3    3    0    0 -0.58687319488E+01  0.11096187163E+02  0.70159917584E+01  0.14380247733E+02  0.51100000000E-03 0.  1.
        -12    1    3    3    0    0 -0.46433089379E+01 -0.23071486171E+02 -0.66375666047E+01  0.24452220399E+02  0.00000000000E+00 0.  1.
</event>
<event>
 7    1  0.2641045E-013  0.7246158E+02  0.7816164E-02  0.1226708E+00
        -11   -1    0    0    0    0  0.00000000000E+00  0.00000000000E+00  0.45593999997E+02  0.45594000000E+02  0.51100000000E-03 0. -1.
         11   -1    0    0    0    0 -0.00000000000E+00 -0.00000000000E+00 -0.45593999997E+02  0.45594000000E+02  0.51100000000E-03 0.  1.
    9900012    2    1    2    0    0  0.14368893123E+02 -0.82613308246E+01  0.87157345343E+01  0.72461582696E+02  0.70000016155E+02 0.  0.
        -12    1    1    2    0    0 -0.14368893123E+02  0.82613308246E+01 -0.87157345343E+01  0.18726417304E+02  0.00000000000E+00 0.  1.
         11    1    3    3    0    0 -0.80140761644E+01 -0.85216013994E+01  0.13166676798E+02  0.17612622898E+02  0.51100000000E-03 0. -1.
        -11    1    3    3    0    0  0.99784565573E+01  0.24818304724E+02  0.11405029112E+01  0.26773468057E+02  0.51100000000E-03 0.  1.
         12    1    3    3    0    0  0.12404512730E+02 -0.24558034149E+02 -0.55914451747E+01  0.28075491741E+02  0.00000000000E+00 0. -1.
</event>
<event>
 7    1  0.2641045E-013  0.7246150E+02  0.7816164E-02  0.1226708E+00
        -11   -1    0    0    0    0  0.00000000000E+00  0.00000000000E+00  0.45593999997E+02  0.45594000000E+02  0.51100000000E-03 0. -1.
         11   -1    0    0    0    0 -0.00000000000E+00 -0.00000000000E+00 -0.45593999997E+02  0.45594000000E+02  0.51100000000E-03 0.  1.
    9900012    2    1    2    0    0  0.11732021824E+02  0.13531008830E+02  0.54729490826E+01  0.72461502525E+02  0.69999911718E+02 0.  0.
        -12    1    1    2    0    0 -0.11732021824E+02 -0.13531008830E+02 -0.54729490826E+01  0.18726497475E+02  0.00000000000E+00 0.  1.
         11    1    3    3    0    0 -0.80389171376E+01  0.17756626183E+02  0.15771545733E+02  0.25073165281E+02  0.51100000000E-03 0. -1.
        -11    1    3    3    0    0 -0.11187655599E+02 -0.49523945649E+01  0.45395787566E+01  0.13049813227E+02  0.51100000000E-03 0.  1.
        -12    1    3    3    0    0  0.30958594560E+02  0.72677721222E+00 -0.14838175407E+02  0.34338524017E+02  0.00000000000E+00 0.  1.
</event>
<event>
 7    1  0.2641045E-013  0.7246157E+02  0.7816164E-02  0.1226708E+00
        -11   -1    0    0    0    0  0.00000000000E+00  0.00000000000E+00  0.45593999997E+02  0.45594000000E+02  0.51100000000E-03 0.  1.
         11   -1    0    0    0    0 -0.00000000000E+00 -0.00000000000E+00 -0.45593999997E+02  0.45594000000E+02  0.51100000000E-03 0. -1.
    9900012    2    1    2    0    0  0.10670047693E+01  0.16528099821E+02 -0.87385776764E+01  0.72461566205E+02  0.69999994673E+02 0.  0.
        -12    1    1    2    0    0 -0.10670047693E+01 -0.16528099821E+02  0.87385776764E+01  0.18726433795E+02  0.00000000000E+00 0.  1.
         11    1    3    3    0    0 -0.26816741378E+00 -0.10759662090E+01  0.29117126102E+01  0.31157162307E+01  0.51100000000E-03 0. -1.
        -11    1    3    3    0    0 -0.42716764311E+01 -0.23208281934E+02  0.62766216090E+01  0.24418590233E+02  0.51100000000E-03 0.  1.
         12    1    3    3    0    0  0.56068486142E+01  0.40812347965E+02 -0.17926911896E+02  0.44927259741E+02  0.00000000000E+00 0. -1.
</event>
<event>
 7    1  0.2641045E-013  0.7246154E+02  0.7816164E-02  0.1226708E+00
        -11   -1    0    0    0    0  0.00000000000E+00  0.00000000000E+00  0.45593999997E+02  0.45594000000E+02  0.51100000000E-03 0.  1.
         11   -1    0    0    0    0 -0.00000000000E+00 -0.00000000000E+00 -0.45593999997E+02  0.45594000000E+02  0.51100000000E-03 0. -1.
    9900012    2    1    2    0    0 -0.51947635909E+01  0.89589954710E+01  0.15602285630E+02  0.72461535157E+02  0.69999954227E+02 0.  0.
        -12    1    1    2    0    0  0.51947635909E+01 -0.89589954710E+01 -0.15602285630E+02  0.18726464843E+02  0.00000000000E+00 0.  1.
         11    1    3    3    0    0 -0.11469850472E+02  0.76826868648E+01 -0.64224383136E+01  0.15225927278E+02  0.51100000000E-03 0. -1.
        -11    1    3    3    0    0 -0.12194320329E+02  0.18071290216E+02 -0.28597510972E+01  0.21987522711E+02  0.51100000000E-03 0.  1.
        -12    1    3    3    0    0  0.18469407210E+02 -0.16794981610E+02  0.24884475041E+02  0.35248085169E+02  0.00000000000E+00 0.  1.
</event>
<event>
 7    1  0.2641045E-013  0.7246151E+02  0.7816164E-02  0.1226708E+00
        -11   -1    0    0    0    0  0.00000000000E+00  0.00000000000E+00  0.45593999997E+02  0.45594000000E+02  0.51100000000E-03 0.  1.
         11   -1    0    0    0    0 -0.00000000000E+00 -0.00000000000E+00 -0.45593999997E+02  0.45594000000E+02  0.51100000000E-03 0. -1.
    9900012    2    1    2    0    0 -0.79604174594E+01  0.56186029447E+01 -0.15992009456E+02  0.72461513100E+02  0.69999925493E+02 0.  0.
        -12    1    1    2    0    0  0.79604174594E+01 -0.56186029447E+01  0.15992009456E+02  0.18726486900E+02  0.00000000000E+00 0.  1.
         11    1    3    3    0    0 -0.55728862918E+01 -0.82488979550E+01 -0.11691489995E+02  0.15355530524E+02  0.51100000000E-03 0. -1.
        -11    1    3    3    0    0 -0.14179580366E+02  0.28522007649E+02  0.10101654427E+02  0.33415697540E+02  0.51100000000E-03 0.  1.
         12    1    3    3    0    0  0.11792049198E+02 -0.14654506749E+02 -0.14402173888E+02  0.23690285036E+02  0.00000000000E+00 0. -1.
</event>
<event>
 7    1  0.2641045E-013  0.7246158E+02  0.7816164E-02  0.1226708E+00
        -11   -1    0    0    0    0  0.00000000000E+00  0.00000000000E+00  0.45593999997E+02  0.45594000000E+02  0.51100000000E-03 0.  1.
         11   -1    0    0    0    0 -0.00000000000E+00 -0.00000000000E+00 -0.45593999997E+02  0.45594000000E+02  0.51100000000E-03 0. -1.
    9900012    2    1    2    0    0  0.11815348457E+02  0.72564809397E+01 -0.12586492024E+02  0.72461581328E+02  0.70000014374E+02 0.  0.
        -12    1    1    2    0    0 -0.11815348457E+02 -0.72564809397E+01  0.12586492024E+02  0.18726418672E+02  0.00000000000E+00 0.  1.
         11    1    3    3    0    0  0.84784196458E+01  0.24717787646E+02 -0.33146852495E+01  0.26340838339E+02  0.51100000000E-03 0. -1.
        -11    1    3    3    0    0 -0.18459164254E+01 -0.24650247360E+00 -0.23264563751E+02  0.23338982362E+02  0.51100000000E-03 0.  1.
        -12    1    3    3    0    0  0.51828452363E+01 -0.17214804233E+02  0.13992756976E+02  0.22781760628E+02  0.00000000000E+00 0.  1.
</event>
<event>
 7    1  0.2641045E-013  0.7246154E+02  0.7816164E-02  0.1226708E+00
        -11   -1    0    0    0    0  0.00000000000E+00  0.00000000000E+00  0.45593999997E+02  0.45594000000E+02  0.51100000000E-03 0.  1.
         11   -1    0    0    0    0 -0.00000000000E+00 -0.00000000000E+00 -0.45593999997E+02  0.45594000000E+02  0.51100000000E-03 0. -1.
    9900012    2    1    2    0    0  0.13151497228E+01 -0.44384408436E+01 -0.18145272923E+02  0.72461539967E+02  0.69999960493E+02 0.  0.
        -12    1    1    2    0    0 -0.13151497228E+01  0.44384408436E+01  0.18145272923E+02  0.18726460033E+02  0.00000000000E+00 0.  1.
         11    1    3    3    0    0 -0.26572146979E+01  0.40770547348E+01  0.24527747069E-01  0.48665970793E+01  0.51100000000E-03 0. -1.
        -11    1    3    3    0    0 -0.49643558732E+01 -0.94928274663E+01  0.23043865345E+02  0.25412168991E+02  0.51100000000E-03 0.  1.
         12    1    3    3    0    0  0.89367202939E+01  0.97733188794E+00 -0.41213666015E+02  0.42182773897E+02  0.00000000000E+00 0. -1.
</event>
<event>
 7    1  0.2641045E-013  0.7246147E+02  0.7816164E-02  0.1226708E+00
        -11   -1    0    0    0    0  0.00000000000E+00  0.00000000000E+00  0.45593999997E+02  0.45594000000E+02  0.51100000000E-03 0.  1.
         11   -1    0    0    0    0 -0.00000000000E+00 -0.00000000000E+00 -0.45593999997E+02  0.45594000000E+02  0.51100000000E-03 0. -1.
    9900012    2    1    2    0    0  0.15341726333E+02 -0.60352670953E+01 -0.88820009572E+01  0.72461469173E+02  0.69999868271E+02 0.  0.
        -12    1    1    2    0    0 -0.15341726333E+02  0.60352670953E+01  0.88820009572E+01  0.18726530827E+02  0.00000000000E+00 0.  1.
         11    1    3    3    0    0  0.15954521856E+02  0.27791905087E+01 -0.56761606241E+01  0.17160695418E+02  0.51100000000E-03 0. -1.
        -11    1    3    3    0    0  0.18462534129E+02 -0.13975562743E+02  0.15680901967E+02  0.27965553941E+02  0.51100000000E-03 0.  1.
         12    1    3    3    0    0 -0.19075329652E+02  0.51611051392E+01 -0.18886742300E+02  0.27335219814E+02  0.00000000000E+00 0. -1.
</event>
<event>
 7    1  0.2641045E-013  0.7246192E+02  0.7816164E-02  0.1226707E+00
        -11   -1    0    0    0    0  0.00000000000E+00  0.00000000000E+00  0.45593999997E+02  0.45594000000E+02  0.51100000000E-03 0.  1.
         11   -1    0    0    0    0 -0.00000000000E+00 -0.00000000000E+00 -0.45593999997E+02  0.45594000000E+02  0.51100000000E-03 0. -1.
    9900012    2    1    2    0    0  0.10571880004E+01 -0.25677549789E+01 -0.18519043277E+02  0.72461922568E+02  0.70000458901E+02 0.  0.
        -12    1    1    2    0    0 -0.10571880004E+01  0.25677549789E+01  0.18519043277E+02  0.18726077432E+02  0.00000000000E+00 0.  1.
         11    1    3    3    0    0 -0.19319033636E+02  0.25858357685E+01  0.68863272128E+00  0.19503482318E+02  0.51100000000E-03 0. -1.
        -11    1    3    3    0    0  0.27215420552E+02 -0.11683945313E+01  0.48172138120E+01  0.27663148968E+02  0.51100000000E-03 0.  1.
         12    1    3    3    0    0 -0.68391989161E+01 -0.39851962161E+01 -0.24024889810E+02  0.25295291283E+02  0.00000000000E+00 0. -1.
</event>
<event>
 7    1  0.2641045E-013  0.7246154E+02  0.7816164E-02  0.1226708E+00
        -11   -1    0    0    0    0  0.00000000000E+00  0.00000000000E+00  0.45593999997E+02  0.45594000000E+02  0.51100000000E-03 0. -1.
         11   -1    0    0    0    0 -0.00000000000E+00 -0.00000000000E+00 -0.45593999997E+02  0.45594000000E+02  0.51100000000E-03 0.  1.
    9900012    2    1    2    0    0 -0.67300830316E+01  0.52220445056E+01  0.16676822853E+02  0.72461543130E+02  0.69999964614E+02 0.  0.
        -12    1    1    2    0    0  0.67300830316E+01 -0.52220445056E+01 -0.16676822853E+02  0.18726456870E+02  0.00000000000E+00 0.  1.
         11    1    3    3    0    0  0.59907526036E+01 -0.89704854753E+01  0.17125123568E+02  0.20239283186E+02  0.51100000000E-03 0. -1.
        -11    1    3    3    0    0  0.11747031465E+02 -0.28242845053E+01  0.14505192654E+02  0.18877763252E+02  0.51100000000E-03 0.  1.
        -12    1    3    3    0    0 -0.24467867100E+02  0.17016814486E+02 -0.14953493369E+02  0.33344496692E+02  0.00000000000E+00 0.  1.
</event>
<event>
 7    1  0.2641045E-013  0.7246155E+02  0.7816164E-02  0.1226708E+00
        -11   -1    0    0    0    0  0.00000000000E+00  0.00000000000E+00  0.45593999997E+02  0.45594000000E+02  0.51100000000E-03 0.  1.
         11   -1    0    0    0    0 -0.00000000000E+00 -0.00000000000E+00 -0.45593999997E+02  0.45594000000E+02  0.51100000000E-03 0. -1.
    9900012    2    1    2    0    0 -0.45971074983E+01  0.15812833516E+02 -0.89163334631E+01  0.72461545355E+02  0.69999967512E+02 0.  0.
        -12    1    1    2    0    0  0.45971074983E+01 -0.15812833516E+02  0.89163334631E+01  0.18726454645E+02  0.00000000000E+00 0.  1.
         11    1    3    3    0    0  0.11116133188E+02 -0.48757358837E+01 -0.80692499974E+01  0.14575802319E+02  0.51100000000E-03 0. -1.
        -11    1    3    3    0    0  0.11297739366E+02  0.21829378857E+01  0.17051441557E+02  0.20570750886E+02  0.51100000000E-03 0.  1.
        -12    1    3    3    0    0 -0.27010980052E+02  0.18505631514E+02 -0.17898525023E+02  0.37314992149E+02  0.00000000000E+00 0.  1.
</event>
<event>
 7    1  0.2641045E-013  0.7246192E+02  0.7816164E-02  0.1226707E+00
        -11   -1    0    0    0    0  0.00000000000E+00  0.00000000000E+00  0.45593999997E+02  0.45594000000E+02  0.51100000000E-03 0.  1.
         11   -1    0    0    0    0 -0.00000000000E+00 -0.00000000000E+00 -0.45593999997E+02  0.45594000000E+02  0.51100000000E-03 0. -1.
    9900012    2    1    2    0    0 -0.16114201249E+02 -0.91251441237E+01 -0.27803541599E+01  0.72461919085E+02  0.70000454363E+02 0.  0.
        -12    1    1    2    0    0  0.16114201249E+02  0.91251441237E+01  0.27803541599E+01  0.18726080915E+02  0.00000000000E+00 0.  1.
         11    1    3    3    0    0 -0.26310325089E+01  0.37807578648E+01 -0.98997132395E+01  0.10918827070E+02  0.51100000000E-03 0. -1.
        -11    1    3    3    0    0  0.20673086942E+02  0.22851373470E+01  0.11728541262E+02  0.23877961739E+02  0.51100000000E-03 0.  1.
         12    1    3    3    0    0 -0.34156255682E+02 -0.15191039336E+02 -0.46091821828E+01  0.37665130276E+02  0.00000000000E+00 0. -1.
</event>
<event>
 7    1  0.2641045E-013  0.7246165E+02  0.7816164E-02  0.1226708E+00
        -11   -1    0    0    0    0  0.00000000000E+00  0.00000000000E+00  0.45593999997E+02  0.45594000000E+02  0.51100000000E-03 0. -1.
         11   -1    0    0    0    0 -0.00000000000E+00 -0.00000000000E+00 -0.45593999997E+02  0.45594000000E+02  0.51100000000E-03 0.  1.
    9900012    2    1    2    0    0 -0.42823579262E+01 -0.11066892125E+02  0.14486600764E+02  0.72461647114E+02  0.70000100072E+02 0.  0.
        -12    1    1    2    0    0  0.42823579262E+01  0.11066892125E+02 -0.14486600764E+02  0.18726352886E+02  0.00000000000E+00 0.  1.
         11    1    3    3    0    0  0.72887148226E+01 -0.21484862940E+02  0.30492929027E+02  0.38007149594E+02  0.51100000000E-03 0. -1.
        -11    1    3    3    0    0  0.12872459764E+01 -0.75611077586E+01 -0.76242364914E+01  0.10814635226E+02  0.51100000000E-03 0.  1.
        -12    1    3    3    0    0 -0.12858318725E+02  0.17979078574E+02 -0.83820917719E+01  0.23639862294E+02  0.00000000000E+00 0.  1.
</event>
<event>
 7    1  0.2641045E-013  0.7246170E+02  0.7816164E-02  0.1226708E+00
        -11   -1    0    0    0    0  0.00000000000E+00  0.00000000000E+00  0.45593999997E+02  0.45594000000E+02  0.51100000000E-03 0. -1.
         11   -1    0    0    0    0 -0.00000000000E+00 -0.00000000000E+00 -0.45593999997E+02  0.45594000000E+02  0.51100000000E-03 0.  1.
    9900012    2    1    2    0    0 -0.92217424280E+01 -0.14290654592E+02  0.78365156972E+01  0.72461699769E+02  0.70000168664E+02 0.  0.
        -12    1    1    2    0    0  0.92217424280E+01  0.14290654592E+02 -0.78365156972E+01  0.18726300231E+02  0.00000000000E+00 0.  1.
         11    1    3    3    0    0 -0.13332415611E+01  0.96921543352E+01  0.20553904142E+02  0.22763531459E+02  0.51100000000E-03 0. -1.
        -11    1    3    3    0    0 -0.79561510735E+01  0.41881181054E+01  0.10044365871E+02  0.13480725469E+02  0.51100000000E-03 0.  1.
         12    1    3    3    0    0  0.67650206580E-01 -0.28170927032E+02 -0.22761754316E+02  0.36217442841E+02  0.00000000000E+00 0. -1.
</event>
<event>
 7    1  0.2641045E-013  0.7246158E+02  0.7816164E-02  0.1226708E+00
        -11   -1    0    0    0    0  0.00000000000E+00  0.00000000000E+00  0.45593999997E+02  0.45594000000E+02  0.51100000000E-03 0.  1.
         11   -1    0    0    0    0 -0.00000000000E+00 -0.00000000000E+00 -0.45593999997E+02  0.45594000000E+02  0.51100000000E-03 0. -1.
    9900012    2    1    2    0    0  0.12657179539E+02  0.10730016975E+02 -0.86799482747E+01  0.72461575883E+02  0.70000007280E+02 0.  0.
        -12    1    1    2    0    0 -0.12657179539E+02 -0.10730016975E+02  0.86799482747E+01  0.18726424117E+02  0.00000000000E+00 0.  1.
         11    1    3    3    0    0  0.20633151429E+02  0.74160099681E+00 -0.26960484457E+01  0.20821757549E+02  0.51100000000E-03 0. -1.
        -11    1    3    3    0    0  0.19453025423E+02  0.53850254749E+00 -0.10761553733E+02  0.22237833125E+02  0.51100000000E-03 0.  1.
         12    1    3    3    0    0 -0.27428997313E+02  0.94499134306E+01  0.47776539038E+01  0.29401985209E+02  0.00000000000E+00 0. -1.
</event>
<event>
 7    1  0.2641045E-013  0.7246159E+02  0.7816164E-02  0.1226708E+00
        -11   -1    0    0    0    0  0.00000000000E+00  0.00000000000E+00  0.45593999997E+02  0.45594000000E+02  0.51100000000E-03 0. -1.
         11   -1    0    0    0    0 -0.00000000000E+00 -0.00000000000E+00 -0.45593999997E+02  0.45594000000E+02  0.51100000000E-03 0.  1.
    9900012    2    1    2    0    0 -0.13607121732E+02  0.20519873743E+01  0.12700948152E+02  0.72461588225E+02  0.70000023358E+02 0.  0.
        -12    1    1    2    0    0  0.13607121732E+02 -0.20519873743E+01 -0.12700948152E+02  0.18726411775E+02  0.00000000000E+00 0.  1.
         11    1    3    3    0    0  0.97353004428E+01  0.15468288760E+02  0.25464321985E+02  0.31344468831E+02  0.51100000000E-03 0. -1.
        -11    1    3    3    0    0  0.43151033127E+01  0.43222852478E+01 -0.32073390021E+01  0.68984991193E+01  0.51100000000E-03 0.  1.
         12    1    3    3    0    0 -0.27657525488E+02 -0.17738586633E+02 -0.95560348311E+01  0.34218620275E+02  0.00000000000E+00 0. -1.
</event>
<event>
 7    1  0.2641045E-013  0.7246160E+02  0.7816164E-02  0.1226708E+00
        -11   -1    0    0    0    0  0.00000000000E+00  0.00000000000E+00  0.45593999997E+02  0.45594000000E+02  0.51100000000E-03 0. -1.
         11   -1    0    0    0    0 -0.00000000000E+00 -0.00000000000E+00 -0.45593999997E+02  0.45594000000E+02  0.51100000000E-03 0.  1.
    9900012    2    1    2    0    0  0.12544757609E+02  0.12247926000E+02 -0.65799274564E+01  0.72461599382E+02  0.70000037893E+02 0.  0.
        -12    1    1    2    0    0 -0.12544757609E+02 -0.12247926000E+02  0.65799274564E+01  0.18726400618E+02  0.00000000000E+00 0.  1.
         11    1    3    3    0    0 -0.32228811523E+01  0.34836095466E+02  0.44399868416E+01  0.35265478781E+02  0.51100000000E-03 0.  1.
        -11    1    3    3    0    0  0.80793166198E+01 -0.22857866174E+01  0.53942761384E+01  0.99798994394E+01  0.51100000000E-03 0. -1.
        -12    1    3    3    0    0  0.76883221415E+01 -0.20302382849E+02 -0.16414190436E+02  0.27216221162E+02  0.00000000000E+00 0.  1.
</event>
<event>
 7    1  0.2641045E-013  0.7246163E+02  0.7816164E-02  0.1226708E+00
        -11   -1    0    0    0    0  0.00000000000E+00  0.00000000000E+00  0.45593999997E+02  0.45594000000E+02  0.51100000000E-03 0.  1.
         11   -1    0    0    0    0 -0.00000000000E+00 -0.00000000000E+00 -0.45593999997E+02  0.45594000000E+02  0.51100000000E-03 0. -1.
    9900012    2    1    2    0    0  0.42384771247E+01 -0.36754672003E+01 -0.17866253661E+02  0.72461634433E+02  0.70000083552E+02 0.  0.
        -12    1    1    2    0    0 -0.42384771247E+01  0.36754672003E+01  0.17866253661E+02  0.18726365567E+02  0.00000000000E+00 0.  1.
         11    1    3    3    0    0  0.21443921405E+02 -0.23180494973E+02 -0.30507214446E+01  0.31725132214E+02  0.51100000000E-03 0. -1.
        -11    1    3    3    0    0  0.35894018493E+01 -0.46208723658E+01 -0.68287478307E+00  0.58908900251E+01  0.51100000000E-03 0.  1.
        -12    1    3    3    0    0 -0.20794846129E+02  0.24125900138E+02 -0.14132657433E+02  0.34845612194E+02  0.00000000000E+00 0.  1.
</event>
<event>
 7    1  0.2641045E-013  0.7246161E+02  0.7816164E-02  0.1226708E+00
        -11   -1    0    0    0    0  0.00000000000E+00  0.00000000000E+00  0.45593999997E+02  0.45594000000E+02  0.51100000000E-03 0.  1.
         11   -1    0    0    0    0 -0.00000000000E+00 -0.00000000000E+00 -0.45593999997E+02  0.45594000000E+02  0.51100000000E-03 0. -1.
    9900012    2    1    2    0    0  0.91133395199E+01 -0.16267304711E+02 -0.17319541578E+01  0.72461606194E+02  0.70000046766E+02 0.  0.
        -12    1    1    2    0    0 -0.91133395199E+01  0.16267304711E+02  0.17319541578E+01  0.18726393806E+02  0.00000000000E+00 0.  1.
         11    1    3    3    0    0 -0.10558307247E+02  0.10971001785E+02 -0.75866075328E+01  0.17011682639E+02  0.51100000000E-03 0. -1.
        -11    1    3    3    0    0 -0.54106955220E+01 -0.23988953242E+02  0.14706667743E+02  0.28653648634E+02  0.51100000000E-03 0.  1.
         12    1    3    3    0    0  0.25082342289E+02 -0.32493532539E+01 -0.88520143677E+01  0.26796274921E+02  0.00000000000E+00 0. -1.
</event>
<event>
 7    1  0.2696341E-013  0.7246158E+02  0.7816164E-02  0.1226708E+00
        -11   -1    0    0    0    0  0.00000000000E+00  0.00000000000E+00  0.45593999997E+02  0.45594000000E+02  0.51100000000E-03 0. -1.
         11   -1    0    0    0    0 -0.00000000000E+00 -0.00000000000E+00 -0.45593999997E+02  0.45594000000E+02  0.51100000000E-03 0.  1.
    9900012    2    1    2    0    0 -0.13726266726E+01 -0.11403754334E+02  0.14790172791E+02  0.72461576741E+02  0.70000008398E+02 0.  0.
        -12    1    1    2    0    0  0.13726266726E+01  0.11403754334E+02 -0.14790172791E+02  0.18726423259E+02  0.00000000000E+00 0.  1.
         11    1    3    3    0    0  0.45671378529E+01  0.22095029593E+01  0.91437193409E+01  0.10456971605E+02  0.51100000000E-03 0. -1.
        -11    1    3    3    0    0  0.17810472055E+02  0.14889713735E+02 -0.42633667536E+01  0.23602813101E+02  0.51100000000E-03 0.  1.
         12    1    3    3    0    0 -0.23750236581E+02 -0.28502971028E+02  0.99098202037E+01  0.38401792035E+02  0.00000000000E+00 0. -1.
</event>
<event>
 7    1  0.2641045E-013  0.7246156E+02  0.7816164E-02  0.1226708E+00
        -11   -1    0    0    0    0  0.00000000000E+00  0.00000000000E+00  0.45593999997E+02  0.45594000000E+02  0.51100000000E-03 0.  1.
         11   -1    0    0    0    0 -0.00000000000E+00 -0.00000000000E+00 -0.45593999997E+02  0.45594000000E+02  0.51100000000E-03 0. -1.
    9900012    2    1    2    0    0 -0.66452947853E+01  0.14648306975E+02 -0.95888872389E+01  0.72461558841E+02  0.69999985080E+02 0.  0.
        -12    1    1    2    0    0  0.66452947853E+01 -0.14648306975E+02  0.95888872389E+01  0.18726441159E+02  0.00000000000E+00 0.  1.
         11    1    3    3    0    0 -0.63752897398E+01 -0.66352541294E+01 -0.10614242298E+02  0.14047528482E+02  0.51100000000E-03 0. -1.
        -11    1    3    3    0    0  0.65429513244E+00 -0.18549585435E+02  0.29390715183E+00  0.18563448053E+02  0.51100000000E-03 0.  1.
        -12    1    3    3    0    0 -0.92430017802E+00  0.39833146539E+02  0.73144790774E+00  0.39850582306E+02  0.00000000000E+00 0.  1.
</event>
<event>
 7    1  0.2641045E-013  0.7246159E+02  0.7816164E-02  0.1226708E+00
        -11   -1    0    0    0    0  0.00000000000E+00  0.00000000000E+00  0.45593999997E+02  0.45594000000E+02  0.51100000000E-03 0.  1.
         11   -1    0    0    0    0 -0.00000000000E+00 -0.00000000000E+00 -0.45593999997E+02  0.45594000000E+02  0.51100000000E-03 0. -1.
    9900012    2    1    2    0    0  0.15390973295E+02 -0.65306178664E+01 -0.84348814315E+01  0.72461594753E+02  0.70000031863E+02 0.  0.
        -12    1    1    2    0    0 -0.15390973295E+02  0.65306178664E+01  0.84348814315E+01  0.18726405247E+02  0.00000000000E+00 0.  1.
         11    1    3    3    0    0  0.10039978337E+02 -0.13779787445E+02  0.11180057786E+02  0.20388168123E+02  0.51100000000E-03 0.  1.
        -11    1    3    3    0    0  0.16239312157E+02 -0.14919223474E+02 -0.28794095310E+01  0.22239367975E+02  0.51100000000E-03 0. -1.
        -12    1    3    3    0    0 -0.10888317199E+02  0.22168393053E+02 -0.16735529687E+02  0.29834058656E+02  0.00000000000E+00 0.  1.
</event>
<event>
 7    1  0.2641045E-013  0.7246179E+02  0.7816164E-02  0.1226707E+00
        -11   -1    0    0    0    0  0.00000000000E+00  0.00000000000E+00  0.45593999997E+02  0.45594000000E+02  0.51100000000E-03 0.  1.
         11   -1    0    0    0    0 -0.00000000000E+00 -0.00000000000E+00 -0.45593999997E+02  0.45594000000E+02  0.51100000000E-03 0. -1.
    9900012    2    1    2    0    0 -0.11137028722E+02 -0.29097071063E+01  0.14770611493E+02  0.72461794617E+02  0.70000292221E+02 0.  0.
        -12    1    1    2    0    0  0.11137028722E+02  0.29097071063E+01 -0.14770611493E+02  0.18726205383E+02  0.00000000000E+00 0.  1.
         11    1    3    3    0    0 -0.15467184802E+02  0.19648402802E+02 -0.10071308559E+02  0.26957833643E+02  0.51100000000E-03 0. -1.
        -11    1    3    3    0    0 -0.71434854229E+01  0.22580025855E+01  0.14410040807E+02  0.16241220274E+02  0.51100000000E-03 0.  1.
        -12    1    3    3    0    0  0.11473641503E+02 -0.24816112494E+02  0.10431879244E+02  0.29262740699E+02  0.00000000000E+00 0.  1.
</event>
<event>
 7    1  0.2641045E-013  0.7246153E+02  0.7816164E-02  0.1226708E+00
        -11   -1    0    0    0    0  0.00000000000E+00  0.00000000000E+00  0.45593999997E+02  0.45594000000E+02  0.51100000000E-03 0. -1.
         11   -1    0    0    0    0 -0.00000000000E+00 -0.00000000000E+00 -0.45593999997E+02  0.45594000000E+02  0.51100000000E-03 0.  1.
    9900012    2    1    2    0    0 -0.60999512195E+01 -0.14179834748E+01  0.17648246084E+02  0.72461530182E+02  0.69999947746E+02 0.  0.
        -12    1    1    2    0    0  0.60999512195E+01  0.14179834748E+01 -0.17648246084E+02  0.18726469818E+02  0.00000000000E+00 0.  1.
         11    1    3    3    0    0  0.21986804062E+01 -0.61323840913E+01  0.36504505771E+01  0.74676716484E+01  0.51100000000E-03 0. -1.
        -11    1    3    3    0    0  0.13456018950E+02 -0.21338262300E+02  0.17750457098E+02  0.30845819999E+02  0.51100000000E-03 0.  1.
         12    1    3    3    0    0 -0.21754650576E+02  0.26052662916E+02 -0.37526615912E+01  0.34148038534E+02  0.00000000000E+00 0. -1.
</event>
<event>
 7    1  0.2641045E-013  0.7246153E+02  0.7816164E-02  0.1226708E+00
        -11   -1    0    0    0    0  0.00000000000E+00  0.00000000000E+00  0.45593999997E+02  0.45594000000E+02  0.51100000000E-03 0. -1.
         11   -1    0    0    0    0 -0.00000000000E+00 -0.00000000000E+00 -0.45593999997E+02  0.45594000000E+02  0.51100000000E-03 0.  1.
    9900012    2    1    2    0    0  0.93009978953E+01  0.55761152934E+01  0.15266925047E+02  0.72461531459E+02  0.69999949410E+02 0.  0.
        -12    1    1    2    0    0 -0.93009978953E+01 -0.55761152934E+01 -0.15266925047E+02  0.18726468541E+02  0.00000000000E+00 0.  1.
         11    1    3    3    0    0 -0.33474206186E+01  0.17484214596E+02 -0.94249704599E+01  0.20142816418E+02  0.51100000000E-03 0. -1.
        -11    1    3    3    0    0 -0.23141700385E+01  0.98895166255E+01 -0.60101384555E+01  0.11801681514E+02  0.51100000000E-03 0.  1.
         12    1    3    3    0    0  0.14962588552E+02 -0.21797615928E+02  0.30702033963E+02  0.40517033526E+02  0.00000000000E+00 0. -1.
</event>
<event>
 7    1  0.2641045E-013  0.7246171E+02  0.7816164E-02  0.1226708E+00
        -11   -1    0    0    0    0  0.00000000000E+00  0.00000000000E+00  0.45593999997E+02  0.45594000000E+02  0.51100000000E-03 0.  1.
         11   -1    0    0    0    0 -0.00000000000E+00 -0.00000000000E+00 -0.45593999997E+02  0.45594000000E+02  0.51100000000E-03 0. -1.
    9900012    2    1    2    0    0 -0.94810165782E+01 -0.29948732983E+01 -0.15868678521E+02  0.72461711008E+02  0.70000183305E+02 0.  0.
        -12    1    1    2    0    0  0.94810165782E+01  0.29948732983E+01  0.15868678521E+02  0.18726288992E+02  0.00000000000E+00 0.  1.
         11    1    3    3    0    0  0.69870431919E+01  0.31187200670E+01 -0.11191635896E+02  0.13557208478E+02  0.51100000000E-03 0. -1.
        -11    1    3    3    0    0  0.11777540521E+02  0.42058396485E+01 -0.21184137471E+02  0.24600146920E+02  0.51100000000E-03 0.  1.
        -12    1    3    3    0    0 -0.28245600291E+02 -0.10319433014E+02  0.16507094846E+02  0.34304355609E+02  0.00000000000E+00 0.  1.
</event>
<event>
 7    1  0.2641045E-013  0.7246142E+02  0.7816164E-02  0.1226708E+00
        -11   -1    0    0    0    0  0.00000000000E+00  0.00000000000E+00  0.45593999997E+02  0.45594000000E+02  0.51100000000E-03 0. -1.
         11   -1    0    0    0    0 -0.00000000000E+00 -0.00000000000E+00 -0.45593999997E+02  0.45594000000E+02  0.51100000000E-03 0.  1.
    9900012    2    1    2    0    0 -0.92226231595E+01  0.16272722004E+02  0.90916689948E+00  0.72461418790E+02  0.69999802638E+02 0.  0.
        -12    1    1    2    0    0  0.92226231595E+01 -0.16272722004E+02 -0.90916689948E+00  0.18726581210E+02  0.00000000000E+00 0.  1.
         11    1    3    3    0    0  0.29856275256E+01 -0.33328115448E+00 -0.14332813283E+02  0.14644267988E+02  0.51100000000E-03 0. -1.
        -11    1    3    3    0    0 -0.23000120927E+01  0.78675760189E+00 -0.18819782609E+02  0.18976123441E+02  0.51100000000E-03 0.  1.
         12    1    3    3    0    0 -0.99082385924E+01  0.15819245556E+02  0.34061762791E+02  0.38841027361E+02  0.00000000000E+00 0. -1.
</event>
<event>
 7    1  0.2641045E-013  0.7246158E+02  0.7816164E-02  0.1226708E+00
        -11   -1    0    0    0    0  0.00000000000E+00  0.00000000000E+00  0.45593999997E+02  0.45594000000E+02  0.51100000000E-03 0. -1.
         11   -1    0    0    0    0 -0.00000000000E+00 -0.00000000000E+00 -0.45593999997E+02  0.45594000000E+02  0.51100000000E-03 0.  1.
    9900012    2    1    2    0    0  0.82325489531E+01  0.16552597977E+02  0.29858576460E+01  0.72461582619E+02  0.70000016055E+02 0.  0.
        -12    1    1    2    0    0 -0.82325489531E+01 -0.16552597977E+02 -0.29858576460E+01  0.18726417381E+02  0.00000000000E+00 0.  1.
         11    1    3    3    0    0 -0.69565563512E+01 -0.20991593028E+01  0.11937347520E+02  0.13974992383E+02  0.51100000000E-03 0. -1.
        -11    1    3    3    0    0 -0.17588059154E+02  0.17774108105E+02 -0.35576862417E+01  0.25256996563E+02  0.51100000000E-03 0.  1.
         12    1    3    3    0    0  0.32777164458E+02  0.87764917516E+00 -0.53938036319E+01  0.33229593672E+02  0.00000000000E+00 0. -1.
</event>
<event>
 7    1  0.2641045E-013  0.7246198E+02  0.7816164E-02  0.1226707E+00
        -11   -1    0    0    0    0  0.00000000000E+00  0.00000000000E+00  0.45593999997E+02  0.45594000000E+02  0.51100000000E-03 0. -1.
         11   -1    0    0    0    0 -0.00000000000E+00 -0.00000000000E+00 -0.45593999997E+02  0.45594000000E+02  0.51100000000E-03 0.  1.
    9900012    2    1    2    0    0 -0.69109624522E+01  0.12032515294E+02  0.12574621736E+02  0.72461976981E+02  0.70000529783E+02 0.  0.
        -12    1    1    2    0    0  0.69109624522E+01 -0.12032515294E+02 -0.12574621736E+02  0.18726023019E+02  0.00000000000E+00 0.  1.
         11    1    3    3    0    0 -0.29040392535E+01  0.28236381580E+01  0.21320258714E+02  0.21701608427E+02  0.51100000000E-03 0. -1.
        -11    1    3    3    0    0  0.16840447395E+01 -0.50664083657E+01  0.18622492272E+02  0.19372705518E+02  0.51100000000E-03 0.  1.
        -12    1    3    3    0    0 -0.56909679382E+01  0.14275285501E+02 -0.27368129250E+02  0.31387663036E+02  0.00000000000E+00 0.  1.
</event>
<event>
 7    1  0.2641045E-013  0.7246158E+02  0.7816164E-02  0.1226708E+00
        -11   -1    0    0    0    0  0.00000000000E+00  0.00000000000E+00  0.45593999997E+02  0.45594000000E+02  0.51100000000E-03 0.  1.
         11   -1    0    0    0    0 -0.00000000000E+00 -0.00000000000E+00 -0.45593999997E+02  0.45594000000E+02  0.51100000000E-03 0. -1.
    9900012    2    1    2    0    0  0.13095803733E+02 -0.12826823350E+02 -0.38277016885E+01  0.72461580885E+02  0.70000013796E+02 0.  0.
        -12    1    1    2    0    0 -0.13095803733E+02  0.12826823350E+02  0.38277016885E+01  0.18726419115E+02  0.00000000000E+00 0.  1.
         11    1    3    3    0    0  0.24547914314E+02 -0.10064707987E+02 -0.51003048132E+01  0.27016875347E+02  0.51100000000E-03 0.  1.
        -11    1    3    3    0    0 -0.49615633025E+01 -0.75606285710E+01  0.21684589011E+02  0.23494714632E+02  0.51100000000E-03 0. -1.
         12    1    3    3    0    0 -0.64905472787E+01  0.47985132079E+01 -0.20411985886E+02  0.21949990907E+02  0.00000000000E+00 0. -1.
</event>
<event>
 7    1  0.2641045E-013  0.7246153E+02  0.7816164E-02  0.1226708E+00
        -11   -1    0    0    0    0  0.00000000000E+00  0.00000000000E+00  0.45593999997E+02  0.45594000000E+02  0.51100000000E-03 0.  1.
         11   -1    0    0    0    0 -0.00000000000E+00 -0.00000000000E+00 -0.45593999997E+02  0.45594000000E+02  0.51100000000E-03 0. -1.
    9900012    2    1    2    0    0 -0.55762296688E+01  0.13696961990E+02 -0.11488234195E+02  0.72461531299E+02  0.69999949201E+02 0.  0.
        -12    1    1    2    0    0  0.55762296688E+01 -0.13696961990E+02  0.11488234195E+02  0.18726468701E+02  0.00000000000E+00 0.  1.
         11    1    3    3    0    0 -0.31479852414E+02  0.22201380039E+02  0.35348163595E+01  0.38683036471E+02  0.51100000000E-03 0. -1.
        -11    1    3    3    0    0  0.63769508785E+01 -0.52432112806E+01 -0.10700288122E+02  0.13514915212E+02  0.51100000000E-03 0.  1.
        -12    1    3    3    0    0  0.19526671867E+02 -0.32612067680E+01 -0.43227624330E+01  0.20263579616E+02  0.00000000000E+00 0.  1.
</event>
<event>
 7    1  0.3723644E-013  0.7246161E+02  0.7816164E-02  0.1226708E+00
        -11   -1    0    0    0    0  0.00000000000E+00  0.00000000000E+00  0.45593999997E+02  0.45594000000E+02  0.51100000000E-03 0. -1.
         11   -1    0    0    0    0 -0.00000000000E+00 -0.00000000000E+00 -0.45593999997E+02  0.45594000000E+02  0.51100000000E-03 0.  1.
    9900012    2    1    2    0    0  0.40357533162E+01  0.41846800994E+01  0.17801089932E+02  0.72461610729E+02  0.70000052673E+02 0.  0.
        -12    1    1    2    0    0 -0.40357533162E+01 -0.41846800994E+01 -0.17801089932E+02  0.18726389271E+02  0.00000000000E+00 0.  1.
         11    1    3    3    0    0 -0.34717802601E+00  0.29952159791E+01  0.25020132800E+02  0.25201168563E+02  0.51100000000E-03 0. -1.
        -11    1    3    3    0    0 -0.20521569522E+02  0.35709470381E+01  0.11980357851E+01  0.20864365995E+02  0.51100000000E-03 0.  1.
        -12    1    3    3    0    0  0.24904500864E+02 -0.23814829178E+01 -0.84170786525E+01  0.26396076171E+02  0.00000000000E+00 0.  1.
</event>
<event>
 7    1  0.2641045E-013  0.7246158E+02  0.7816164E-02  0.1226708E+00
        -11   -1    0    0    0    0  0.00000000000E+00  0.00000000000E+00  0.45593999997E+02  0.45594000000E+02  0.51100000000E-03 0.  1.
         11   -1    0    0    0    0 -0.00000000000E+00 -0.00000000000E+00 -0.45593999997E+02  0.45594000000E+02  0.51100000000E-03 0. -1.
    9900012    2    1    2    0    0  0.50158997483E+01 -0.15491269055E+02 -0.92487958394E+01  0.72461577712E+02  0.70000009663E+02 0.  0.
        -12    1    1    2    0    0 -0.50158997483E+01  0.15491269055E+02  0.92487958394E+01  0.18726422288E+02  0.00000000000E+00 0.  1.
         11    1    3    3    0    0 -0.32068844331E+01  0.20923214774E+01  0.13881066898E+01  0.40729298269E+01  0.51100000000E-03 0. -1.
        -11    1    3    3    0    0 -0.20686848061E+02  0.45173985447E+01  0.13139482097E+02  0.24919842743E+02  0.51100000000E-03 0.  1.
         12    1    3    3    0    0  0.28909632242E+02 -0.22100989077E+02 -0.23776384626E+02  0.43468805142E+02  0.00000000000E+00 0. -1.
</event>
<event>
 7    1  0.2641045E-013  0.7246164E+02  0.7816164E-02  0.1226708E+00
        -11   -1    0    0    0    0  0.00000000000E+00  0.00000000000E+00  0.45593999997E+02  0.45594000000E+02  0.51100000000E-03 0.  1.
         11   -1    0    0    0    0 -0.00000000000E+00 -0.00000000000E+00 -0.45593999997E+02  0.45594000000E+02  0.51100000000E-03 0. -1.
    9900012    2    1    2    0    0  0.13291301344E+02  0.45570080214E+01 -0.12379476186E+02  0.72461643062E+02  0.70000094793E+02 0.  0.
        -12    1    1    2    0    0 -0.13291301344E+02 -0.45570080214E+01  0.12379476186E+02  0.18726356938E+02  0.00000000000E+00 0.  1.
         11    1    3    3    0    0 -0.12110310608E+02  0.14698497006E+02 -0.13032320245E+02  0.23076975723E+02  0.51100000000E-03 0. -1.
        -11    1    3    3    0    0 -0.48294809285E+01  0.60706863324E+01  0.11084887727E+02  0.13529665730E+02  0.51100000000E-03 0.  1.
         12    1    3    3    0    0  0.30231092881E+02 -0.16212175317E+02 -0.10432043668E+02  0.35855001609E+02  0.00000000000E+00 0. -1.
</event>
<event>
 7    1  0.2641045E-013  0.7246164E+02  0.7816164E-02  0.1226708E+00
        -11   -1    0    0    0    0  0.00000000000E+00  0.00000000000E+00  0.45593999997E+02  0.45594000000E+02  0.51100000000E-03 0. -1.
         11   -1    0    0    0    0 -0.00000000000E+00 -0.00000000000E+00 -0.45593999997E+02  0.45594000000E+02  0.51100000000E-03 0.  1.
    9900012    2    1    2    0    0  0.11234022528E+01  0.18566405388E+02  0.21686827166E+01  0.72461638197E+02  0.70000088456E+02 0.  0.
        -12    1    1    2    0    0 -0.11234022528E+01 -0.18566405388E+02 -0.21686827166E+01  0.18726361803E+02  0.00000000000E+00 0.  1.
         11    1    3    3    0    0  0.39948571938E+01 -0.14039715049E+02  0.15874061301E+02  0.21565210527E+02  0.51100000000E-03 0. -1.
        -11    1    3    3    0    0  0.12431002779E+02  0.99355990576E+01 -0.17071393684E+02  0.23338347013E+02  0.51100000000E-03 0.  1.
        -12    1    3    3    0    0 -0.15302457720E+02  0.22670521379E+02  0.33660150995E+01  0.27558080657E+02  0.00000000000E+00 0.  1.
</event>
<event>
 7    1  0.2641045E-013  0.7246158E+02  0.7816164E-02  0.1226708E+00
        -11   -1    0    0    0    0  0.00000000000E+00  0.00000000000E+00  0.45593999997E+02  0.45594000000E+02  0.51100000000E-03 0.  1.
         11   -1    0    0    0    0 -0.00000000000E+00 -0.00000000000E+00 -0.45593999997E+02  0.45594000000E+02  0.51100000000E-03 0. -1.
    9900012    2    1    2    0    0  0.48531307625E+01  0.88473518634E-01 -0.18086404768E+02  0.72461581677E+02  0.70000014829E+02 0.  0.
        -12    1    1    2    0    0 -0.48531307625E+01 -0.88473518634E-01  0.18086404768E+02  0.18726418323E+02  0.00000000000E+00 0.  1.
         11    1    3    3    0    0 -0.17359349246E+01 -0.23482530177E+02 -0.19885922065E+02  0.30820327549E+02  0.51100000000E-03 0. -1.
        -11    1    3    3    0    0  0.25650135203E+00 -0.78180693194E+00  0.13757239605E+02  0.13781823422E+02  0.51100000000E-03 0.  1.
        -12    1    3    3    0    0  0.63325643351E+01  0.24352810628E+02 -0.11957722308E+02  0.27859430707E+02  0.00000000000E+00 0.  1.
</event>
<event>
 7    1  0.2641045E-013  0.7246189E+02  0.7816164E-02  0.1226707E+00
        -11   -1    0    0    0    0  0.00000000000E+00  0.00000000000E+00  0.45593999997E+02  0.45594000000E+02  0.51100000000E-03 0. -1.
         11   -1    0    0    0    0 -0.00000000000E+00 -0.00000000000E+00 -0.45593999997E+02  0.45594000000E+02  0.51100000000E-03 0.  1.
    9900012    2    1    2    0    0 -0.13467738893E+02  0.66650820717E+01  0.11174243145E+02  0.72461894698E+02  0.70000422595E+02 0.  0.
        -12    1    1    2    0    0  0.13467738893E+02 -0.66650820717E+01 -0.11174243145E+02  0.18726105302E+02  0.00000000000E+00 0.  1.
         11    1    3    3    0    0 -0.19547874208E+02  0.29493631553E+01 -0.80060792155E+01  0.21328746652E+02  0.51100000000E-03 0. -1.
        -11    1    3    3    0    0  0.50927426866E+00 -0.21486357173E+02  0.10343582044E+02  0.23851888701E+02  0.51100000000E-03 0.  1.
        -12    1    3    3    0    0  0.55708610462E+01  0.25202076089E+02  0.88367403161E+01  0.27281259345E+02  0.00000000000E+00 0.  1.
</event>
<event>
 7    1  0.2641045E-013  0.7246176E+02  0.7816164E-02  0.1226708E+00
        -11   -1    0    0    0    0  0.00000000000E+00  0.00000000000E+00  0.45593999997E+02  0.45594000000E+02  0.51100000000E-03 0. -1.
         11   -1    0    0    0    0 -0.00000000000E+00 -0.00000000000E+00 -0.45593999997E+02  0.45594000000E+02  0.51100000000E-03 0.  1.
    9900012    2    1    2    0    0  0.19287608613E+01  0.18482466741E+02  0.23131061880E+01  0.72461757571E+02  0.70000243962E+02 0.  0.
        -12    1    1    2    0    0 -0.19287608613E+01 -0.18482466741E+02 -0.23131061880E+01  0.18726242429E+02  0.00000000000E+00 0.  1.
         11    1    3    3    0    0 -0.21122846657E+01  0.97632791942E+01 -0.20273744556E+02  0.22601063818E+02  0.51100000000E-03 0. -1.
        -11    1    3    3    0    0 -0.86971513552E+01 -0.35862058943E+01 -0.93993100145E+01  0.13298433871E+02  0.51100000000E-03 0.  1.
         12    1    3    3    0    0  0.12738196882E+02  0.12305393441E+02  0.31986160759E+02  0.36562259881E+02  0.00000000000E+00 0. -1.
</event>
<event>
 7    1  0.2641045E-013  0.7246172E+02  0.7816164E-02  0.1226708E+00
        -11   -1    0    0    0    0  0.00000000000E+00  0.00000000000E+00  0.45593999997E+02  0.45594000000E+02  0.51100000000E-03 0. -1.
         11   -1    0    0    0    0 -0.00000000000E+00 -0.00000000000E+00 -0.45593999997E+02  0.45594000000E+02  0.51100000000E-03 0.  1.
    9900012    2    1    2    0    0  0.84744648450E+01  0.12235359949E+02  0.11364548673E+02  0.72461720230E+02  0.70000195318E+02 0.  0.
        -12    1    1    2    0    0 -0.84744648450E+01 -0.12235359949E+02 -0.11364548673E+02  0.18726279770E+02  0.00000000000E+00 0.  1.
         11    1    3    3    0    0  0.53636421053E+01 -0.31557768357E+01  0.74787330201E+01  0.97292873283E+01  0.51100000000E-03 0. -1.
        -11    1    3    3    0    0 -0.52942922674E+01 -0.22851184435E+02  0.15648901470E+01  0.23508616338E+02  0.51100000000E-03 0.  1.
         12    1    3    3    0    0  0.84051150071E+01  0.38242321220E+02  0.23209255054E+01  0.39223816563E+02  0.00000000000E+00 0. -1.
</event>
<event>
 7    1  0.2641045E-013  0.7246155E+02  0.7816164E-02  0.1226708E+00
        -11   -1    0    0    0    0  0.00000000000E+00  0.00000000000E+00  0.45593999997E+02  0.45594000000E+02  0.51100000000E-03 0. -1.
         11   -1    0    0    0    0 -0.00000000000E+00 -0.00000000000E+00 -0.45593999997E+02  0.45594000000E+02  0.51100000000E-03 0.  1.
    9900012    2    1    2    0    0  0.25774616296E+01  0.15737213860E+02  0.98171726959E+01  0.72461545764E+02  0.69999968044E+02 0.  0.
        -12    1    1    2    0    0 -0.25774616296E+01 -0.15737213860E+02 -0.98171726959E+01  0.18726454236E+02  0.00000000000E+00 0.  1.
         11    1    3    3    0    0 -0.20286604202E+01  0.37801552289E+02 -0.30541855441E+01  0.37978952963E+02  0.51100000000E-03 0. -1.
        -11    1    3    3    0    0  0.78008508130E+01 -0.67100083206E+01 -0.43666257663E+01  0.11177875733E+02  0.51100000000E-03 0.  1.
        -12    1    3    3    0    0 -0.31947287633E+01 -0.15354330109E+02  0.17237984006E+02  0.23304717067E+02  0.00000000000E+00 0.  1.
</event>
<event>
 7    1  0.2641045E-013  0.7246160E+02  0.7816164E-02  0.1226708E+00
        -11   -1    0    0    0    0  0.00000000000E+00  0.00000000000E+00  0.45593999997E+02  0.45594000000E+02  0.51100000000E-03 0. -1.
         11   -1    0    0    0    0 -0.00000000000E+00 -0.00000000000E+00 -0.45593999997E+02  0.45594000000E+02  0.51100000000E-03 0.  1.
    9900012    2    1    2    0    0 -0.18919764131E+01  0.13022889210E+01  0.18585008419E+02  0.72461599676E+02  0.70000038275E+02 0.  0.
        -12    1    1    2    0    0  0.18919764131E+01 -0.13022889210E+01 -0.18585008419E+02  0.18726400324E+02  0.00000000000E+00 0.  1.
         11    1    3    3    0    0  0.19765610483E+01 -0.11192496034E+02  0.45308938605E+01  0.12235512269E+02  0.51100000000E-03 0. -1.
        -11    1    3    3    0    0  0.16549775425E+02 -0.50988211039E+01 -0.13291698555E+02  0.21830306778E+02  0.51100000000E-03 0.  1.
         12    1    3    3    0    0 -0.20418312887E+02  0.17593606059E+02  0.27345813113E+02  0.38395780629E+02  0.00000000000E+00 0. -1.
</event>
<event>
 7    1  0.2641045E-013  0.7246164E+02  0.7816164E-02  0.1226708E+00
        -11   -1    0    0    0    0  0.00000000000E+00  0.00000000000E+00  0.45593999997E+02  0.45594000000E+02  0.51100000000E-03 0.  1.
         11   -1    0    0    0    0 -0.00000000000E+00 -0.00000000000E+00 -0.45593999997E+02  0.45594000000E+02  0.51100000000E-03 0. -1.
    9900012    2    1    2    0    0 -0.14723134486E+02 -0.44063173296E+01 -0.10700009089E+02  0.72461641144E+02  0.70000092295E+02 0.  0.
        -12    1    1    2    0    0  0.14723134486E+02  0.44063173296E+01  0.10700009089E+02  0.18726358856E+02  0.00000000000E+00 0.  1.
         11    1    3    3    0    0 -0.82372014122E+01  0.40530593499E+01  0.93655055506E+00  0.92279956872E+01  0.51100000000E-03 0. -1.
        -11    1    3    3    0    0  0.12925106744E+02  0.20624927175E+02  0.44503628994E+01  0.24743721133E+02  0.51100000000E-03 0.  1.
         12    1    3    3    0    0 -0.19411039817E+02 -0.29084303855E+02 -0.16086922544E+02  0.38489924324E+02  0.00000000000E+00 0. -1.
</event>
<event>
 7    1  0.2641045E-013  0.7246159E+02  0.7816164E-02  0.1226708E+00
        -11   -1    0    0    0    0  0.00000000000E+00  0.00000000000E+00  0.45593999997E+02  0.45594000000E+02  0.51100000000E-03 0.  1.
         11   -1    0    0    0    0 -0.00000000000E+00 -0.00000000000E+00 -0.45593999997E+02  0.45594000000E+02  0.51100000000E-03 0. -1.
    9900012    2    1    2    0    0  0.19054966439E+01 -0.22566652286E+01 -0.18492022444E+02  0.72461592190E+02  0.70000028523E+02 0.  0.
        -12    1    1    2    0    0 -0.19054966439E+01  0.22566652286E+01  0.18492022444E+02  0.18726407810E+02  0.00000000000E+00 0.  1.
         11    1    3    3    0    0  0.63355616114E+00 -0.67993836398E+01 -0.21968381413E+01  0.71735004963E+01  0.51100000000E-03 0. -1.
        -11    1    3    3    0    0 -0.38221943396E+01 -0.15306913434E+02  0.18864407887E+02  0.24592207173E+02  0.51100000000E-03 0.  1.
         12    1    3    3    0    0  0.50941348224E+01  0.19849631846E+02 -0.35159592189E+02  0.40695884521E+02  0.00000000000E+00 0. -1.
</event>
<event>
 7    1  0.2641045E-013  0.7246160E+02  0.7816164E-02  0.1226708E+00
        -11   -1    0    0    0    0  0.00000000000E+00  0.00000000000E+00  0.45593999997E+02  0.45594000000E+02  0.51100000000E-03 0.  1.
         11   -1    0    0    0    0 -0.00000000000E+00 -0.00000000000E+00 -0.45593999997E+02  0.45594000000E+02  0.51100000000E-03 0. -1.
    9900012    2    1    2    0    0  0.21960836632E+01 -0.18407290223E+02 -0.26508711658E+01  0.72461595253E+02  0.70000032513E+02 0.  0.
        -12    1    1    2    0    0 -0.21960836632E+01  0.18407290223E+02  0.26508711658E+01  0.18726404747E+02  0.00000000000E+00 0.  1.
         11    1    3    3    0    0 -0.16826213174E+02  0.92276683479E+01 -0.14740746510E+01  0.19246927267E+02  0.51100000000E-03 0. -1.
        -11    1    3    3    0    0  0.93275873669E+01 -0.15786398192E+02 -0.21187034837E+02  0.28019719831E+02  0.51100000000E-03 0.  1.
        -12    1    3    3    0    0  0.96947094698E+01 -0.11848560380E+02  0.20010238322E+02  0.25194948154E+02  0.00000000000E+00 0.  1.
</event>
<event>
 7    1  0.2641045E-013  0.7246154E+02  0.7816164E-02  0.1226708E+00
        -11   -1    0    0    0    0  0.00000000000E+00  0.00000000000E+00  0.45593999997E+02  0.45594000000E+02  0.51100000000E-03 0. -1.
         11   -1    0    0    0    0 -0.00000000000E+00 -0.00000000000E+00 -0.45593999997E+02  0.45594000000E+02  0.51100000000E-03 0.  1.
    9900012    2    1    2    0    0  0.10078745853E+02 -0.15651750944E+02  0.20302685241E+01  0.72461537017E+02  0.69999956650E+02 0.  0.
        -12    1    1    2    0    0 -0.10078745853E+02  0.15651750944E+02 -0.20302685241E+01  0.18726462983E+02  0.00000000000E+00 0.  1.
         11    1    3    3    0    0 -0.39630705705E+01  0.96829475540E+01  0.31132848163E+01  0.10915949079E+02  0.51100000000E-03 0. -1.
        -11    1    3    3    0    0  0.50175650992E+01  0.75809259734E+01 -0.20395731666E+02  0.22330075428E+02  0.51100000000E-03 0.  1.
         12    1    3    3    0    0  0.90242513239E+01 -0.32915624472E+02  0.19312715374E+02  0.39215512510E+02  0.00000000000E+00 0. -1.
</event>
<event>
 7    1  0.2641045E-013  0.7246164E+02  0.7816164E-02  0.1226708E+00
        -11   -1    0    0    0    0  0.00000000000E+00  0.00000000000E+00  0.45593999997E+02  0.45594000000E+02  0.51100000000E-03 0. -1.
         11   -1    0    0    0    0 -0.00000000000E+00 -0.00000000000E+00 -0.45593999997E+02  0.45594000000E+02  0.51100000000E-03 0.  1.
    9900012    2    1    2    0    0 -0.17099177007E+02 -0.75090076518E+01  0.13818483189E+01  0.72461640102E+02  0.70000090938E+02 0.  0.
        -12    1    1    2    0    0  0.17099177007E+02  0.75090076518E+01 -0.13818483189E+01  0.18726359898E+02  0.00000000000E+00 0.  1.
         11    1    3    3    0    0  0.10536403989E+01 -0.15002014283E+01 -0.46252991761E+01  0.49753547758E+01  0.51100000000E-03 0. -1.
        -11    1    3    3    0    0  0.14052435950E+01 -0.11902243550E+02 -0.26505619176E+02  0.29089275674E+02  0.51100000000E-03 0.  1.
         12    1    3    3    0    0 -0.19558061001E+02  0.58934373262E+01  0.32512766671E+02  0.38397009652E+02  0.00000000000E+00 0. -1.
</event>
<event>
 7    1  0.2641045E-013  0.7246159E+02  0.7816164E-02  0.1226708E+00
        -11   -1    0    0    0    0  0.00000000000E+00  0.00000000000E+00  0.45593999997E+02  0.45594000000E+02  0.51100000000E-03 0.  1.
         11   -1    0    0    0    0 -0.00000000000E+00 -0.00000000000E+00 -0.45593999997E+02  0.45594000000E+02  0.51100000000E-03 0. -1.
    9900012    2    1    2    0    0  0.66513608775E+01 -0.81584675679E+00 -0.17486341825E+02  0.72461591965E+02  0.70000028231E+02 0.  0.
        -12    1    1    2    0    0 -0.66513608775E+01  0.81584675679E+00  0.17486341825E+02  0.18726408035E+02  0.00000000000E+00 0.  1.
         11    1    3    3    0    0  0.77903780797E+01 -0.17125266073E+02 -0.35475983878E+02  0.40156072530E+02  0.51100000000E-03 0. -1.
        -11    1    3    3    0    0 -0.79102079058E+01 -0.86011757954E+00  0.29109908147E+01  0.84726063964E+01  0.51100000000E-03 0.  1.
        -12    1    3    3    0    0  0.67711907036E+01  0.17169536896E+02  0.15078651238E+02  0.23832913039E+02  0.00000000000E+00 0.  1.
</event>
<event>
 7    1  0.2641045E-013  0.7246155E+02  0.7816164E-02  0.1226708E+00
        -11   -1    0    0    0    0  0.00000000000E+00  0.00000000000E+00  0.45593999997E+02  0.45594000000E+02  0.51100000000E-03 0.  1.
         11   -1    0    0    0    0 -0.00000000000E+00 -0.00000000000E+00 -0.45593999997E+02  0.45594000000E+02  0.51100000000E-03 0. -1.
    9900012    2    1    2    0    0 -0.13991803998E+01  0.82668342741E+01 -0.16744596071E+02  0.72461554734E+02  0.69999979730E+02 0.  0.
        -12    1    1    2    0    0  0.13991803998E+01 -0.82668342741E+01  0.16744596071E+02  0.18726445266E+02  0.00000000000E+00 0.  1.
         11    1    3    3    0    0 -0.28982528893E+01 -0.39795803514E+01  0.82104205061E+01  0.95732927842E+01  0.51100000000E-03 0. -1.
        -11    1    3    3    0    0  0.81152308991E+01 -0.71312714562E+01  0.14709407908E+02  0.18250443458E+02  0.51100000000E-03 0.  1.
         12    1    3    3    0    0 -0.66161584096E+01  0.19377686082E+02 -0.39664424486E+02  0.44637818492E+02  0.00000000000E+00 0. -1.
</event>
<event>
 7    1  0.2641045E-013  0.7246159E+02  0.7816164E-02  0.1226708E+00
        -11   -1    0    0    0    0  0.00000000000E+00  0.00000000000E+00  0.45593999997E+02  0.45594000000E+02  0.51100000000E-03 0.  1.
         11   -1    0    0    0    0 -0.00000000000E+00 -0.00000000000E+00 -0.45593999997E+02  0.45594000000E+02  0.51100000000E-03 0. -1.
    9900012    2    1    2    0    0  0.12145471810E+02  0.14252632360E+02  0.16891678501E+00  0.72461586901E+02  0.70000021633E+02 0.  0.
        -12    1    1    2    0    0 -0.12145471810E+02 -0.14252632360E+02 -0.16891678501E+00  0.18726413099E+02  0.00000000000E+00 0.  1.
         11    1    3    3    0    0  0.46442956400E+01 -0.89919106213E+01 -0.16733402062E+02  0.19555835023E+02  0.51100000000E-03 0. -1.
        -11    1    3    3    0    0  0.93772267206E+01 -0.27715540228E+01 -0.10994886029E+02  0.14713986942E+02  0.51100000000E-03 0.  1.
        -12    1    3    3    0    0 -0.18760505509E+01  0.26016097004E+02  0.27897204876E+02  0.38191764936E+02  0.00000000000E+00 0.  1.
</event>
<event>
 7    1  0.2641045E-013  0.7246169E+02  0.7816164E-02  0.1226708E+00
        -11   -1    0    0    0    0  0.00000000000E+00  0.00000000000E+00  0.45593999997E+02  0.45594000000E+02  0.51100000000E-03 0.  1.
         11   -1    0    0    0    0 -0.00000000000E+00 -0.00000000000E+00 -0.45593999997E+02  0.45594000000E+02  0.51100000000E-03 0. -1.
    9900012    2    1    2    0    0 -0.36375858823E+01 -0.17371151288E+02 -0.59737422450E+01  0.72461694317E+02  0.70000161562E+02 0.  0.
        -12    1    1    2    0    0  0.36375858823E+01  0.17371151288E+02  0.59737422450E+01  0.18726305683E+02  0.00000000000E+00 0.  1.
         11    1    3    3    0    0  0.12414925599E+02  0.74141914315E+01 -0.12094627281E+02  0.18851541622E+02  0.51100000000E-03 0. -1.
        -11    1    3    3    0    0  0.50798168424E+01 -0.29700094766E+02  0.96279382690E+01  0.31632220343E+02  0.51100000000E-03 0.  1.
        -12    1    3    3    0    0 -0.21132328323E+02  0.49147520466E+01 -0.35070532328E+01  0.21977932351E+02  0.00000000000E+00 0.  1.
</event>
<event>
 7    1  0.2641045E-013  0.7246165E+02  0.7816164E-02  0.1226708E+00
        -11   -1    0    0    0    0  0.00000000000E+00  0.00000000000E+00  0.45593999997E+02  0.45594000000E+02  0.51100000000E-03 0.  1.
         11   -1    0    0    0    0 -0.00000000000E+00 -0.00000000000E+00 -0.45593999997E+02  0.45594000000E+02  0.51100000000E-03 0. -1.
    9900012    2    1    2    0    0  0.14712815440E+02  0.46778629001E+01  0.10598441519E+02  0.72461646855E+02  0.70000099734E+02 0.  0.
        -12    1    1    2    0    0 -0.14712815440E+02 -0.46778629001E+01 -0.10598441519E+02  0.18726353145E+02  0.00000000000E+00 0.  1.
         11    1    3    3    0    0 -0.19913376699E+01 -0.15254431064E+02  0.12883634091E+02  0.20066168554E+02  0.51100000000E-03 0. -1.
        -11    1    3    3    0    0 -0.21984525166E+01  0.10845962377E+02  0.19332471145E+02  0.22275828474E+02  0.51100000000E-03 0.  1.
         12    1    3    3    0    0  0.18902605627E+02  0.90863315866E+01 -0.21617663716E+02  0.30119649827E+02  0.00000000000E+00 0. -1.
</event>
<event>
 7    1  0.2641045E-013  0.7246157E+02  0.7816164E-02  0.1226708E+00
        -11   -1    0    0    0    0  0.00000000000E+00  0.00000000000E+00  0.45593999997E+02  0.45594000000E+02  0.51100000000E-03 0. -1.
         11   -1    0    0    0    0 -0.00000000000E+00 -0.00000000000E+00 -0.45593999997E+02  0.45594000000E+02  0.51100000000E-03 0.  1.
    9900012    2    1    2    0    0  0.15050974959E+00 -0.98856110793E+01  0.15903813466E+02  0.72461568349E+02  0.69999997466E+02 0.  0.
        -12    1    1    2    0    0 -0.15050974959E+00  0.98856110793E+01 -0.15903813466E+02  0.18726431651E+02  0.00000000000E+00 0.  1.
         11    1    3    3    0    0 -0.30918972462E+02  0.10171727701E+02  0.12838512760E+02  0.34989631502E+02  0.51100000000E-03 0. -1.
        -11    1    3    3    0    0  0.22386583376E+01 -0.75957924170E+00 -0.94870687962E+00  0.25472724200E+01  0.51100000000E-03 0.  1.
        -12    1    3    3    0    0  0.28830823874E+02 -0.19297759539E+02  0.40140075858E+01  0.34924664427E+02  0.00000000000E+00 0.  1.
</event>
<event>
 7    1  0.2641045E-013  0.7246144E+02  0.7816164E-02  0.1226708E+00
        -11   -1    0    0    0    0  0.00000000000E+00  0.00000000000E+00  0.45593999997E+02  0.45594000000E+02  0.51100000000E-03 0. -1.
         11   -1    0    0    0    0 -0.00000000000E+00 -0.00000000000E+00 -0.45593999997E+02  0.45594000000E+02  0.51100000000E-03 0.  1.
    9900012    2    1    2    0    0 -0.14593635456E+02  0.11582949095E+02  0.18828943149E+01  0.72461436072E+02  0.69999825150E+02 0.  0.
        -12    1    1    2    0    0  0.14593635456E+02 -0.11582949095E+02 -0.18828943149E+01  0.18726563928E+02  0.00000000000E+00 0.  1.
         11    1    3    3    0    0 -0.11188400534E+02 -0.32670547417E+01  0.18469577140E+02  0.21839854240E+02  0.51100000000E-03 0. -1.
        -11    1    3    3    0    0 -0.22430714084E+02 -0.16818071628E+01 -0.96779767126E+01  0.24487315965E+02  0.51100000000E-03 0.  1.
        -12    1    3    3    0    0  0.19025479162E+02  0.16531810999E+02 -0.69087061129E+01  0.26134265867E+02  0.00000000000E+00 0.  1.
</event>
<event>
 7    1  0.2641045E-013  0.7246158E+02  0.7816164E-02  0.1226708E+00
        -11   -1    0    0    0    0  0.00000000000E+00  0.00000000000E+00  0.45593999997E+02  0.45594000000E+02  0.51100000000E-03 0. -1.
         11   -1    0    0    0    0 -0.00000000000E+00 -0.00000000000E+00 -0.45593999997E+02  0.45594000000E+02  0.51100000000E-03 0.  1.
    9900012    2    1    2    0    0  0.12822740483E+02 -0.13248478450E+02  0.32762984767E+01  0.72461575182E+02  0.70000006368E+02 0.  0.
        -12    1    1    2    0    0 -0.12822740483E+02  0.13248478450E+02 -0.32762984767E+01  0.18726424818E+02  0.00000000000E+00 0.  1.
         11    1    3    3    0    0 -0.11373874365E+02 -0.11620508818E+01  0.82622848580E+01  0.14106053015E+02  0.51100000000E-03 0. -1.
        -11    1    3    3    0    0 -0.10335924592E+02 -0.18879761622E+02 -0.81589881257E+01  0.23018380125E+02  0.51100000000E-03 0.  1.
         12    1    3    3    0    0  0.34532539439E+02  0.67933340539E+01  0.31730017445E+01  0.35337142043E+02  0.00000000000E+00 0. -1.
</event>
<event>
 7    1  0.2641045E-013  0.7246157E+02  0.7816164E-02  0.1226708E+00
        -11   -1    0    0    0    0  0.00000000000E+00  0.00000000000E+00  0.45593999997E+02  0.45594000000E+02  0.51100000000E-03 0. -1.
         11   -1    0    0    0    0 -0.00000000000E+00 -0.00000000000E+00 -0.45593999997E+02  0.45594000000E+02  0.51100000000E-03 0.  1.
    9900012    2    1    2    0    0  0.14688254904E+01  0.21066870671E+01  0.18549491611E+02  0.72461569007E+02  0.69999998323E+02 0.  0.
        -12    1    1    2    0    0 -0.14688254904E+01 -0.21066870671E+01 -0.18549491611E+02  0.18726430993E+02  0.00000000000E+00 0.  1.
         11    1    3    3    0    0 -0.14805401409E+01 -0.12868017465E+01  0.24811735081E+01  0.31629227120E+01  0.51100000000E-03 0. -1.
        -11    1    3    3    0    0  0.25456668238E+02  0.47580476929E+01  0.32384402438E+02  0.41466016171E+02  0.51100000000E-03 0.  1.
         12    1    3    3    0    0 -0.22507302607E+02 -0.13645588793E+01 -0.16316084335E+02  0.27832630124E+02  0.00000000000E+00 0. -1.
</event>
<event>
 7    1  0.2641045E-013  0.7246156E+02  0.7816164E-02  0.1226708E+00
        -11   -1    0    0    0    0  0.00000000000E+00  0.00000000000E+00  0.45593999997E+02  0.45594000000E+02  0.51100000000E-03 0.  1.
         11   -1    0    0    0    0 -0.00000000000E+00 -0.00000000000E+00 -0.45593999997E+02  0.45594000000E+02  0.51100000000E-03 0. -1.
    9900012    2    1    2    0    0 -0.11205487298E+02  0.22464071851E+01 -0.14834764144E+02  0.72461560989E+02  0.69999987878E+02 0.  0.
        -12    1    1    2    0    0  0.11205487298E+02 -0.22464071851E+01  0.14834764144E+02  0.18726439011E+02  0.00000000000E+00 0.  1.
         11    1    3    3    0    0  0.39377465289E+01  0.74304061906E+01 -0.25917663558E+01  0.87996611860E+01  0.51100000000E-03 0. -1.
        -11    1    3    3    0    0  0.95943360596E+01 -0.68739970185E+01  0.19857490484E+02  0.23100282423E+02  0.51100000000E-03 0.  1.
         12    1    3    3    0    0 -0.24737569887E+02  0.16899980130E+01 -0.32100488272E+02  0.40561617380E+02  0.00000000000E+00 0. -1.
</event>
<event>
 7    1  0.2641045E-013  0.7246158E+02  0.7816164E-02  0.1226708E+00
        -11   -1    0    0    0    0  0.00000000000E+00  0.00000000000E+00  0.45593999997E+02  0.45594000000E+02  0.51100000000E-03 0. -1.
         11   -1    0    0    0    0 -0.00000000000E+00 -0.00000000000E+00 -0.45593999997E+02  0.45594000000E+02  0.51100000000E-03 0.  1.
    9900012    2    1    2    0    0 -0.13479294213E+02 -0.11401256691E+02  0.62449059297E+01  0.72461578113E+02  0.70000010185E+02 0.  0.
        -12    1    1    2    0    0  0.13479294213E+02  0.11401256691E+02 -0.62449059297E+01  0.18726421887E+02  0.00000000000E+00 0.  1.
         11    1    3    3    0    0 -0.15423337570E+01  0.92934783567E+01 -0.61165850389E+01  0.11232103373E+02  0.51100000000E-03 0. -1.
        -11    1    3    3    0    0 -0.46262391650E+01  0.52168228492E+01 -0.18798154896E+02  0.20049637333E+02  0.51100000000E-03 0.  1.
         12    1    3    3    0    0 -0.73107212906E+01 -0.25911557897E+02  0.31159645864E+02  0.41179837407E+02  0.00000000000E+00 0. -1.
</event>
<event>
 7    1  0.2641045E-013  0.7246162E+02  0.7816164E-02  0.1226708E+00
        -11   -1    0    0    0    0  0.00000000000E+00  0.00000000000E+00  0.45593999997E+02  0.45594000000E+02  0.51100000000E-03 0. -1.
         11   -1    0    0    0    0 -0.00000000000E+00 -0.00000000000E+00 -0.45593999997E+02  0.45594000000E+02  0.51100000000E-03 0.  1.
    9900012    2    1    2    0    0 -0.57809521123E+01 -0.17771467418E+02 -0.11970895902E+01  0.72461615272E+02  0.70000058591E+02 0.  0.
        -12    1    1    2    0    0  0.57809521123E+01  0.17771467418E+02  0.11970895902E+01  0.18726384728E+02  0.00000000000E+00 0.  1.
         11    1    3    3    0    0 -0.81439022462E+01 -0.70246340046E+01 -0.79685107444E+01  0.13385282606E+02  0.51100000000E-03 0. -1.
        -11    1    3    3    0    0 -0.25617679155E+02  0.49484960807E+01  0.69222944535E+01  0.26993911527E+02  0.51100000000E-03 0.  1.
        -12    1    3    3    0    0  0.27980629289E+02 -0.15695329494E+02 -0.15087329927E+00  0.32082421139E+02  0.00000000000E+00 0.  1.
</event>
<event>
 7    1  0.2641045E-013  0.7246154E+02  0.7816164E-02  0.1226708E+00
        -11   -1    0    0    0    0  0.00000000000E+00  0.00000000000E+00  0.45593999997E+02  0.45594000000E+02  0.51100000000E-03 0. -1.
         11   -1    0    0    0    0 -0.00000000000E+00 -0.00000000000E+00 -0.45593999997E+02  0.45594000000E+02  0.51100000000E-03 0.  1.
    9900012    2    1    2    0    0 -0.33623692041E+01  0.15647432338E+02  0.97227928002E+01  0.72461538367E+02  0.69999958409E+02 0.  0.
        -12    1    1    2    0    0  0.33623692041E+01 -0.15647432338E+02 -0.97227928002E+01  0.18726461633E+02  0.00000000000E+00 0.  1.
         11    1    3    3    0    0  0.14974094927E+02  0.12231068692E+02  0.13076542511E+02  0.23341347959E+02  0.51100000000E-03 0. -1.
        -11    1    3    3    0    0  0.18506216910E+01  0.19797960410E+02  0.70798471215E+01  0.21107066887E+02  0.51100000000E-03 0.  1.
         12    1    3    3    0    0 -0.20187085823E+02 -0.16381596764E+02 -0.10433596833E+02  0.28013123521E+02  0.00000000000E+00 0. -1.
</event>
<event>
 7    1  0.2641045E-013  0.7246154E+02  0.7816164E-02  0.1226708E+00
        -11   -1    0    0    0    0  0.00000000000E+00  0.00000000000E+00  0.45593999997E+02  0.45594000000E+02  0.51100000000E-03 0.  1.
         11   -1    0    0    0    0 -0.00000000000E+00 -0.00000000000E+00 -0.45593999997E+02  0.45594000000E+02  0.51100000000E-03 0. -1.
    9900012    2    1    2    0    0 -0.93272528256E+01  0.14553489774E+02 -0.72026681899E+01  0.72461544411E+02  0.69999966282E+02 0.  0.
        -12    1    1    2    0    0  0.93272528256E+01 -0.14553489774E+02  0.72026681899E+01  0.18726455589E+02  0.00000000000E+00 0.  1.
         11    1    3    3    0    0  0.50791869007E+01  0.27154756074E+02  0.92131732114E+01  0.29121495118E+02  0.51100000000E-03 0. -1.
        -11    1    3    3    0    0 -0.12355513896E+02  0.10591553017E+02 -0.10326126276E+02  0.19273520775E+02  0.51100000000E-03 0.  1.
        -12    1    3    3    0    0 -0.20509258301E+01 -0.23192819316E+02 -0.60897151257E+01  0.24066528518E+02  0.00000000000E+00 0.  1.
</event>
<event>
 7    1  0.2641045E-013  0.7246151E+02  0.7816164E-02  0.1226708E+00
        -11   -1    0    0    0    0  0.00000000000E+00  0.00000000000E+00  0.45593999997E+02  0.45594000000E+02  0.51100000000E-03 0.  1.
         11   -1    0    0    0    0 -0.00000000000E+00 -0.00000000000E+00 -0.45593999997E+02  0.45594000000E+02  0.51100000000E-03 0. -1.
    9900012    2    1    2    0    0  0.32620338921E+01  0.18367267053E+02 -0.16383167469E+01  0.72461509516E+02  0.69999920824E+02 0.  0.
        -12    1    1    2    0    0 -0.32620338921E+01 -0.18367267053E+02  0.16383167469E+01  0.18726490484E+02  0.00000000000E+00 0.  1.
         11    1    3    3    0    0  0.20174005274E+02 -0.11762565108E+02 -0.12911159495E+02  0.26684198817E+02  0.51100000000E-03 0. -1.
        -11    1    3    3    0    0 -0.58806859286E+01  0.13248410423E+01 -0.75356706765E+01  0.96500779056E+01  0.51100000000E-03 0.  1.
        -12    1    3    3    0    0 -0.11031285453E+02  0.28804991118E+02  0.18808513425E+02  0.36127232793E+02  0.00000000000E+00 0.  1.
</event>
<event>
 7    1  0.2641045E-013  0.7246156E+02  0.7816164E-02  0.1226708E+00
        -11   -1    0    0    0    0  0.00000000000E+00  0.00000000000E+00  0.45593999997E+02  0.45594000000E+02  0.51100000000E-03 0.  1.
         11   -1    0    0    0    0 -0.00000000000E+00 -0.00000000000E+00 -0.45593999997E+02  0.45594000000E+02  0.51100000000E-03 0. -1.
    9900012    2    1    2    0    0  0.14791471570E+01  0.35807847148E+01  0.18321287451E+02  0.72461562289E+02  0.69999989571E+02 0.  0.
        -12    1    1    2    0    0 -0.14791471570E+01 -0.35807847148E+01 -0.18321287451E+02  0.18726437711E+02  0.00000000000E+00 0.  1.
         11    1    3    3    0    0  0.22394122880E+02  0.30464848898E+01 -0.21038045953E+00  0.22601373187E+02  0.51100000000E-03 0. -1.
        -11    1    3    3    0    0  0.42050115713E+01 -0.71047142471E+01 -0.87268446377E+01  0.12013197095E+02  0.51100000000E-03 0.  1.
        -12    1    3    3    0    0 -0.25119987294E+02  0.76390140721E+01  0.27258512548E+02  0.37846992007E+02  0.00000000000E+00 0.  1.
</event>
<event>
 7    1  0.2641045E-013  0.7246166E+02  0.7816164E-02  0.1226708E+00
        -11   -1    0    0    0    0  0.00000000000E+00  0.00000000000E+00  0.45593999997E+02  0.45594000000E+02  0.51100000000E-03 0. -1.
         11   -1    0    0    0    0 -0.00000000000E+00 -0.00000000000E+00 -0.45593999997E+02  0.45594000000E+02  0.51100000000E-03 0.  1.
    9900012    2    1    2    0    0  0.11738085947E+02 -0.12226922245E+02  0.79621420596E+01  0.72461655043E+02  0.70000110401E+02 0.  0.
        -12    1    1    2    0    0 -0.11738085947E+02  0.12226922245E+02 -0.79621420596E+01  0.18726344957E+02  0.00000000000E+00 0.  1.
         11    1    3    3    0    0 -0.80004505957E+01 -0.11931614636E+02  0.26896883184E+02  0.30492834615E+02  0.51100000000E-03 0. -1.
        -11    1    3    3    0    0 -0.86255809001E+01  0.16560755525E+01 -0.65539589955E+01  0.10958905551E+02  0.51100000000E-03 0.  1.
        -12    1    3    3    0    0  0.28364117443E+02 -0.19513831612E+01 -0.12380782129E+02  0.31009914877E+02  0.00000000000E+00 0.  1.
</event>
<event>
 7    1  0.2641045E-013  0.7246165E+02  0.7816164E-02  0.1226708E+00
        -11   -1    0    0    0    0  0.00000000000E+00  0.00000000000E+00  0.45593999997E+02  0.45594000000E+02  0.51100000000E-03 0.  1.
         11   -1    0    0    0    0 -0.00000000000E+00 -0.00000000000E+00 -0.45593999997E+02  0.45594000000E+02  0.51100000000E-03 0. -1.
    9900012    2    1    2    0    0  0.13078456799E+02  0.13366679319E+02  0.98082304573E+00  0.72461650593E+02  0.70000104604E+02 0.  0.
        -12    1    1    2    0    0 -0.13078456799E+02 -0.13366679319E+02 -0.98082304573E+00  0.18726349407E+02  0.00000000000E+00 0.  1.
         11    1    3    3    0    0  0.18837622862E+02  0.18678760443E+02 -0.19661048770E+02  0.33019826858E+02  0.51100000000E-03 0. -1.
        -11    1    3    3    0    0  0.13553069667E+02 -0.95660034420E+00  0.10665467148E+02  0.17272897017E+02  0.51100000000E-03 0.  1.
        -12    1    3    3    0    0 -0.19312235730E+02 -0.43554807793E+01  0.99764046673E+01  0.22168926717E+02  0.00000000000E+00 0.  1.
</event>
<event>
 7    1  0.2641045E-013  0.7246153E+02  0.7816164E-02  0.1226708E+00
        -11   -1    0    0    0    0  0.00000000000E+00  0.00000000000E+00  0.45593999997E+02  0.45594000000E+02  0.51100000000E-03 0.  1.
         11   -1    0    0    0    0 -0.00000000000E+00 -0.00000000000E+00 -0.45593999997E+02  0.45594000000E+02  0.51100000000E-03 0. -1.
    9900012    2    1    2    0    0 -0.69183649816E+01 -0.65469355776E+01 -0.16123101627E+02  0.72461533554E+02  0.69999952139E+02 0.  0.
        -12    1    1    2    0    0  0.69183649816E+01  0.65469355776E+01  0.16123101627E+02  0.18726466446E+02  0.00000000000E+00 0.  1.
         11    1    3    3    0    0  0.17078686136E+02 -0.85889392636E+01 -0.11267949190E+02  0.22190495195E+02  0.51100000000E-03 0. -1.
        -11    1    3    3    0    0  0.81133838253E+01  0.12561559010E+02  0.37211817368E+01  0.15409962869E+02  0.51100000000E-03 0.  1.
         12    1    3    3    0    0 -0.32110434943E+02 -0.10519555324E+02 -0.85763341733E+01  0.34861075489E+02  0.00000000000E+00 0. -1.
</event>
<event>
 7    1  0.2641045E-013  0.7246078E+02  0.7816164E-02  0.1226710E+00
        -11   -1    0    0    0    0  0.00000000000E+00  0.00000000000E+00  0.45593999997E+02  0.45594000000E+02  0.51100000000E-03 0.  1.
         11   -1    0    0    0    0 -0.00000000000E+00 -0.00000000000E+00 -0.45593999997E+02  0.45594000000E+02  0.51100000000E-03 0. -1.
    9900012    2    1    2    0    0  0.61239952698E+01  0.17474374539E+02  0.28021177003E+01  0.72460775240E+02  0.69998964286E+02 0.  0.
        -12    1    1    2    0    0 -0.61239952698E+01 -0.17474374539E+02 -0.28021177003E+01  0.18727224760E+02  0.00000000000E+00 0.  1.
         11    1    3    3    0    0  0.15822330093E+02  0.63544422578E+00 -0.85928818932E+01  0.18016313120E+02  0.51100000000E-03 0. -1.
        -11    1    3    3    0    0  0.19378186713E+02  0.18357988249E+01  0.95289333969E+01  0.21672213766E+02  0.51100000000E-03 0.  1.
         12    1    3    3    0    0 -0.29076521536E+02  0.15003131489E+02  0.18660661966E+01  0.32772248354E+02  0.00000000000E+00 0. -1.
</event>
<event>
 7    1  0.2641045E-013  0.7246161E+02  0.7816164E-02  0.1226708E+00
        -11   -1    0    0    0    0  0.00000000000E+00  0.00000000000E+00  0.45593999997E+02  0.45594000000E+02  0.51100000000E-03 0. -1.
         11   -1    0    0    0    0 -0.00000000000E+00 -0.00000000000E+00 -0.45593999997E+02  0.45594000000E+02  0.51100000000E-03 0.  1.
    9900012    2    1    2    0    0  0.10867289964E+02 -0.15083449413E+02 -0.22514779107E+01  0.72461612464E+02  0.70000054934E+02 0.  0.
        -12    1    1    2    0    0 -0.10867289964E+02  0.15083449413E+02  0.22514779107E+01  0.18726387536E+02  0.00000000000E+00 0.  1.
         11    1    3    3    0    0  0.40363070527E+01  0.92032570257E+01 -0.14094877804E+01  0.10147825904E+02  0.51100000000E-03 0. -1.
        -11    1    3    3    0    0  0.15102118987E+02  0.15497122824E+02  0.69942135586E+00  0.21650034739E+02  0.51100000000E-03 0.  1.
         12    1    3    3    0    0 -0.82711360759E+01 -0.39783829263E+02 -0.15414114861E+01  0.40663751821E+02  0.00000000000E+00 0. -1.
</event>
<event>
 7    1  0.2641045E-013  0.7246155E+02  0.7816164E-02  0.1226708E+00
        -11   -1    0    0    0    0  0.00000000000E+00  0.00000000000E+00  0.45593999997E+02  0.45594000000E+02  0.51100000000E-03 0.  1.
         11   -1    0    0    0    0 -0.00000000000E+00 -0.00000000000E+00 -0.45593999997E+02  0.45594000000E+02  0.51100000000E-03 0. -1.
    9900012    2    1    2    0    0  0.26153949873E+01 -0.13135239123E+02 -0.13088362696E+02  0.72461547164E+02  0.69999969868E+02 0.  0.
        -12    1    1    2    0    0 -0.26153949873E+01  0.13135239123E+02  0.13088362696E+02  0.18726452836E+02  0.00000000000E+00 0.  1.
         11    1    3    3    0    0 -0.31573854520E+02  0.94078010398E+00  0.19509797748E+01  0.31648059637E+02  0.51100000000E-03 0. -1.
        -11    1    3    3    0    0  0.11770106706E+02 -0.38641424367E+01 -0.93740577123E+01  0.15535120434E+02  0.51100000000E-03 0.  1.
        -12    1    3    3    0    0  0.22419142801E+02 -0.10211876790E+02 -0.56652847589E+01  0.25278367094E+02  0.00000000000E+00 0.  1.
</event>
<event>
 7    1  0.2641045E-013  0.7246162E+02  0.7816164E-02  0.1226708E+00
        -11   -1    0    0    0    0  0.00000000000E+00  0.00000000000E+00  0.45593999997E+02  0.45594000000E+02  0.51100000000E-03 0.  1.
         11   -1    0    0    0    0 -0.00000000000E+00 -0.00000000000E+00 -0.45593999997E+02  0.45594000000E+02  0.51100000000E-03 0. -1.
    9900012    2    1    2    0    0  0.17305574572E+02  0.68754960274E+01 -0.19804085878E+01  0.72461618207E+02  0.70000062415E+02 0.  0.
        -12    1    1    2    0    0 -0.17305574572E+02 -0.68754960274E+01  0.19804085878E+01  0.18726381793E+02  0.00000000000E+00 0.  1.
         11    1    3    3    0    0  0.79759802027E+01  0.49574129489E+01  0.30972196069E+01  0.98886284638E+01  0.51100000000E-03 0. -1.
        -11    1    3    3    0    0  0.28239064182E+02  0.20360280877E+02  0.30242215572E+01  0.34944694870E+02  0.51100000000E-03 0.  1.
         12    1    3    3    0    0 -0.18909469812E+02 -0.18442197798E+02 -0.81018497519E+01  0.27628294874E+02  0.00000000000E+00 0. -1.
</event>
<event>
 7    1  0.2641045E-013  0.7246150E+02  0.7816164E-02  0.1226708E+00
        -11   -1    0    0    0    0  0.00000000000E+00  0.00000000000E+00  0.45593999997E+02  0.45594000000E+02  0.51100000000E-03 0.  1.
         11   -1    0    0    0    0 -0.00000000000E+00 -0.00000000000E+00 -0.45593999997E+02  0.45594000000E+02  0.51100000000E-03 0. -1.
    9900012    2    1    2    0    0 -0.16194696030E+02 -0.36752102405E+01 -0.86548613239E+01  0.72461495405E+02  0.69999902442E+02 0.  0.
        -12    1    1    2    0    0  0.16194696030E+02  0.36752102405E+01  0.86548613239E+01  0.18726504595E+02  0.00000000000E+00 0.  1.
         11    1    3    3    0    0  0.27038552065E+01  0.18129687476E+02 -0.23452353102E+02  0.29765907801E+02  0.51100000000E-03 0. -1.
        -11    1    3    3    0    0  0.38634953223E+01  0.10089889090E+01 -0.37790822175E+01  0.54978284251E+01  0.51100000000E-03 0.  1.
        -12    1    3    3    0    0 -0.22762046559E+02 -0.22813886625E+02  0.18576573995E+02  0.37197759179E+02  0.00000000000E+00 0.  1.
</event>
<event>
 7    1  0.2641045E-013  0.7246161E+02  0.7816164E-02  0.1226708E+00
        -11   -1    0    0    0    0  0.00000000000E+00  0.00000000000E+00  0.45593999997E+02  0.45594000000E+02  0.51100000000E-03 0. -1.
         11   -1    0    0    0    0 -0.00000000000E+00 -0.00000000000E+00 -0.45593999997E+02  0.45594000000E+02  0.51100000000E-03 0.  1.
    9900012    2    1    2    0    0 -0.16649894399E+02 -0.34577608652E+00 -0.85638377349E+01  0.72461605223E+02  0.70000045501E+02 0.  0.
        -12    1    1    2    0    0  0.16649894399E+02  0.34577608652E+00  0.85638377349E+01  0.18726394777E+02  0.00000000000E+00 0.  1.
         11    1    3    3    0    0 -0.13297019910E+02 -0.15300887472E+02 -0.54266603489E+01  0.20985150434E+02  0.51100000000E-03 0. -1.
        -11    1    3    3    0    0  0.17079862568E+02  0.59655823462E+01  0.14372444364E+02  0.23105779263E+02  0.51100000000E-03 0.  1.
        -12    1    3    3    0    0 -0.20432737057E+02  0.89895290394E+01 -0.17509621750E+02  0.28370675526E+02  0.00000000000E+00 0.  1.
</event>
<event>
 7    1  0.2641045E-013  0.7246170E+02  0.7816164E-02  0.1226708E+00
        -11   -1    0    0    0    0  0.00000000000E+00  0.00000000000E+00  0.45593999997E+02  0.45594000000E+02  0.51100000000E-03 0.  1.
         11   -1    0    0    0    0 -0.00000000000E+00 -0.00000000000E+00 -0.45593999997E+02  0.45594000000E+02  0.51100000000E-03 0. -1.
    9900012    2    1    2    0    0  0.16710961922E+02 -0.81980419735E+01 -0.20518490545E+01  0.72461702312E+02  0.70000171978E+02 0.  0.
        -12    1    1    2    0    0 -0.16710961922E+02  0.81980419735E+01  0.20518490545E+01  0.18726297688E+02  0.00000000000E+00 0.  1.
         11    1    3    3    0    0  0.13100686198E+02  0.10422031297E+02  0.81596830496E+01  0.18623295706E+02  0.51100000000E-03 0. -1.
        -11    1    3    3    0    0  0.82336223110E+01 -0.13990339928E+02  0.18371541093E+02  0.24516028840E+02  0.51100000000E-03 0.  1.
         12    1    3    3    0    0 -0.46233465874E+01 -0.46297333421E+01 -0.28583073198E+02  0.29322377767E+02  0.00000000000E+00 0. -1.
</event>
<event>
 7    1  0.2641045E-013  0.7246187E+02  0.7816164E-02  0.1226707E+00
        -11   -1    0    0    0    0  0.00000000000E+00  0.00000000000E+00  0.45593999997E+02  0.45594000000E+02  0.51100000000E-03 0. -1.
         11   -1    0    0    0    0 -0.00000000000E+00 -0.00000000000E+00 -0.45593999997E+02  0.45594000000E+02  0.51100000000E-03 0.  1.
    9900012    2    1    2    0    0 -0.56712256654E+01 -0.14922594940E+01  0.17784215454E+02  0.72461869640E+02  0.70000389952E+02 0.  0.
        -12    1    1    2    0    0  0.56712256654E+01  0.14922594940E+01 -0.17784215454E+02  0.18726130360E+02  0.00000000000E+00 0.  1.
         11    1    3    3    0    0  0.16487601790E+02 -0.10124502575E+02  0.16911922585E+02  0.25697464679E+02  0.51100000000E-03 0. -1.
        -11    1    3    3    0    0  0.10184607443E+02  0.76065308716E+01  0.59040778933E+01  0.14015836639E+02  0.51100000000E-03 0.  1.
         12    1    3    3    0    0 -0.32343434898E+02  0.10257122097E+01 -0.50317850240E+01  0.32748568321E+02  0.00000000000E+00 0. -1.
</event>
<event>
 7    1  0.2641045E-013  0.7246135E+02  0.7816164E-02  0.1226709E+00
        -11   -1    0    0    0    0  0.00000000000E+00  0.00000000000E+00  0.45593999997E+02  0.45594000000E+02  0.51100000000E-03 0. -1.
         11   -1    0    0    0    0 -0.00000000000E+00 -0.00000000000E+00 -0.45593999997E+02  0.45594000000E+02  0.51100000000E-03 0.  1.
    9900012    2    1    2    0    0  0.12630934614E+02  0.13726067877E+02 -0.16559162191E+01  0.72461347680E+02  0.69999710003E+02 0.  0.
        -12    1    1    2    0    0 -0.12630934614E+02 -0.13726067877E+02  0.16559162191E+01  0.18726652320E+02  0.00000000000E+00 0.  1.
         11    1    3    3    0    0 -0.11625775703E+02  0.45107086657E+01 -0.11546959029E+02  0.16995217458E+02  0.51100000000E-03 0. -1.
        -11    1    3    3    0    0 -0.52534820070E+01  0.18364237820E+02  0.14824709831E+02  0.24178840455E+02  0.51100000000E-03 0.  1.
         12    1    3    3    0    0  0.29510192323E+02 -0.91488786084E+01 -0.49336670206E+01  0.31287289768E+02  0.00000000000E+00 0. -1.
</event>
<event>
 7    1  0.2641045E-013  0.7246159E+02  0.7816164E-02  0.1226708E+00
        -11   -1    0    0    0    0  0.00000000000E+00  0.00000000000E+00  0.45593999997E+02  0.45594000000E+02  0.51100000000E-03 0.  1.
         11   -1    0    0    0    0 -0.00000000000E+00 -0.00000000000E+00 -0.45593999997E+02  0.45594000000E+02  0.51100000000E-03 0. -1.
    9900012    2    1    2    0    0 -0.30097652915E+01  0.17090806701E+02 -0.70373319665E+01  0.72461590787E+02  0.70000026696E+02 0.  0.
        -12    1    1    2    0    0  0.30097652915E+01 -0.17090806701E+02  0.70373319665E+01  0.18726409213E+02  0.00000000000E+00 0.  1.
         11    1    3    3    0    0 -0.19023525476E+02  0.61941871114E+01 -0.16385999489E+02  0.25860461230E+02  0.51100000000E-03 0. -1.
        -11    1    3    3    0    0 -0.94252930516E+00 -0.48008018857E+01 -0.13345261600E+02  0.14213798496E+02  0.51100000000E-03 0.  1.
        -12    1    3    3    0    0  0.16956289490E+02  0.15697421475E+02  0.22693929123E+02  0.32387331061E+02  0.00000000000E+00 0.  1.
</event>
<event>
 7    1  0.2641045E-013  0.7246157E+02  0.7816164E-02  0.1226708E+00
        -11   -1    0    0    0    0  0.00000000000E+00  0.00000000000E+00  0.45593999997E+02  0.45594000000E+02  0.51100000000E-03 0.  1.
         11   -1    0    0    0    0 -0.00000000000E+00 -0.00000000000E+00 -0.45593999997E+02  0.45594000000E+02  0.51100000000E-03 0. -1.
    9900012    2    1    2    0    0  0.78003081707E+01 -0.16363773729E+02 -0.46969535185E+01  0.72461567596E+02  0.69999996485E+02 0.  0.
        -12    1    1    2    0    0 -0.78003081707E+01  0.16363773729E+02  0.46969535185E+01  0.18726432404E+02  0.00000000000E+00 0.  1.
         11    1    3    3    0    0  0.16256835747E+01 -0.10138474178E+02  0.11924180249E+02  0.15735869236E+02  0.51100000000E-03 0. -1.
        -11    1    3    3    0    0  0.24121370391E+02  0.44230459957E+01  0.67087696634E+01  0.25424622634E+02  0.51100000000E-03 0.  1.
        -12    1    3    3    0    0 -0.17946745795E+02 -0.10648345547E+02 -0.23329903431E+02  0.31301075726E+02  0.00000000000E+00 0.  1.
</event>
<event>
 7    1  0.2641045E-013  0.7246158E+02  0.7816164E-02  0.1226708E+00
        -11   -1    0    0    0    0  0.00000000000E+00  0.00000000000E+00  0.45593999997E+02  0.45594000000E+02  0.51100000000E-03 0. -1.
         11   -1    0    0    0    0 -0.00000000000E+00 -0.00000000000E+00 -0.45593999997E+02  0.45594000000E+02  0.51100000000E-03 0.  1.
    9900012    2    1    2    0    0 -0.14114621630E+01  0.82944988854E+01  0.16729850029E+02  0.72461579648E+02  0.70000012185E+02 0.  0.
        -12    1    1    2    0    0  0.14114621630E+01 -0.82944988854E+01 -0.16729850029E+02  0.18726420352E+02  0.00000000000E+00 0.  1.
         11    1    3    3    0    0 -0.31368129355E+00 -0.54670182004E+01  0.18189204996E+02  0.18995627460E+02  0.51100000000E-03 0. -1.
        -11    1    3    3    0    0 -0.25629621376E+02  0.12327401576E+02  0.26017671722E+01  0.28558913043E+02  0.51100000000E-03 0.  1.
        -12    1    3    3    0    0  0.24531840507E+02  0.14341155102E+01 -0.40611221396E+01  0.24907039145E+02  0.00000000000E+00 0.  1.
</event>
<event>
 7    1  0.2641045E-013  0.7246149E+02  0.7816164E-02  0.1226708E+00
        -11   -1    0    0    0    0  0.00000000000E+00  0.00000000000E+00  0.45593999997E+02  0.45594000000E+02  0.51100000000E-03 0. -1.
         11   -1    0    0    0    0 -0.00000000000E+00 -0.00000000000E+00 -0.45593999997E+02  0.45594000000E+02  0.51100000000E-03 0.  1.
    9900012    2    1    2    0    0 -0.18696888347E+02 -0.56535067079E+00 -0.88822014991E+00  0.72461489639E+02  0.69999894932E+02 0.  0.
        -12    1    1    2    0    0  0.18696888347E+02  0.56535067079E+00  0.88822014991E+00  0.18726510361E+02  0.00000000000E+00 0.  1.
         11    1    3    3    0    0 -0.29596525787E+02 -0.11900990349E+01  0.21445240190E+02  0.36568688812E+02  0.51100000000E-03 0. -1.
        -11    1    3    3    0    0 -0.82485663960E+01 -0.26605723963E+01 -0.71401845402E+01  0.11229413546E+02  0.51100000000E-03 0.  1.
        -12    1    3    3    0    0  0.19148203836E+02  0.32853207604E+01 -0.15193275799E+02  0.24663387281E+02  0.00000000000E+00 0.  1.
</event>
<event>
 7    1  0.2641045E-013  0.7246158E+02  0.7816164E-02  0.1226708E+00
        -11   -1    0    0    0    0  0.00000000000E+00  0.00000000000E+00  0.45593999997E+02  0.45594000000E+02  0.51100000000E-03 0.  1.
         11   -1    0    0    0    0 -0.00000000000E+00 -0.00000000000E+00 -0.45593999997E+02  0.45594000000E+02  0.51100000000E-03 0. -1.
    9900012    2    1    2    0    0 -0.91755132343E+01  0.84056584945E+01  0.13994053506E+02  0.72461583596E+02  0.70000017327E+02 0.  0.
        -12    1    1    2    0    0  0.91755132343E+01 -0.84056584945E+01 -0.13994053506E+02  0.18726416404E+02  0.00000000000E+00 0.  1.
         11    1    3    3    0    0 -0.84691526534E+01 -0.16552967136E+00 -0.21784027204E+02  0.23373014102E+02  0.51100000000E-03 0. -1.
        -11    1    3    3    0    0  0.15616811696E+02  0.72436648651E+01  0.19131568829E+02  0.25736596790E+02  0.51100000000E-03 0.  1.
        -12    1    3    3    0    0 -0.16323172277E+02  0.13275233007E+01  0.16646511881E+02  0.23351972703E+02  0.00000000000E+00 0.  1.
</event>
<event>
 7    1  0.2641045E-013  0.7246155E+02  0.7816164E-02  0.1226708E+00
        -11   -1    0    0    0    0  0.00000000000E+00  0.00000000000E+00  0.45593999997E+02  0.45594000000E+02  0.51100000000E-03 0.  1.
         11   -1    0    0    0    0 -0.00000000000E+00 -0.00000000000E+00 -0.45593999997E+02  0.45594000000E+02  0.51100000000E-03 0. -1.
    9900012    2    1    2    0    0  0.12547820939E+02  0.14060158446E+01 -0.13829500496E+02  0.72461554133E+02  0.69999978946E+02 0.  0.
        -12    1    1    2    0    0 -0.12547820939E+02 -0.14060158446E+01  0.13829500496E+02  0.18726445867E+02  0.00000000000E+00 0.  1.
         11    1    3    3    0    0 -0.20244339060E+01  0.13363366527E+02 -0.25284795924E+01  0.13750312974E+02  0.51100000000E-03 0. -1.
        -11    1    3    3    0    0 -0.14933818702E+02 -0.21673326971E+02 -0.25836246008E+01  0.26446685224E+02  0.51100000000E-03 0.  1.
         12    1    3    3    0    0  0.29506073547E+02  0.97159762884E+01 -0.87173963022E+01  0.32264555935E+02  0.00000000000E+00 0. -1.
</event>
<event>
 7    1  0.2641045E-013  0.7246119E+02  0.7816164E-02  0.1226709E+00
        -11   -1    0    0    0    0  0.00000000000E+00  0.00000000000E+00  0.45593999997E+02  0.45594000000E+02  0.51100000000E-03 0. -1.
         11   -1    0    0    0    0 -0.00000000000E+00 -0.00000000000E+00 -0.45593999997E+02  0.45594000000E+02  0.51100000000E-03 0.  1.
    9900012    2    1    2    0    0 -0.13267972588E+02  0.96843430079E+01 -0.89926524414E+01  0.72461190500E+02  0.69999505246E+02 0.  0.
        -12    1    1    2    0    0  0.13267972588E+02 -0.96843430079E+01  0.89926524414E+01  0.18726809500E+02  0.00000000000E+00 0.  1.
         11    1    3    3    0    0 -0.10782560812E+02  0.60714330943E+00  0.91174406384E+01  0.14133646547E+02  0.51100000000E-03 0. -1.
        -11    1    3    3    0    0 -0.14442337941E+01 -0.17078932915E+02 -0.25862811605E+02  0.31026775294E+02  0.51100000000E-03 0.  1.
         12    1    3    3    0    0 -0.10411779820E+01  0.26156132613E+02  0.77527185250E+01  0.27300768659E+02  0.00000000000E+00 0. -1.
</event>
<event>
 7    1  0.2641045E-013  0.7246163E+02  0.7816164E-02  0.1226708E+00
        -11   -1    0    0    0    0  0.00000000000E+00  0.00000000000E+00  0.45593999997E+02  0.45594000000E+02  0.51100000000E-03 0.  1.
         11   -1    0    0    0    0 -0.00000000000E+00 -0.00000000000E+00 -0.45593999997E+02  0.45594000000E+02  0.51100000000E-03 0. -1.
    9900012    2    1    2    0    0 -0.35805391301E+01  0.18089881026E+02 -0.32577144634E+01  0.72461634642E+02  0.70000083825E+02 0.  0.
        -12    1    1    2    0    0  0.35805391301E+01 -0.18089881026E+02  0.32577144634E+01  0.18726365358E+02  0.00000000000E+00 0.  1.
         11    1    3    3    0    0 -0.17954425878E+02  0.25051603845E+02  0.68552884378E+01  0.31574344707E+02  0.51100000000E-03 0. -1.
        -11    1    3    3    0    0 -0.26284035230E+01  0.36486768039E+01 -0.18590497260E+02  0.19126628979E+02  0.51100000000E-03 0.  1.
        -12    1    3    3    0    0  0.17002290271E+02 -0.10610399623E+02  0.84774943584E+01  0.21760660956E+02  0.00000000000E+00 0.  1.
</event>
<event>
 7    1  0.2641045E-013  0.7246158E+02  0.7816164E-02  0.1226708E+00
        -11   -1    0    0    0    0  0.00000000000E+00  0.00000000000E+00  0.45593999997E+02  0.45594000000E+02  0.51100000000E-03 0. -1.
         11   -1    0    0    0    0 -0.00000000000E+00 -0.00000000000E+00 -0.45593999997E+02  0.45594000000E+02  0.51100000000E-03 0.  1.
    9900012    2    1    2    0    0 -0.52090608564E+01  0.16477106317E+02  0.72145255511E+01  0.72461582123E+02  0.70000015409E+02 0.  0.
        -12    1    1    2    0    0  0.52090608564E+01 -0.16477106317E+02 -0.72145255511E+01  0.18726417877E+02  0.00000000000E+00 0.  1.
         11    1    3    3    0    0 -0.58057689047E+01 -0.23125811890E+01  0.14374416316E+02  0.15674145240E+02  0.51100000000E-03 0. -1.
        -11    1    3    3    0    0 -0.21906591304E+02  0.14522396764E+02  0.10049024298E+02  0.28138614748E+02  0.51100000000E-03 0.  1.
        -12    1    3    3    0    0  0.22503299353E+02  0.42672907415E+01 -0.17208915063E+02  0.28648822134E+02  0.00000000000E+00 0.  1.
</event>
<event>
 7    1  0.2641045E-013  0.7246163E+02  0.7816164E-02  0.1226708E+00
        -11   -1    0    0    0    0  0.00000000000E+00  0.00000000000E+00  0.45593999997E+02  0.45594000000E+02  0.51100000000E-03 0. -1.
         11   -1    0    0    0    0 -0.00000000000E+00 -0.00000000000E+00 -0.45593999997E+02  0.45594000000E+02  0.51100000000E-03 0.  1.
    9900012    2    1    2    0    0 -0.73859068047E+01  0.41578326169E+01  0.16698436532E+02  0.72461628915E+02  0.70000076364E+02 0.  0.
        -12    1    1    2    0    0  0.73859068047E+01 -0.41578326169E+01 -0.16698436532E+02  0.18726371085E+02  0.00000000000E+00 0.  1.
         11    1    3    3    0    0 -0.18821633013E+01 -0.46665625060E+01  0.31317399959E+01  0.59268153319E+01  0.51100000000E-03 0. -1.
        -11    1    3    3    0    0  0.23567874562E+02 -0.13655388829E+02 -0.34585516035E+00  0.27240300503E+02  0.51100000000E-03 0.  1.
         12    1    3    3    0    0 -0.29071618066E+02  0.22479783952E+02  0.13912551697E+02  0.39294513080E+02  0.00000000000E+00 0. -1.
</event>
<event>
 7    1  0.2641045E-013  0.7246105E+02  0.7816164E-02  0.1226709E+00
        -11   -1    0    0    0    0  0.00000000000E+00  0.00000000000E+00  0.45593999997E+02  0.45594000000E+02  0.51100000000E-03 0. -1.
         11   -1    0    0    0    0 -0.00000000000E+00 -0.00000000000E+00 -0.45593999997E+02  0.45594000000E+02  0.51100000000E-03 0.  1.
    9900012    2    1    2    0    0 -0.45733593702E+00 -0.13857403725E+02  0.12588158152E+02  0.72461053644E+02  0.69999326964E+02 0.  0.
        -12    1    1    2    0    0  0.45733593702E+00  0.13857403725E+02 -0.12588158152E+02  0.18726946356E+02  0.00000000000E+00 0.  1.
         11    1    3    3    0    0 -0.18656151063E+02 -0.32599706279E+01  0.24827121949E+01  0.19100870166E+02  0.51100000000E-03 0. -1.
        -11    1    3    3    0    0 -0.90166427508E+01 -0.90728284518E+01  0.20519966376E+02  0.24180262260E+02  0.51100000000E-03 0.  1.
        -12    1    3    3    0    0  0.27215457877E+02 -0.15246046457E+01 -0.10414520419E+02  0.29179921219E+02  0.00000000000E+00 0.  1.
</event>
<event>
 7    1  0.2641045E-013  0.7246143E+02  0.7816164E-02  0.1226708E+00
        -11   -1    0    0    0    0  0.00000000000E+00  0.00000000000E+00  0.45593999997E+02  0.45594000000E+02  0.51100000000E-03 0. -1.
         11   -1    0    0    0    0 -0.00000000000E+00 -0.00000000000E+00 -0.45593999997E+02  0.45594000000E+02  0.51100000000E-03 0.  1.
    9900012    2    1    2    0    0 -0.97184679435E+01 -0.12686869792E+02  0.97611097257E+01  0.72461426705E+02  0.69999812948E+02 0.  0.
        -12    1    1    2    0    0  0.97184679435E+01  0.12686869792E+02 -0.97611097257E+01  0.18726573295E+02  0.00000000000E+00 0.  1.
         11    1    3    3    0    0 -0.26746717616E+02 -0.11228870669E+01  0.16236181846E+02  0.31309126142E+02  0.51100000000E-03 0. -1.
        -11    1    3    3    0    0 -0.18628559342E+01 -0.16902907375E+01  0.12417124658E+02  0.12669344894E+02  0.51100000000E-03 0.  1.
        -12    1    3    3    0    0  0.18891105607E+02 -0.98736919874E+01 -0.18892196778E+02  0.28482955669E+02  0.00000000000E+00 0.  1.
</event>
<event>
 7    1  0.2641045E-013  0.7246154E+02  0.7816164E-02  0.1226708E+00
        -11   -1    0    0    0    0  0.00000000000E+00  0.00000000000E+00  0.45593999997E+02  0.45594000000E+02  0.51100000000E-03 0.  1.
         11   -1    0    0    0    0 -0.00000000000E+00 -0.00000000000E+00 -0.45593999997E+02  0.45594000000E+02  0.51100000000E-03 0. -1.
    9900012    2    1    2    0    0  0.11009609160E+02  0.13812162171E+02  0.62203563106E+01  0.72461544107E+02  0.69999965886E+02 0.  0.
        -12    1    1    2    0    0 -0.11009609160E+02 -0.13812162171E+02 -0.62203563106E+01  0.18726455893E+02  0.00000000000E+00 0.  1.
         11    1    3    3    0    0 -0.16169915770E+02  0.27468559028E+01 -0.18317043067E+02  0.24587099469E+02  0.51100000000E-03 0. -1.
        -11    1    3    3    0    0  0.30415198266E+01  0.42846274884E+01 -0.62527371713E+01  0.81673495067E+01  0.51100000000E-03 0.  1.
        -12    1    3    3    0    0  0.24138005103E+02  0.67806787794E+01  0.30790136549E+02  0.39707095131E+02  0.00000000000E+00 0.  1.
</event>
<event>
 7    1  0.2641045E-013  0.7246156E+02  0.7816164E-02  0.1226708E+00
        -11   -1    0    0    0    0  0.00000000000E+00  0.00000000000E+00  0.45593999997E+02  0.45594000000E+02  0.51100000000E-03 0. -1.
         11   -1    0    0    0    0 -0.00000000000E+00 -0.00000000000E+00 -0.45593999997E+02  0.45594000000E+02  0.51100000000E-03 0.  1.
    9900012    2    1    2    0    0 -0.58854082867E+01  0.15682461453E+02  0.83726984852E+01  0.72461555921E+02  0.69999981276E+02 0.  0.
        -12    1    1    2    0    0  0.58854082867E+01 -0.15682461453E+02 -0.83726984852E+01  0.18726444079E+02  0.00000000000E+00 0.  1.
         11    1    3    3    0    0 -0.43253679265E+01  0.96281204037E+01  0.25429042735E+02  0.27532630185E+02  0.51100000000E-03 0. -1.
        -11    1    3    3    0    0 -0.20388784566E+02  0.23204409876E+01 -0.15411396514E+02  0.25663166703E+02  0.51100000000E-03 0.  1.
        -12    1    3    3    0    0  0.18828744206E+02  0.37339000619E+01 -0.16449477357E+01  0.19265759033E+02  0.00000000000E+00 0.  1.
</event>
<event>
 7    1  0.2641045E-013  0.7246135E+02  0.7816164E-02  0.1226709E+00
        -11   -1    0    0    0    0  0.00000000000E+00  0.00000000000E+00  0.45593999997E+02  0.45594000000E+02  0.51100000000E-03 0.  1.
         11   -1    0    0    0    0 -0.00000000000E+00 -0.00000000000E+00 -0.45593999997E+02  0.45594000000E+02  0.51100000000E-03 0. -1.
    9900012    2    1    2    0    0  0.18325398819E+02 -0.37138847794E+01  0.10365036247E+01  0.72461347288E+02  0.69999709492E+02 0.  0.
        -12    1    1    2    0    0 -0.18325398819E+02  0.37138847794E+01 -0.10365036247E+01  0.18726652712E+02  0.00000000000E+00 0.  1.
         11    1    3    3    0    0  0.17695558938E+02  0.17735631046E+02 -0.11126801117E+01  0.25078346677E+02  0.51100000000E-03 0. -1.
        -11    1    3    3    0    0  0.12283652459E+02  0.85550229489E+01  0.25907097890E+01  0.15191718562E+02  0.51100000000E-03 0.  1.
        -12    1    3    3    0    0 -0.11653812578E+02 -0.30004538775E+02 -0.44152605273E+00  0.32191282049E+02  0.00000000000E+00 0.  1.
</event>
<event>
 7    1  0.2641045E-013  0.7246152E+02  0.7816164E-02  0.1226708E+00
        -11   -1    0    0    0    0  0.00000000000E+00  0.00000000000E+00  0.45593999997E+02  0.45594000000E+02  0.51100000000E-03 0. -1.
         11   -1    0    0    0    0 -0.00000000000E+00 -0.00000000000E+00 -0.45593999997E+02  0.45594000000E+02  0.51100000000E-03 0.  1.
    9900012    2    1    2    0    0  0.15799026214E+02 -0.85038733322E+01 -0.53624411743E+01  0.72461524990E+02  0.69999940983E+02 0.  0.
        -12    1    1    2    0    0 -0.15799026214E+02  0.85038733322E+01  0.53624411743E+01  0.18726475010E+02  0.00000000000E+00 0.  1.
         11    1    3    3    0    0  0.18366869134E+02 -0.15525287211E+02  0.13467029052E+02  0.27563332464E+02  0.51100000000E-03 0. -1.
        -11    1    3    3    0    0 -0.11514699742E+02 -0.11575602770E+02  0.89363920168E+00  0.16351803599E+02  0.51100000000E-03 0.  1.
        -12    1    3    3    0    0  0.89468568223E+01  0.18597016649E+02 -0.19723109428E+02  0.28546388927E+02  0.00000000000E+00 0.  1.
</event>
<event>
 7    1  0.2641045E-013  0.7246161E+02  0.7816164E-02  0.1226708E+00
        -11   -1    0    0    0    0  0.00000000000E+00  0.00000000000E+00  0.45593999997E+02  0.45594000000E+02  0.51100000000E-03 0.  1.
         11   -1    0    0    0    0 -0.00000000000E+00 -0.00000000000E+00 -0.45593999997E+02  0.45594000000E+02  0.51100000000E-03 0. -1.
    9900012    2    1    2    0    0  0.14709874435E+02  0.61370531430E+01  0.98302494406E+01  0.72461611367E+02  0.70000053505E+02 0.  0.
        -12    1    1    2    0    0 -0.14709874435E+02 -0.61370531430E+01 -0.98302494406E+01  0.18726388633E+02  0.00000000000E+00 0.  1.
         11    1    3    3    0    0  0.59076715228E+01 -0.18821548543E+02 -0.17028308658E+02  0.26059826715E+02  0.51100000000E-03 0. -1.
        -11    1    3    3    0    0 -0.24699783240E+01  0.50461059129E+01 -0.47660013262E+01  0.73674111266E+01  0.51100000000E-03 0.  1.
        -12    1    3    3    0    0  0.11272181236E+02  0.19912495774E+02  0.31624559425E+02  0.39034373526E+02  0.00000000000E+00 0.  1.
</event>
<event>
 7    1  0.2641045E-013  0.7246097E+02  0.7816164E-02  0.1226710E+00
        -11   -1    0    0    0    0  0.00000000000E+00  0.00000000000E+00  0.45593999997E+02  0.45594000000E+02  0.51100000000E-03 0. -1.
         11   -1    0    0    0    0 -0.00000000000E+00 -0.00000000000E+00 -0.45593999997E+02  0.45594000000E+02  0.51100000000E-03 0.  1.
    9900012    2    1    2    0    0  0.37335612365E+01 -0.17750723185E+02  0.46555227519E+01  0.72460972868E+02  0.69999221737E+02 0.  0.
        -12    1    1    2    0    0 -0.37335612365E+01  0.17750723185E+02 -0.46555227519E+01  0.18727027132E+02  0.00000000000E+00 0.  1.
         11    1    3    3    0    0 -0.26779844171E+02  0.21080067193E+01 -0.60155780143E+01  0.27528002565E+02  0.51100000000E-03 0. -1.
        -11    1    3    3    0    0  0.10632649870E+02  0.44916169195E+01  0.64305003231E+01  0.13212842256E+02  0.51100000000E-03 0.  1.
        -12    1    3    3    0    0  0.19880755537E+02 -0.24350346824E+02  0.42406004431E+01  0.31720128047E+02  0.00000000000E+00 0.  1.
</event>
<event>
 7    1  0.2641045E-013  0.7246177E+02  0.7816164E-02  0.1226707E+00
        -11   -1    0    0    0    0  0.00000000000E+00  0.00000000000E+00  0.45593999997E+02  0.45594000000E+02  0.51100000000E-03 0.  1.
         11   -1    0    0    0    0 -0.00000000000E+00 -0.00000000000E+00 -0.45593999997E+02  0.45594000000E+02  0.51100000000E-03 0. -1.
    9900012    2    1    2    0    0  0.37946554760E+01 -0.17001236422E+02  0.68724350362E+01  0.72461766706E+02  0.70000255862E+02 0.  0.
        -12    1    1    2    0    0 -0.37946554760E+01  0.17001236422E+02 -0.68724350362E+01  0.18726233294E+02  0.00000000000E+00 0.  1.
         11    1    3    3    0    0  0.27029172910E+02 -0.26364439624E+02 -0.27089717492E+01  0.37854965237E+02  0.51100000000E-03 0. -1.
        -11    1    3    3    0    0 -0.98054741796E+01  0.15381081193E+02  0.29977872504E+01  0.18485445929E+02  0.51100000000E-03 0.  1.
        -12    1    3    3    0    0 -0.13429043255E+02 -0.60178779913E+01  0.65836195350E+01  0.16121355540E+02  0.00000000000E+00 0.  1.
</event>
<event>
 7    1  0.2641045E-013  0.7246154E+02  0.7816164E-02  0.1226708E+00
        -11   -1    0    0    0    0  0.00000000000E+00  0.00000000000E+00  0.45593999997E+02  0.45594000000E+02  0.51100000000E-03 0. -1.
         11   -1    0    0    0    0 -0.00000000000E+00 -0.00000000000E+00 -0.45593999997E+02  0.45594000000E+02  0.51100000000E-03 0.  1.
    9900012    2    1    2    0    0  0.14336282395E+02  0.11707613453E+02  0.28430640363E+01  0.72461542279E+02  0.69999963505E+02 0.  0.
        -12    1    1    2    0    0 -0.14336282395E+02 -0.11707613453E+02 -0.28430640363E+01  0.18726457721E+02  0.00000000000E+00 0.  1.
         11    1    3    3    0    0  0.23646599562E+01  0.16802302271E+01 -0.17700393740E+02  0.17936519427E+02  0.51100000000E-03 0. -1.
        -11    1    3    3    0    0  0.22419942328E+02 -0.40011856291E+01 -0.52389107452E+01  0.23368985569E+02  0.51100000000E-03 0.  1.
         12    1    3    3    0    0 -0.10448319890E+02  0.14028568855E+02  0.25782368522E+02  0.31156037284E+02  0.00000000000E+00 0. -1.
</event>
<event>
 7    1  0.2641045E-013  0.7246158E+02  0.7816164E-02  0.1226708E+00
        -11   -1    0    0    0    0  0.00000000000E+00  0.00000000000E+00  0.45593999997E+02  0.45594000000E+02  0.51100000000E-03 0.  1.
         11   -1    0    0    0    0 -0.00000000000E+00 -0.00000000000E+00 -0.45593999997E+02  0.45594000000E+02  0.51100000000E-03 0. -1.
    9900012    2    1    2    0    0  0.10349093588E+02 -0.14988962766E+02  0.43481237146E+01  0.72461576883E+02  0.70000008583E+02 0.  0.
        -12    1    1    2    0    0 -0.10349093588E+02  0.14988962766E+02 -0.43481237146E+01  0.18726423117E+02  0.00000000000E+00 0.  1.
         11    1    3    3    0    0 -0.74554061194E+01 -0.16030696348E+02  0.10516555589E+02  0.20570956408E+02  0.51100000000E-03 0. -1.
        -11    1    3    3    0    0  0.11751210870E+02 -0.21258368210E+01  0.20846759809E+02  0.24024935669E+02  0.51100000000E-03 0.  1.
         12    1    3    3    0    0  0.60532888372E+01  0.31675704025E+01 -0.27015191684E+02  0.27865684806E+02  0.00000000000E+00 0. -1.
</event>
<event>
 7    1  0.2641045E-013  0.7246157E+02  0.7816164E-02  0.1226708E+00
        -11   -1    0    0    0    0  0.00000000000E+00  0.00000000000E+00  0.45593999997E+02  0.45594000000E+02  0.51100000000E-03 0. -1.
         11   -1    0    0    0    0 -0.00000000000E+00 -0.00000000000E+00 -0.45593999997E+02  0.45594000000E+02  0.51100000000E-03 0.  1.
    9900012    2    1    2    0    0  0.16574638757E+02 -0.58365643309E+01  0.64726402271E+01  0.72461569357E+02  0.69999998779E+02 0.  0.
        -12    1    1    2    0    0 -0.16574638757E+02  0.58365643309E+01 -0.64726402271E+01  0.18726430643E+02  0.00000000000E+00 0.  1.
         11    1    3    3    0    0  0.11205724742E+02 -0.14986058930E+02  0.29043795708E+02  0.34549852368E+02  0.51100000000E-03 0. -1.
        -11    1    3    3    0    0  0.16904238497E+01 -0.47094855870E+01  0.48496263785E+01  0.69681894031E+01  0.51100000000E-03 0.  1.
        -12    1    3    3    0    0  0.36784901659E+01  0.13858980186E+02 -0.27420781859E+02  0.30943527586E+02  0.00000000000E+00 0.  1.
</event>
<event>
 7    1  0.2641045E-013  0.7246153E+02  0.7816164E-02  0.1226708E+00
        -11   -1    0    0    0    0  0.00000000000E+00  0.00000000000E+00  0.45593999997E+02  0.45594000000E+02  0.51100000000E-03 0. -1.
         11   -1    0    0    0    0 -0.00000000000E+00 -0.00000000000E+00 -0.45593999997E+02  0.45594000000E+02  0.51100000000E-03 0.  1.
    9900012    2    1    2    0    0 -0.17706277566E+02 -0.34149803193E+01  0.50503695426E+01  0.72461532412E+02  0.69999950651E+02 0.  0.
        -12    1    1    2    0    0  0.17706277566E+02  0.34149803193E+01 -0.50503695426E+01  0.18726467588E+02  0.00000000000E+00 0.  1.
         11    1    3    3    0    0 -0.11186965532E+02 -0.79673482083E+01  0.20039915103E+01  0.13879582757E+02  0.51100000000E-03 0. -1.
        -11    1    3    3    0    0 -0.31622980162E+02  0.91505835112E+01  0.30428947655E+01  0.33060630086E+02  0.51100000000E-03 0.  1.
         12    1    3    3    0    0  0.25103668128E+02 -0.45982156222E+01  0.34832667173E-02  0.25521319568E+02  0.00000000000E+00 0. -1.
</event>
<event>
 7    1  0.2641045E-013  0.7246151E+02  0.7816164E-02  0.1226708E+00
        -11   -1    0    0    0    0  0.00000000000E+00  0.00000000000E+00  0.45593999997E+02  0.45594000000E+02  0.51100000000E-03 0. -1.
         11   -1    0    0    0    0 -0.00000000000E+00 -0.00000000000E+00 -0.45593999997E+02  0.45594000000E+02  0.51100000000E-03 0.  1.
    9900012    2    1    2    0    0 -0.48055341348E+01  0.13881470262E+02 -0.11614353912E+02  0.72461505621E+02  0.69999915751E+02 0.  0.
        -12    1    1    2    0    0  0.48055341348E+01 -0.13881470262E+02  0.11614353912E+02  0.18726494379E+02  0.00000000000E+00 0.  1.
         11    1    3    3    0    0  0.15027711761E+02  0.73044857701E+01  0.12799686237E+02  0.21048030815E+02  0.51100000000E-03 0. -1.
        -11    1    3    3    0    0 -0.18418374660E+01  0.56319901193E+01  0.10538935045E+02  0.12090526461E+02  0.51100000000E-03 0.  1.
        -12    1    3    3    0    0 -0.17991408430E+02  0.94499437206E+00 -0.34952975194E+02  0.39322948345E+02  0.00000000000E+00 0.  1.
</event>
<event>
 7    1  0.2641045E-013  0.7246157E+02  0.7816164E-02  0.1226708E+00
        -11   -1    0    0    0    0  0.00000000000E+00  0.00000000000E+00  0.45593999997E+02  0.45594000000E+02  0.51100000000E-03 0.  1.
         11   -1    0    0    0    0 -0.00000000000E+00 -0.00000000000E+00 -0.45593999997E+02  0.45594000000E+02  0.51100000000E-03 0. -1.
    9900012    2    1    2    0    0  0.12863733014E+02 -0.59323826565E+01 -0.12247876415E+02  0.72461567672E+02  0.69999996584E+02 0.  0.
        -12    1    1    2    0    0 -0.12863733014E+02  0.59323826565E+01  0.12247876415E+02  0.18726432328E+02  0.00000000000E+00 0.  1.
         11    1    3    3    0    0  0.60855383249E+01 -0.27829946547E+02 -0.17760933543E+02  0.33570678607E+02  0.51100000000E-03 0. -1.
        -11    1    3    3    0    0 -0.22063112760E+01  0.94732311633E+00 -0.10668900589E+02  0.10935751944E+02  0.51100000000E-03 0.  1.
        -12    1    3    3    0    0  0.89845059649E+01  0.20950240774E+02  0.16181957717E+02  0.27955137122E+02  0.00000000000E+00 0.  1.
</event>
<event>
 7    1  0.2641045E-013  0.7246161E+02  0.7816164E-02  0.1226708E+00
        -11   -1    0    0    0    0  0.00000000000E+00  0.00000000000E+00  0.45593999997E+02  0.45594000000E+02  0.51100000000E-03 0.  1.
         11   -1    0    0    0    0 -0.00000000000E+00 -0.00000000000E+00 -0.45593999997E+02  0.45594000000E+02  0.51100000000E-03 0. -1.
    9900012    2    1    2    0    0 -0.40180287782E+01  0.58119861278E+01 -0.17342257080E+02  0.72461611703E+02  0.70000053943E+02 0.  0.
        -12    1    1    2    0    0  0.40180287782E+01 -0.58119861278E+01  0.17342257080E+02  0.18726388297E+02  0.00000000000E+00 0.  1.
         11    1    3    3    0    0 -0.15417563482E+02  0.64589979912E+01 -0.99261820802E+01  0.19440910722E+02  0.51100000000E-03 0. -1.
        -11    1    3    3    0    0 -0.13212221213E+02 -0.16097622524E+02 -0.11314947348E+02  0.23700723070E+02  0.51100000000E-03 0.  1.
        -12    1    3    3    0    0  0.24611755916E+02  0.15450610661E+02  0.38988723477E+01  0.29319977911E+02  0.00000000000E+00 0.  1.
</event>
<event>
 7    1  0.2641045E-013  0.7246162E+02  0.7816164E-02  0.1226708E+00
        -11   -1    0    0    0    0  0.00000000000E+00  0.00000000000E+00  0.45593999997E+02  0.45594000000E+02  0.51100000000E-03 0. -1.
         11   -1    0    0    0    0 -0.00000000000E+00 -0.00000000000E+00 -0.45593999997E+02  0.45594000000E+02  0.51100000000E-03 0.  1.
    9900012    2    1    2    0    0  0.88300859770E+01  0.14312557769E+02  0.82375769497E+01  0.72461617481E+02  0.70000061469E+02 0.  0.
        -12    1    1    2    0    0 -0.88300859770E+01 -0.14312557769E+02 -0.82375769497E+01  0.18726382519E+02  0.00000000000E+00 0.  1.
         11    1    3    3    0    0 -0.73778535887E+01 -0.46978980942E+01  0.10358494121E+02  0.13557336419E+02  0.51100000000E-03 0. -1.
        -11    1    3    3    0    0 -0.97951319813E+00 -0.17995805836E+02  0.36057675898E+00  0.18026050307E+02  0.51100000000E-03 0.  1.
         12    1    3    3    0    0  0.17187452764E+02  0.37006261700E+02 -0.24814939299E+01  0.40878230755E+02  0.00000000000E+00 0. -1.
</event>
<event>
 7    1  0.2641045E-013  0.7246168E+02  0.7816164E-02  0.1226708E+00
        -11   -1    0    0    0    0  0.00000000000E+00  0.00000000000E+00  0.45593999997E+02  0.45594000000E+02  0.51100000000E-03 0.  1.
         11   -1    0    0    0    0 -0.00000000000E+00 -0.00000000000E+00 -0.45593999997E+02  0.45594000000E+02  0.51100000000E-03 0. -1.
    9900012    2    1    2    0    0  0.15796642236E+02  0.32999510961E+01 -0.95000685692E+01  0.72461684666E+02  0.70000148990E+02 0.  0.
        -12    1    1    2    0    0 -0.15796642236E+02 -0.32999510961E+01  0.95000685692E+01  0.18726315334E+02  0.00000000000E+00 0.  1.
         11    1    3    3    0    0  0.29663968565E+02 -0.93589996997E+01 -0.22009535191E+02  0.38104613185E+02  0.51100000000E-03 0. -1.
        -11    1    3    3    0    0 -0.39360010156E+01 -0.31783597819E+01 -0.61371360372E+01  0.79535221065E+01  0.51100000000E-03 0.  1.
        -12    1    3    3    0    0 -0.99313253139E+01  0.15837310578E+02  0.18646602659E+02  0.26403549374E+02  0.00000000000E+00 0.  1.
</event>
<event>
 7    1  0.2641045E-013  0.7246154E+02  0.7816164E-02  0.1226708E+00
        -11   -1    0    0    0    0  0.00000000000E+00  0.00000000000E+00  0.45593999997E+02  0.45594000000E+02  0.51100000000E-03 0. -1.
         11   -1    0    0    0    0 -0.00000000000E+00 -0.00000000000E+00 -0.45593999997E+02  0.45594000000E+02  0.51100000000E-03 0.  1.
    9900012    2    1    2    0    0 -0.76895835274E+01 -0.16191418136E+02 -0.54211363704E+01  0.72461536489E+02  0.69999955962E+02 0.  0.
        -12    1    1    2    0    0  0.76895835274E+01  0.16191418136E+02  0.54211363704E+01  0.18726463511E+02  0.00000000000E+00 0.  1.
         11    1    3    3    0    0 -0.20583600351E+02 -0.10780229965E+02  0.24045289187E+02  0.33437611964E+02  0.51100000000E-03 0. -1.
        -11    1    3    3    0    0  0.12599261906E+02  0.87470566910E+00 -0.47084325575E+01  0.13478718336E+02  0.51100000000E-03 0.  1.
        -12    1    3    3    0    0  0.29475491823E+00 -0.62858938400E+01 -0.24757993000E+02  0.25545206188E+02  0.00000000000E+00 0.  1.
</event>
<event>
 7    1  0.2641045E-013  0.7246130E+02  0.7816164E-02  0.1226709E+00
        -11   -1    0    0    0    0  0.00000000000E+00  0.00000000000E+00  0.45593999997E+02  0.45594000000E+02  0.51100000000E-03 0. -1.
         11   -1    0    0    0    0 -0.00000000000E+00 -0.00000000000E+00 -0.45593999997E+02  0.45594000000E+02  0.51100000000E-03 0.  1.
    9900012    2    1    2    0    0  0.54013174695E+01  0.11912963301E+02 -0.13401354273E+02  0.72461301910E+02  0.69999650378E+02 0.  0.
        -12    1    1    2    0    0 -0.54013174695E+01 -0.11912963301E+02  0.13401354273E+02  0.18726698090E+02  0.00000000000E+00 0.  1.
         11    1    3    3    0    0  0.60907531963E+00  0.17501393504E+02  0.21363158780E+02  0.27623437524E+02  0.51100000000E-03 0. -1.
        -11    1    3    3    0    0 -0.66907159611E+01 -0.12467819116E+02 -0.12609149158E+02  0.18952647212E+02  0.51100000000E-03 0.  1.
        -12    1    3    3    0    0  0.11482958111E+02  0.68793889123E+01 -0.22155363895E+02  0.25885217174E+02  0.00000000000E+00 0.  1.
</event>
<event>
 7    1  0.2641045E-013  0.7246161E+02  0.7816164E-02  0.1226708E+00
        -11   -1    0    0    0    0  0.00000000000E+00  0.00000000000E+00  0.45593999997E+02  0.45594000000E+02  0.51100000000E-03 0. -1.
         11   -1    0    0    0    0 -0.00000000000E+00 -0.00000000000E+00 -0.45593999997E+02  0.45594000000E+02  0.51100000000E-03 0.  1.
    9900012    2    1    2    0    0 -0.92394896943E+01 -0.16230775961E+02  0.13679450834E+01  0.72461614021E+02  0.70000056962E+02 0.  0.
        -12    1    1    2    0    0  0.92394896943E+01  0.16230775961E+02 -0.13679450834E+01  0.18726385979E+02  0.00000000000E+00 0.  1.
         11    1    3    3    0    0 -0.18254517618E-01 -0.89763869584E+01  0.27785782842E+02  0.29199753157E+02  0.51100000000E-03 0. -1.
        -11    1    3    3    0    0 -0.22894284729E+01 -0.10053760051E+02  0.46471839695E+01  0.11309990849E+02  0.51100000000E-03 0.  1.
        -12    1    3    3    0    0 -0.69318067038E+01  0.27993710489E+01 -0.31065021728E+02  0.31951870014E+02  0.00000000000E+00 0.  1.
</event>
<event>
 7    1  0.2641045E-013  0.7246157E+02  0.7816164E-02  0.1226708E+00
        -11   -1    0    0    0    0  0.00000000000E+00  0.00000000000E+00  0.45593999997E+02  0.45594000000E+02  0.51100000000E-03 0.  1.
         11   -1    0    0    0    0 -0.00000000000E+00 -0.00000000000E+00 -0.45593999997E+02  0.45594000000E+02  0.51100000000E-03 0. -1.
    9900012    2    1    2    0    0 -0.23723610519E+01 -0.11271873687E+01 -0.18541319378E+02  0.72461570212E+02  0.69999999893E+02 0.  0.
        -12    1    1    2    0    0  0.23723610519E+01  0.11271873687E+01  0.18541319378E+02  0.18726429788E+02  0.00000000000E+00 0.  1.
         11    1    3    3    0    0 -0.37355665513E+01  0.17822290882E+02 -0.45052153031E+01  0.18758610688E+02  0.51100000000E-03 0. -1.
        -11    1    3    3    0    0  0.10981636173E+02  0.13743695442E+02 -0.27614310475E+01  0.17807610708E+02  0.51100000000E-03 0.  1.
         12    1    3    3    0    0 -0.96184306734E+01 -0.32693173693E+02 -0.11274673027E+02  0.35895348816E+02  0.00000000000E+00 0. -1.
</event>
<event>
 7    1  0.2641045E-013  0.7246159E+02  0.7816164E-02  0.1226708E+00
        -11   -1    0    0    0    0  0.00000000000E+00  0.00000000000E+00  0.45593999997E+02  0.45594000000E+02  0.51100000000E-03 0.  1.
         11   -1    0    0    0    0 -0.00000000000E+00 -0.00000000000E+00 -0.45593999997E+02  0.45594000000E+02  0.51100000000E-03 0. -1.
    9900012    2    1    2    0    0  0.81710369211E+01 -0.15253505178E+02 -0.71584290275E+01  0.72461591622E+02  0.70000027784E+02 0.  0.
        -12    1    1    2    0    0 -0.81710369211E+01  0.15253505178E+02  0.71584290275E+01  0.18726408378E+02  0.00000000000E+00 0.  1.
         11    1    3    3    0    0 -0.54916057522E+01 -0.14816052329E+02 -0.62299060283E+01  0.16984842352E+02  0.51100000000E-03 0. -1.
        -11    1    3    3    0    0  0.32116852575E+01 -0.14527808257E+01  0.26174523276E+02  0.26410815272E+02  0.51100000000E-03 0.  1.
         12    1    3    3    0    0  0.10450957416E+02  0.10153279765E+01 -0.27103046275E+02  0.29065933999E+02  0.00000000000E+00 0. -1.
</event>
<event>
 7    1  0.2641045E-013  0.7246152E+02  0.7816164E-02  0.1226708E+00
        -11   -1    0    0    0    0  0.00000000000E+00  0.00000000000E+00  0.45593999997E+02  0.45594000000E+02  0.51100000000E-03 0.  1.
         11   -1    0    0    0    0 -0.00000000000E+00 -0.00000000000E+00 -0.45593999997E+02  0.45594000000E+02  0.51100000000E-03 0. -1.
    9900012    2    1    2    0    0  0.69453980647E+00 -0.12686811647E+02 -0.13756573127E+02  0.72461524637E+02  0.69999940523E+02 0.  0.
        -12    1    1    2    0    0 -0.69453980647E+00  0.12686811647E+02  0.13756573127E+02  0.18726475363E+02  0.00000000000E+00 0.  1.
         11    1    3    3    0    0 -0.61951624517E+01 -0.54875570505E+01  0.23669935781E+01  0.86079021280E+01  0.51100000000E-03 0. -1.
        -11    1    3    3    0    0 -0.92355201618E+01 -0.10849388581E+02  0.19750319761E+02  0.24353217367E+02  0.51100000000E-03 0.  1.
         12    1    3    3    0    0  0.16125222420E+02  0.36501339846E+01 -0.35873886466E+02  0.39500405142E+02  0.00000000000E+00 0. -1.
</event>
<event>
 7    1  0.2641045E-013  0.7246153E+02  0.7816164E-02  0.1226708E+00
        -11   -1    0    0    0    0  0.00000000000E+00  0.00000000000E+00  0.45593999997E+02  0.45594000000E+02  0.51100000000E-03 0. -1.
         11   -1    0    0    0    0 -0.00000000000E+00 -0.00000000000E+00 -0.45593999997E+02  0.45594000000E+02  0.51100000000E-03 0.  1.
    9900012    2    1    2    0    0  0.59864359230E+01  0.10482411860E+02 -0.14316510447E+02  0.72461525563E+02  0.69999941730E+02 0.  0.
        -12    1    1    2    0    0 -0.59864359230E+01 -0.10482411860E+02  0.14316510447E+02  0.18726474437E+02  0.00000000000E+00 0.  1.
         11    1    3    3    0    0 -0.19113745180E+02 -0.16930727845E+02  0.25545561949E+01  0.25661460554E+02  0.51100000000E-03 0. -1.
        -11    1    3    3    0    0 -0.89099210362E+00  0.64367357449E+01  0.37935697880E+01  0.75244007054E+01  0.51100000000E-03 0.  1.
        -12    1    3    3    0    0  0.25991173207E+02  0.20976403960E+02 -0.20664636429E+02  0.39275664304E+02  0.00000000000E+00 0.  1.
</event>
<event>
 7    1  0.2641045E-013  0.7246155E+02  0.7816164E-02  0.1226708E+00
        -11   -1    0    0    0    0  0.00000000000E+00  0.00000000000E+00  0.45593999997E+02  0.45594000000E+02  0.51100000000E-03 0.  1.
         11   -1    0    0    0    0 -0.00000000000E+00 -0.00000000000E+00 -0.45593999997E+02  0.45594000000E+02  0.51100000000E-03 0. -1.
    9900012    2    1    2    0    0  0.43656634355E+01 -0.17334210750E+02 -0.55808488879E+01  0.72461554692E+02  0.69999979676E+02 0.  0.
        -12    1    1    2    0    0 -0.43656634355E+01  0.17334210750E+02  0.55808488879E+01  0.18726445308E+02  0.00000000000E+00 0.  1.
         11    1    3    3    0    0 -0.52484121255E+01 -0.16217490419E+02  0.14427386086E+02  0.22331643354E+02  0.51100000000E-03 0.  1.
        -11    1    3    3    0    0  0.62477706962E+01  0.21390253225E+02 -0.49068263487E+01  0.22817855219E+02  0.51100000000E-03 0. -1.
         12    1    3    3    0    0  0.33663048647E+01 -0.22506973555E+02 -0.15101408625E+02  0.27312056120E+02  0.00000000000E+00 0. -1.
</event>
<event>
 7    1  0.2641045E-013  0.7246160E+02  0.7816164E-02  0.1226708E+00
        -11   -1    0    0    0    0  0.00000000000E+00  0.00000000000E+00  0.45593999997E+02  0.45594000000E+02  0.51100000000E-03 0. -1.
         11   -1    0    0    0    0 -0.00000000000E+00 -0.00000000000E+00 -0.45593999997E+02  0.45594000000E+02  0.51100000000E-03 0.  1.
    9900012    2    1    2    0    0  0.17788989804E+02 -0.45469308053E+01  0.36817373198E+01  0.72461603452E+02  0.70000043194E+02 0.  0.
        -12    1    1    2    0    0 -0.17788989804E+02  0.45469308053E+01 -0.36817373198E+01  0.18726396548E+02  0.00000000000E+00 0.  1.
         11    1    3    3    0    0  0.12783104614E+02  0.13040418819E+02 -0.28261316210E+01  0.18478292853E+02  0.51100000000E-03 0. -1.
        -11    1    3    3    0    0 -0.21814411411E+02 -0.85697377045E+01  0.99832986738E+01  0.25474991702E+02  0.51100000000E-03 0.  1.
         12    1    3    3    0    0  0.26820296601E+02 -0.90176119199E+01 -0.34754297330E+01  0.28508318897E+02  0.00000000000E+00 0. -1.
</event>
<event>
 7    1  0.2641045E-013  0.7246155E+02  0.7816164E-02  0.1226708E+00
        -11   -1    0    0    0    0  0.00000000000E+00  0.00000000000E+00  0.45593999997E+02  0.45594000000E+02  0.51100000000E-03 0. -1.
         11   -1    0    0    0    0 -0.00000000000E+00 -0.00000000000E+00 -0.45593999997E+02  0.45594000000E+02  0.51100000000E-03 0.  1.
    9900012    2    1    2    0    0  0.13627970923E+02  0.11335821107E+02  0.60379908845E+01  0.72461554380E+02  0.69999979269E+02 0.  0.
        -12    1    1    2    0    0 -0.13627970923E+02 -0.11335821107E+02 -0.60379908845E+01  0.18726445620E+02  0.00000000000E+00 0.  1.
         11    1    3    3    0    0 -0.10711979087E+02 -0.18764518271E+02  0.85421875647E+01  0.23234082951E+02  0.51100000000E-03 0. -1.
        -11    1    3    3    0    0 -0.42723538174E+01  0.14479361552E+02  0.47599805559E+01  0.15829160851E+02  0.51100000000E-03 0.  1.
        -12    1    3    3    0    0  0.28612303827E+02  0.15620977827E+02 -0.72641772361E+01  0.33398310578E+02  0.00000000000E+00 0.  1.
</event>
<event>
 7    1  0.2641045E-013  0.7246159E+02  0.7816164E-02  0.1226708E+00
        -11   -1    0    0    0    0  0.00000000000E+00  0.00000000000E+00  0.45593999997E+02  0.45594000000E+02  0.51100000000E-03 0. -1.
         11   -1    0    0    0    0 -0.00000000000E+00 -0.00000000000E+00 -0.45593999997E+02  0.45594000000E+02  0.51100000000E-03 0.  1.
    9900012    2    1    2    0    0 -0.60000193401E+01 -0.16773328984E+02  0.57735442676E+01  0.72461585215E+02  0.70000019437E+02 0.  0.
        -12    1    1    2    0    0  0.60000193401E+01  0.16773328984E+02 -0.57735442676E+01  0.18726414785E+02  0.00000000000E+00 0.  1.
         11    1    3    3    0    0 -0.13380182155E+02  0.44894003302E+01  0.17050207429E+02  0.22133539334E+02  0.51100000000E-03 0. -1.
        -11    1    3    3    0    0 -0.11171065016E+02 -0.23595248904E+02 -0.16539208438E+02  0.30904269615E+02  0.51100000000E-03 0.  1.
        -12    1    3    3    0    0  0.18551227830E+02  0.23325195894E+01  0.52625452770E+01  0.19423776266E+02  0.00000000000E+00 0.  1.
</event>
<event>
 7    1  0.2641045E-013  0.7246156E+02  0.7816164E-02  0.1226708E+00
        -11   -1    0    0    0    0  0.00000000000E+00  0.00000000000E+00  0.45593999997E+02  0.45594000000E+02  0.51100000000E-03 0. -1.
         11   -1    0    0    0    0 -0.00000000000E+00 -0.00000000000E+00 -0.45593999997E+02  0.45594000000E+02  0.51100000000E-03 0.  1.
    9900012    2    1    2    0    0 -0.69304432202E+01  0.45765079203E-02  0.17396790706E+02  0.72461564379E+02  0.69999992295E+02 0.  0.
        -12    1    1    2    0    0  0.69304432202E+01 -0.45765079203E-02 -0.17396790706E+02  0.18726435621E+02  0.00000000000E+00 0.  1.
         11    1    3    3    0    0  0.35318366908E+01 -0.11872829905E+02  0.24891132033E+01  0.12634620895E+02  0.51100000000E-03 0. -1.
        -11    1    3    3    0    0  0.29386701962E+01 -0.18630459000E+02 -0.68103877264E+01  0.20052709700E+02  0.51100000000E-03 0.  1.
         12    1    3    3    0    0 -0.13400950107E+02  0.30507865413E+02  0.21718065229E+02  0.39774233784E+02  0.00000000000E+00 0. -1.
</event>
<event>
 7    1  0.2641045E-013  0.7246157E+02  0.7816164E-02  0.1226708E+00
        -11   -1    0    0    0    0  0.00000000000E+00  0.00000000000E+00  0.45593999997E+02  0.45594000000E+02  0.51100000000E-03 0. -1.
         11   -1    0    0    0    0 -0.00000000000E+00 -0.00000000000E+00 -0.45593999997E+02  0.45594000000E+02  0.51100000000E-03 0.  1.
    9900012    2    1    2    0    0 -0.31790546686E+01 -0.17622772605E+02  0.54781932022E+01  0.72461572054E+02  0.70000002292E+02 0.  0.
        -12    1    1    2    0    0  0.31790546686E+01  0.17622772605E+02 -0.54781932022E+01  0.18726427946E+02  0.00000000000E+00 0.  1.
         11    1    3    3    0    0 -0.13116572794E+02 -0.96821131192E+01 -0.52612847134E+01  0.17130934400E+02  0.51100000000E-03 0. -1.
        -11    1    3    3    0    0 -0.20133996114E+02  0.30969288011E+01 -0.27834134990E+01  0.20560062220E+02  0.51100000000E-03 0.  1.
         12    1    3    3    0    0  0.30071514239E+02 -0.11037588287E+02  0.13522891415E+02  0.34770575434E+02  0.00000000000E+00 0. -1.
</event>
<event>
 7    1  0.2641045E-013  0.7246155E+02  0.7816164E-02  0.1226708E+00
        -11   -1    0    0    0    0  0.00000000000E+00  0.00000000000E+00  0.45593999997E+02  0.45594000000E+02  0.51100000000E-03 0. -1.
         11   -1    0    0    0    0 -0.00000000000E+00 -0.00000000000E+00 -0.45593999997E+02  0.45594000000E+02  0.51100000000E-03 0.  1.
    9900012    2    1    2    0    0  0.62089335326E+01  0.10422373147E+02  0.14265452568E+02  0.72461552003E+02  0.69999976172E+02 0.  0.
        -12    1    1    2    0    0 -0.62089335326E+01 -0.10422373147E+02 -0.14265452568E+02  0.18726447997E+02  0.00000000000E+00 0.  1.
         11    1    3    3    0    0 -0.28593851213E+01 -0.13479066047E+01  0.39877443225E+02  0.40002542594E+02  0.51100000000E-03 0. -1.
        -11    1    3    3    0    0  0.42454237814E+01  0.59177337848E+01 -0.18474348839E+01  0.75137348996E+01  0.51100000000E-03 0.  1.
        -12    1    3    3    0    0  0.48228948726E+01  0.58525459667E+01 -0.23764555773E+02  0.24945274509E+02  0.00000000000E+00 0.  1.
</event>
<event>
 7    1  0.2641045E-013  0.7246159E+02  0.7816164E-02  0.1226708E+00
        -11   -1    0    0    0    0  0.00000000000E+00  0.00000000000E+00  0.45593999997E+02  0.45594000000E+02  0.51100000000E-03 0. -1.
         11   -1    0    0    0    0 -0.00000000000E+00 -0.00000000000E+00 -0.45593999997E+02  0.45594000000E+02  0.51100000000E-03 0.  1.
    9900012    2    1    2    0    0 -0.81684145956E+01 -0.15330425693E+02  0.69952488110E+01  0.72461589376E+02  0.70000024857E+02 0.  0.
        -12    1    1    2    0    0  0.81684145956E+01  0.15330425693E+02 -0.69952488110E+01  0.18726410624E+02  0.00000000000E+00 0.  1.
         11    1    3    3    0    0  0.82842273502E+01 -0.11392325806E+02  0.31642253507E+02  0.34635902144E+02  0.51100000000E-03 0. -1.
        -11    1    3    3    0    0  0.19272084568E+00  0.47191707177E+01 -0.16864725808E+02  0.17513614431E+02  0.51100000000E-03 0.  1.
        -12    1    3    3    0    0 -0.16645362791E+02 -0.86572706046E+01 -0.77822788877E+01  0.20312072801E+02  0.00000000000E+00 0.  1.
</event>
<event>
 7    1  0.2641045E-013  0.7246157E+02  0.7816164E-02  0.1226708E+00
        -11   -1    0    0    0    0  0.00000000000E+00  0.00000000000E+00  0.45593999997E+02  0.45594000000E+02  0.51100000000E-03 0. -1.
         11   -1    0    0    0    0 -0.00000000000E+00 -0.00000000000E+00 -0.45593999997E+02  0.45594000000E+02  0.51100000000E-03 0.  1.
    9900012    2    1    2    0    0  0.27051382826E+01  0.10419243181E+02  0.15323205928E+02  0.72461573712E+02  0.70000004452E+02 0.  0.
        -12    1    1    2    0    0 -0.27051382826E+01 -0.10419243181E+02 -0.15323205928E+02  0.18726426288E+02  0.00000000000E+00 0.  1.
         11    1    3    3    0    0 -0.46999506630E+01 -0.40968026965E+01 -0.10281809419E+01  0.63190572777E+01  0.51100000000E-03 0. -1.
        -11    1    3    3    0    0 -0.20511220299E+02 -0.10006148531E+02 -0.48936325188E+01  0.23340539969E+02  0.51100000000E-03 0.  1.
         12    1    3    3    0    0  0.27916309244E+02  0.24522194409E+02  0.21245019389E+02  0.42801976465E+02  0.00000000000E+00 0. -1.
</event>
<event>
 7    1  0.2641045E-013  0.7246160E+02  0.7816164E-02  0.1226708E+00
        -11   -1    0    0    0    0  0.00000000000E+00  0.00000000000E+00  0.45593999997E+02  0.45594000000E+02  0.51100000000E-03 0.  1.
         11   -1    0    0    0    0 -0.00000000000E+00 -0.00000000000E+00 -0.45593999997E+02  0.45594000000E+02  0.51100000000E-03 0. -1.
    9900012    2    1    2    0    0 -0.18572294411E+02  0.15854976091E+01 -0.17983799422E+01  0.72461599044E+02  0.70000037452E+02 0.  0.
        -12    1    1    2    0    0  0.18572294411E+02 -0.15854976091E+01  0.17983799422E+01  0.18726400956E+02  0.00000000000E+00 0.  1.
         11    1    3    3    0    0  0.47813443336E+01  0.15713718977E+00 -0.19290399778E+01  0.51582110493E+01  0.51100000000E-03 0. -1.
        -11    1    3    3    0    0  0.19092770655E+02 -0.72556271589E+01  0.10189366590E+02  0.22825450894E+02  0.51100000000E-03 0.  1.
        -12    1    3    3    0    0 -0.42446409399E+02  0.86839875783E+01 -0.10058706555E+02  0.44477937100E+02  0.00000000000E+00 0.  1.
</event>
<event>
 7    1  0.2641045E-013  0.7246156E+02  0.7816164E-02  0.1226708E+00
        -11   -1    0    0    0    0  0.00000000000E+00  0.00000000000E+00  0.45593999997E+02  0.45594000000E+02  0.51100000000E-03 0.  1.
         11   -1    0    0    0    0 -0.00000000000E+00 -0.00000000000E+00 -0.45593999997E+02  0.45594000000E+02  0.51100000000E-03 0. -1.
    9900012    2    1    2    0    0 -0.93663666006E+00  0.14751022169E+02 -0.11498236282E+02  0.72461564651E+02  0.69999992649E+02 0.  0.
        -12    1    1    2    0    0  0.93663666006E+00 -0.14751022169E+02  0.11498236282E+02  0.18726435349E+02  0.00000000000E+00 0.  1.
         11    1    3    3    0    0  0.66293418227E+01  0.14879279778E+02 -0.37490220675E+02  0.40876127339E+02  0.51100000000E-03 0. -1.
        -11    1    3    3    0    0  0.19272997855E+01 -0.25134878318E+01 -0.62257922086E+00  0.32279576657E+01  0.51100000000E-03 0.  1.
        -12    1    3    3    0    0 -0.94932782683E+01  0.23852302232E+01  0.26614563614E+02  0.28357479646E+02  0.00000000000E+00 0.  1.
</event>
<event>
 7    1  0.2641045E-013  0.7246164E+02  0.7816164E-02  0.1226708E+00
        -11   -1    0    0    0    0  0.00000000000E+00  0.00000000000E+00  0.45593999997E+02  0.45594000000E+02  0.51100000000E-03 0.  1.
         11   -1    0    0    0    0 -0.00000000000E+00 -0.00000000000E+00 -0.45593999997E+02  0.45594000000E+02  0.51100000000E-03 0. -1.
    9900012    2    1    2    0    0 -0.52738626048E+01  0.49997170044E-01 -0.17968316060E+02  0.72461641344E+02  0.70000092555E+02 0.  0.
        -12    1    1    2    0    0  0.52738626048E+01 -0.49997170044E-01  0.17968316060E+02  0.18726358656E+02  0.00000000000E+00 0.  1.
         11    1    3    3    0    0  0.13614874206E+02  0.11988661358E+02 -0.54909749982E+01  0.18953722787E+02  0.51100000000E-03 0. -1.
        -11    1    3    3    0    0  0.11976485194E+02 -0.16536340040E+02 -0.16793277644E+01  0.20486748926E+02  0.51100000000E-03 0.  1.
         12    1    3    3    0    0 -0.30865222005E+02  0.45976758521E+01 -0.10798013297E+02  0.33021169631E+02  0.00000000000E+00 0. -1.
</event>
<event>
 7    1  0.2641045E-013  0.7246159E+02  0.7816164E-02  0.1226708E+00
        -11   -1    0    0    0    0  0.00000000000E+00  0.00000000000E+00  0.45593999997E+02  0.45594000000E+02  0.51100000000E-03 0.  1.
         11   -1    0    0    0    0 -0.00000000000E+00 -0.00000000000E+00 -0.45593999997E+02  0.45594000000E+02  0.51100000000E-03 0. -1.
    9900012    2    1    2    0    0 -0.17856619964E+02  0.31746079818E+01  0.46627882109E+01  0.72461585333E+02  0.70000019591E+02 0.  0.
        -12    1    1    2    0    0  0.17856619964E+02 -0.31746079818E+01 -0.46627882109E+01  0.18726414667E+02  0.00000000000E+00 0.  1.
         11    1    3    3    0    0  0.78228572654E+01 -0.15233323407E+02 -0.67182207324E+01  0.18395263735E+02  0.51100000000E-03 0. -1.
        -11    1    3    3    0    0 -0.60500130380E+01  0.10353475969E+01 -0.15408270711E+02  0.16585819514E+02  0.51100000000E-03 0.  1.
        -12    1    3    3    0    0 -0.19629464191E+02  0.17372583792E+02  0.26789279654E+02  0.37480502083E+02  0.00000000000E+00 0.  1.
</event>
<event>
 7    1  0.2641045E-013  0.7246157E+02  0.7816164E-02  0.1226708E+00
        -11   -1    0    0    0    0  0.00000000000E+00  0.00000000000E+00  0.45593999997E+02  0.45594000000E+02  0.51100000000E-03 0. -1.
         11   -1    0    0    0    0 -0.00000000000E+00 -0.00000000000E+00 -0.45593999997E+02  0.45594000000E+02  0.51100000000E-03 0.  1.
    9900012    2    1    2    0    0  0.29017451714E+01 -0.12793052641E+02  0.13364013927E+02  0.72461569770E+02  0.69999999317E+02 0.  0.
        -12    1    1    2    0    0 -0.29017451714E+01  0.12793052641E+02 -0.13364013927E+02  0.18726430230E+02  0.00000000000E+00 0.  1.
         11    1    3    3    0    0  0.83281434829E+01 -0.88139693467E+01  0.15127496905E+02  0.19387758828E+02  0.51100000000E-03 0. -1.
        -11    1    3    3    0    0  0.83161714583E+01 -0.13485462967E+02  0.20076137293E+02  0.25574747468E+02  0.51100000000E-03 0.  1.
        -12    1    3    3    0    0 -0.13742569770E+02  0.95063796727E+01 -0.21839620271E+02  0.27499063474E+02  0.00000000000E+00 0.  1.
</event>
<event>
 7    1  0.2641045E-013  0.7246159E+02  0.7816164E-02  0.1226708E+00
        -11   -1    0    0    0    0  0.00000000000E+00  0.00000000000E+00  0.45593999997E+02  0.45594000000E+02  0.51100000000E-03 0.  1.
         11   -1    0    0    0    0 -0.00000000000E+00 -0.00000000000E+00 -0.45593999997E+02  0.45594000000E+02  0.51100000000E-03 0. -1.
    9900012    2    1    2    0    0 -0.67518546491E+01  0.16263739329E+02 -0.63703840200E+01  0.72461586816E+02  0.70000021523E+02 0.  0.
        -12    1    1    2    0    0  0.67518546491E+01 -0.16263739329E+02  0.63703840200E+01  0.18726413184E+02  0.00000000000E+00 0.  1.
         11    1    3    3    0    0  0.12284838696E+02 -0.10695709228E+02 -0.16679619739E+02  0.23313626328E+02  0.51100000000E-03 0. -1.
        -11    1    3    3    0    0 -0.46782539902E+01  0.23648225715E+02 -0.82240145525E+01  0.25470749017E+02  0.51100000000E-03 0.  1.
        -12    1    3    3    0    0 -0.14358439355E+02  0.33112228413E+01  0.18533250271E+02  0.23677211471E+02  0.00000000000E+00 0.  1.
</event>
<event>
 7    1  0.2641045E-013  0.7246134E+02  0.7816164E-02  0.1226709E+00
        -11   -1    0    0    0    0  0.00000000000E+00  0.00000000000E+00  0.45593999997E+02  0.45594000000E+02  0.51100000000E-03 0. -1.
         11   -1    0    0    0    0 -0.00000000000E+00 -0.00000000000E+00 -0.45593999997E+02  0.45594000000E+02  0.51100000000E-03 0.  1.
    9900012    2    1    2    0    0 -0.63939169460E+01 -0.16548442094E+02  0.59962158504E+01  0.72461342151E+02  0.69999702800E+02 0.  0.
        -12    1    1    2    0    0  0.63939169460E+01  0.16548442094E+02 -0.59962158504E+01  0.18726657849E+02  0.00000000000E+00 0.  1.
         11    1    3    3    0    0  0.60631307323E+01 -0.73506844154E+01 -0.37511909478E+01  0.10240388149E+02  0.51100000000E-03 0. -1.
        -11    1    3    3    0    0  0.22971839239E+02  0.44582321979E+01  0.21529823988E+01  0.23499288624E+02  0.51100000000E-03 0.  1.
         12    1    3    3    0    0 -0.35428886917E+02 -0.13655989877E+02  0.75944243994E+01  0.38721665378E+02  0.00000000000E+00 0. -1.
</event>
<event>
 7    1  0.2641045E-013  0.7246151E+02  0.7816164E-02  0.1226708E+00
        -11   -1    0    0    0    0  0.00000000000E+00  0.00000000000E+00  0.45593999997E+02  0.45594000000E+02  0.51100000000E-03 0. -1.
         11   -1    0    0    0    0 -0.00000000000E+00 -0.00000000000E+00 -0.45593999997E+02  0.45594000000E+02  0.51100000000E-03 0.  1.
    9900012    2    1    2    0    0  0.12431935923E+02  0.13252033570E+00  0.14003958778E+02  0.72461509301E+02  0.69999920545E+02 0.  0.
        -12    1    1    2    0    0 -0.12431935923E+02 -0.13252033570E+00 -0.14003958778E+02  0.18726490699E+02  0.00000000000E+00 0.  1.
         11    1    3    3    0    0  0.61831156904E+01  0.58846824293E+01 -0.53032965034E+01  0.10049147277E+02  0.51100000000E-03 0. -1.
        -11    1    3    3    0    0 -0.18315368423E+02  0.12459018944E+02 -0.57423775616E+01  0.22883504405E+02  0.51100000000E-03 0.  1.
         12    1    3    3    0    0  0.24564188656E+02 -0.18211181038E+02  0.25049632843E+02  0.39528857619E+02  0.00000000000E+00 0. -1.
</event>
<event>
 7    1  0.2641045E-013  0.7246158E+02  0.7816164E-02  0.1226708E+00
        -11   -1    0    0    0    0  0.00000000000E+00  0.00000000000E+00  0.45593999997E+02  0.45594000000E+02  0.51100000000E-03 0.  1.
         11   -1    0    0    0    0 -0.00000000000E+00 -0.00000000000E+00 -0.45593999997E+02  0.45594000000E+02  0.51100000000E-03 0. -1.
    9900012    2    1    2    0    0  0.29687769521E+01  0.70336029017E+01 -0.17099525420E+02  0.72461575462E+02  0.70000006732E+02 0.  0.
        -12    1    1    2    0    0 -0.29687769521E+01 -0.70336029017E+01  0.17099525420E+02  0.18726424538E+02  0.00000000000E+00 0.  1.
         11    1    3    3    0    0  0.56926970791E+01 -0.10150279454E+02 -0.24843939908E+02  0.27434582618E+02  0.51100000000E-03 0. -1.
        -11    1    3    3    0    0  0.16596325646E+02 -0.23307133793E+01  0.46509860038E+01  0.17392582352E+02  0.51100000000E-03 0.  1.
         12    1    3    3    0    0 -0.19320245773E+02  0.19514595735E+02  0.30934284841E+01  0.27634410492E+02  0.00000000000E+00 0. -1.
</event>
<event>
 7    1  0.2641045E-013  0.7246152E+02  0.7816164E-02  0.1226708E+00
        -11   -1    0    0    0    0  0.00000000000E+00  0.00000000000E+00  0.45593999997E+02  0.45594000000E+02  0.51100000000E-03 0.  1.
         11   -1    0    0    0    0 -0.00000000000E+00 -0.00000000000E+00 -0.45593999997E+02  0.45594000000E+02  0.51100000000E-03 0. -1.
    9900012    2    1    2    0    0 -0.17792450099E+02 -0.29578360605E+01 -0.50359790052E+01  0.72461517169E+02  0.69999930794E+02 0.  0.
        -12    1    1    2    0    0  0.17792450099E+02  0.29578360605E+01  0.50359790052E+01  0.18726482831E+02  0.00000000000E+00 0.  1.
         11    1    3    3    0    0 -0.22636378538E+01  0.10088100629E+02 -0.83780908015E+00  0.10372837363E+02  0.51100000000E-03 0. -1.
        -11    1    3    3    0    0 -0.28358946869E+02  0.18885815227E+01 -0.21689546191E+02  0.35752384843E+02  0.51100000000E-03 0.  1.
        -12    1    3    3    0    0  0.12830134624E+02 -0.14934518213E+02  0.17491376266E+02  0.26336294963E+02  0.00000000000E+00 0.  1.
</event>
<event>
 7    1  0.2641045E-013  0.7246154E+02  0.7816164E-02  0.1226708E+00
        -11   -1    0    0    0    0  0.00000000000E+00  0.00000000000E+00  0.45593999997E+02  0.45594000000E+02  0.51100000000E-03 0. -1.
         11   -1    0    0    0    0 -0.00000000000E+00 -0.00000000000E+00 -0.45593999997E+02  0.45594000000E+02  0.51100000000E-03 0.  1.
    9900012    2    1    2    0    0 -0.40806858367E+01  0.13141887267E+02  0.12701150315E+02  0.72461536982E+02  0.69999956605E+02 0.  0.
        -12    1    1    2    0    0  0.40806858367E+01 -0.13141887267E+02 -0.12701150315E+02  0.18726463018E+02  0.00000000000E+00 0.  1.
         11    1    3    3    0    0  0.30919460215E+01  0.20382927379E+01  0.83385564369E-01  0.37042841277E+01  0.51100000000E-03 0. -1.
        -11    1    3    3    0    0 -0.58890448994E+01  0.97475466095E+00 -0.27099277468E+02  0.27748906934E+02  0.51100000000E-03 0.  1.
         12    1    3    3    0    0 -0.12835869587E+01  0.10128839868E+02  0.39717042219E+02  0.41008345921E+02  0.00000000000E+00 0. -1.
</event>
<event>
 7    1  0.2641045E-013  0.7246158E+02  0.7816164E-02  0.1226708E+00
        -11   -1    0    0    0    0  0.00000000000E+00  0.00000000000E+00  0.45593999997E+02  0.45594000000E+02  0.51100000000E-03 0.  1.
         11   -1    0    0    0    0 -0.00000000000E+00 -0.00000000000E+00 -0.45593999997E+02  0.45594000000E+02  0.51100000000E-03 0. -1.
    9900012    2    1    2    0    0 -0.60009560911E+01 -0.15112390818E+02 -0.92888719041E+01  0.72461575582E+02  0.70000006888E+02 0.  0.
        -12    1    1    2    0    0  0.60009560911E+01  0.15112390818E+02  0.92888719041E+01  0.18726424418E+02  0.00000000000E+00 0.  1.
         11    1    3    3    0    0  0.73209130672E+01  0.90673526701E+01 -0.23135212724E+02  0.25904646700E+02  0.51100000000E-03 0. -1.
        -11    1    3    3    0    0  0.11189602825E+02 -0.72490007097E+01  0.96816033332E+01  0.16476913122E+02  0.51100000000E-03 0.  1.
        -12    1    3    3    0    0 -0.24511471983E+02 -0.16930742778E+02  0.41647374871E+01  0.30080015760E+02  0.00000000000E+00 0.  1.
</event>
<event>
 7    1  0.2641045E-013  0.7246160E+02  0.7816164E-02  0.1226708E+00
        -11   -1    0    0    0    0  0.00000000000E+00  0.00000000000E+00  0.45593999997E+02  0.45594000000E+02  0.51100000000E-03 0. -1.
         11   -1    0    0    0    0 -0.00000000000E+00 -0.00000000000E+00 -0.45593999997E+02  0.45594000000E+02  0.51100000000E-03 0.  1.
    9900012    2    1    2    0    0  0.86357434006E+01 -0.11549010060E+02  0.11946652521E+02  0.72461596076E+02  0.70000033586E+02 0.  0.
        -12    1    1    2    0    0 -0.86357434006E+01  0.11549010060E+02 -0.11946652521E+02  0.18726403924E+02  0.00000000000E+00 0.  1.
         11    1    3    3    0    0 -0.86063534040E+01  0.15536536808E+01 -0.13125954821E+02  0.15772566339E+02  0.51100000000E-03 0. -1.
        -11    1    3    3    0    0  0.10427125831E+02 -0.10410121008E+01 -0.12694690631E+02  0.16460979004E+02  0.51100000000E-03 0.  1.
         12    1    3    3    0    0  0.68149709734E+01 -0.12061651640E+02  0.37767297973E+02  0.40228050734E+02  0.00000000000E+00 0. -1.
</event>
<event>
 7    1  0.2641045E-013  0.7246157E+02  0.7816164E-02  0.1226708E+00
        -11   -1    0    0    0    0  0.00000000000E+00  0.00000000000E+00  0.45593999997E+02  0.45594000000E+02  0.51100000000E-03 0. -1.
         11   -1    0    0    0    0 -0.00000000000E+00 -0.00000000000E+00 -0.45593999997E+02  0.45594000000E+02  0.51100000000E-03 0.  1.
    9900012    2    1    2    0    0  0.15167197085E+02  0.78292005060E+01  0.77031673543E+01  0.72461573879E+02  0.70000004670E+02 0.  0.
        -12    1    1    2    0    0 -0.15167197085E+02 -0.78292005060E+01 -0.77031673543E+01  0.18726426121E+02  0.00000000000E+00 0.  1.
         11    1    3    3    0    0  0.14436004843E+02  0.76450928071E+01  0.81361039988E+01  0.18249434742E+02  0.51100000000E-03 0. -1.
        -11    1    3    3    0    0 -0.46226405616E+01  0.11189384003E+01  0.26404752683E+02  0.26829681202E+02  0.51100000000E-03 0.  1.
         12    1    3    3    0    0  0.53538328037E+01 -0.93483070141E+00 -0.26837689327E+02  0.27382457935E+02  0.00000000000E+00 0. -1.
</event>
<event>
 7    1  0.2641045E-013  0.7246159E+02  0.7816164E-02  0.1226708E+00
        -11   -1    0    0    0    0  0.00000000000E+00  0.00000000000E+00  0.45593999997E+02  0.45594000000E+02  0.51100000000E-03 0. -1.
         11   -1    0    0    0    0 -0.00000000000E+00 -0.00000000000E+00 -0.45593999997E+02  0.45594000000E+02  0.51100000000E-03 0.  1.
    9900012    2    1    2    0    0  0.51622230876E+01 -0.71469766389E+01  0.16521213722E+02  0.72461592840E+02  0.70000029370E+02 0.  0.
        -12    1    1    2    0    0 -0.51622230876E+01  0.71469766389E+01 -0.16521213722E+02  0.18726407160E+02  0.00000000000E+00 0.  1.
         11    1    3    3    0    0 -0.16145187752E+02  0.88820909145E+00  0.19386350550E+01  0.16285401717E+02  0.51100000000E-03 0. -1.
        -11    1    3    3    0    0  0.59745575393E+01  0.27228462626E+01 -0.17686009788E+02  0.18865422657E+02  0.51100000000E-03 0.  1.
         12    1    3    3    0    0  0.15332853300E+02 -0.10758031993E+02  0.32268588454E+02  0.37310768466E+02  0.00000000000E+00 0. -1.
</event>
<event>
 7    1  0.2641045E-013  0.7246157E+02  0.7816164E-02  0.1226708E+00
        -11   -1    0    0    0    0  0.00000000000E+00  0.00000000000E+00  0.45593999997E+02  0.45594000000E+02  0.51100000000E-03 0.  1.
         11   -1    0    0    0    0 -0.00000000000E+00 -0.00000000000E+00 -0.45593999997E+02  0.45594000000E+02  0.51100000000E-03 0. -1.
    9900012    2    1    2    0    0  0.15274961418E+02 -0.50312625345E+01 -0.95938052900E+01  0.72461570843E+02  0.70000000715E+02 0.  0.
        -12    1    1    2    0    0 -0.15274961418E+02  0.50312625345E+01  0.95938052900E+01  0.18726429157E+02  0.00000000000E+00 0.  1.
         11    1    3    3    0    0  0.10686700440E+02  0.34957187259E+01  0.15134507504E+02  0.18854148969E+02  0.51100000000E-03 0. -1.
        -11    1    3    3    0    0  0.23410313648E+02 -0.52491394953E+01 -0.22351894885E+01  0.24095483453E+02  0.51100000000E-03 0.  1.
         12    1    3    3    0    0 -0.18822052670E+02 -0.32778417650E+01 -0.22493123305E+02  0.29511938421E+02  0.00000000000E+00 0. -1.
</event>
<event>
 7    1  0.2641045E-013  0.7246165E+02  0.7816164E-02  0.1226708E+00
        -11   -1    0    0    0    0  0.00000000000E+00  0.00000000000E+00  0.45593999997E+02  0.45594000000E+02  0.51100000000E-03 0.  1.
         11   -1    0    0    0    0 -0.00000000000E+00 -0.00000000000E+00 -0.45593999997E+02  0.45594000000E+02  0.51100000000E-03 0. -1.
    9900012    2    1    2    0    0 -0.10279104122E+02  0.14153264845E+02 -0.66858976802E+01  0.72461651848E+02  0.70000106238E+02 0.  0.
        -12    1    1    2    0    0  0.10279104122E+02 -0.14153264845E+02  0.66858976802E+01  0.18726348152E+02  0.00000000000E+00 0.  1.
         11    1    3    3    0    0 -0.22930173847E+01  0.59967940866E+01 -0.14703235908E+02  0.16043834157E+02  0.51100000000E-03 0. -1.
        -11    1    3    3    0    0  0.22203836784E+02 -0.19794726651E+01  0.10163638971E+02  0.24499555861E+02  0.51100000000E-03 0.  1.
        -12    1    3    3    0    0 -0.30189923522E+02  0.10135943424E+02 -0.21463007435E+01  0.31918261829E+02  0.00000000000E+00 0.  1.
</event>
<event>
 7    1  0.2641045E-013  0.7246154E+02  0.7816164E-02  0.1226708E+00
        -11   -1    0    0    0    0  0.00000000000E+00  0.00000000000E+00  0.45593999997E+02  0.45594000000E+02  0.51100000000E-03 0.  1.
         11   -1    0    0    0    0 -0.00000000000E+00 -0.00000000000E+00 -0.45593999997E+02  0.45594000000E+02  0.51100000000E-03 0. -1.
    9900012    2    1    2    0    0  0.39042415738E+01  0.18314758255E+02  0.83756661165E-01  0.72461535107E+02  0.69999954162E+02 0.  0.
        -12    1    1    2    0    0 -0.39042415738E+01 -0.18314758255E+02 -0.83756661165E-01  0.18726464893E+02  0.00000000000E+00 0.  1.
         11    1    3    3    0    0 -0.31108516374E+01 -0.14569771708E+02 -0.22083309202E+01  0.15060955191E+02  0.51100000000E-03 0. -1.
        -11    1    3    3    0    0  0.17131792980E+02  0.13695205033E+02  0.19781326353E+02  0.29535704565E+02  0.51100000000E-03 0.  1.
         12    1    3    3    0    0 -0.10116699769E+02  0.19189324930E+02 -0.17489238772E+02  0.27864875351E+02  0.00000000000E+00 0. -1.
</event>
<event>
 7    1  0.2641045E-013  0.7246158E+02  0.7816164E-02  0.1226708E+00
        -11   -1    0    0    0    0  0.00000000000E+00  0.00000000000E+00  0.45593999997E+02  0.45594000000E+02  0.51100000000E-03 0. -1.
         11   -1    0    0    0    0 -0.00000000000E+00 -0.00000000000E+00 -0.45593999997E+02  0.45594000000E+02  0.51100000000E-03 0.  1.
    9900012    2    1    2    0    0  0.30271653219E+01  0.81967571145E+01  0.16562860825E+02  0.72461577069E+02  0.70000008826E+02 0.  0.
        -12    1    1    2    0    0 -0.30271653219E+01 -0.81967571145E+01 -0.16562860825E+02  0.18726422931E+02  0.00000000000E+00 0.  1.
         11    1    3    3    0    0 -0.48489301810E+01 -0.13523492994E+02  0.74096705053E+01  0.16164782829E+02  0.51100000000E-03 0. -1.
        -11    1    3    3    0    0  0.16690108495E+02 -0.93571976335E+01  0.13895410890E+02  0.23647395485E+02  0.51100000000E-03 0.  1.
         12    1    3    3    0    0 -0.88140129924E+01  0.31077447742E+02 -0.47422205712E+01  0.32649398756E+02  0.00000000000E+00 0. -1.
</event>
<event>
 7    1  0.2641045E-013  0.7246160E+02  0.7816164E-02  0.1226708E+00
        -11   -1    0    0    0    0  0.00000000000E+00  0.00000000000E+00  0.45593999997E+02  0.45594000000E+02  0.51100000000E-03 0. -1.
         11   -1    0    0    0    0 -0.00000000000E+00 -0.00000000000E+00 -0.45593999997E+02  0.45594000000E+02  0.51100000000E-03 0.  1.
    9900012    2    1    2    0    0 -0.50887765073E+01  0.13750118018E+02  0.11649751459E+02  0.72461598827E+02  0.70000037169E+02 0.  0.
        -12    1    1    2    0    0  0.50887765073E+01 -0.13750118018E+02 -0.11649751459E+02  0.18726401173E+02  0.00000000000E+00 0.  1.
         11    1    3    3    0    0 -0.15495686183E+02 -0.88540068477E+01  0.73814061446E+01  0.19313075480E+02  0.51100000000E-03 0. -1.
        -11    1    3    3    0    0  0.29040718410E+00 -0.12777073881E+02 -0.71170354594E+01  0.14628402075E+02  0.51100000000E-03 0.  1.
         12    1    3    3    0    0  0.10116502492E+02  0.35381198747E+02  0.11385380774E+02  0.38520121272E+02  0.00000000000E+00 0. -1.
</event>
<event>
 7    1  0.2641045E-013  0.7246155E+02  0.7816164E-02  0.1226708E+00
        -11   -1    0    0    0    0  0.00000000000E+00  0.00000000000E+00  0.45593999997E+02  0.45594000000E+02  0.51100000000E-03 0. -1.
         11   -1    0    0    0    0 -0.00000000000E+00 -0.00000000000E+00 -0.45593999997E+02  0.45594000000E+02  0.51100000000E-03 0.  1.
    9900012    2    1    2    0    0  0.17029315797E+02  0.30448881654E+01 -0.71701514682E+01  0.72461547786E+02  0.69999970679E+02 0.  0.
        -12    1    1    2    0    0 -0.17029315797E+02 -0.30448881654E+01  0.71701514682E+01  0.18726452214E+02  0.00000000000E+00 0.  1.
         11    1    3    3    0    0  0.28964912768E+02  0.62802477883E-01  0.12395937434E+02  0.31506021344E+02  0.51100000000E-03 0. -1.
        -11    1    3    3    0    0  0.39763008689E+01  0.15200858165E+02 -0.64397467847E+01  0.16980794930E+02  0.51100000000E-03 0.  1.
        -12    1    3    3    0    0 -0.15911897840E+02 -0.12218772477E+02 -0.13126342117E+02  0.23974731512E+02  0.00000000000E+00 0.  1.
</event>
<event>
 7    1  0.2641045E-013  0.7246150E+02  0.7816164E-02  0.1226708E+00
        -11   -1    0    0    0    0  0.00000000000E+00  0.00000000000E+00  0.45593999997E+02  0.45594000000E+02  0.51100000000E-03 0. -1.
         11   -1    0    0    0    0 -0.00000000000E+00 -0.00000000000E+00 -0.45593999997E+02  0.45594000000E+02  0.51100000000E-03 0.  1.
    9900012    2    1    2    0    0  0.92218942257E+00 -0.32380744349E+01  0.18421349739E+02  0.72461503115E+02  0.69999912487E+02 0.  0.
        -12    1    1    2    0    0 -0.92218942257E+00  0.32380744349E+01 -0.18421349739E+02  0.18726496885E+02  0.00000000000E+00 0.  1.
         11    1    3    3    0    0 -0.11842249928E+01 -0.91071505561E+01  0.73005617801E+01  0.11732040856E+02  0.51100000000E-03 0. -1.
        -11    1    3    3    0    0 -0.26555221636E+02  0.10707598272E+02  0.13319733860E+02  0.31579229998E+02  0.51100000000E-03 0.  1.
        -12    1    3    3    0    0  0.28661636052E+02 -0.48385221509E+01 -0.21989459014E+01  0.29150232261E+02  0.00000000000E+00 0.  1.
</event>
<event>
 7    1  0.2641045E-013  0.7246159E+02  0.7816164E-02  0.1226708E+00
        -11   -1    0    0    0    0  0.00000000000E+00  0.00000000000E+00  0.45593999997E+02  0.45594000000E+02  0.51100000000E-03 0. -1.
         11   -1    0    0    0    0 -0.00000000000E+00 -0.00000000000E+00 -0.45593999997E+02  0.45594000000E+02  0.51100000000E-03 0.  1.
    9900012    2    1    2    0    0  0.11813681250E+02 -0.12681857103E+02  0.70912637016E+01  0.72461585897E+02  0.70000020326E+02 0.  0.
        -12    1    1    2    0    0 -0.11813681250E+02  0.12681857103E+02 -0.70912637016E+01  0.18726414103E+02  0.00000000000E+00 0.  1.
         11    1    3    3    0    0  0.12665201712E+02 -0.19095675885E+02  0.53223916828E+01  0.23524030806E+02  0.51100000000E-03 0. -1.
        -11    1    3    3    0    0 -0.56273458380E+01 -0.27577918816E+00 -0.22562528192E+02  0.23255338184E+02  0.51100000000E-03 0.  1.
         12    1    3    3    0    0  0.47758253768E+01  0.66895979699E+01  0.24331400211E+02  0.25682216907E+02  0.00000000000E+00 0. -1.
</event>
<event>
 7    1  0.2641045E-013  0.7246160E+02  0.7816164E-02  0.1226708E+00
        -11   -1    0    0    0    0  0.00000000000E+00  0.00000000000E+00  0.45593999997E+02  0.45594000000E+02  0.51100000000E-03 0. -1.
         11   -1    0    0    0    0 -0.00000000000E+00 -0.00000000000E+00 -0.45593999997E+02  0.45594000000E+02  0.51100000000E-03 0.  1.
    9900012    2    1    2    0    0  0.90929223656E+01 -0.46645581142E+01  0.15692001006E+02  0.72461595243E+02  0.70000032500E+02 0.  0.
        -12    1    1    2    0    0 -0.90929223656E+01  0.46645581142E+01 -0.15692001006E+02  0.18726404757E+02  0.00000000000E+00 0.  1.
         11    1    3    3    0    0  0.15900767144E+02 -0.81454481727E+01  0.12973756791E+02  0.22079426787E+02  0.51100000000E-03 0. -1.
        -11    1    3    3    0    0  0.56901912151E+01 -0.12024931918E+02 -0.17513264216E+02  0.21992991781E+02  0.51100000000E-03 0.  1.
         12    1    3    3    0    0 -0.12498035994E+02  0.15505821976E+02  0.20231508432E+02  0.28389176675E+02  0.00000000000E+00 0. -1.
</event>
<event>
 7    1  0.2641045E-013  0.7246158E+02  0.7816164E-02  0.1226708E+00
        -11   -1    0    0    0    0  0.00000000000E+00  0.00000000000E+00  0.45593999997E+02  0.45594000000E+02  0.51100000000E-03 0. -1.
         11   -1    0    0    0    0 -0.00000000000E+00 -0.00000000000E+00 -0.45593999997E+02  0.45594000000E+02  0.51100000000E-03 0.  1.
    9900012    2    1    2    0    0 -0.46641770514E+01  0.42207604831E+01  0.17638295212E+02  0.72461579504E+02  0.70000011997E+02 0.  0.
        -12    1    1    2    0    0  0.46641770514E+01 -0.42207604831E+01 -0.17638295212E+02  0.18726420496E+02  0.00000000000E+00 0.  1.
         11    1    3    3    0    0  0.85879328455E-01 -0.18709515009E+02  0.56786143104E+01  0.19552493137E+02  0.51100000000E-03 0. -1.
        -11    1    3    3    0    0 -0.18653954732E+02  0.26711733539E+02 -0.22682784258E+01  0.32659329801E+02  0.51100000000E-03 0.  1.
         12    1    3    3    0    0  0.13903898352E+02 -0.37814580472E+01  0.14227959327E+02  0.20249756565E+02  0.00000000000E+00 0. -1.
</event>
<event>
 7    1  0.2641045E-013  0.7246161E+02  0.7816164E-02  0.1226708E+00
        -11   -1    0    0    0    0  0.00000000000E+00  0.00000000000E+00  0.45593999997E+02  0.45594000000E+02  0.51100000000E-03 0.  1.
         11   -1    0    0    0    0 -0.00000000000E+00 -0.00000000000E+00 -0.45593999997E+02  0.45594000000E+02  0.51100000000E-03 0. -1.
    9900012    2    1    2    0    0  0.44970472455E+01 -0.26496408821E+01 -0.17984264279E+02  0.72461607064E+02  0.70000047900E+02 0.  0.
        -12    1    1    2    0    0 -0.44970472455E+01  0.26496408821E+01  0.17984264279E+02  0.18726392936E+02  0.00000000000E+00 0.  1.
         11    1    3    3    0    0  0.11498480258E+02  0.78468284622E+01 -0.20378601562E+02  0.24679448273E+02  0.51100000000E-03 0. -1.
        -11    1    3    3    0    0 -0.47950838478E+01  0.11924322653E+01 -0.20980593197E+02  0.21554582227E+02  0.51100000000E-03 0.  1.
        -12    1    3    3    0    0 -0.22063491644E+01 -0.11688901610E+02  0.23374930481E+02  0.26227576565E+02  0.00000000000E+00 0.  1.
</event>
<event>
 7    1  0.2641045E-013  0.7246157E+02  0.7816164E-02  0.1226708E+00
        -11   -1    0    0    0    0  0.00000000000E+00  0.00000000000E+00  0.45593999997E+02  0.45594000000E+02  0.51100000000E-03 0.  1.
         11   -1    0    0    0    0 -0.00000000000E+00 -0.00000000000E+00 -0.45593999997E+02  0.45594000000E+02  0.51100000000E-03 0. -1.
    9900012    2    1    2    0    0 -0.69438988534E+01 -0.11925479869E+02 -0.12658769746E+02  0.72461568069E+02  0.69999997101E+02 0.  0.
        -12    1    1    2    0    0  0.69438988534E+01  0.11925479869E+02  0.12658769746E+02  0.18726431931E+02  0.00000000000E+00 0.  1.
         11    1    3    3    0    0  0.13615379681E+02 -0.23288700199E+02  0.17581272016E+01  0.27033925582E+02  0.51100000000E-03 0. -1.
        -11    1    3    3    0    0 -0.95298833865E+00  0.39696451888E+01  0.11439800355E+02  0.12146411080E+02  0.51100000000E-03 0.  1.
         12    1    3    3    0    0 -0.19606290196E+02  0.73935751414E+01 -0.25856697302E+02  0.33281231407E+02  0.00000000000E+00 0. -1.
</event>
<event>
 7    1  0.2641045E-013  0.7246169E+02  0.7816164E-02  0.1226708E+00
        -11   -1    0    0    0    0  0.00000000000E+00  0.00000000000E+00  0.45593999997E+02  0.45594000000E+02  0.51100000000E-03 0.  1.
         11   -1    0    0    0    0 -0.00000000000E+00 -0.00000000000E+00 -0.45593999997E+02  0.45594000000E+02  0.51100000000E-03 0. -1.
    9900012    2    1    2    0    0 -0.97714836692E+01  0.47433423451E+01 -0.15254288364E+02  0.72461694887E+02  0.70000162305E+02 0.  0.
        -12    1    1    2    0    0  0.97714836692E+01 -0.47433423451E+01  0.15254288364E+02  0.18726305113E+02  0.00000000000E+00 0.  1.
         11    1    3    3    0    0  0.10971466656E+02 -0.71157117370E+01 -0.31201098273E+02  0.33830680865E+02  0.51100000000E-03 0. -1.
        -11    1    3    3    0    0 -0.16300474531E+02  0.17951561121E+02  0.41058691812E+01  0.24593132753E+02  0.51100000000E-03 0.  1.
        -12    1    3    3    0    0 -0.44424757947E+01 -0.60925070385E+01  0.11840940728E+02  0.14037881269E+02  0.00000000000E+00 0.  1.
</event>
<event>
 7    1  0.2641045E-013  0.7246157E+02  0.7816164E-02  0.1226708E+00
        -11   -1    0    0    0    0  0.00000000000E+00  0.00000000000E+00  0.45593999997E+02  0.45594000000E+02  0.51100000000E-03 0. -1.
         11   -1    0    0    0    0 -0.00000000000E+00 -0.00000000000E+00 -0.45593999997E+02  0.45594000000E+02  0.51100000000E-03 0.  1.
    9900012    2    1    2    0    0  0.89542138605E+01 -0.52298453527E+01  0.15593271058E+02  0.72461565994E+02  0.69999994399E+02 0.  0.
        -12    1    1    2    0    0 -0.89542138605E+01  0.52298453527E+01 -0.15593271058E+02  0.18726434006E+02  0.00000000000E+00 0.  1.
         11    1    3    3    0    0  0.48481579918E+01 -0.11219841136E+02  0.41494661528E+01  0.12907654344E+02  0.51100000000E-03 0. -1.
        -11    1    3    3    0    0  0.91288148164E+01 -0.23423897878E+02 -0.47780254833E+01  0.25589915583E+02  0.51100000000E-03 0.  1.
        -12    1    3    3    0    0 -0.50227589477E+01  0.29413893661E+02  0.16221830389E+02  0.33963996068E+02  0.00000000000E+00 0.  1.
</event>
<event>
 7    1  0.2641045E-013  0.7246158E+02  0.7816164E-02  0.1226708E+00
        -11   -1    0    0    0    0  0.00000000000E+00  0.00000000000E+00  0.45593999997E+02  0.45594000000E+02  0.51100000000E-03 0. -1.
         11   -1    0    0    0    0 -0.00000000000E+00 -0.00000000000E+00 -0.45593999997E+02  0.45594000000E+02  0.51100000000E-03 0.  1.
    9900012    2    1    2    0    0 -0.17200310387E+02 -0.48407539510E+01  0.56031284048E+01  0.72461584856E+02  0.70000018970E+02 0.  0.
        -12    1    1    2    0    0  0.17200310387E+02  0.48407539510E+01 -0.56031284048E+01  0.18726415144E+02  0.00000000000E+00 0.  1.
         11    1    3    3    0    0 -0.17180106314E+00 -0.22113146840E+02  0.23236557806E+02  0.32077381403E+02  0.51100000000E-03 0. -1.
        -11    1    3    3    0    0  0.47469440872E+01  0.15264843230E-02  0.31349332475E+01  0.56886982012E+01  0.51100000000E-03 0.  1.
        -12    1    3    3    0    0 -0.21775453411E+02  0.17270866404E+02 -0.20768362648E+02  0.34695505252E+02  0.00000000000E+00 0.  1.
</event>
<event>
 7    1  0.2641045E-013  0.7246158E+02  0.7816164E-02  0.1226708E+00
        -11   -1    0    0    0    0  0.00000000000E+00  0.00000000000E+00  0.45593999997E+02  0.45594000000E+02  0.51100000000E-03 0.  1.
         11   -1    0    0    0    0 -0.00000000000E+00 -0.00000000000E+00 -0.45593999997E+02  0.45594000000E+02  0.51100000000E-03 0. -1.
    9900012    2    1    2    0    0 -0.12837196356E+02  0.13464623274E+02 -0.21422445965E+01  0.72461577434E+02  0.70000009301E+02 0.  0.
        -12    1    1    2    0    0  0.12837196356E+02 -0.13464623274E+02  0.21422445965E+01  0.18726422566E+02  0.00000000000E+00 0.  1.
         11    1    3    3    0    0 -0.31896864291E+02  0.38396116030E+01  0.28829899357E+01  0.32256227307E+02  0.51100000000E-03 0. -1.
        -11    1    3    3    0    0 -0.41925343150E+01  0.27267999479E+01  0.10345578949E+02  0.11491030676E+02  0.51100000000E-03 0.  1.
         12    1    3    3    0    0  0.23252202250E+02  0.68982117236E+01 -0.15370813481E+02  0.28714319451E+02  0.00000000000E+00 0. -1.
</event>
<event>
 7    1  0.2641045E-013  0.7246190E+02  0.7816164E-02  0.1226707E+00
        -11   -1    0    0    0    0  0.00000000000E+00  0.00000000000E+00  0.45593999997E+02  0.45594000000E+02  0.51100000000E-03 0. -1.
         11   -1    0    0    0    0 -0.00000000000E+00 -0.00000000000E+00 -0.45593999997E+02  0.45594000000E+02  0.51100000000E-03 0.  1.
    9900012    2    1    2    0    0 -0.22108899940E+01 -0.14151246840E+02 -0.12063213989E+02  0.72461896470E+02  0.70000424903E+02 0.  0.
        -12    1    1    2    0    0  0.22108899940E+01  0.14151246840E+02  0.12063213989E+02  0.18726103530E+02  0.00000000000E+00 0.  1.
         11    1    3    3    0    0 -0.77115829723E+01 -0.21129280299E+02 -0.24263100704E+01  0.22623040881E+02  0.51100000000E-03 0. -1.
        -11    1    3    3    0    0 -0.11760914314E+02  0.22134508929E+02 -0.36719609243E+00  0.25067716774E+02  0.51100000000E-03 0.  1.
         12    1    3    3    0    0  0.17261607293E+02 -0.15156475470E+02 -0.92697078264E+01  0.24771138815E+02  0.00000000000E+00 0. -1.
</event>
<event>
 7    1  0.2641045E-013  0.7246156E+02  0.7816164E-02  0.1226708E+00
        -11   -1    0    0    0    0  0.00000000000E+00  0.00000000000E+00  0.45593999997E+02  0.45594000000E+02  0.51100000000E-03 0. -1.
         11   -1    0    0    0    0 -0.00000000000E+00 -0.00000000000E+00 -0.45593999997E+02  0.45594000000E+02  0.51100000000E-03 0.  1.
    9900012    2    1    2    0    0  0.17743496252E+02  0.57262191873E+01 -0.17488069073E+01  0.72461559574E+02  0.69999986035E+02 0.  0.
        -12    1    1    2    0    0 -0.17743496252E+02 -0.57262191873E+01  0.17488069073E+01  0.18726440426E+02  0.00000000000E+00 0.  1.
         11    1    3    3    0    0  0.11726229599E+01  0.74664104486E+01  0.14150069220E+02  0.16042031940E+02  0.51100000000E-03 0. -1.
        -11    1    3    3    0    0 -0.16152885243E+02 -0.26813608046E+01  0.55414319028E+01  0.17286204478E+02  0.51100000000E-03 0.  1.
         12    1    3    3    0    0  0.32723758536E+02  0.94116954336E+00 -0.21440308030E+02  0.39133323156E+02  0.00000000000E+00 0. -1.
</event>
<event>
 7    1  0.2641045E-013  0.7246162E+02  0.7816164E-02  0.1226708E+00
        -11   -1    0    0    0    0  0.00000000000E+00  0.00000000000E+00  0.45593999997E+02  0.45594000000E+02  0.51100000000E-03 0. -1.
         11   -1    0    0    0    0 -0.00000000000E+00 -0.00000000000E+00 -0.45593999997E+02  0.45594000000E+02  0.51100000000E-03 0.  1.
    9900012    2    1    2    0    0  0.12613927952E+02 -0.79153377439E+01  0.11354017104E+02  0.72461616090E+02  0.70000059657E+02 0.  0.
        -12    1    1    2    0    0 -0.12613927952E+02  0.79153377439E+01 -0.11354017104E+02  0.18726383910E+02  0.00000000000E+00 0.  1.
         11    1    3    3    0    0  0.93956176506E+01 -0.46496392802E+01 -0.22521808401E+01  0.10722364257E+02  0.51100000000E-03 0. -1.
        -11    1    3    3    0    0  0.23248254471E+02 -0.98936432456E+01 -0.12487339311E+02  0.28183313431E+02  0.51100000000E-03 0.  1.
         12    1    3    3    0    0 -0.20029944170E+02  0.66279447819E+01  0.26093537255E+02  0.33555938401E+02  0.00000000000E+00 0. -1.
</event>
<event>
 7    1  0.2641045E-013  0.7246144E+02  0.7816164E-02  0.1226708E+00
        -11   -1    0    0    0    0  0.00000000000E+00  0.00000000000E+00  0.45593999997E+02  0.45594000000E+02  0.51100000000E-03 0.  1.
         11   -1    0    0    0    0 -0.00000000000E+00 -0.00000000000E+00 -0.45593999997E+02  0.45594000000E+02  0.51100000000E-03 0. -1.
    9900012    2    1    2    0    0  0.14937972438E+02  0.93665720328E+00 -0.11254501239E+02  0.72461437438E+02  0.69999826929E+02 0.  0.
        -12    1    1    2    0    0 -0.14937972438E+02 -0.93665720328E+00  0.11254501239E+02  0.18726562562E+02  0.00000000000E+00 0.  1.
         11    1    3    3    0    0  0.15574424518E+02  0.16595884041E+02  0.98293446370E+00  0.22780522965E+02  0.51100000000E-03 0. -1.
        -11    1    3    3    0    0  0.84626874391E+01  0.14411423769E+02 -0.49417613148E+01  0.17427771484E+02  0.51100000000E-03 0.  1.
        -12    1    3    3    0    0 -0.90991395192E+01 -0.30070650606E+02 -0.72956743877E+01  0.32253142989E+02  0.00000000000E+00 0.  1.
</event>
<event>
 7    1  0.2641045E-013  0.7246157E+02  0.7816164E-02  0.1226708E+00
        -11   -1    0    0    0    0  0.00000000000E+00  0.00000000000E+00  0.45593999997E+02  0.45594000000E+02  0.51100000000E-03 0. -1.
         11   -1    0    0    0    0 -0.00000000000E+00 -0.00000000000E+00 -0.45593999997E+02  0.45594000000E+02  0.51100000000E-03 0.  1.
    9900012    2    1    2    0    0 -0.16342746632E+01  0.12357497079E+02 -0.13975005498E+02  0.72461565038E+02  0.69999993152E+02 0.  0.
        -12    1    1    2    0    0  0.16342746632E+01 -0.12357497079E+02  0.13975005498E+02  0.18726434962E+02  0.00000000000E+00 0.  1.
         11    1    3    3    0    0  0.17859732305E+02  0.17320935802E+02  0.12269463869E+02  0.27740306396E+02  0.51100000000E-03 0. -1.
        -11    1    3    3    0    0  0.37761993875E+01  0.53687951550E+01  0.18367410690E+01  0.68159563706E+01  0.51100000000E-03 0.  1.
        -12    1    3    3    0    0 -0.23270206356E+02 -0.10332233878E+02 -0.28081210436E+02  0.37905302271E+02  0.00000000000E+00 0.  1.
</event>
<event>
 7    1  0.2641045E-013  0.7246157E+02  0.7816164E-02  0.1226708E+00
        -11   -1    0    0    0    0  0.00000000000E+00  0.00000000000E+00  0.45593999997E+02  0.45594000000E+02  0.51100000000E-03 0.  1.
         11   -1    0    0    0    0 -0.00000000000E+00 -0.00000000000E+00 -0.45593999997E+02  0.45594000000E+02  0.51100000000E-03 0. -1.
    9900012    2    1    2    0    0 -0.72971628571E+01 -0.89114160342E+01 -0.14765403685E+02  0.72461573019E+02  0.70000003549E+02 0.  0.
        -12    1    1    2    0    0  0.72971628571E+01  0.89114160342E+01  0.14765403685E+02  0.18726426981E+02  0.00000000000E+00 0.  1.
         11    1    3    3    0    0 -0.20203628932E+02  0.68423003470E+01  0.28606316819E+01  0.21521777573E+02  0.51100000000E-03 0. -1.
        -11    1    3    3    0    0  0.16177218375E+00 -0.21609867409E+02  0.69010377647E+01  0.22685609143E+02  0.51100000000E-03 0.  1.
         12    1    3    3    0    0  0.12744693891E+02  0.58561510280E+01 -0.24527073132E+02  0.28254186303E+02  0.00000000000E+00 0. -1.
</event>
<event>
 7    1  0.2641045E-013  0.7246158E+02  0.7816164E-02  0.1226708E+00
        -11   -1    0    0    0    0  0.00000000000E+00  0.00000000000E+00  0.45593999997E+02  0.45594000000E+02  0.51100000000E-03 0.  1.
         11   -1    0    0    0    0 -0.00000000000E+00 -0.00000000000E+00 -0.45593999997E+02  0.45594000000E+02  0.51100000000E-03 0. -1.
    9900012    2    1    2    0    0 -0.11564690300E+02  0.17904695853E+01 -0.14619534666E+02  0.72461584515E+02  0.70000018525E+02 0.  0.
        -12    1    1    2    0    0  0.11564690300E+02 -0.17904695853E+01  0.14619534666E+02  0.18726415485E+02  0.00000000000E+00 0.  1.
         11    1    3    3    0    0 -0.15030768384E+02 -0.67183308035E+01  0.67215513997E+01  0.17783116164E+02  0.51100000000E-03 0. -1.
        -11    1    3    3    0    0 -0.22912990706E+02  0.63744735115E+01 -0.84415537240E+01  0.25236855691E+02  0.51100000000E-03 0.  1.
        -12    1    3    3    0    0  0.26379068790E+02  0.21343268773E+01 -0.12899532341E+02  0.29441612661E+02  0.00000000000E+00 0.  1.
</event>
<event>
 7    1  0.2641045E-013  0.7246172E+02  0.7816164E-02  0.1226708E+00
        -11   -1    0    0    0    0  0.00000000000E+00  0.00000000000E+00  0.45593999997E+02  0.45594000000E+02  0.51100000000E-03 0.  1.
         11   -1    0    0    0    0 -0.00000000000E+00 -0.00000000000E+00 -0.45593999997E+02  0.45594000000E+02  0.51100000000E-03 0. -1.
    9900012    2    1    2    0    0  0.32289516836E+01  0.12258674235E+02 -0.13783046824E+02  0.72461718930E+02  0.70000193625E+02 0.  0.
        -12    1    1    2    0    0 -0.32289516836E+01 -0.12258674235E+02  0.13783046824E+02  0.18726281070E+02  0.00000000000E+00 0.  1.
         11    1    3    3    0    0 -0.12329373460E+02  0.53070197060E+01 -0.31524074654E+02  0.34262883579E+02  0.51100000000E-03 0. -1.
        -11    1    3    3    0    0 -0.55222857027E+01  0.24491807832E+00 -0.42755143363E+01  0.69882506644E+01  0.51100000000E-03 0.  1.
        -12    1    3    3    0    0  0.21080610846E+02  0.67067364506E+01  0.22016542166E+02  0.31210584686E+02  0.00000000000E+00 0.  1.
</event>
<event>
 7    1  0.2641045E-013  0.7246156E+02  0.7816164E-02  0.1226708E+00
        -11   -1    0    0    0    0  0.00000000000E+00  0.00000000000E+00  0.45593999997E+02  0.45594000000E+02  0.51100000000E-03 0.  1.
         11   -1    0    0    0    0 -0.00000000000E+00 -0.00000000000E+00 -0.45593999997E+02  0.45594000000E+02  0.51100000000E-03 0. -1.
    9900012    2    1    2    0    0  0.54001070737E+01 -0.63981782631E+01 -0.16750575003E+02  0.72461558683E+02  0.69999984874E+02 0.  0.
        -12    1    1    2    0    0 -0.54001070737E+01  0.63981782631E+01  0.16750575003E+02  0.18726441317E+02  0.00000000000E+00 0.  1.
         11    1    3    3    0    0  0.46858884680E+01 -0.10487994830E+02  0.14844653213E+02  0.18770170898E+02  0.51100000000E-03 0. -1.
        -11    1    3    3    0    0 -0.72592539465E+01 -0.17397623013E+02 -0.21651216561E+02  0.28707999463E+02  0.51100000000E-03 0.  1.
        -12    1    3    3    0    0  0.79734725522E+01  0.21487439579E+02 -0.99440116542E+01  0.24983388321E+02  0.00000000000E+00 0.  1.
</event>
<event>
 7    1  0.2641045E-013  0.7246155E+02  0.7816164E-02  0.1226708E+00
        -11   -1    0    0    0    0  0.00000000000E+00  0.00000000000E+00  0.45593999997E+02  0.45594000000E+02  0.51100000000E-03 0. -1.
         11   -1    0    0    0    0 -0.00000000000E+00 -0.00000000000E+00 -0.45593999997E+02  0.45594000000E+02  0.51100000000E-03 0.  1.
    9900012    2    1    2    0    0 -0.93361794059E+01  0.10845305519E+02  0.12078697192E+02  0.72461552831E+02  0.69999977251E+02 0.  0.
        -12    1    1    2    0    0  0.93361794059E+01 -0.10845305519E+02 -0.12078697192E+02  0.18726447169E+02  0.00000000000E+00 0.  1.
         11    1    3    3    0    0 -0.39326114889E+01  0.10339003759E+02 -0.14538405509E+01  0.11156795439E+02  0.51100000000E-03 0. -1.
        -11    1    3    3    0    0 -0.32072158797E+02  0.18639380892E+01  0.19132235281E+01  0.32183195299E+02  0.51100000000E-03 0.  1.
        -12    1    3    3    0    0  0.26668590880E+02 -0.13576363292E+01  0.11619314215E+02  0.29121562093E+02  0.00000000000E+00 0.  1.
</event>
<event>
 7    1  0.2641045E-013  0.7246163E+02  0.7816164E-02  0.1226708E+00
        -11   -1    0    0    0    0  0.00000000000E+00  0.00000000000E+00  0.45593999997E+02  0.45594000000E+02  0.51100000000E-03 0.  1.
         11   -1    0    0    0    0 -0.00000000000E+00 -0.00000000000E+00 -0.45593999997E+02  0.45594000000E+02  0.51100000000E-03 0. -1.
    9900012    2    1    2    0    0 -0.42434512965E+01 -0.71102386258E+01 -0.16796267681E+02  0.72461628749E+02  0.70000076147E+02 0.  0.
        -12    1    1    2    0    0  0.42434512965E+01  0.71102386258E+01  0.16796267681E+02  0.18726371251E+02  0.00000000000E+00 0.  1.
         11    1    3    3    0    0 -0.74563171937E+01 -0.21085773255E+02 -0.24060330309E+02  0.32849748777E+02  0.51100000000E-03 0. -1.
        -11    1    3    3    0    0 -0.42500178070E+01 -0.10992061064E+02 -0.20029961442E+01  0.11954080960E+02  0.51100000000E-03 0.  1.
         12    1    3    3    0    0  0.74628837043E+01  0.24967595693E+02  0.92670587717E+01  0.27657799012E+02  0.00000000000E+00 0. -1.
</event>
<event>
 7    1  0.2641045E-013  0.7246158E+02  0.7816164E-02  0.1226708E+00
        -11   -1    0    0    0    0  0.00000000000E+00  0.00000000000E+00  0.45593999997E+02  0.45594000000E+02  0.51100000000E-03 0.  1.
         11   -1    0    0    0    0 -0.00000000000E+00 -0.00000000000E+00 -0.45593999997E+02  0.45594000000E+02  0.51100000000E-03 0. -1.
    9900012    2    1    2    0    0  0.13196575824E+02 -0.12705467094E+02 -0.38859020249E+01  0.72461581707E+02  0.70000014867E+02 0.  0.
        -12    1    1    2    0    0 -0.13196575824E+02  0.12705467094E+02  0.38859020249E+01  0.18726418293E+02  0.00000000000E+00 0.  1.
         11    1    3    3    0    0 -0.35944051650E+01 -0.18766148049E+02  0.10561070425E+02  0.21831726223E+02  0.51100000000E-03 0. -1.
        -11    1    3    3    0    0  0.79948351503E+01 -0.35483156312E+01  0.15597523359E+02  0.17882691858E+02  0.51100000000E-03 0.  1.
         12    1    3    3    0    0  0.87961458389E+01  0.96089965870E+01 -0.30044495809E+02  0.32747163625E+02  0.00000000000E+00 0. -1.
</event>
<event>
 7    1  0.2641045E-013  0.7246155E+02  0.7816164E-02  0.1226708E+00
        -11   -1    0    0    0    0  0.00000000000E+00  0.00000000000E+00  0.45593999997E+02  0.45594000000E+02  0.51100000000E-03 0. -1.
         11   -1    0    0    0    0 -0.00000000000E+00 -0.00000000000E+00 -0.45593999997E+02  0.45594000000E+02  0.51100000000E-03 0.  1.
    9900012    2    1    2    0    0  0.15860325558E+02  0.99101974656E+01 -0.95807811765E+00  0.72461552010E+02  0.69999976182E+02 0.  0.
        -12    1    1    2    0    0 -0.15860325558E+02 -0.99101974656E+01  0.95807811765E+00  0.18726447990E+02  0.00000000000E+00 0.  1.
         11    1    3    3    0    0  0.88568160291E+01 -0.96903029656E+00  0.18709233818E+02  0.20722394654E+02  0.51100000000E-03 0. -1.
        -11    1    3    3    0    0  0.83838504438E+01 -0.16665867586E+02 -0.14618758210E+02  0.23701227448E+02  0.51100000000E-03 0.  1.
         12    1    3    3    0    0 -0.13803409145E+01  0.27545095349E+02 -0.50485537254E+01  0.28037929908E+02  0.00000000000E+00 0. -1.
</event>
<event>
 7    1  0.2641045E-013  0.7246151E+02  0.7816164E-02  0.1226708E+00
        -11   -1    0    0    0    0  0.00000000000E+00  0.00000000000E+00  0.45593999997E+02  0.45594000000E+02  0.51100000000E-03 0.  1.
         11   -1    0    0    0    0 -0.00000000000E+00 -0.00000000000E+00 -0.45593999997E+02  0.45594000000E+02  0.51100000000E-03 0. -1.
    9900012    2    1    2    0    0  0.98980436059E+01  0.11863036328E+02 -0.10581993689E+02  0.72461508375E+02  0.69999919338E+02 0.  0.
        -12    1    1    2    0    0 -0.98980436059E+01 -0.11863036328E+02  0.10581993689E+02  0.18726491625E+02  0.00000000000E+00 0.  1.
         11    1    3    3    0    0  0.11463065068E+02  0.62174088891E+01 -0.31138021248E+02  0.33758471553E+02  0.51100000000E-03 0. -1.
        -11    1    3    3    0    0  0.34108871245E+00  0.56592677845E+01 -0.81531576150E+01  0.99306411033E+01  0.51100000000E-03 0.  1.
        -12    1    3    3    0    0 -0.19061101748E+01 -0.13640345228E-01  0.28709185174E+02  0.28772395719E+02  0.00000000000E+00 0.  1.
</event>
<event>
 7    1  0.2641045E-013  0.7246107E+02  0.7816164E-02  0.1226709E+00
        -11   -1    0    0    0    0  0.00000000000E+00  0.00000000000E+00  0.45593999997E+02  0.45594000000E+02  0.51100000000E-03 0. -1.
         11   -1    0    0    0    0 -0.00000000000E+00 -0.00000000000E+00 -0.45593999997E+02  0.45594000000E+02  0.51100000000E-03 0.  1.
    9900012    2    1    2    0    0  0.47802357763E+01 -0.16762482870E+02  0.68459178032E+01  0.72461065478E+02  0.69999342380E+02 0.  0.
        -12    1    1    2    0    0 -0.47802357763E+01  0.16762482870E+02 -0.68459178032E+01  0.18726934522E+02  0.00000000000E+00 0.  1.
         11    1    3    3    0    0  0.83328848400E+01 -0.22784218511E+02  0.21941058211E+02  0.32710359499E+02  0.51100000000E-03 0. -1.
        -11    1    3    3    0    0 -0.58145677620E+01 -0.12910618379E+02 -0.15077210567E+02  0.20683702374E+02  0.51100000000E-03 0.  1.
        -12    1    3    3    0    0  0.22619186983E+01  0.18932354021E+02 -0.17929841006E-01  0.19067003604E+02  0.00000000000E+00 0.  1.
</event>
<event>
 7    1  0.2641045E-013  0.7246158E+02  0.7816164E-02  0.1226708E+00
        -11   -1    0    0    0    0  0.00000000000E+00  0.00000000000E+00  0.45593999997E+02  0.45594000000E+02  0.51100000000E-03 0.  1.
         11   -1    0    0    0    0 -0.00000000000E+00 -0.00000000000E+00 -0.45593999997E+02  0.45594000000E+02  0.51100000000E-03 0. -1.
    9900012    2    1    2    0    0  0.77867391969E+01  0.72111386701E+01 -0.15428706630E+02  0.72461579720E+02  0.70000012278E+02 0.  0.
        -12    1    1    2    0    0 -0.77867391969E+01 -0.72111386701E+01  0.15428706630E+02  0.18726420280E+02  0.00000000000E+00 0.  1.
         11    1    3    3    0    0 -0.52011029903E+01  0.18600550797E+02 -0.17303874355E+02  0.25931757175E+02  0.51100000000E-03 0. -1.
        -11    1    3    3    0    0 -0.15792795470E+02 -0.62008680720E+01  0.31543819610E+01  0.17257267438E+02  0.51100000000E-03 0.  1.
        -12    1    3    3    0    0  0.28780637657E+02 -0.51885440548E+01 -0.12792142365E+01  0.29272555106E+02  0.00000000000E+00 0.  1.
</event>
<event>
 7    1  0.2641045E-013  0.7246162E+02  0.7816164E-02  0.1226708E+00
        -11   -1    0    0    0    0  0.00000000000E+00  0.00000000000E+00  0.45593999997E+02  0.45594000000E+02  0.51100000000E-03 0. -1.
         11   -1    0    0    0    0 -0.00000000000E+00 -0.00000000000E+00 -0.45593999997E+02  0.45594000000E+02  0.51100000000E-03 0.  1.
    9900012    2    1    2    0    0 -0.87720020670E+01  0.11668496615E+02  0.11729254506E+02  0.72461621685E+02  0.70000066946E+02 0.  0.
        -12    1    1    2    0    0  0.87720020670E+01 -0.11668496615E+02 -0.11729254506E+02  0.18726378315E+02  0.00000000000E+00 0.  1.
         11    1    3    3    0    0  0.24133053704E+02 -0.53983717167E+01 -0.21111803129E+01  0.24819423459E+02  0.51100000000E-03 0. -1.
        -11    1    3    3    0    0 -0.17115832418E+02 -0.34472907946E+00  0.16759268570E+02  0.23957120878E+02  0.51100000000E-03 0.  1.
        -12    1    3    3    0    0 -0.15789223353E+02  0.17411597412E+02 -0.29188337510E+01  0.23685077348E+02  0.00000000000E+00 0.  1.
</event>
<event>
 7    1  0.2641045E-013  0.7246153E+02  0.7816164E-02  0.1226708E+00
        -11   -1    0    0    0    0  0.00000000000E+00  0.00000000000E+00  0.45593999997E+02  0.45594000000E+02  0.51100000000E-03 0.  1.
         11   -1    0    0    0    0 -0.00000000000E+00 -0.00000000000E+00 -0.45593999997E+02  0.45594000000E+02  0.51100000000E-03 0. -1.
    9900012    2    1    2    0    0  0.15787013548E+01 -0.57062710957E+01 -0.17765894152E+02  0.72461526151E+02  0.69999942495E+02 0.  0.
        -12    1    1    2    0    0 -0.15787013548E+01  0.57062710957E+01  0.17765894152E+02  0.18726473849E+02  0.00000000000E+00 0.  1.
         11    1    3    3    0    0 -0.19368429177E+01 -0.11682726393E+02 -0.15951892163E+02  0.19867066223E+02  0.51100000000E-03 0. -1.
        -11    1    3    3    0    0  0.21994047019E+02  0.17773450852E+02 -0.87494488087E+01  0.29600447872E+02  0.51100000000E-03 0.  1.
         12    1    3    3    0    0 -0.18478502747E+02 -0.11796995554E+02  0.69354468192E+01  0.22994012057E+02  0.00000000000E+00 0. -1.
</event>
<event>
 7    1  0.2641045E-013  0.7246104E+02  0.7816164E-02  0.1226709E+00
        -11   -1    0    0    0    0  0.00000000000E+00  0.00000000000E+00  0.45593999997E+02  0.45594000000E+02  0.51100000000E-03 0. -1.
         11   -1    0    0    0    0 -0.00000000000E+00 -0.00000000000E+00 -0.45593999997E+02  0.45594000000E+02  0.51100000000E-03 0.  1.
    9900012    2    1    2    0    0  0.69896558948E+01 -0.17373614527E+02 -0.37584004625E-01  0.72461035916E+02  0.69999303870E+02 0.  0.
        -12    1    1    2    0    0 -0.69896558948E+01  0.17373614527E+02  0.37584004625E-01  0.18726964084E+02  0.00000000000E+00 0.  1.
         11    1    3    3    0    0 -0.17858724455E+02 -0.16253013822E+02  0.18996000412E+02  0.30723647723E+02  0.51100000000E-03 0. -1.
        -11    1    3    3    0    0 -0.23993229616E+01 -0.53689821262E+01  0.28478001915E+01  0.65339640293E+01  0.51100000000E-03 0.  1.
        -12    1    3    3    0    0  0.27247703312E+02  0.42483814216E+01 -0.21881384608E+02  0.35203424164E+02  0.00000000000E+00 0.  1.
</event>
<event>
 7    1  0.2641045E-013  0.7246160E+02  0.7816164E-02  0.1226708E+00
        -11   -1    0    0    0    0  0.00000000000E+00  0.00000000000E+00  0.45593999997E+02  0.45594000000E+02  0.51100000000E-03 0.  1.
         11   -1    0    0    0    0 -0.00000000000E+00 -0.00000000000E+00 -0.45593999997E+02  0.45594000000E+02  0.51100000000E-03 0. -1.
    9900012    2    1    2    0    0 -0.34203496235E+01  0.17605551584E+00 -0.18410545124E+02  0.72461602619E+02  0.70000042109E+02 0.  0.
        -12    1    1    2    0    0  0.34203496235E+01 -0.17605551584E+00  0.18410545124E+02  0.18726397381E+02  0.00000000000E+00 0.  1.
         11    1    3    3    0    0 -0.22161205910E+02 -0.49218381003E+01 -0.87987663736E+01  0.24346700549E+02  0.51100000000E-03 0. -1.
        -11    1    3    3    0    0 -0.11479313286E+02 -0.82206796523E+01 -0.30147909750E+01  0.14437561163E+02  0.51100000000E-03 0.  1.
         12    1    3    3    0    0  0.30220169572E+02  0.13318573268E+02 -0.65969877758E+01  0.33677340907E+02  0.00000000000E+00 0. -1.
</event>
<event>
 7    1  0.2641045E-013  0.7246160E+02  0.7816164E-02  0.1226708E+00
        -11   -1    0    0    0    0  0.00000000000E+00  0.00000000000E+00  0.45593999997E+02  0.45594000000E+02  0.51100000000E-03 0.  1.
         11   -1    0    0    0    0 -0.00000000000E+00 -0.00000000000E+00 -0.45593999997E+02  0.45594000000E+02  0.51100000000E-03 0. -1.
    9900012    2    1    2    0    0  0.20059499457E+01 -0.10465500765E+02  0.15398939708E+02  0.72461604576E+02  0.70000044658E+02 0.  0.
        -12    1    1    2    0    0 -0.20059499457E+01  0.10465500765E+02 -0.15398939708E+02  0.18726395424E+02  0.00000000000E+00 0.  1.
         11    1    3    3    0    0 -0.47658732905E+01  0.18280337990E+02  0.40337643710E+01  0.19317234805E+02  0.51100000000E-03 0. -1.
        -11    1    3    3    0    0 -0.90210240559E+01 -0.16168119400E+01 -0.11209356853E+02  0.14479041308E+02  0.51100000000E-03 0.  1.
        -12    1    3    3    0    0  0.15792847292E+02 -0.27129026815E+02  0.22574532190E+02  0.38665328463E+02  0.00000000000E+00 0.  1.
</event>
<event>
 7    1  0.2641045E-013  0.7246159E+02  0.7816164E-02  0.1226708E+00
        -11   -1    0    0    0    0  0.00000000000E+00  0.00000000000E+00  0.45593999997E+02  0.45594000000E+02  0.51100000000E-03 0. -1.
         11   -1    0    0    0    0 -0.00000000000E+00 -0.00000000000E+00 -0.45593999997E+02  0.45594000000E+02  0.51100000000E-03 0.  1.
    9900012    2    1    2    0    0  0.90211458431E+00  0.20550987684E+01  0.18591432696E+02  0.72461585198E+02  0.70000019414E+02 0.  0.
        -12    1    1    2    0    0 -0.90211458431E+00 -0.20550987684E+01 -0.18591432696E+02  0.18726414802E+02  0.00000000000E+00 0.  1.
         11    1    3    3    0    0  0.91954429658E+01 -0.98905311324E+01  0.22386954161E+02  0.26144875105E+02  0.51100000000E-03 0. -1.
        -11    1    3    3    0    0 -0.59130604745E+01 -0.23381480694E+01 -0.22088751412E+02  0.22985738182E+02  0.51100000000E-03 0.  1.
         12    1    3    3    0    0 -0.23802679069E+01  0.14283777970E+02  0.18293229947E+02  0.23330971911E+02  0.00000000000E+00 0. -1.
</event>
<event>
 7    1  0.2641045E-013  0.7246157E+02  0.7816164E-02  0.1226708E+00
        -11   -1    0    0    0    0  0.00000000000E+00  0.00000000000E+00  0.45593999997E+02  0.45594000000E+02  0.51100000000E-03 0. -1.
         11   -1    0    0    0    0 -0.00000000000E+00 -0.00000000000E+00 -0.45593999997E+02  0.45594000000E+02  0.51100000000E-03 0.  1.
    9900012    2    1    2    0    0 -0.12797786432E+02  0.13630767752E+02  0.10479365588E+01  0.72461565794E+02  0.69999994137E+02 0.  0.
        -12    1    1    2    0    0  0.12797786432E+02 -0.13630767752E+02 -0.10479365588E+01  0.18726434206E+02  0.00000000000E+00 0.  1.
         11    1    3    3    0    0 -0.15120818422E+01 -0.32124710613E+01 -0.14026059682E+01  0.38175470633E+01  0.51100000000E-03 0. -1.
        -11    1    3    3    0    0 -0.14381188945E+02 -0.97415408580E+01 -0.24910941022E+02  0.30368918266E+02  0.51100000000E-03 0.  1.
         12    1    3    3    0    0  0.30954843553E+01  0.26584779671E+02  0.27361483549E+02  0.38275100465E+02  0.00000000000E+00 0. -1.
</event>
<event>
 7    1  0.2641045E-013  0.7246158E+02  0.7816164E-02  0.1226708E+00
        -11   -1    0    0    0    0  0.00000000000E+00  0.00000000000E+00  0.45593999997E+02  0.45594000000E+02  0.51100000000E-03 0.  1.
         11   -1    0    0    0    0 -0.00000000000E+00 -0.00000000000E+00 -0.45593999997E+02  0.45594000000E+02  0.51100000000E-03 0. -1.
    9900012    2    1    2    0    0  0.62167168623E+01 -0.96839015139E+01 -0.14773393976E+02  0.72461583187E+02  0.70000016795E+02 0.  0.
        -12    1    1    2    0    0 -0.62167168623E+01  0.96839015139E+01  0.14773393976E+02  0.18726416813E+02  0.00000000000E+00 0.  1.
         11    1    3    3    0    0  0.10137870676E+02  0.13634484865E+01  0.30693682377E+01  0.10679720748E+02  0.51100000000E-03 0. -1.
        -11    1    3    3    0    0  0.17496734342E+02 -0.13498469557E+02  0.11860448640E+02  0.25080164178E+02  0.51100000000E-03 0.  1.
         12    1    3    3    0    0 -0.21417888156E+02  0.24511195560E+01 -0.29703210854E+02  0.36701698260E+02  0.00000000000E+00 0. -1.
</event>
<event>
 7    1  0.2641045E-013  0.7246158E+02  0.7816164E-02  0.1226708E+00
        -11   -1    0    0    0    0  0.00000000000E+00  0.00000000000E+00  0.45593999997E+02  0.45594000000E+02  0.51100000000E-03 0. -1.
         11   -1    0    0    0    0 -0.00000000000E+00 -0.00000000000E+00 -0.45593999997E+02  0.45594000000E+02  0.51100000000E-03 0.  1.
    9900012    2    1    2    0    0  0.99079276873E+01  0.10484911544E+02  0.11940626468E+02  0.72461575846E+02  0.70000007232E+02 0.  0.
        -12    1    1    2    0    0 -0.99079276873E+01 -0.10484911544E+02 -0.11940626468E+02  0.18726424154E+02  0.00000000000E+00 0.  1.
         11    1    3    3    0    0  0.80933877832E+00 -0.54360260056E+01  0.49701360971E+01  0.74099703830E+01  0.51100000000E-03 0. -1.
        -11    1    3    3    0    0  0.21683591545E+02 -0.55472162565E+01 -0.18798045275E+02  0.29228688936E+02  0.51100000000E-03 0.  1.
         12    1    3    3    0    0 -0.12585002636E+02  0.21468153806E+02  0.25768535646E+02  0.35822916527E+02  0.00000000000E+00 0. -1.
</event>
<event>
 7    1  0.2641045E-013  0.7246157E+02  0.7816164E-02  0.1226708E+00
        -11   -1    0    0    0    0  0.00000000000E+00  0.00000000000E+00  0.45593999997E+02  0.45594000000E+02  0.51100000000E-03 0.  1.
         11   -1    0    0    0    0 -0.00000000000E+00 -0.00000000000E+00 -0.45593999997E+02  0.45594000000E+02  0.51100000000E-03 0. -1.
    9900012    2    1    2    0    0 -0.20901449622E+01  0.14016765804E+02  0.12240947578E+02  0.72461568755E+02  0.69999997995E+02 0.  0.
        -12    1    1    2    0    0  0.20901449622E+01 -0.14016765804E+02 -0.12240947578E+02  0.18726431245E+02  0.00000000000E+00 0.  1.
         11    1    3    3    0    0  0.23561364291E+02  0.27684874525E+01 -0.98861758926E+01  0.25700951035E+02  0.51100000000E-03 0. -1.
        -11    1    3    3    0    0  0.38490043606E+01  0.71334644311E+01 -0.20915059630E+01  0.83711138335E+01  0.51100000000E-03 0.  1.
        -12    1    3    3    0    0 -0.29500513614E+02  0.41148139202E+01  0.24218629433E+02  0.38389503887E+02  0.00000000000E+00 0.  1.
</event>
<event>
 7    1  0.2641045E-013  0.7246155E+02  0.7816164E-02  0.1226708E+00
        -11   -1    0    0    0    0  0.00000000000E+00  0.00000000000E+00  0.45593999997E+02  0.45594000000E+02  0.51100000000E-03 0. -1.
         11   -1    0    0    0    0 -0.00000000000E+00 -0.00000000000E+00 -0.45593999997E+02  0.45594000000E+02  0.51100000000E-03 0.  1.
    9900012    2    1    2    0    0 -0.10015156314E+02  0.12210259570E+02  0.10064093151E+02  0.72461554376E+02  0.69999979263E+02 0.  0.
        -12    1    1    2    0    0  0.10015156314E+02 -0.12210259570E+02 -0.10064093151E+02  0.18726445624E+02  0.00000000000E+00 0.  1.
         11    1    3    3    0    0  0.24401533491E+01 -0.13091258616E+02  0.20451251530E+02  0.24404694014E+02  0.51100000000E-03 0. -1.
        -11    1    3    3    0    0 -0.99598730418E+01 -0.53571226617E+01  0.64202263185E+01  0.13004504622E+02  0.51100000000E-03 0.  1.
         12    1    3    3    0    0 -0.24954366213E+01  0.30658640847E+02 -0.16807384697E+02  0.35052355740E+02  0.00000000000E+00 0. -1.
</event>
<event>
 7    1  0.2641045E-013  0.7246125E+02  0.7816164E-02  0.1226709E+00
        -11   -1    0    0    0    0  0.00000000000E+00  0.00000000000E+00  0.45593999997E+02  0.45594000000E+02  0.51100000000E-03 0. -1.
         11   -1    0    0    0    0 -0.00000000000E+00 -0.00000000000E+00 -0.45593999997E+02  0.45594000000E+02  0.51100000000E-03 0.  1.
    9900012    2    1    2    0    0 -0.79731919280E+01  0.11353360161E+02 -0.12578575674E+02  0.72461250617E+02  0.69999583559E+02 0.  0.
        -12    1    1    2    0    0  0.79731919280E+01 -0.11353360161E+02  0.12578575674E+02  0.18726749383E+02  0.00000000000E+00 0.  1.
         11    1    3    3    0    0  0.14509926654E+02  0.48915880205E+01  0.19922531211E+02  0.25127133839E+02  0.51100000000E-03 0. -1.
        -11    1    3    3    0    0  0.14830030253E+01 -0.64108532507E+01 -0.30869171330E+01  0.72682456633E+01  0.51100000000E-03 0.  1.
        -12    1    3    3    0    0 -0.23966121608E+02  0.12872625391E+02 -0.29414189752E+02  0.40065871114E+02  0.00000000000E+00 0.  1.
</event>
<event>
 7    1  0.2641045E-013  0.7246155E+02  0.7816164E-02  0.1226708E+00
        -11   -1    0    0    0    0  0.00000000000E+00  0.00000000000E+00  0.45593999997E+02  0.45594000000E+02  0.51100000000E-03 0.  1.
         11   -1    0    0    0    0 -0.00000000000E+00 -0.00000000000E+00 -0.45593999997E+02  0.45594000000E+02  0.51100000000E-03 0. -1.
    9900012    2    1    2    0    0  0.47234650959E+01  0.55261327099E+00 -0.18112523478E+02  0.72461547835E+02  0.69999970742E+02 0.  0.
        -12    1    1    2    0    0 -0.47234650959E+01 -0.55261327099E+00  0.18112523478E+02  0.18726452165E+02  0.00000000000E+00 0.  1.
         11    1    3    3    0    0 -0.49551837225E+01  0.12932376494E+02  0.33094321513E+01  0.14239120371E+02  0.51100000000E-03 0. -1.
        -11    1    3    3    0    0  0.13175261832E+02 -0.41417517794E+01  0.15191538520E+02  0.20531061225E+02  0.51100000000E-03 0.  1.
         12    1    3    3    0    0 -0.34966130140E+01 -0.82380114440E+01 -0.36613494150E+02  0.37691366239E+02  0.00000000000E+00 0. -1.
</event>
<event>
 7    1  0.2641045E-013  0.7246160E+02  0.7816164E-02  0.1226708E+00
        -11   -1    0    0    0    0  0.00000000000E+00  0.00000000000E+00  0.45593999997E+02  0.45594000000E+02  0.51100000000E-03 0.  1.
         11   -1    0    0    0    0 -0.00000000000E+00 -0.00000000000E+00 -0.45593999997E+02  0.45594000000E+02  0.51100000000E-03 0. -1.
    9900012    2    1    2    0    0 -0.53398955217E+01  0.54146028104E+01 -0.17112736640E+02  0.72461597166E+02  0.70000035006E+02 0.  0.
        -12    1    1    2    0    0  0.53398955217E+01 -0.54146028104E+01  0.17112736640E+02  0.18726402834E+02  0.00000000000E+00 0.  1.
         11    1    3    3    0    0 -0.17402150113E+02 -0.57381791579E+01 -0.11306642041E+02  0.21531411545E+02  0.51100000000E-03 0. -1.
        -11    1    3    3    0    0  0.70731472779E+01 -0.17681839164E+01 -0.25686180579E+02  0.26700856911E+02  0.51100000000E-03 0.  1.
        -12    1    3    3    0    0  0.49891073136E+01  0.12920965885E+02  0.19880085980E+02  0.24229328710E+02  0.00000000000E+00 0.  1.
</event>
<event>
 7    1  0.2641045E-013  0.7246157E+02  0.7816164E-02  0.1226708E+00
        -11   -1    0    0    0    0  0.00000000000E+00  0.00000000000E+00  0.45593999997E+02  0.45594000000E+02  0.51100000000E-03 0.  1.
         11   -1    0    0    0    0 -0.00000000000E+00 -0.00000000000E+00 -0.45593999997E+02  0.45594000000E+02  0.51100000000E-03 0. -1.
    9900012    2    1    2    0    0 -0.30520246823E+01  0.50086839623E+01 -0.17784187734E+02  0.72461572069E+02  0.70000002312E+02 0.  0.
        -12    1    1    2    0    0  0.30520246823E+01 -0.50086839623E+01  0.17784187734E+02  0.18726427931E+02  0.00000000000E+00 0.  1.
         11    1    3    3    0    0 -0.10518239132E+02  0.19837603826E+02 -0.23241075879E+02  0.32315808643E+02  0.51100000000E-03 0. -1.
        -11    1    3    3    0    0  0.25279746252E+01  0.11260127928E+02  0.70881958278E+01  0.13543399020E+02  0.51100000000E-03 0.  1.
        -12    1    3    3    0    0  0.49382398247E+01 -0.26089047791E+02 -0.16313076826E+01  0.26602364406E+02  0.00000000000E+00 0.  1.
</event>
<event>
 7    1  0.2641045E-013  0.7246164E+02  0.7816164E-02  0.1226708E+00
        -11   -1    0    0    0    0  0.00000000000E+00  0.00000000000E+00  0.45593999997E+02  0.45594000000E+02  0.51100000000E-03 0.  1.
         11   -1    0    0    0    0 -0.00000000000E+00 -0.00000000000E+00 -0.45593999997E+02  0.45594000000E+02  0.51100000000E-03 0. -1.
    9900012    2    1    2    0    0  0.15662758649E+02  0.45687201627E+01 -0.91913751231E+01  0.72461639193E+02  0.70000089753E+02 0.  0.
        -12    1    1    2    0    0 -0.15662758649E+02 -0.45687201627E+01  0.91913751231E+01  0.18726360807E+02  0.00000000000E+00 0.  1.
         11    1    3    3    0    0 -0.49857251677E+01 -0.17427341782E+01  0.13493280265E+00  0.52832551505E+01  0.51100000000E-03 0. -1.
        -11    1    3    3    0    0 -0.20695507936E+02  0.14358388269E+01  0.77994335279E+01  0.22162961118E+02  0.51100000000E-03 0.  1.
         12    1    3    3    0    0  0.41343991753E+02  0.48756155140E+01 -0.17125741454E+02  0.45015422925E+02  0.00000000000E+00 0. -1.
</event>
<event>
 7    1  0.2641045E-013  0.7246229E+02  0.7816164E-02  0.1226706E+00
        -11   -1    0    0    0    0  0.00000000000E+00  0.00000000000E+00  0.45593999997E+02  0.45594000000E+02  0.51100000000E-03 0. -1.
         11   -1    0    0    0    0 -0.00000000000E+00 -0.00000000000E+00 -0.45593999997E+02  0.45594000000E+02  0.51100000000E-03 0.  1.
    9900012    2    1    2    0    0 -0.12716396910E+02 -0.13717503937E+02  0.88056900078E+00  0.72462293968E+02  0.70000942713E+02 0.  0.
        -12    1    1    2    0    0  0.12716396910E+02  0.13717503937E+02 -0.88056900078E+00  0.18725706032E+02  0.00000000000E+00 0.  1.
         11    1    3    3    0    0 -0.86493377124E+01 -0.13859197150E+02  0.29698757817E+02  0.33895495345E+02  0.51100000000E-03 0. -1.
        -11    1    3    3    0    0 -0.10338201962E+02  0.80157118333E+01 -0.77186166065E+01  0.15189045348E+02  0.51100000000E-03 0.  1.
        -12    1    3    3    0    0  0.62711427640E+01 -0.78740186195E+01 -0.21099572210E+02  0.23377753276E+02  0.00000000000E+00 0.  1.
</event>
<event>
 7    1  0.2641045E-013  0.7246157E+02  0.7816164E-02  0.1226708E+00
        -11   -1    0    0    0    0  0.00000000000E+00  0.00000000000E+00  0.45593999997E+02  0.45594000000E+02  0.51100000000E-03 0. -1.
         11   -1    0    0    0    0 -0.00000000000E+00 -0.00000000000E+00 -0.45593999997E+02  0.45594000000E+02  0.51100000000E-03 0.  1.
    9900012    2    1    2    0    0 -0.12687766086E+02  0.10414467997E+02  0.90132523398E+01  0.72461567620E+02  0.69999996517E+02 0.  0.
        -12    1    1    2    0    0  0.12687766086E+02 -0.10414467997E+02 -0.90132523398E+01  0.18726432380E+02  0.00000000000E+00 0.  1.
         11    1    3    3    0    0 -0.30753003663E+02  0.23767112466E+02  0.36405347103E+01  0.39036859025E+02  0.51100000000E-03 0. -1.
        -11    1    3    3    0    0  0.10892069933E+00  0.63394125390E+01  0.10498700659E+01  0.64266820736E+01  0.51100000000E-03 0.  1.
        -12    1    3    3    0    0  0.17956316878E+02 -0.19692057008E+02  0.43228475636E+01  0.26998026522E+02  0.00000000000E+00 0.  1.
</event>
<event>
 7    1  0.2641045E-013  0.7246157E+02  0.7816164E-02  0.1226708E+00
        -11   -1    0    0    0    0  0.00000000000E+00  0.00000000000E+00  0.45593999997E+02  0.45594000000E+02  0.51100000000E-03 0.  1.
         11   -1    0    0    0    0 -0.00000000000E+00 -0.00000000000E+00 -0.45593999997E+02  0.45594000000E+02  0.51100000000E-03 0. -1.
    9900012    2    1    2    0    0 -0.33049266848E+01 -0.17851742041E+02 -0.45904061945E+01  0.72461573130E+02  0.70000003693E+02 0.  0.
        -12    1    1    2    0    0  0.33049266848E+01  0.17851742041E+02  0.45904061945E+01  0.18726426870E+02  0.00000000000E+00 0.  1.
         11    1    3    3    0    0  0.72319114771E+01 -0.38708950367E+01 -0.10851230112E+02  0.13602704408E+02  0.51100000000E-03 0. -1.
        -11    1    3    3    0    0 -0.18064437034E+02  0.15884751326E+02  0.12981659899E+02  0.27334460009E+02  0.51100000000E-03 0.  1.
         12    1    3    3    0    0  0.75275988717E+01 -0.29865598330E+02 -0.67208359814E+01  0.31524408713E+02  0.00000000000E+00 0. -1.
</event>
<event>
 7    1  0.2641045E-013  0.7246163E+02  0.7816164E-02  0.1226708E+00
        -11   -1    0    0    0    0  0.00000000000E+00  0.00000000000E+00  0.45593999997E+02  0.45594000000E+02  0.51100000000E-03 0. -1.
         11   -1    0    0    0    0 -0.00000000000E+00 -0.00000000000E+00 -0.45593999997E+02  0.45594000000E+02  0.51100000000E-03 0.  1.
    9900012    2    1    2    0    0  0.63998491034E+01 -0.54443840536E+01  0.16735515910E+02  0.72461631451E+02  0.70000079668E+02 0.  0.
        -12    1    1    2    0    0 -0.63998491034E+01  0.54443840536E+01 -0.16735515910E+02  0.18726368549E+02  0.00000000000E+00 0.  1.
         11    1    3    3    0    0  0.54479624892E+01 -0.15950055167E+02  0.11582262225E+02  0.20450754354E+02  0.51100000000E-03 0. -1.
        -11    1    3    3    0    0 -0.12531398611E+02 -0.35075570004E+01 -0.17722145536E+02  0.21986663001E+02  0.51100000000E-03 0.  1.
         12    1    3    3    0    0  0.13483285225E+02  0.14013228114E+02  0.22875399221E+02  0.30024214097E+02  0.00000000000E+00 0. -1.
</event>
<event>
 7    1  0.2641045E-013  0.7246157E+02  0.7816164E-02  0.1226708E+00
        -11   -1    0    0    0    0  0.00000000000E+00  0.00000000000E+00  0.45593999997E+02  0.45594000000E+02  0.51100000000E-03 0.  1.
         11   -1    0    0    0    0 -0.00000000000E+00 -0.00000000000E+00 -0.45593999997E+02  0.45594000000E+02  0.51100000000E-03 0. -1.
    9900012    2    1    2    0    0  0.11142506266E+02 -0.24947943071E+01 -0.14842497828E+02  0.72461569846E+02  0.69999999416E+02 0.  0.
        -12    1    1    2    0    0 -0.11142506266E+02  0.24947943071E+01  0.14842497828E+02  0.18726430154E+02  0.00000000000E+00 0.  1.
         11    1    3    3    0    0  0.61738661780E+01 -0.18595749639E+02  0.10627320557E+02  0.22290322355E+02  0.51100000000E-03 0. -1.
        -11    1    3    3    0    0 -0.34759477865E+00 -0.35592836729E+01  0.92509082830E+01  0.99180959219E+01  0.51100000000E-03 0.  1.
        -12    1    3    3    0    0  0.53162348669E+01  0.19660239005E+02 -0.34720726668E+02  0.40253151569E+02  0.00000000000E+00 0.  1.
</event>
<event>
 7    1  0.2641045E-013  0.7246150E+02  0.7816164E-02  0.1226708E+00
        -11   -1    0    0    0    0  0.00000000000E+00  0.00000000000E+00  0.45593999997E+02  0.45594000000E+02  0.51100000000E-03 0.  1.
         11   -1    0    0    0    0 -0.00000000000E+00 -0.00000000000E+00 -0.45593999997E+02  0.45594000000E+02  0.51100000000E-03 0. -1.
    9900012    2    1    2    0    0 -0.11376303802E+02 -0.13299707512E+02  0.66617891682E+01  0.72461496242E+02  0.69999903532E+02 0.  0.
        -12    1    1    2    0    0  0.11376303802E+02  0.13299707512E+02 -0.66617891682E+01  0.18726503758E+02  0.00000000000E+00 0.  1.
         11    1    3    3    0    0 -0.97600316775E+00 -0.99182341177E+01 -0.38306606292E+01  0.10676980440E+02  0.51100000000E-03 0. -1.
        -11    1    3    3    0    0 -0.28527930670E+02 -0.18853931320E+02  0.15315690811E+02  0.37468439250E+02  0.51100000000E-03 0.  1.
         12    1    3    3    0    0  0.18127630036E+02  0.15472457927E+02 -0.48232410131E+01  0.24316076552E+02  0.00000000000E+00 0. -1.
</event>
<event>
 7    1  0.3427886E-013  0.7246152E+02  0.7816164E-02  0.1226708E+00
        -11   -1    0    0    0    0  0.00000000000E+00  0.00000000000E+00  0.45593999997E+02  0.45594000000E+02  0.51100000000E-03 0. -1.
         11   -1    0    0    0    0 -0.00000000000E+00 -0.00000000000E+00 -0.45593999997E+02  0.45594000000E+02  0.51100000000E-03 0.  1.
    9900012    2    1    2    0    0 -0.10916020034E+02 -0.25997402705E+01  0.14992094882E+02  0.72461520037E+02  0.69999934530E+02 0.  0.
        -12    1    1    2    0    0  0.10916020034E+02  0.25997402705E+01 -0.14992094882E+02  0.18726479963E+02  0.00000000000E+00 0.  1.
         11    1    3    3    0    0  0.15977579701E+01 -0.83333553273E+01  0.34847497875E+02  0.35865662547E+02  0.51100000000E-03 0. -1.
        -11    1    3    3    0    0 -0.12959658068E+02  0.10524032545E+02 -0.55385810370E+00  0.16703734831E+02  0.51100000000E-03 0.  1.
        -12    1    3    3    0    0  0.44588006354E+00 -0.47904174878E+01 -0.19301544889E+02  0.19892122658E+02  0.00000000000E+00 0.  1.
</event>
<event>
 7    1  0.2641045E-013  0.7246154E+02  0.7816164E-02  0.1226708E+00
        -11   -1    0    0    0    0  0.00000000000E+00  0.00000000000E+00  0.45593999997E+02  0.45594000000E+02  0.51100000000E-03 0. -1.
         11   -1    0    0    0    0 -0.00000000000E+00 -0.00000000000E+00 -0.45593999997E+02  0.45594000000E+02  0.51100000000E-03 0.  1.
    9900012    2    1    2    0    0 -0.58847811269E+00  0.10107040661E+02  0.15753781351E+02  0.72461542667E+02  0.69999964010E+02 0.  0.
        -12    1    1    2    0    0  0.58847811269E+00 -0.10107040661E+02 -0.15753781351E+02  0.18726457333E+02  0.00000000000E+00 0.  1.
         11    1    3    3    0    0  0.16073829180E+02 -0.14783908413E+02 -0.97698428647E+00  0.21860613693E+02  0.51100000000E-03 0. -1.
        -11    1    3    3    0    0 -0.10792893306E+02 -0.46664238115E+01  0.16751483969E+02  0.20466418166E+02  0.51100000000E-03 0.  1.
        -12    1    3    3    0    0 -0.58694139865E+01  0.29557372885E+02 -0.20718332026E-01  0.30134510808E+02  0.00000000000E+00 0.  1.
</event>
<event>
 7    1  0.2641045E-013  0.7246145E+02  0.7816164E-02  0.1226708E+00
        -11   -1    0    0    0    0  0.00000000000E+00  0.00000000000E+00  0.45593999997E+02  0.45594000000E+02  0.51100000000E-03 0.  1.
         11   -1    0    0    0    0 -0.00000000000E+00 -0.00000000000E+00 -0.45593999997E+02  0.45594000000E+02  0.51100000000E-03 0. -1.
    9900012    2    1    2    0    0  0.34883406520E+01  0.20572169847E+01 -0.18283407240E+02  0.72461450864E+02  0.69999844420E+02 0.  0.
        -12    1    1    2    0    0 -0.34883406520E+01 -0.20572169847E+01  0.18283407240E+02  0.18726549136E+02  0.00000000000E+00 0.  1.
         11    1    3    3    0    0  0.95589047565E+01  0.25982491753E+02 -0.90839155017E+01  0.29137262379E+02  0.51100000000E-03 0. -1.
        -11    1    3    3    0    0 -0.15391296804E+02  0.12675725357E+01 -0.25617370387E+01  0.15654432419E+02  0.51100000000E-03 0.  1.
        -12    1    3    3    0    0  0.93207326996E+01 -0.25192847304E+02 -0.66377546998E+01  0.27669756066E+02  0.00000000000E+00 0.  1.
</event>
<event>
 7    1  0.2641045E-013  0.7246162E+02  0.7816164E-02  0.1226708E+00
        -11   -1    0    0    0    0  0.00000000000E+00  0.00000000000E+00  0.45593999997E+02  0.45594000000E+02  0.51100000000E-03 0. -1.
         11   -1    0    0    0    0 -0.00000000000E+00 -0.00000000000E+00 -0.45593999997E+02  0.45594000000E+02  0.51100000000E-03 0.  1.
    9900012    2    1    2    0    0 -0.31429144961E+01  0.16075273354E+02  0.90766164949E+01  0.72461620427E+02  0.70000065307E+02 0.  0.
        -12    1    1    2    0    0  0.31429144961E+01 -0.16075273354E+02 -0.90766164949E+01  0.18726379573E+02  0.00000000000E+00 0.  1.
         11    1    3    3    0    0  0.25628028738E+02  0.70769894542E+01  0.21533453348E+02  0.34213582831E+02  0.51100000000E-03 0. -1.
        -11    1    3    3    0    0 -0.16789281491E+01 -0.20632058849E+01 -0.82694994998E+01  0.86867853946E+01  0.51100000000E-03 0.  1.
        -12    1    3    3    0    0 -0.27092015085E+02  0.11061489784E+02 -0.41873373534E+01  0.29561252202E+02  0.00000000000E+00 0.  1.
</event>
<event>
 7    1  0.2641045E-013  0.7246156E+02  0.7816164E-02  0.1226708E+00
        -11   -1    0    0    0    0  0.00000000000E+00  0.00000000000E+00  0.45593999997E+02  0.45594000000E+02  0.51100000000E-03 0.  1.
         11   -1    0    0    0    0 -0.00000000000E+00 -0.00000000000E+00 -0.45593999997E+02  0.45594000000E+02  0.51100000000E-03 0. -1.
    9900012    2    1    2    0    0 -0.14974206767E+02 -0.69116468886E+01 -0.88702822566E+01  0.72461557777E+02  0.69999983694E+02 0.  0.
        -12    1    1    2    0    0  0.14974206767E+02  0.69116468886E+01  0.88702822566E+01  0.18726442223E+02  0.00000000000E+00 0.  1.
         11    1    3    3    0    0 -0.22552820510E+02 -0.12030443132E+02 -0.24462162590E+02  0.35380201720E+02  0.51100000000E-03 0. -1.
        -11    1    3    3    0    0 -0.94144970742E+01 -0.20250873484E+01 -0.37757792901E+01  0.10343608821E+02  0.51100000000E-03 0.  1.
        -12    1    3    3    0    0  0.16993110816E+02  0.71438835920E+01  0.19367659623E+02  0.26737747236E+02  0.00000000000E+00 0.  1.
</event>
<event>
 7    1  0.2641045E-013  0.7246154E+02  0.7816164E-02  0.1226708E+00
        -11   -1    0    0    0    0  0.00000000000E+00  0.00000000000E+00  0.45593999997E+02  0.45594000000E+02  0.51100000000E-03 0.  1.
         11   -1    0    0    0    0 -0.00000000000E+00 -0.00000000000E+00 -0.45593999997E+02  0.45594000000E+02  0.51100000000E-03 0. -1.
    9900012    2    1    2    0    0  0.83652023751E+01 -0.12608505738E+02 -0.11033103572E+02  0.72461537383E+02  0.69999957127E+02 0.  0.
        -12    1    1    2    0    0 -0.83652023751E+01  0.12608505738E+02  0.11033103572E+02  0.18726462617E+02  0.00000000000E+00 0.  1.
         11    1    3    3    0    0  0.13494061020E+02  0.96970645359E+01 -0.19676253134E+00  0.16618106366E+02  0.51100000000E-03 0. -1.
        -11    1    3    3    0    0  0.14889169700E+02 -0.29716569484E+02 -0.42738774514E+01  0.33511608511E+02  0.51100000000E-03 0.  1.
        -12    1    3    3    0    0 -0.20018028345E+02  0.74109992099E+01 -0.65624635890E+01  0.22331822507E+02  0.00000000000E+00 0.  1.
</event>
<event>
 7    1  0.2641045E-013  0.7246157E+02  0.7816164E-02  0.1226708E+00
        -11   -1    0    0    0    0  0.00000000000E+00  0.00000000000E+00  0.45593999997E+02  0.45594000000E+02  0.51100000000E-03 0.  1.
         11   -1    0    0    0    0 -0.00000000000E+00 -0.00000000000E+00 -0.45593999997E+02  0.45594000000E+02  0.51100000000E-03 0. -1.
    9900012    2    1    2    0    0 -0.16489951224E+02  0.39103502107E+01 -0.79667901668E+01  0.72461572800E+02  0.70000003264E+02 0.  0.
        -12    1    1    2    0    0  0.16489951224E+02 -0.39103502107E+01  0.79667901668E+01  0.18726427200E+02  0.00000000000E+00 0.  1.
         11    1    3    3    0    0 -0.10178964993E+02 -0.17269241179E+02 -0.13546489212E+02  0.24193912240E+02  0.51100000000E-03 0. -1.
        -11    1    3    3    0    0 -0.13506819134E+02 -0.90829362979E+01 -0.15635980685E+01  0.16351719607E+02  0.51100000000E-03 0.  1.
        -12    1    3    3    0    0  0.71958329039E+01  0.30262527688E+02  0.71432971135E+01  0.31915940953E+02  0.00000000000E+00 0.  1.
</event>
<event>
 7    1  0.2641045E-013  0.7246157E+02  0.7816164E-02  0.1226708E+00
        -11   -1    0    0    0    0  0.00000000000E+00  0.00000000000E+00  0.45593999997E+02  0.45594000000E+02  0.51100000000E-03 0. -1.
         11   -1    0    0    0    0 -0.00000000000E+00 -0.00000000000E+00 -0.45593999997E+02  0.45594000000E+02  0.51100000000E-03 0.  1.
    9900012    2    1    2    0    0  0.12532941674E+02  0.13888740601E+02  0.84114719745E+00  0.72461567583E+02  0.69999996468E+02 0.  0.
        -12    1    1    2    0    0 -0.12532941674E+02 -0.13888740601E+02 -0.84114719745E+00  0.18726432417E+02  0.00000000000E+00 0.  1.
         11    1    3    3    0    0  0.16603514913E+02  0.25827740511E+02  0.86502394963E+01  0.31899459728E+02  0.51100000000E-03 0. -1.
        -11    1    3    3    0    0  0.41313787398E+01  0.99492131318E+01  0.70405801015E+01  0.12869533817E+02  0.51100000000E-03 0.  1.
        -12    1    3    3    0    0 -0.82019519786E+01 -0.21888213042E+02 -0.14849672400E+02  0.27692574038E+02  0.00000000000E+00 0.  1.
</event>
<event>
 7    1  0.2641045E-013  0.7246158E+02  0.7816164E-02  0.1226708E+00
        -11   -1    0    0    0    0  0.00000000000E+00  0.00000000000E+00  0.45593999997E+02  0.45594000000E+02  0.51100000000E-03 0. -1.
         11   -1    0    0    0    0 -0.00000000000E+00 -0.00000000000E+00 -0.45593999997E+02  0.45594000000E+02  0.51100000000E-03 0.  1.
    9900012    2    1    2    0    0  0.74534967008E+01  0.14425156904E+02  0.93294685936E+01  0.72461581522E+02  0.70000014626E+02 0.  0.
        -12    1    1    2    0    0 -0.74534967008E+01 -0.14425156904E+02 -0.93294685936E+01  0.18726418478E+02  0.00000000000E+00 0.  1.
         11    1    3    3    0    0  0.99622544118E+00  0.91742751460E+01 -0.26643227753E+01  0.96051239293E+01  0.51100000000E-03 0. -1.
        -11    1    3    3    0    0 -0.21272528076E+01  0.29362902752E+02 -0.78521633169E+01  0.30469029055E+02  0.51100000000E-03 0.  1.
         12    1    3    3    0    0  0.85845240672E+01 -0.24112020994E+02  0.19845954686E+02  0.32387428537E+02  0.00000000000E+00 0. -1.
</event>
<event>
 7    1  0.2641045E-013  0.7246168E+02  0.7816164E-02  0.1226708E+00
        -11   -1    0    0    0    0  0.00000000000E+00  0.00000000000E+00  0.45593999997E+02  0.45594000000E+02  0.51100000000E-03 0. -1.
         11   -1    0    0    0    0 -0.00000000000E+00 -0.00000000000E+00 -0.45593999997E+02  0.45594000000E+02  0.51100000000E-03 0.  1.
    9900012    2    1    2    0    0  0.10743098386E+02 -0.14917808404E+02 -0.35664805380E+01  0.72461682852E+02  0.70000146627E+02 0.  0.
        -12    1    1    2    0    0 -0.10743098386E+02  0.14917808404E+02  0.35664805380E+01  0.18726317148E+02  0.00000000000E+00 0.  1.
         11    1    3    3    0    0 -0.11256516364E+01 -0.69817224717E+00 -0.48186439927E+01  0.49973859449E+01  0.51100000000E-03 0. -1.
        -11    1    3    3    0    0  0.10558143590E+02  0.92328407702E+01 -0.27179364276E+02  0.30584924186E+02  0.51100000000E-03 0.  1.
         12    1    3    3    0    0  0.13106064320E+01 -0.23452476927E+02  0.28431527730E+02  0.36879372721E+02  0.00000000000E+00 0. -1.
</event>
<event>
 7    1  0.2641045E-013  0.7246143E+02  0.7816164E-02  0.1226708E+00
        -11   -1    0    0    0    0  0.00000000000E+00  0.00000000000E+00  0.45593999997E+02  0.45594000000E+02  0.51100000000E-03 0.  1.
         11   -1    0    0    0    0 -0.00000000000E+00 -0.00000000000E+00 -0.45593999997E+02  0.45594000000E+02  0.51100000000E-03 0. -1.
    9900012    2    1    2    0    0 -0.18069926125E+02  0.46795374125E+01 -0.15047190132E+01  0.72461428507E+02  0.69999815296E+02 0.  0.
        -12    1    1    2    0    0  0.18069926125E+02 -0.46795374125E+01  0.15047190132E+01  0.18726571493E+02  0.00000000000E+00 0.  1.
         11    1    3    3    0    0 -0.27832819171E+02  0.17621699355E+01 -0.78311540062E+01  0.28967189012E+02  0.51100000000E-03 0. -1.
        -11    1    3    3    0    0 -0.15505843718E+02 -0.12645687188E+01 -0.36965506007E+01  0.15990459970E+02  0.51100000000E-03 0.  1.
        -12    1    3    3    0    0  0.25268736764E+02  0.41819361958E+01  0.10022985594E+02  0.27503779526E+02  0.00000000000E+00 0.  1.
</event>
<event>
 7    1  0.2641045E-013  0.7246169E+02  0.7816164E-02  0.1226708E+00
        -11   -1    0    0    0    0  0.00000000000E+00  0.00000000000E+00  0.45593999997E+02  0.45594000000E+02  0.51100000000E-03 0.  1.
         11   -1    0    0    0    0 -0.00000000000E+00 -0.00000000000E+00 -0.45593999997E+02  0.45594000000E+02  0.51100000000E-03 0. -1.
    9900012    2    1    2    0    0 -0.43346402554E+01  0.18085459166E+02 -0.21913173702E+01  0.72461686663E+02  0.70000151591E+02 0.  0.
        -12    1    1    2    0    0  0.43346402554E+01 -0.18085459166E+02  0.21913173702E+01  0.18726313337E+02  0.00000000000E+00 0.  1.
         11    1    3    3    0    0  0.22289186122E+02  0.57536366083E+00 -0.10059779422E+02  0.24460948952E+02  0.51100000000E-03 0. -1.
        -11    1    3    3    0    0 -0.14179096571E+01 -0.82642747394E+00  0.15761686891E+02  0.15846899510E+02  0.51100000000E-03 0.  1.
        -12    1    3    3    0    0 -0.25205916721E+02  0.18336522979E+02 -0.78932248397E+01  0.32153838201E+02  0.00000000000E+00 0.  1.
</event>
<event>
 7    1  0.2641045E-013  0.7246162E+02  0.7816164E-02  0.1226708E+00
        -11   -1    0    0    0    0  0.00000000000E+00  0.00000000000E+00  0.45593999997E+02  0.45594000000E+02  0.51100000000E-03 0. -1.
         11   -1    0    0    0    0 -0.00000000000E+00 -0.00000000000E+00 -0.45593999997E+02  0.45594000000E+02  0.51100000000E-03 0.  1.
    9900012    2    1    2    0    0  0.18366702517E+02 -0.24976075534E+01 -0.26652614233E+01  0.72461616920E+02  0.70000060738E+02 0.  0.
        -12    1    1    2    0    0 -0.18366702517E+02  0.24976075534E+01  0.26652614233E+01  0.18726383080E+02  0.00000000000E+00 0.  1.
         11    1    3    3    0    0  0.98432664165E+01 -0.77534997199E+00 -0.32139387174E+01  0.10383663307E+02  0.51100000000E-03 0. -1.
        -11    1    3    3    0    0  0.25999054048E+02 -0.14118986658E+02 -0.17229424197E+02  0.34236671188E+02  0.51100000000E-03 0.  1.
         12    1    3    3    0    0 -0.17475617948E+02  0.12396729077E+02  0.17778101491E+02  0.27841282425E+02  0.00000000000E+00 0. -1.
</event>
<event>
 7    1  0.2641045E-013  0.7246153E+02  0.7816164E-02  0.1226708E+00
        -11   -1    0    0    0    0  0.00000000000E+00  0.00000000000E+00  0.45593999997E+02  0.45594000000E+02  0.51100000000E-03 0. -1.
         11   -1    0    0    0    0 -0.00000000000E+00 -0.00000000000E+00 -0.45593999997E+02  0.45594000000E+02  0.51100000000E-03 0.  1.
    9900012    2    1    2    0    0  0.12929245191E+02  0.13295571566E+02  0.25967448541E+01  0.72461529742E+02  0.69999947173E+02 0.  0.
        -12    1    1    2    0    0 -0.12929245191E+02 -0.13295571566E+02 -0.25967448541E+01  0.18726470258E+02  0.00000000000E+00 0.  1.
         11    1    3    3    0    0  0.18012606880E+02  0.53356507952E+01  0.15609217524E+01  0.18850985465E+02  0.51100000000E-03 0. -1.
        -11    1    3    3    0    0  0.20868051468E+02 -0.35042262017E+01 -0.96984820893E+01  0.23276935546E+02  0.51100000000E-03 0.  1.
         12    1    3    3    0    0 -0.25951413157E+02  0.11464146973E+02  0.10734305191E+02  0.30333608730E+02  0.00000000000E+00 0. -1.
</event>
<event>
 7    1  0.2641045E-013  0.7246157E+02  0.7816164E-02  0.1226708E+00
        -11   -1    0    0    0    0  0.00000000000E+00  0.00000000000E+00  0.45593999997E+02  0.45594000000E+02  0.51100000000E-03 0.  1.
         11   -1    0    0    0    0 -0.00000000000E+00 -0.00000000000E+00 -0.45593999997E+02  0.45594000000E+02  0.51100000000E-03 0. -1.
    9900012    2    1    2    0    0  0.96144586430E+01 -0.37710480069E+01 -0.15621155755E+02  0.72461571478E+02  0.70000001542E+02 0.  0.
        -12    1    1    2    0    0 -0.96144586430E+01  0.37710480069E+01  0.15621155755E+02  0.18726428522E+02  0.00000000000E+00 0.  1.
         11    1    3    3    0    0 -0.64158565568E+00 -0.53520210444E+01 -0.11924784245E+02  0.13086490781E+02  0.51100000000E-03 0. -1.
        -11    1    3    3    0    0  0.11840504844E+00  0.28880490473E+02 -0.79257102455E+01  0.29948516372E+02  0.51100000000E-03 0.  1.
         12    1    3    3    0    0  0.10137639250E+02 -0.27299517436E+02  0.42293387355E+01  0.29426564324E+02  0.00000000000E+00 0. -1.
</event>
<event>
 7    1  0.2641045E-013  0.7246155E+02  0.7816164E-02  0.1226708E+00
        -11   -1    0    0    0    0  0.00000000000E+00  0.00000000000E+00  0.45593999997E+02  0.45594000000E+02  0.51100000000E-03 0.  1.
         11   -1    0    0    0    0 -0.00000000000E+00 -0.00000000000E+00 -0.45593999997E+02  0.45594000000E+02  0.51100000000E-03 0. -1.
    9900012    2    1    2    0    0  0.94049630980E+01  0.14383118423E+02 -0.74399363469E+01  0.72461546003E+02  0.69999968356E+02 0.  0.
        -12    1    1    2    0    0 -0.94049630980E+01 -0.14383118423E+02  0.74399363469E+01  0.18726453997E+02  0.00000000000E+00 0.  1.
         11    1    3    3    0    0 -0.81133643756E+01  0.59655236293E+01  0.10072695873E+02  0.14243361825E+02  0.51100000000E-03 0. -1.
        -11    1    3    3    0    0  0.16084290586E+02  0.14439215224E+02  0.14229543143E+02  0.25878084130E+02  0.51100000000E-03 0.  1.
         12    1    3    3    0    0  0.14340368874E+01 -0.60216204296E+01 -0.31742175362E+02  0.32340100048E+02  0.00000000000E+00 0. -1.
</event>
<event>
 7    1  0.2641045E-013  0.7246158E+02  0.7816164E-02  0.1226708E+00
        -11   -1    0    0    0    0  0.00000000000E+00  0.00000000000E+00  0.45593999997E+02  0.45594000000E+02  0.51100000000E-03 0.  1.
         11   -1    0    0    0    0 -0.00000000000E+00 -0.00000000000E+00 -0.45593999997E+02  0.45594000000E+02  0.51100000000E-03 0. -1.
    9900012    2    1    2    0    0 -0.12686307812E+02  0.36485117778E+00 -0.13769651640E+02  0.72461579397E+02  0.70000011858E+02 0.  0.
        -12    1    1    2    0    0  0.12686307812E+02 -0.36485117778E+00  0.13769651640E+02  0.18726420603E+02  0.00000000000E+00 0.  1.
         11    1    3    3    0    0 -0.10358119899E+02  0.84364186770E+01  0.17429139853E+02  0.21959934522E+02  0.51100000000E-03 0. -1.
        -11    1    3    3    0    0 -0.59895383601E+01  0.15095785241E+02 -0.13484922405E+02  0.21109249971E+02  0.51100000000E-03 0.  1.
        -12    1    3    3    0    0  0.36613504464E+01 -0.23167352741E+02 -0.17713869089E+02  0.29392394904E+02  0.00000000000E+00 0.  1.
</event>
<event>
 7    1  0.2641045E-013  0.7246147E+02  0.7816164E-02  0.1226708E+00
        -11   -1    0    0    0    0  0.00000000000E+00  0.00000000000E+00  0.45593999997E+02  0.45594000000E+02  0.51100000000E-03 0.  1.
         11   -1    0    0    0    0 -0.00000000000E+00 -0.00000000000E+00 -0.45593999997E+02  0.45594000000E+02  0.51100000000E-03 0. -1.
    9900012    2    1    2    0    0 -0.99281121751E+01 -0.14950936848E+02  0.53465049284E+01  0.72461466980E+02  0.69999865414E+02 0.  0.
        -12    1    1    2    0    0  0.99281121751E+01  0.14950936848E+02 -0.53465049284E+01  0.18726533020E+02  0.00000000000E+00 0.  1.
         11    1    3    3    0    0 -0.15958954908E+02 -0.63264790678E+01  0.22645527359E+02  0.28417116123E+02  0.51100000000E-03 0. -1.
        -11    1    3    3    0    0 -0.12477534216E+02 -0.15494802528E+02 -0.41456597375E+01  0.20321522098E+02  0.51100000000E-03 0.  1.
        -12    1    3    3    0    0  0.18508376948E+02  0.68703447478E+01 -0.13153362693E+02  0.23722828759E+02  0.00000000000E+00 0.  1.
</event>
<event>
 7    1  0.2641045E-013  0.7246159E+02  0.7816164E-02  0.1226708E+00
        -11   -1    0    0    0    0  0.00000000000E+00  0.00000000000E+00  0.45593999997E+02  0.45594000000E+02  0.51100000000E-03 0. -1.
         11   -1    0    0    0    0 -0.00000000000E+00 -0.00000000000E+00 -0.45593999997E+02  0.45594000000E+02  0.51100000000E-03 0.  1.
    9900012    2    1    2    0    0  0.63081595984E+01 -0.22093135706E+01  0.17492986028E+02  0.72461588060E+02  0.70000023143E+02 0.  0.
        -12    1    1    2    0    0 -0.63081595984E+01  0.22093135706E+01 -0.17492986028E+02  0.18726411940E+02  0.00000000000E+00 0.  1.
         11    1    3    3    0    0  0.87473540393E+01 -0.86575942933E+01  0.80872894684E+01  0.14726655861E+02  0.51100000000E-03 0. -1.
        -11    1    3    3    0    0 -0.86558563040E+01 -0.18217423747E+02 -0.12867764415E+02  0.23924417185E+02  0.51100000000E-03 0.  1.
        -12    1    3    3    0    0  0.62166618630E+01  0.24665704470E+02  0.22273460975E+02  0.33810515014E+02  0.00000000000E+00 0.  1.
</event>
<event>
 7    1  0.2641045E-013  0.7246160E+02  0.7816164E-02  0.1226708E+00
        -11   -1    0    0    0    0  0.00000000000E+00  0.00000000000E+00  0.45593999997E+02  0.45594000000E+02  0.51100000000E-03 0.  1.
         11   -1    0    0    0    0 -0.00000000000E+00 -0.00000000000E+00 -0.45593999997E+02  0.45594000000E+02  0.51100000000E-03 0. -1.
    9900012    2    1    2    0    0 -0.18276811801E+02  0.27762256696E+01  0.29881205545E+01  0.72461597702E+02  0.70000035703E+02 0.  0.
        -12    1    1    2    0    0  0.18276811801E+02 -0.27762256696E+01 -0.29881205545E+01  0.18726402298E+02  0.00000000000E+00 0.  1.
         11    1    3    3    0    0 -0.22375719817E+02  0.17321565279E+02 -0.24437983568E+02  0.37388828574E+02  0.51100000000E-03 0. -1.
        -11    1    3    3    0    0 -0.16644166100E+00 -0.76171841164E+00 -0.20835281399E+01  0.22246364952E+01  0.51100000000E-03 0.  1.
        -12    1    3    3    0    0  0.42653496767E+01 -0.13783621198E+02  0.29509632262E+02  0.32848132632E+02  0.00000000000E+00 0.  1.
</event>
<event>
 7    1  0.2641045E-013  0.7246136E+02  0.7816164E-02  0.1226709E+00
        -11   -1    0    0    0    0  0.00000000000E+00  0.00000000000E+00  0.45593999997E+02  0.45594000000E+02  0.51100000000E-03 0.  1.
         11   -1    0    0    0    0 -0.00000000000E+00 -0.00000000000E+00 -0.45593999997E+02  0.45594000000E+02  0.51100000000E-03 0. -1.
    9900012    2    1    2    0    0  0.12695573300E+02 -0.13608276661E+02  0.20795010965E+01  0.72461358553E+02  0.69999724167E+02 0.  0.
        -12    1    1    2    0    0 -0.12695573300E+02  0.13608276661E+02 -0.20795010965E+01  0.18726641447E+02  0.00000000000E+00 0.  1.
         11    1    3    3    0    0 -0.86231896567E+01 -0.17522143833E+00  0.40562342465E+01  0.95311667140E+01  0.51100000000E-03 0. -1.
        -11    1    3    3    0    0 -0.15955223721E+02 -0.19433983755E+02 -0.92730186555E+00  0.25161652919E+02  0.51100000000E-03 0.  1.
         12    1    3    3    0    0  0.37273986678E+02  0.60009285329E+01 -0.10494312845E+01  0.37768538920E+02  0.00000000000E+00 0. -1.
</event>
<event>
 7    1  0.2641045E-013  0.7246155E+02  0.7816164E-02  0.1226708E+00
        -11   -1    0    0    0    0  0.00000000000E+00  0.00000000000E+00  0.45593999997E+02  0.45594000000E+02  0.51100000000E-03 0. -1.
         11   -1    0    0    0    0 -0.00000000000E+00 -0.00000000000E+00 -0.45593999997E+02  0.45594000000E+02  0.51100000000E-03 0.  1.
    9900012    2    1    2    0    0  0.10367861932E+02  0.10938361905E+02  0.11114837254E+02  0.72461550006E+02  0.69999973571E+02 0.  0.
        -12    1    1    2    0    0 -0.10367861932E+02 -0.10938361905E+02 -0.11114837254E+02  0.18726449994E+02  0.00000000000E+00 0.  1.
         11    1    3    3    0    0 -0.23513853127E+02  0.12667609597E+02  0.44006206506E+01  0.27069079854E+02  0.51100000000E-03 0. -1.
        -11    1    3    3    0    0 -0.49384919923E+01  0.28853881583E+01  0.17717417786E+01  0.59877572741E+01  0.51100000000E-03 0.  1.
        -12    1    3    3    0    0  0.38820207052E+02 -0.46146358503E+01  0.49424748243E+01  0.39404712878E+02  0.00000000000E+00 0.  1.
</event>
<event>
 7    1  0.2641045E-013  0.7246155E+02  0.7816164E-02  0.1226708E+00
        -11   -1    0    0    0    0  0.00000000000E+00  0.00000000000E+00  0.45593999997E+02  0.45594000000E+02  0.51100000000E-03 0. -1.
         11   -1    0    0    0    0 -0.00000000000E+00 -0.00000000000E+00 -0.45593999997E+02  0.45594000000E+02  0.51100000000E-03 0.  1.
    9900012    2    1    2    0    0  0.15689627748E+02 -0.10188326524E+02  0.84467665224E+00  0.72461550927E+02  0.69999974771E+02 0.  0.
        -12    1    1    2    0    0 -0.15689627748E+02  0.10188326524E+02 -0.84467665224E+00  0.18726449073E+02  0.00000000000E+00 0.  1.
         11    1    3    3    0    0 -0.62115999466E+01 -0.20365228550E+02 -0.41195776560E+01  0.21686341972E+02  0.51100000000E-03 0. -1.
        -11    1    3    3    0    0  0.53431033062E+01 -0.11378683320E+02 -0.13086699257E+02  0.18146208550E+02  0.51100000000E-03 0.  1.
        -12    1    3    3    0    0  0.16558124388E+02  0.21555585346E+02  0.18050953565E+02  0.32629000406E+02  0.00000000000E+00 0.  1.
</event>
<event>
 7    1  0.2641045E-013  0.7246156E+02  0.7816164E-02  0.1226708E+00
        -11   -1    0    0    0    0  0.00000000000E+00  0.00000000000E+00  0.45593999997E+02  0.45594000000E+02  0.51100000000E-03 0. -1.
         11   -1    0    0    0    0 -0.00000000000E+00 -0.00000000000E+00 -0.45593999997E+02  0.45594000000E+02  0.51100000000E-03 0.  1.
    9900012    2    1    2    0    0  0.12461985368E+02  0.21561066558E+01 -0.13810493501E+02  0.72461558642E+02  0.69999984820E+02 0.  0.
        -12    1    1    2    0    0 -0.12461985368E+02 -0.21561066558E+01  0.13810493501E+02  0.18726441358E+02  0.00000000000E+00 0.  1.
         11    1    3    3    0    0  0.22353330455E+01 -0.96724007273E+01 -0.58954171834E+01  0.11545908093E+02  0.51100000000E-03 0. -1.
        -11    1    3    3    0    0 -0.20308559062E+01 -0.23110208566E+02 -0.80855321024E+00  0.23213355515E+02  0.51100000000E-03 0.  1.
         12    1    3    3    0    0  0.12257508228E+02  0.34938715950E+02 -0.71065231071E+01  0.37702295034E+02  0.00000000000E+00 0. -1.
</event>
