<event>
 7    1  0.5373252E-013  0.5052886E+02  0.7816164E-02  0.1300439E+00
        -11   -1    0    0    0    0  0.00000000000E+00  0.00000000000E+00  0.45593999997E+02  0.45594000000E+02  0.51100000000E-03 0.  1.
         11   -1    0    0    0    0 -0.00000000000E+00 -0.00000000000E+00 -0.45593999997E+02  0.45594000000E+02  0.51100000000E-03 0. -1.
    9900012    2    1    2    0    0  0.25318001570E+02  0.84771578669E+01 -0.30664352153E+02  0.50528857093E+02  0.29999991619E+02 0.  0.
        -12    1    1    2    0    0 -0.25318001570E+02 -0.84771578669E+01  0.30664352153E+02  0.40659142907E+02  0.00000000000E+00 0.  1.
         11    1    3    3    0    0  0.14803968353E+02  0.88295068250E+01 -0.10774503918E+02  0.20327508571E+02  0.51100000000E-03 0. -1.
        -11    1    3    3    0    0  0.88671595302E+01  0.86381308338E+01 -0.64794435252E+01  0.13972365981E+02  0.51100000000E-03 0.  1.
         12    1    3    3    0    0  0.16468736863E+01 -0.89904797918E+01 -0.13410404710E+02  0.16228982541E+02  0.00000000000E+00 0. -1.
</event>
<event>
 7    1  0.5373252E-013  0.5052885E+02  0.7816164E-02  0.1300439E+00
        -11   -1    0    0    0    0  0.00000000000E+00  0.00000000000E+00  0.45593999997E+02  0.45594000000E+02  0.51100000000E-03 0. -1.
         11   -1    0    0    0    0 -0.00000000000E+00 -0.00000000000E+00 -0.45593999997E+02  0.45594000000E+02  0.51100000000E-03 0.  1.
    9900012    2    1    2    0    0  0.14287736687E+02 -0.25950196305E+02  0.27849847065E+02  0.50528854787E+02  0.29999984611E+02 0.  0.
        -12    1    1    2    0    0 -0.14287736687E+02  0.25950196305E+02 -0.27849847065E+02  0.40659145213E+02  0.00000000000E+00 0.  1.
         11    1    3    3    0    0  0.39269009700E+01 -0.90522098330E+01  0.17823479466E+02  0.20372517631E+02  0.51100000000E-03 0. -1.
        -11    1    3    3    0    0 -0.35750671014E+01  0.60898181795E+00  0.65839763215E+01  0.75166952910E+01  0.51100000000E-03 0.  1.
         12    1    3    3    0    0  0.13935902818E+02 -0.17506968290E+02  0.34423912775E+01  0.22639641865E+02  0.00000000000E+00 0. -1.
</event>
<event>
 7    1  0.5373252E-013  0.5052886E+02  0.7816164E-02  0.1300439E+00
        -11   -1    0    0    0    0  0.00000000000E+00  0.00000000000E+00  0.45593999997E+02  0.45594000000E+02  0.51100000000E-03 0.  1.
         11   -1    0    0    0    0 -0.00000000000E+00 -0.00000000000E+00 -0.45593999997E+02  0.45594000000E+02  0.51100000000E-03 0. -1.
    9900012    2    1    2    0    0 -0.38836143364E+02 -0.11914352531E+02 -0.17227954883E+01  0.50528857708E+02  0.29999993490E+02 0.  0.
        -12    1    1    2    0    0  0.38836143364E+02  0.11914352531E+02  0.17227954883E+01  0.40659142292E+02  0.00000000000E+00 0.  1.
         11    1    3    3    0    0 -0.15560378181E+02 -0.33089445080E+01  0.14559870341E+01  0.15974804581E+02  0.51100000000E-03 0. -1.
        -11    1    3    3    0    0 -0.16732829233E+02 -0.40042364365E+00 -0.12202551312E+02  0.20713526306E+02  0.51100000000E-03 0.  1.
        -12    1    3    3    0    0 -0.65429359488E+01 -0.82049843798E+01  0.90237687901E+01  0.13840526821E+02  0.00000000000E+00 0.  1.
</event>
<event>
 7    1  0.5373252E-013  0.5052885E+02  0.7816164E-02  0.1300439E+00
        -11   -1    0    0    0    0  0.00000000000E+00  0.00000000000E+00  0.45593999997E+02  0.45594000000E+02  0.51100000000E-03 0.  1.
         11   -1    0    0    0    0 -0.00000000000E+00 -0.00000000000E+00 -0.45593999997E+02  0.45594000000E+02  0.51100000000E-03 0. -1.
    9900012    2    1    2    0    0  0.44649269469E+01  0.11318043394E+01 -0.40397399983E+02  0.50528849995E+02  0.29999970046E+02 0.  0.
        -12    1    1    2    0    0 -0.44649269469E+01 -0.11318043394E+01  0.40397399983E+02  0.40659150005E+02  0.00000000000E+00 0.  1.
         11    1    3    3    0    0  0.28603398644E+01 -0.33523493557E+01 -0.11522846926E+02  0.12336765860E+02  0.51100000000E-03 0. -1.
        -11    1    3    3    0    0 -0.64255478053E+01  0.77474099142E+01 -0.27666376648E+02  0.29440421568E+02  0.51100000000E-03 0.  1.
         12    1    3    3    0    0  0.80301348878E+01 -0.32632562191E+01 -0.12081764093E+01  0.87516625680E+01  0.00000000000E+00 0. -1.
</event>
<event>
 7    1  0.5373252E-013  0.5052887E+02  0.7816164E-02  0.1300439E+00
        -11   -1    0    0    0    0  0.00000000000E+00  0.00000000000E+00  0.45593999997E+02  0.45594000000E+02  0.51100000000E-03 0.  1.
         11   -1    0    0    0    0 -0.00000000000E+00 -0.00000000000E+00 -0.45593999997E+02  0.45594000000E+02  0.51100000000E-03 0. -1.
    9900012    2    1    2    0    0  0.20171869769E+01  0.80023440667E+01 -0.39812793993E+02  0.50528866717E+02  0.30000020872E+02 0.  0.
        -12    1    1    2    0    0 -0.20171869769E+01 -0.80023440667E+01  0.39812793993E+02  0.40659133283E+02  0.00000000000E+00 0.  1.
         11    1    3    3    0    0  0.42977540542E+01  0.12439135691E+02 -0.17730901637E+02  0.22081387179E+02  0.51100000000E-03 0. -1.
        -11    1    3    3    0    0 -0.58919124693E+01  0.34622647627E+01 -0.17145477883E+02  0.18457229530E+02  0.51100000000E-03 0.  1.
         12    1    3    3    0    0  0.36113453920E+01 -0.78990563875E+01 -0.49364144730E+01  0.99902500070E+01  0.00000000000E+00 0. -1.
</event>
<event>
 7    1  0.5373252E-013  0.5052886E+02  0.7816164E-02  0.1300439E+00
        -11   -1    0    0    0    0  0.00000000000E+00  0.00000000000E+00  0.45593999997E+02  0.45594000000E+02  0.51100000000E-03 0. -1.
         11   -1    0    0    0    0 -0.00000000000E+00 -0.00000000000E+00 -0.45593999997E+02  0.45594000000E+02  0.51100000000E-03 0.  1.
    9900012    2    1    2    0    0  0.15251532878E+02  0.37635646739E+02 -0.20284977920E+01  0.50528856332E+02  0.29999989305E+02 0.  0.
        -12    1    1    2    0    0 -0.15251532878E+02 -0.37635646739E+02  0.20284977920E+01  0.40659143668E+02  0.00000000000E+00 0.  1.
         11    1    3    3    0    0  0.21756622116E+01  0.62549132938E+01  0.86203234902E+00  0.66783640514E+01  0.51100000000E-03 0. -1.
        -11    1    3    3    0    0 -0.86949580552E+01  0.83031836954E+01 -0.46035690857E+00  0.12031503805E+02  0.51100000000E-03 0.  1.
        -12    1    3    3    0    0  0.21770828721E+02  0.23077549750E+02 -0.24301732325E+01  0.31818988475E+02  0.00000000000E+00 0.  1.
</event>
<event>
 7    1  0.5373252E-013  0.5052887E+02  0.7816164E-02  0.1300439E+00
        -11   -1    0    0    0    0  0.00000000000E+00  0.00000000000E+00  0.45593999997E+02  0.45594000000E+02  0.51100000000E-03 0.  1.
         11   -1    0    0    0    0 -0.00000000000E+00 -0.00000000000E+00 -0.45593999997E+02  0.45594000000E+02  0.51100000000E-03 0. -1.
    9900012    2    1    2    0    0 -0.27401404862E+02  0.93398178260E+01 -0.28549880185E+02  0.50528870103E+02  0.30000031164E+02 0.  0.
        -12    1    1    2    0    0  0.27401404862E+02 -0.93398178260E+01  0.28549880185E+02  0.40659129897E+02  0.00000000000E+00 0.  1.
         11    1    3    3    0    0 -0.90195917919E+01 -0.57328326454E+01  0.18713507342E+01  0.10849901385E+02  0.51100000000E-03 0. -1.
        -11    1    3    3    0    0 -0.33583597684E+01  0.59743918168E+01 -0.39484265029E+01  0.79096150364E+01  0.51100000000E-03 0.  1.
        -12    1    3    3    0    0 -0.15023453301E+02  0.90982586545E+01 -0.26472804417E+02  0.31769353681E+02  0.00000000000E+00 0.  1.
</event>
<event>
 7    1  0.5373252E-013  0.5052886E+02  0.7816164E-02  0.1300439E+00
        -11   -1    0    0    0    0  0.00000000000E+00  0.00000000000E+00  0.45593999997E+02  0.45594000000E+02  0.51100000000E-03 0. -1.
         11   -1    0    0    0    0 -0.00000000000E+00 -0.00000000000E+00 -0.45593999997E+02  0.45594000000E+02  0.51100000000E-03 0.  1.
    9900012    2    1    2    0    0  0.35597338350E+02 -0.19502274122E+02 -0.23782950930E+01  0.50528862268E+02  0.30000007351E+02 0.  0.
        -12    1    1    2    0    0 -0.35597338350E+02  0.19502274122E+02  0.23782950930E+01  0.40659137732E+02  0.00000000000E+00 0.  1.
         11    1    3    3    0    0  0.14859830696E+02 -0.13191640552E+02 -0.13255794921E+01  0.19914595402E+02  0.51100000000E-03 0. -1.
        -11    1    3    3    0    0 -0.10078780327E+00 -0.91529142254E+01 -0.26304431166E+01  0.95239292443E+01  0.51100000000E-03 0.  1.
        -12    1    3    3    0    0  0.20838295458E+02  0.28422806562E+01  0.15777275157E+01  0.21090337622E+02  0.00000000000E+00 0.  1.
</event>
<event>
 7    1  0.5373252E-013  0.5052886E+02  0.7816164E-02  0.1300439E+00
        -11   -1    0    0    0    0  0.00000000000E+00  0.00000000000E+00  0.45593999997E+02  0.45594000000E+02  0.51100000000E-03 0.  1.
         11   -1    0    0    0    0 -0.00000000000E+00 -0.00000000000E+00 -0.45593999997E+02  0.45594000000E+02  0.51100000000E-03 0. -1.
    9900012    2    1    2    0    0  0.29206916712E+02  0.78353513047E+00 -0.28275563627E+02  0.50528863147E+02  0.30000010023E+02 0.  0.
        -12    1    1    2    0    0 -0.29206916712E+02 -0.78353513047E+00  0.28275563627E+02  0.40659136853E+02  0.00000000000E+00 0.  1.
         11    1    3    3    0    0  0.93883380686E+01  0.12095912856E+01 -0.11235885508E+02  0.14691804729E+02  0.51100000000E-03 0. -1.
        -11    1    3    3    0    0  0.35219615671E+01  0.10757333700E+02 -0.91529715319E+01  0.14556831033E+02  0.51100000000E-03 0.  1.
        -12    1    3    3    0    0  0.16296617077E+02 -0.11183389855E+02 -0.78867065873E+01  0.21280227386E+02  0.00000000000E+00 0.  1.
</event>
<event>
 7    1  0.5373252E-013  0.5052885E+02  0.7816164E-02  0.1300439E+00
        -11   -1    0    0    0    0  0.00000000000E+00  0.00000000000E+00  0.45593999997E+02  0.45594000000E+02  0.51100000000E-03 0. -1.
         11   -1    0    0    0    0 -0.00000000000E+00 -0.00000000000E+00 -0.45593999997E+02  0.45594000000E+02  0.51100000000E-03 0.  1.
    9900012    2    1    2    0    0 -0.11867039675E+02  0.38485014865E+02 -0.55896097418E+01  0.50528846826E+02  0.29999960412E+02 0.  0.
        -12    1    1    2    0    0  0.11867039675E+02 -0.38485014865E+02  0.55896097418E+01  0.40659153174E+02  0.00000000000E+00 0.  1.
         11    1    3    3    0    0 -0.81943887746E+01  0.20458004953E+02 -0.17288320037E+02  0.28010069333E+02  0.51100000000E-03 0. -1.
        -11    1    3    3    0    0  0.69902714851E+00  0.53470076022E+01  0.12988891133E+01  0.55467325916E+01  0.51100000000E-03 0.  1.
        -12    1    3    3    0    0 -0.43716780487E+01  0.12680002309E+02  0.10399821182E+02  0.16972044901E+02  0.00000000000E+00 0.  1.
</event>
<event>
 7    1  0.5373252E-013  0.5052889E+02  0.7816164E-02  0.1300439E+00
        -11   -1    0    0    0    0  0.00000000000E+00  0.00000000000E+00  0.45593999997E+02  0.45594000000E+02  0.51100000000E-03 0.  1.
         11   -1    0    0    0    0 -0.00000000000E+00 -0.00000000000E+00 -0.45593999997E+02  0.45594000000E+02  0.51100000000E-03 0. -1.
    9900012    2    1    2    0    0 -0.15254292920E+01 -0.22299407114E+02 -0.33964292026E+02  0.50528885094E+02  0.30000076731E+02 0.  0.
        -12    1    1    2    0    0  0.15254292920E+01  0.22299407114E+02  0.33964292026E+02  0.40659114906E+02  0.00000000000E+00 0.  1.
         11    1    3    3    0    0  0.25425597085E+01  0.32959661338E+01 -0.55172356093E+01  0.69114319541E+01  0.51100000000E-03 0. -1.
        -11    1    3    3    0    0  0.65092955219E+00 -0.67529026971E+00 -0.14773956929E+02  0.14803699870E+02  0.51100000000E-03 0.  1.
        -12    1    3    3    0    0 -0.47189185527E+01 -0.24920082978E+02 -0.13673099487E+02  0.28813753270E+02  0.00000000000E+00 0.  1.
</event>
<event>
 7    1  0.5373252E-013  0.5052888E+02  0.7816164E-02  0.1300439E+00
        -11   -1    0    0    0    0  0.00000000000E+00  0.00000000000E+00  0.45593999997E+02  0.45594000000E+02  0.51100000000E-03 0. -1.
         11   -1    0    0    0    0 -0.00000000000E+00 -0.00000000000E+00 -0.45593999997E+02  0.45594000000E+02  0.51100000000E-03 0.  1.
    9900012    2    1    2    0    0  0.39699611213E+02 -0.87565413566E+01  0.65440632988E+00  0.50528875629E+02  0.30000047963E+02 0.  0.
        -12    1    1    2    0    0 -0.39699611213E+02  0.87565413566E+01 -0.65440632988E+00  0.40659124371E+02  0.00000000000E+00 0.  1.
         11    1    3    3    0    0  0.11851441557E+02 -0.11956076904E+02 -0.28445761977E+01  0.17073255574E+02  0.51100000000E-03 0. -1.
        -11    1    3    3    0    0  0.20770734170E+02 -0.17149169148E+01 -0.49143223526E+01  0.21412961085E+02  0.51100000000E-03 0.  1.
         12    1    3    3    0    0  0.70774354859E+01  0.49144524619E+01  0.84133048802E+01  0.12042658970E+02  0.00000000000E+00 0. -1.
</event>
<event>
 7    1  0.5373252E-013  0.5052886E+02  0.7816164E-02  0.1300439E+00
        -11   -1    0    0    0    0  0.00000000000E+00  0.00000000000E+00  0.45593999997E+02  0.45594000000E+02  0.51100000000E-03 0.  1.
         11   -1    0    0    0    0 -0.00000000000E+00 -0.00000000000E+00 -0.45593999997E+02  0.45594000000E+02  0.51100000000E-03 0. -1.
    9900012    2    1    2    0    0 -0.37275114723E+01  0.39952634819E+02 -0.65618639740E+01  0.50528862902E+02  0.30000009276E+02 0.  0.
        -12    1    1    2    0    0  0.37275114723E+01 -0.39952634819E+02  0.65618639740E+01  0.40659137098E+02  0.00000000000E+00 0.  1.
         11    1    3    3    0    0 -0.65687939317E+01  0.17776348762E+02 -0.23136323288E+01  0.19091896811E+02  0.51100000000E-03 0.  1.
        -11    1    3    3    0    0 -0.62693353217E+01  0.25906819979E+01 -0.68974068091E+01  0.96742141563E+01  0.51100000000E-03 0. -1.
         12    1    3    3    0    0  0.91106177811E+01  0.19585604059E+02  0.26491751639E+01  0.21762751935E+02  0.00000000000E+00 0. -1.
</event>
<event>
 7    1  0.5373252E-013  0.5052886E+02  0.7816164E-02  0.1300439E+00
        -11   -1    0    0    0    0  0.00000000000E+00  0.00000000000E+00  0.45593999997E+02  0.45594000000E+02  0.51100000000E-03 0.  1.
         11   -1    0    0    0    0 -0.00000000000E+00 -0.00000000000E+00 -0.45593999997E+02  0.45594000000E+02  0.51100000000E-03 0. -1.
    9900012    2    1    2    0    0  0.22741332526E+02 -0.43758531175E+01 -0.33419294873E+02  0.50528861232E+02  0.30000004201E+02 0.  0.
        -12    1    1    2    0    0 -0.22741332526E+02  0.43758531175E+01  0.33419294873E+02  0.40659138768E+02  0.00000000000E+00 0.  1.
         11    1    3    3    0    0  0.16083086681E+02 -0.94617629380E+01 -0.22582080864E+02  0.29294043959E+02  0.51100000000E-03 0.  1.
        -11    1    3    3    0    0 -0.41755622598E+01  0.38554333974E+00 -0.80866304059E+01  0.91092016903E+01  0.51100000000E-03 0. -1.
        -12    1    3    3    0    0  0.10833808105E+02  0.47003664808E+01 -0.27505836033E+01  0.12125615583E+02  0.00000000000E+00 0.  1.
</event>
<event>
 7    1  0.5373252E-013  0.5052887E+02  0.7816164E-02  0.1300439E+00
        -11   -1    0    0    0    0  0.00000000000E+00  0.00000000000E+00  0.45593999997E+02  0.45594000000E+02  0.51100000000E-03 0. -1.
         11   -1    0    0    0    0 -0.00000000000E+00 -0.00000000000E+00 -0.45593999997E+02  0.45594000000E+02  0.51100000000E-03 0.  1.
    9900012    2    1    2    0    0 -0.35306603589E+02 -0.49851025240E+01  0.19538610388E+02  0.50528870643E+02  0.30000032807E+02 0.  0.
        -12    1    1    2    0    0  0.35306603589E+02  0.49851025240E+01 -0.19538610388E+02  0.40659129357E+02  0.00000000000E+00 0.  1.
         11    1    3    3    0    0 -0.27075184045E+02 -0.12724260009E+01  0.56677923283E+01  0.27691307827E+02  0.51100000000E-03 0. -1.
        -11    1    3    3    0    0 -0.70623640551E+01 -0.96395639379E+01  0.10568566042E+02  0.15952829448E+02  0.51100000000E-03 0.  1.
         12    1    3    3    0    0 -0.11690554887E+01  0.59268874147E+01  0.33022520176E+01  0.68847333681E+01  0.00000000000E+00 0. -1.
</event>
<event>
 7    1  0.5373252E-013  0.5052886E+02  0.7816164E-02  0.1300439E+00
        -11   -1    0    0    0    0  0.00000000000E+00  0.00000000000E+00  0.45593999997E+02  0.45594000000E+02  0.51100000000E-03 0. -1.
         11   -1    0    0    0    0 -0.00000000000E+00 -0.00000000000E+00 -0.45593999997E+02  0.45594000000E+02  0.51100000000E-03 0.  1.
    9900012    2    1    2    0    0  0.28295567146E+02  0.28645254472E+02  0.56547062365E+01  0.50528862939E+02  0.30000009390E+02 0.  0.
        -12    1    1    2    0    0 -0.28295567146E+02 -0.28645254472E+02 -0.56547062365E+01  0.40659137061E+02  0.00000000000E+00 0.  1.
         11    1    3    3    0    0  0.13686900772E+02  0.50693500683E+01 -0.51559892005E+01  0.15479463420E+02  0.51100000000E-03 0. -1.
        -11    1    3    3    0    0  0.57054950014E+01  0.59593161381E+01 -0.50977332429E+01  0.96980929322E+01  0.51100000000E-03 0.  1.
         12    1    3    3    0    0  0.89031713726E+01  0.17616588266E+02  0.15908428680E+02  0.25351306587E+02  0.00000000000E+00 0. -1.
</event>
<event>
 7    1  0.5373252E-013  0.5052887E+02  0.7816164E-02  0.1300439E+00
        -11   -1    0    0    0    0  0.00000000000E+00  0.00000000000E+00  0.45593999997E+02  0.45594000000E+02  0.51100000000E-03 0.  1.
         11   -1    0    0    0    0 -0.00000000000E+00 -0.00000000000E+00 -0.45593999997E+02  0.45594000000E+02  0.51100000000E-03 0. -1.
    9900012    2    1    2    0    0 -0.38059454026E+02  0.80083402605E+01 -0.11853650021E+02  0.50528873432E+02  0.30000041284E+02 0.  0.
        -12    1    1    2    0    0  0.38059454026E+02 -0.80083402605E+01  0.11853650021E+02  0.40659126568E+02  0.00000000000E+00 0.  1.
         11    1    3    3    0    0 -0.29058507291E+02  0.96136612416E+01 -0.15513624292E+02  0.34314601373E+02  0.51100000000E-03 0. -1.
        -11    1    3    3    0    0 -0.74055758982E+01  0.48924285012E+01  0.34426947865E+01  0.95200083339E+01  0.51100000000E-03 0.  1.
        -12    1    3    3    0    0 -0.15953708360E+01 -0.64977494823E+01  0.21727948507E+00  0.66942637246E+01  0.00000000000E+00 0.  1.
</event>
<event>
 7    1  0.5373252E-013  0.5052886E+02  0.7816164E-02  0.1300439E+00
        -11   -1    0    0    0    0  0.00000000000E+00  0.00000000000E+00  0.45593999997E+02  0.45594000000E+02  0.51100000000E-03 0.  1.
         11   -1    0    0    0    0 -0.00000000000E+00 -0.00000000000E+00 -0.45593999997E+02  0.45594000000E+02  0.51100000000E-03 0. -1.
    9900012    2    1    2    0    0  0.92787526941E+00  0.27999512431E+02 -0.29467468980E+02  0.50528863549E+02  0.30000011243E+02 0.  0.
        -12    1    1    2    0    0 -0.92787526941E+00 -0.27999512431E+02  0.29467468980E+02  0.40659136451E+02  0.00000000000E+00 0.  1.
         11    1    3    3    0    0  0.69042439390E+01  0.24828524050E+02 -0.18811783655E+02  0.31906228161E+02  0.51100000000E-03 0. -1.
        -11    1    3    3    0    0  0.24168612220E+01  0.50737478586E+01 -0.10352808777E+01  0.57145377990E+01  0.51100000000E-03 0.  1.
         12    1    3    3    0    0 -0.83932298916E+01 -0.19027594783E+01 -0.96204044470E+01  0.12908097589E+02  0.00000000000E+00 0. -1.
</event>
<event>
 7    1  0.5373252E-013  0.5052886E+02  0.7816164E-02  0.1300439E+00
        -11   -1    0    0    0    0  0.00000000000E+00  0.00000000000E+00  0.45593999997E+02  0.45594000000E+02  0.51100000000E-03 0.  1.
         11   -1    0    0    0    0 -0.00000000000E+00 -0.00000000000E+00 -0.45593999997E+02  0.45594000000E+02  0.51100000000E-03 0. -1.
    9900012    2    1    2    0    0  0.32013254319E+01  0.99292091107E+01 -0.39297933584E+02  0.50528864962E+02  0.30000015537E+02 0.  0.
        -12    1    1    2    0    0 -0.32013254319E+01 -0.99292091107E+01  0.39297933584E+02  0.40659135038E+02  0.00000000000E+00 0.  1.
         11    1    3    3    0    0  0.47773459414E+01  0.98172287799E+01 -0.16068901137E+02  0.19427058428E+02  0.51100000000E-03 0. -1.
        -11    1    3    3    0    0 -0.97586114147E+00 -0.21285027866E+01  0.35335154423E+01  0.42389339134E+01  0.51100000000E-03 0.  1.
         12    1    3    3    0    0 -0.60015936805E+00  0.22404831175E+01 -0.26762547889E+02  0.26862872620E+02  0.00000000000E+00 0. -1.
</event>
<event>
 7    1  0.6322867E-013  0.5052885E+02  0.7816164E-02  0.1300439E+00
        -11   -1    0    0    0    0  0.00000000000E+00  0.00000000000E+00  0.45593999997E+02  0.45594000000E+02  0.51100000000E-03 0. -1.
         11   -1    0    0    0    0 -0.00000000000E+00 -0.00000000000E+00 -0.45593999997E+02  0.45594000000E+02  0.51100000000E-03 0.  1.
    9900012    2    1    2    0    0  0.33246252503E+02  0.17995266383E+02  0.14967409182E+02  0.50528852747E+02  0.29999978411E+02 0.  0.
        -12    1    1    2    0    0 -0.33246252503E+02 -0.17995266383E+02 -0.14967409182E+02  0.40659147253E+02  0.00000000000E+00 0.  1.
         11    1    3    3    0    0  0.16943366370E+01 -0.15568504820E+01  0.68793627457E+01  0.72539776751E+01  0.51100000000E-03 0. -1.
        -11    1    3    3    0    0  0.11587266987E+02  0.13095733434E+02  0.12921978873E+02  0.21742597100E+02  0.51100000000E-03 0.  1.
        -12    1    3    3    0    0  0.19964648879E+02  0.64563834309E+01 -0.48339324365E+01  0.21532277972E+02  0.00000000000E+00 0.  1.
</event>
<event>
 7    1  0.5373252E-013  0.5052886E+02  0.7816164E-02  0.1300439E+00
        -11   -1    0    0    0    0  0.00000000000E+00  0.00000000000E+00  0.45593999997E+02  0.45594000000E+02  0.51100000000E-03 0.  1.
         11   -1    0    0    0    0 -0.00000000000E+00 -0.00000000000E+00 -0.45593999997E+02  0.45594000000E+02  0.51100000000E-03 0. -1.
    9900012    2    1    2    0    0 -0.12572836554E+02  0.23003285372E+02 -0.31079545927E+02  0.50528861643E+02  0.30000005450E+02 0.  0.
        -12    1    1    2    0    0  0.12572836554E+02 -0.23003285372E+02  0.31079545927E+02  0.40659138357E+02  0.00000000000E+00 0.  1.
         11    1    3    3    0    0  0.42324581495E+01  0.16772493768E+02 -0.19656867198E+02  0.26184397596E+02  0.51100000000E-03 0. -1.
        -11    1    3    3    0    0  0.10718941404E+01 -0.16092928066E+01 -0.14956794406E+01  0.24445526454E+01  0.51100000000E-03 0.  1.
        -12    1    3    3    0    0 -0.17877188844E+02  0.78400844100E+01 -0.99269992889E+01  0.21899911401E+02  0.00000000000E+00 0.  1.
</event>
<event>
 7    1  0.5373252E-013  0.5052887E+02  0.7816164E-02  0.1300439E+00
        -11   -1    0    0    0    0  0.00000000000E+00  0.00000000000E+00  0.45593999997E+02  0.45594000000E+02  0.51100000000E-03 0.  1.
         11   -1    0    0    0    0 -0.00000000000E+00 -0.00000000000E+00 -0.45593999997E+02  0.45594000000E+02  0.51100000000E-03 0. -1.
    9900012    2    1    2    0    0  0.22791065631E+02  0.77768713312E+01 -0.32760536546E+02  0.50528866277E+02  0.30000019536E+02 0.  0.
        -12    1    1    2    0    0 -0.22791065631E+02 -0.77768713312E+01  0.32760536546E+02  0.40659133723E+02  0.00000000000E+00 0.  1.
         11    1    3    3    0    0  0.20174547932E+02  0.16366003301E+02 -0.29368751049E+02  0.39209462974E+02  0.51100000000E-03 0. -1.
        -11    1    3    3    0    0 -0.21088237737E+00 -0.12307197174E+01 -0.31990773659E+01  0.34341285144E+01  0.51100000000E-03 0.  1.
         12    1    3    3    0    0  0.28274000769E+01 -0.73584122521E+01 -0.19270813103E+00  0.78852747885E+01  0.00000000000E+00 0. -1.
</event>
<event>
 7    1  0.5373252E-013  0.5052886E+02  0.7816164E-02  0.1300439E+00
        -11   -1    0    0    0    0  0.00000000000E+00  0.00000000000E+00  0.45593999997E+02  0.45594000000E+02  0.51100000000E-03 0.  1.
         11   -1    0    0    0    0 -0.00000000000E+00 -0.00000000000E+00 -0.45593999997E+02  0.45594000000E+02  0.51100000000E-03 0. -1.
    9900012    2    1    2    0    0  0.27768513645E+02 -0.18561093058E+02 -0.23185371897E+02  0.50528855942E+02  0.29999988121E+02 0.  0.
        -12    1    1    2    0    0 -0.27768513645E+02  0.18561093058E+02  0.23185371897E+02  0.40659144058E+02  0.00000000000E+00 0.  1.
         11    1    3    3    0    0  0.12744491272E+02 -0.51454046326E+01 -0.13847359228E+02  0.19510166695E+02  0.51100000000E-03 0. -1.
        -11    1    3    3    0    0 -0.63229931649E+00 -0.61276690787E+01 -0.12054041760E+02  0.13536914485E+02  0.51100000000E-03 0.  1.
        -12    1    3    3    0    0  0.15656321689E+02 -0.72880193465E+01  0.27160290900E+01  0.17481774763E+02  0.00000000000E+00 0.  1.
</event>
<event>
 7    1  0.5373252E-013  0.5052887E+02  0.7816164E-02  0.1300439E+00
        -11   -1    0    0    0    0  0.00000000000E+00  0.00000000000E+00  0.45593999997E+02  0.45594000000E+02  0.51100000000E-03 0.  1.
         11   -1    0    0    0    0 -0.00000000000E+00 -0.00000000000E+00 -0.45593999997E+02  0.45594000000E+02  0.51100000000E-03 0. -1.
    9900012    2    1    2    0    0 -0.13243821214E+02 -0.33589845057E+02 -0.18694602847E+02  0.50528872281E+02  0.30000037784E+02 0.  0.
        -12    1    1    2    0    0  0.13243821214E+02  0.33589845057E+02  0.18694602847E+02  0.40659127719E+02  0.00000000000E+00 0.  1.
         11    1    3    3    0    0 -0.15168947988E+02 -0.10972760538E+02 -0.12280202410E+02  0.22389770619E+02  0.51100000000E-03 0. -1.
        -11    1    3    3    0    0  0.18968077164E+01  0.19738739818E+01 -0.50413155419E-01  0.27379919205E+01  0.51100000000E-03 0.  1.
         12    1    3    3    0    0  0.28319058076E-01 -0.24590958501E+02 -0.63639872817E+01  0.25401109741E+02  0.00000000000E+00 0. -1.
</event>
<event>
 7    1  0.5373252E-013  0.5052884E+02  0.7816164E-02  0.1300439E+00
        -11   -1    0    0    0    0  0.00000000000E+00  0.00000000000E+00  0.45593999997E+02  0.45594000000E+02  0.51100000000E-03 0. -1.
         11   -1    0    0    0    0 -0.00000000000E+00 -0.00000000000E+00 -0.45593999997E+02  0.45594000000E+02  0.51100000000E-03 0.  1.
    9900012    2    1    2    0    0  0.22916261127E+02  0.18745136011E+02  0.27868125660E+02  0.50528836508E+02  0.29999929048E+02 0.  0.
        -12    1    1    2    0    0 -0.22916261127E+02 -0.18745136011E+02 -0.27868125660E+02  0.40659163492E+02  0.00000000000E+00 0.  1.
         11    1    3    3    0    0  0.13729337582E+02  0.13657481816E+02  0.21857473628E+02  0.29202237477E+02  0.51100000000E-03 0. -1.
        -11    1    3    3    0    0  0.85694738914E+01  0.10116519442E+02 -0.26514069135E+00  0.13260850208E+02  0.51100000000E-03 0.  1.
         12    1    3    3    0    0  0.61744965275E+00 -0.50288652475E+01  0.62757927239E+01  0.80657488223E+01  0.00000000000E+00 0. -1.
</event>
<event>
 7    1  0.5373252E-013  0.5052885E+02  0.7816164E-02  0.1300439E+00
        -11   -1    0    0    0    0  0.00000000000E+00  0.00000000000E+00  0.45593999997E+02  0.45594000000E+02  0.51100000000E-03 0.  1.
         11   -1    0    0    0    0 -0.00000000000E+00 -0.00000000000E+00 -0.45593999997E+02  0.45594000000E+02  0.51100000000E-03 0. -1.
    9900012    2    1    2    0    0 -0.37635210276E+02  0.11255754016E+02 -0.10491189823E+02  0.50528854474E+02  0.29999983661E+02 0.  0.
        -12    1    1    2    0    0  0.37635210276E+02 -0.11255754016E+02  0.10491189823E+02  0.40659145526E+02  0.00000000000E+00 0.  1.
         11    1    3    3    0    0 -0.16010886455E+01  0.58358744713E+01 -0.61114339787E+01  0.86006128405E+01  0.51100000000E-03 0. -1.
        -11    1    3    3    0    0 -0.19795315721E+02 -0.71658831490E+01 -0.36772077740E+01  0.21371154931E+02  0.51100000000E-03 0.  1.
         12    1    3    3    0    0 -0.16238805909E+02  0.12585762693E+02 -0.70254807070E+00  0.20557086703E+02  0.00000000000E+00 0. -1.
</event>
<event>
 7    1  0.5373252E-013  0.5052887E+02  0.7816164E-02  0.1300439E+00
        -11   -1    0    0    0    0  0.00000000000E+00  0.00000000000E+00  0.45593999997E+02  0.45594000000E+02  0.51100000000E-03 0.  1.
         11   -1    0    0    0    0 -0.00000000000E+00 -0.00000000000E+00 -0.45593999997E+02  0.45594000000E+02  0.51100000000E-03 0. -1.
    9900012    2    1    2    0    0  0.34479551656E+02  0.20166741451E+02 -0.75913269412E+01  0.50528865874E+02  0.30000018311E+02 0.  0.
        -12    1    1    2    0    0 -0.34479551656E+02 -0.20166741451E+02  0.75913269412E+01  0.40659134126E+02  0.00000000000E+00 0.  1.
         11    1    3    3    0    0  0.21002905807E+02  0.11712584742E+02 -0.21693050753E+01  0.24145653407E+02  0.51100000000E-03 0. -1.
        -11    1    3    3    0    0  0.10444052280E+02  0.37763097916E+01 -0.12921712866E+02  0.17038468456E+02  0.51100000000E-03 0.  1.
         12    1    3    3    0    0  0.30325935688E+01  0.46778469168E+01  0.74996910002E+01  0.93447440109E+01  0.00000000000E+00 0. -1.
</event>
<event>
 7    1  0.5373252E-013  0.5052887E+02  0.7816164E-02  0.1300439E+00
        -11   -1    0    0    0    0  0.00000000000E+00  0.00000000000E+00  0.45593999997E+02  0.45594000000E+02  0.51100000000E-03 0.  1.
         11   -1    0    0    0    0 -0.00000000000E+00 -0.00000000000E+00 -0.45593999997E+02  0.45594000000E+02  0.51100000000E-03 0. -1.
    9900012    2    1    2    0    0 -0.35201143206E+01 -0.14076336806E+02 -0.37981978225E+02  0.50528866554E+02  0.30000020377E+02 0.  0.
        -12    1    1    2    0    0  0.35201143206E+01  0.14076336806E+02  0.37981978225E+02  0.40659133446E+02  0.00000000000E+00 0.  1.
         11    1    3    3    0    0  0.71598427728E+01 -0.34339142043E+01 -0.68365860690E+01  0.10478264390E+02  0.51100000000E-03 0. -1.
        -11    1    3    3    0    0 -0.32468220392E+00 -0.17089403317E+01 -0.24994332131E+02  0.25054790650E+02  0.51100000000E-03 0.  1.
        -12    1    3    3    0    0 -0.10355274889E+02 -0.89334822698E+01 -0.61510600250E+01  0.14995811513E+02  0.00000000000E+00 0.  1.
</event>
<event>
 7    1  0.5373252E-013  0.5052886E+02  0.7816164E-02  0.1300439E+00
        -11   -1    0    0    0    0  0.00000000000E+00  0.00000000000E+00  0.45593999997E+02  0.45594000000E+02  0.51100000000E-03 0.  1.
         11   -1    0    0    0    0 -0.00000000000E+00 -0.00000000000E+00 -0.45593999997E+02  0.45594000000E+02  0.51100000000E-03 0. -1.
    9900012    2    1    2    0    0  0.35812918667E+02  0.19158585810E+02 -0.18838738809E+01  0.50528861611E+02  0.30000005353E+02 0.  0.
        -12    1    1    2    0    0 -0.35812918667E+02 -0.19158585810E+02  0.18838738809E+01  0.40659138389E+02  0.00000000000E+00 0.  1.
         11    1    3    3    0    0  0.33556208288E+01 -0.34102097435E+01 -0.81684670965E+01  0.94664447713E+01  0.51100000000E-03 0. -1.
        -11    1    3    3    0    0  0.14682363973E+01  0.30118401365E+01  0.25850603554E+01  0.42319542091E+01  0.51100000000E-03 0.  1.
         12    1    3    3    0    0  0.30989061441E+02  0.19556955417E+02  0.36995328602E+01  0.36830462631E+02  0.00000000000E+00 0. -1.
</event>
<event>
 7    1  0.5373252E-013  0.5052887E+02  0.7816164E-02  0.1300439E+00
        -11   -1    0    0    0    0  0.00000000000E+00  0.00000000000E+00  0.45593999997E+02  0.45594000000E+02  0.51100000000E-03 0.  1.
         11   -1    0    0    0    0 -0.00000000000E+00 -0.00000000000E+00 -0.45593999997E+02  0.45594000000E+02  0.51100000000E-03 0. -1.
    9900012    2    1    2    0    0  0.36184110317E+02 -0.13875836292E+02 -0.12301886477E+02  0.50528867162E+02  0.30000022225E+02 0.  0.
        -12    1    1    2    0    0 -0.36184110317E+02  0.13875836292E+02  0.12301886477E+02  0.40659132838E+02  0.00000000000E+00 0.  1.
         11    1    3    3    0    0  0.31393403517E+02 -0.71568380846E+01 -0.72312131994E+01  0.33000856964E+02  0.51100000000E-03 0. -1.
        -11    1    3    3    0    0  0.66029402527E+01  0.11052728617E+01  0.18286838474E+01  0.69400672154E+01  0.51100000000E-03 0.  1.
         12    1    3    3    0    0 -0.18122334529E+01 -0.78242710695E+01 -0.68993571255E+01  0.10587942983E+02  0.00000000000E+00 0. -1.
</event>
<event>
 7    1  0.5373252E-013  0.5052886E+02  0.7816164E-02  0.1300439E+00
        -11   -1    0    0    0    0  0.00000000000E+00  0.00000000000E+00  0.45593999997E+02  0.45594000000E+02  0.51100000000E-03 0.  1.
         11   -1    0    0    0    0 -0.00000000000E+00 -0.00000000000E+00 -0.45593999997E+02  0.45594000000E+02  0.51100000000E-03 0. -1.
    9900012    2    1    2    0    0  0.29414114283E+02 -0.74500399063E+01 -0.27064221395E+02  0.50528864576E+02  0.30000014366E+02 0.  0.
        -12    1    1    2    0    0 -0.29414114283E+02  0.74500399063E+01  0.27064221395E+02  0.40659135424E+02  0.00000000000E+00 0.  1.
         11    1    3    3    0    0 -0.75465154553E+00  0.23887946711E+01 -0.41283767391E+01  0.48290095980E+01  0.51100000000E-03 0.  1.
        -11    1    3    3    0    0  0.19715569844E+02 -0.64074619793E+00 -0.10420061079E+01  0.19753481388E+02  0.51100000000E-03 0. -1.
         12    1    3    3    0    0  0.10453195985E+02 -0.91980883794E+01 -0.21893838548E+02  0.25946373591E+02  0.00000000000E+00 0. -1.
</event>
<event>
 7    1  0.5373252E-013  0.5052888E+02  0.7816164E-02  0.1300439E+00
        -11   -1    0    0    0    0  0.00000000000E+00  0.00000000000E+00  0.45593999997E+02  0.45594000000E+02  0.51100000000E-03 0.  1.
         11   -1    0    0    0    0 -0.00000000000E+00 -0.00000000000E+00 -0.45593999997E+02  0.45594000000E+02  0.51100000000E-03 0. -1.
    9900012    2    1    2    0    0  0.22007978155E+02 -0.33532040435E+02  0.66644439568E+01  0.50528884767E+02  0.30000075739E+02 0.  0.
        -12    1    1    2    0    0 -0.22007978155E+02  0.33532040435E+02 -0.66644439568E+01  0.40659115233E+02  0.00000000000E+00 0.  1.
         11    1    3    3    0    0  0.83891211681E+01 -0.49384515840E+01 -0.25653695699E+00  0.97381450745E+01  0.51100000000E-03 0.  1.
        -11    1    3    3    0    0  0.79874481847E+01 -0.22917708442E+02 -0.65388823200E+01  0.25135187905E+02  0.51100000000E-03 0. -1.
        -12    1    3    3    0    0  0.56314088024E+01 -0.56758804089E+01  0.13459863234E+02  0.15655551788E+02  0.00000000000E+00 0.  1.
</event>
<event>
 7    1  0.5373252E-013  0.5052886E+02  0.7816164E-02  0.1300439E+00
        -11   -1    0    0    0    0  0.00000000000E+00  0.00000000000E+00  0.45593999997E+02  0.45594000000E+02  0.51100000000E-03 0.  1.
         11   -1    0    0    0    0 -0.00000000000E+00 -0.00000000000E+00 -0.45593999997E+02  0.45594000000E+02  0.51100000000E-03 0. -1.
    9900012    2    1    2    0    0 -0.44384218557E+01 -0.22585931733E+02 -0.33516287585E+02  0.50528862844E+02  0.30000009100E+02 0.  0.
        -12    1    1    2    0    0  0.44384218557E+01  0.22585931733E+02  0.33516287585E+02  0.40659137156E+02  0.00000000000E+00 0.  1.
         11    1    3    3    0    0 -0.92411406623E+01 -0.14521065561E+02 -0.19330571600E+02  0.25883025797E+02  0.51100000000E-03 0. -1.
        -11    1    3    3    0    0 -0.36743512181E+01 -0.22280578470E+01  0.25513643790E+01  0.49974552624E+01  0.51100000000E-03 0.  1.
         12    1    3    3    0    0  0.84770700247E+01 -0.58368083250E+01 -0.16737080364E+02  0.19648381784E+02  0.00000000000E+00 0. -1.
</event>
<event>
 7    1  0.5373252E-013  0.5052885E+02  0.7816164E-02  0.1300439E+00
        -11   -1    0    0    0    0  0.00000000000E+00  0.00000000000E+00  0.45593999997E+02  0.45594000000E+02  0.51100000000E-03 0.  1.
         11   -1    0    0    0    0 -0.00000000000E+00 -0.00000000000E+00 -0.45593999997E+02  0.45594000000E+02  0.51100000000E-03 0. -1.
    9900012    2    1    2    0    0 -0.33719239358E+02 -0.16505387959E+02 -0.15612543939E+02  0.50528850196E+02  0.29999970656E+02 0.  0.
        -12    1    1    2    0    0  0.33719239358E+02  0.16505387959E+02  0.15612543939E+02  0.40659149804E+02  0.00000000000E+00 0.  1.
         11    1    3    3    0    0 -0.26036076709E+02 -0.10209514917E+02 -0.15765252095E+02  0.32103810663E+02  0.51100000000E-03 0. -1.
        -11    1    3    3    0    0 -0.12214181605E+02 -0.24029502440E+01  0.24258718188E+00  0.12450672711E+02  0.51100000000E-03 0.  1.
         12    1    3    3    0    0  0.45310189554E+01 -0.38929227976E+01 -0.89879025018E-01  0.59743668218E+01  0.00000000000E+00 0. -1.
</event>
<event>
 7    1  0.5373252E-013  0.5052886E+02  0.7816164E-02  0.1300439E+00
        -11   -1    0    0    0    0  0.00000000000E+00  0.00000000000E+00  0.45593999997E+02  0.45594000000E+02  0.51100000000E-03 0.  1.
         11   -1    0    0    0    0 -0.00000000000E+00 -0.00000000000E+00 -0.45593999997E+02  0.45594000000E+02  0.51100000000E-03 0. -1.
    9900012    2    1    2    0    0  0.23441546816E+02  0.23723273395E+02 -0.23256515433E+02  0.50528864153E+02  0.30000013080E+02 0.  0.
        -12    1    1    2    0    0 -0.23441546816E+02 -0.23723273395E+02  0.23256515433E+02  0.40659135847E+02  0.00000000000E+00 0.  1.
         11    1    3    3    0    0  0.85296504900E+01  0.14500393215E+02 -0.19747496093E+02  0.25941856971E+02  0.51100000000E-03 0. -1.
        -11    1    3    3    0    0  0.11838721449E+02  0.40759340381E+01 -0.97979810837E+01  0.15898710558E+02  0.51100000000E-03 0.  1.
         12    1    3    3    0    0  0.30731748766E+01  0.51469461419E+01  0.62889617439E+01  0.86882966239E+01  0.00000000000E+00 0. -1.
</event>
<event>
 7    1  0.5373252E-013  0.5052887E+02  0.7816164E-02  0.1300439E+00
        -11   -1    0    0    0    0  0.00000000000E+00  0.00000000000E+00  0.45593999997E+02  0.45594000000E+02  0.51100000000E-03 0.  1.
         11   -1    0    0    0    0 -0.00000000000E+00 -0.00000000000E+00 -0.45593999997E+02  0.45594000000E+02  0.51100000000E-03 0. -1.
    9900012    2    1    2    0    0  0.32982836497E+02  0.15977973636E+02 -0.17606857421E+02  0.50528873434E+02  0.30000041289E+02 0.  0.
        -12    1    1    2    0    0 -0.32982836497E+02 -0.15977973636E+02  0.17606857421E+02  0.40659126566E+02  0.00000000000E+00 0.  1.
         11    1    3    3    0    0  0.31081451417E+02  0.38556422518E+01 -0.41309151923E+01  0.31590933192E+02  0.51100000000E-03 0.  1.
        -11    1    3    3    0    0  0.31496106980E+01  0.51137304106E+01 -0.77333608774E+01  0.97915860300E+01  0.51100000000E-03 0. -1.
        -12    1    3    3    0    0 -0.12482256178E+01  0.70086009737E+01 -0.57425813511E+01  0.91463542122E+01  0.00000000000E+00 0.  1.
</event>
<event>
 7    1  0.5373252E-013  0.5052884E+02  0.7816164E-02  0.1300439E+00
        -11   -1    0    0    0    0  0.00000000000E+00  0.00000000000E+00  0.45593999997E+02  0.45594000000E+02  0.51100000000E-03 0. -1.
         11   -1    0    0    0    0 -0.00000000000E+00 -0.00000000000E+00 -0.45593999997E+02  0.45594000000E+02  0.51100000000E-03 0.  1.
    9900012    2    1    2    0    0  0.31182389719E+01  0.38287463857E+02 -0.13323437052E+02  0.50528840174E+02  0.29999940194E+02 0.  0.
        -12    1    1    2    0    0 -0.31182389719E+01 -0.38287463857E+02  0.13323437052E+02  0.40659159826E+02  0.00000000000E+00 0.  1.
         11    1    3    3    0    0 -0.85919704863E+01  0.12872613544E+02 -0.47346080038E+01  0.16184642396E+02  0.51100000000E-03 0. -1.
        -11    1    3    3    0    0  0.31356585021E+01  0.14117362324E+01 -0.81565979320E+01  0.88518610200E+01  0.51100000000E-03 0.  1.
         12    1    3    3    0    0  0.85745509560E+01  0.24003114080E+02 -0.43223111576E+00  0.25492336758E+02  0.00000000000E+00 0. -1.
</event>
<event>
 7    1  0.5373252E-013  0.5052886E+02  0.7816164E-02  0.1300439E+00
        -11   -1    0    0    0    0  0.00000000000E+00  0.00000000000E+00  0.45593999997E+02  0.45594000000E+02  0.51100000000E-03 0.  1.
         11   -1    0    0    0    0 -0.00000000000E+00 -0.00000000000E+00 -0.45593999997E+02  0.45594000000E+02  0.51100000000E-03 0. -1.
    9900012    2    1    2    0    0 -0.23948851757E+02  0.32018424496E+02 -0.73782438383E+01  0.50528862161E+02  0.30000007024E+02 0.  0.
        -12    1    1    2    0    0  0.23948851757E+02 -0.32018424496E+02  0.73782438383E+01  0.40659137839E+02  0.00000000000E+00 0.  1.
         11    1    3    3    0    0  0.47293267660E+00 -0.20790500321E+01 -0.38821681584E+01  0.44291471215E+01  0.51100000000E-03 0. -1.
        -11    1    3    3    0    0 -0.10218464712E+02  0.74805549246E+01  0.66066549405E+01  0.14283683447E+02  0.51100000000E-03 0.  1.
         12    1    3    3    0    0 -0.14203319722E+02  0.26616919603E+02 -0.10102730620E+02  0.31816031592E+02  0.00000000000E+00 0. -1.
</event>
<event>
 7    1  0.5373252E-013  0.5052886E+02  0.7816164E-02  0.1300439E+00
        -11   -1    0    0    0    0  0.00000000000E+00  0.00000000000E+00  0.45593999997E+02  0.45594000000E+02  0.51100000000E-03 0. -1.
         11   -1    0    0    0    0 -0.00000000000E+00 -0.00000000000E+00 -0.45593999997E+02  0.45594000000E+02  0.51100000000E-03 0.  1.
    9900012    2    1    2    0    0  0.36351006663E+02  0.13484368937E+02  0.12245061819E+02  0.50528862897E+02  0.30000009261E+02 0.  0.
        -12    1    1    2    0    0 -0.36351006663E+02 -0.13484368937E+02 -0.12245061819E+02  0.40659137103E+02  0.00000000000E+00 0.  1.
         11    1    3    3    0    0  0.19561379678E+02 -0.15033114386E+01  0.10525177109E+02  0.22264026446E+02  0.51100000000E-03 0. -1.
        -11    1    3    3    0    0  0.66319842929E+01 -0.14267555397E+01 -0.43156405551E+01  0.80401244203E+01  0.51100000000E-03 0.  1.
         12    1    3    3    0    0  0.10157642692E+02  0.16414435915E+02  0.60355252656E+01  0.20224712030E+02  0.00000000000E+00 0. -1.
</event>
<event>
 7    1  0.5373252E-013  0.5052887E+02  0.7816164E-02  0.1300439E+00
        -11   -1    0    0    0    0  0.00000000000E+00  0.00000000000E+00  0.45593999997E+02  0.45594000000E+02  0.51100000000E-03 0.  1.
         11   -1    0    0    0    0 -0.00000000000E+00 -0.00000000000E+00 -0.45593999997E+02  0.45594000000E+02  0.51100000000E-03 0. -1.
    9900012    2    1    2    0    0 -0.19245065079E+02  0.59823977259E+01 -0.35312936587E+02  0.50528866920E+02  0.30000021490E+02 0.  0.
        -12    1    1    2    0    0  0.19245065079E+02 -0.59823977259E+01  0.35312936587E+02  0.40659133080E+02  0.00000000000E+00 0.  1.
         11    1    3    3    0    0 -0.83914535594E+01 -0.31435966745E+01 -0.19375503913E+01  0.91680311230E+01  0.51100000000E-03 0. -1.
        -11    1    3    3    0    0  0.47830959249E+01 -0.19121691478E+01 -0.53852436109E+01  0.74521974267E+01  0.51100000000E-03 0.  1.
         12    1    3    3    0    0 -0.15636707445E+02  0.11038163548E+02 -0.27990142584E+02  0.33908638370E+02  0.00000000000E+00 0. -1.
</event>
<event>
 7    1  0.5373252E-013  0.5052886E+02  0.7816164E-02  0.1300439E+00
        -11   -1    0    0    0    0  0.00000000000E+00  0.00000000000E+00  0.45593999997E+02  0.45594000000E+02  0.51100000000E-03 0.  1.
         11   -1    0    0    0    0 -0.00000000000E+00 -0.00000000000E+00 -0.45593999997E+02  0.45594000000E+02  0.51100000000E-03 0. -1.
    9900012    2    1    2    0    0  0.28045292689E+00  0.40062128260E+02  0.69363598666E+01  0.50528857575E+02  0.29999993085E+02 0.  0.
        -12    1    1    2    0    0 -0.28045292689E+00 -0.40062128260E+02 -0.69363598666E+01  0.40659142425E+02  0.00000000000E+00 0.  1.
         11    1    3    3    0    0 -0.65858168364E+01  0.14814814691E+02  0.12704536771E+02  0.20597499182E+02  0.51100000000E-03 0. -1.
        -11    1    3    3    0    0  0.49988749831E+01  0.89261778222E+01  0.38080461550E+01  0.10916346339E+02  0.51100000000E-03 0.  1.
         12    1    3    3    0    0  0.18673947802E+01  0.16321135746E+02 -0.95762230599E+01  0.19015012054E+02  0.00000000000E+00 0. -1.
</event>
<event>
 7    1  0.5373252E-013  0.5052886E+02  0.7816164E-02  0.1300439E+00
        -11   -1    0    0    0    0  0.00000000000E+00  0.00000000000E+00  0.45593999997E+02  0.45594000000E+02  0.51100000000E-03 0. -1.
         11   -1    0    0    0    0 -0.00000000000E+00 -0.00000000000E+00 -0.45593999997E+02  0.45594000000E+02  0.51100000000E-03 0.  1.
    9900012    2    1    2    0    0 -0.15204697595E+02 -0.28984865019E+02  0.24121785634E+02  0.50528858700E+02  0.29999996504E+02 0.  0.
        -12    1    1    2    0    0  0.15204697595E+02  0.28984865019E+02 -0.24121785634E+02  0.40659141300E+02  0.00000000000E+00 0.  1.
         11    1    3    3    0    0 -0.89742182869E+01 -0.29914695144E+01  0.13467425403E+02  0.16457734685E+02  0.51100000000E-03 0. -1.
        -11    1    3    3    0    0 -0.42022509801E+01 -0.19313454979E+01 -0.37497591333E+01  0.59539652796E+01  0.51100000000E-03 0.  1.
         12    1    3    3    0    0 -0.20282283275E+01 -0.24062050007E+02  0.14404119363E+02  0.28117158735E+02  0.00000000000E+00 0. -1.
</event>
<event>
 7    1  0.5373252E-013  0.5052885E+02  0.7816164E-02  0.1300439E+00
        -11   -1    0    0    0    0  0.00000000000E+00  0.00000000000E+00  0.45593999997E+02  0.45594000000E+02  0.51100000000E-03 0.  1.
         11   -1    0    0    0    0 -0.00000000000E+00 -0.00000000000E+00 -0.45593999997E+02  0.45594000000E+02  0.51100000000E-03 0. -1.
    9900012    2    1    2    0    0 -0.28358138141E+02  0.10379365424E+02 -0.27225924335E+02  0.50528853657E+02  0.29999981177E+02 0.  0.
        -12    1    1    2    0    0  0.28358138141E+02 -0.10379365424E+02  0.27225924335E+02  0.40659146343E+02  0.00000000000E+00 0.  1.
         11    1    3    3    0    0 -0.79753349977E+01  0.10663887951E+02  0.16644563953E+01  0.13419943737E+02  0.51100000000E-03 0.  1.
        -11    1    3    3    0    0 -0.53325619853E+01  0.50150012440E+01 -0.96797922114E+01  0.12136096255E+02  0.51100000000E-03 0. -1.
        -12    1    3    3    0    0 -0.15050241157E+02 -0.52995237707E+01 -0.19210588519E+02  0.24972813665E+02  0.00000000000E+00 0.  1.
</event>
<event>
 7    1  0.5373252E-013  0.5052888E+02  0.7816164E-02  0.1300439E+00
        -11   -1    0    0    0    0  0.00000000000E+00  0.00000000000E+00  0.45593999997E+02  0.45594000000E+02  0.51100000000E-03 0.  1.
         11   -1    0    0    0    0 -0.00000000000E+00 -0.00000000000E+00 -0.45593999997E+02  0.45594000000E+02  0.51100000000E-03 0. -1.
    9900012    2    1    2    0    0 -0.33483251248E+02  0.41865116566E+01 -0.22682786202E+02  0.50528883140E+02  0.30000070791E+02 0.  0.
        -12    1    1    2    0    0  0.33483251248E+02 -0.41865116566E+01  0.22682786202E+02  0.40659116860E+02  0.00000000000E+00 0.  1.
         11    1    3    3    0    0 -0.20890275796E+02 -0.31635139541E+01 -0.11143479264E+02  0.23886995913E+02  0.51100000000E-03 0.  1.
        -11    1    3    3    0    0 -0.41526673362E+01 -0.65006715472E+01 -0.47462601134E+01  0.90570614382E+01  0.51100000000E-03 0. -1.
         12    1    3    3    0    0 -0.84403081160E+01  0.13850697158E+02 -0.67930468246E+01  0.17584825789E+02  0.00000000000E+00 0. -1.
</event>
<event>
 7    1  0.5373252E-013  0.5052886E+02  0.7816164E-02  0.1300439E+00
        -11   -1    0    0    0    0  0.00000000000E+00  0.00000000000E+00  0.45593999997E+02  0.45594000000E+02  0.51100000000E-03 0.  1.
         11   -1    0    0    0    0 -0.00000000000E+00 -0.00000000000E+00 -0.45593999997E+02  0.45594000000E+02  0.51100000000E-03 0. -1.
    9900012    2    1    2    0    0  0.39425699192E+02  0.13385104544E+00 -0.99378911216E+01  0.50528863846E+02  0.30000012145E+02 0.  0.
        -12    1    1    2    0    0 -0.39425699192E+02 -0.13385104544E+00  0.99378911216E+01  0.40659136154E+02  0.00000000000E+00 0.  1.
         11    1    3    3    0    0  0.10088147837E+02 -0.11593652768E+02 -0.70317372803E+01  0.16900557408E+02  0.51100000000E-03 0. -1.
        -11    1    3    3    0    0  0.64967205176E+01  0.31954650056E+01  0.40200890501E+01  0.82812734720E+01  0.51100000000E-03 0.  1.
        -12    1    3    3    0    0  0.22840830837E+02  0.85320388074E+01 -0.69262428915E+01  0.25347032965E+02  0.00000000000E+00 0.  1.
</event>
<event>
 7    1  0.5373252E-013  0.5052886E+02  0.7816164E-02  0.1300439E+00
        -11   -1    0    0    0    0  0.00000000000E+00  0.00000000000E+00  0.45593999997E+02  0.45594000000E+02  0.51100000000E-03 0. -1.
         11   -1    0    0    0    0 -0.00000000000E+00 -0.00000000000E+00 -0.45593999997E+02  0.45594000000E+02  0.51100000000E-03 0.  1.
    9900012    2    1    2    0    0  0.83395349891E+01 -0.17546193429E+02  0.35717631824E+02  0.50528856246E+02  0.29999989045E+02 0.  0.
        -12    1    1    2    0    0 -0.83395349891E+01  0.17546193429E+02 -0.35717631824E+02  0.40659143754E+02  0.00000000000E+00 0.  1.
         11    1    3    3    0    0  0.27141452872E+01 -0.14583422980E+01  0.20951167248E+02  0.21176514260E+02  0.51100000000E-03 0. -1.
        -11    1    3    3    0    0  0.99090913399E+01 -0.29031239941E+01  0.10780042809E+02  0.14927409130E+02  0.51100000000E-03 0.  1.
        -12    1    3    3    0    0 -0.42837016379E+01 -0.13184727136E+02  0.39864217675E+01  0.14424932856E+02  0.00000000000E+00 0.  1.
</event>
<event>
 7    1  0.5373252E-013  0.5052885E+02  0.7816164E-02  0.1300439E+00
        -11   -1    0    0    0    0  0.00000000000E+00  0.00000000000E+00  0.45593999997E+02  0.45594000000E+02  0.51100000000E-03 0. -1.
         11   -1    0    0    0    0 -0.00000000000E+00 -0.00000000000E+00 -0.45593999997E+02  0.45594000000E+02  0.51100000000E-03 0.  1.
    9900012    2    1    2    0    0  0.10730661743E+02 -0.18823939019E+02  0.34404626213E+02  0.50528854823E+02  0.29999984721E+02 0.  0.
        -12    1    1    2    0    0 -0.10730661743E+02  0.18823939019E+02 -0.34404626213E+02  0.40659145177E+02  0.00000000000E+00 0.  1.
         11    1    3    3    0    0 -0.32937478310E+01 -0.14754534160E+02  0.57937353256E+01  0.16189886421E+02  0.51100000000E-03 0. -1.
        -11    1    3    3    0    0  0.81321185986E+01 -0.34959559056E+01  0.26682891810E+02  0.28112804488E+02  0.51100000000E-03 0.  1.
        -12    1    3    3    0    0  0.58922909752E+01 -0.57344895338E+00  0.19279990774E+01  0.62261639138E+01  0.00000000000E+00 0.  1.
</event>
<event>
 7    1  0.5373252E-013  0.5052886E+02  0.7816164E-02  0.1300439E+00
        -11   -1    0    0    0    0  0.00000000000E+00  0.00000000000E+00  0.45593999997E+02  0.45594000000E+02  0.51100000000E-03 0. -1.
         11   -1    0    0    0    0 -0.00000000000E+00 -0.00000000000E+00 -0.45593999997E+02  0.45594000000E+02  0.51100000000E-03 0.  1.
    9900012    2    1    2    0    0  0.38457691832E+02  0.37047310976E+00 -0.13192218686E+02  0.50528856561E+02  0.29999990002E+02 0.  0.
        -12    1    1    2    0    0 -0.38457691832E+02 -0.37047310976E+00  0.13192218686E+02  0.40659143439E+02  0.00000000000E+00 0.  1.
         11    1    3    3    0    0  0.87674508452E+00 -0.79237481419E+00  0.20140884289E+01  0.23351856992E+01  0.51100000000E-03 0. -1.
        -11    1    3    3    0    0  0.64702145344E+01 -0.44815540825E+01 -0.14580085599E+02  0.16568853293E+02  0.51100000000E-03 0.  1.
         12    1    3    3    0    0  0.31110732213E+02  0.56444020065E+01 -0.62622151550E+00  0.31624817568E+02  0.00000000000E+00 0. -1.
</event>
<event>
 7    1  0.5373252E-013  0.5052889E+02  0.7816164E-02  0.1300439E+00
        -11   -1    0    0    0    0  0.00000000000E+00  0.00000000000E+00  0.45593999997E+02  0.45594000000E+02  0.51100000000E-03 0.  1.
         11   -1    0    0    0    0 -0.00000000000E+00 -0.00000000000E+00 -0.45593999997E+02  0.45594000000E+02  0.51100000000E-03 0. -1.
    9900012    2    1    2    0    0 -0.11125399699E+01  0.12059494820E+02 -0.38813577527E+02  0.50528893259E+02  0.30000101550E+02 0.  0.
        -12    1    1    2    0    0  0.11125399699E+01 -0.12059494820E+02  0.38813577527E+02  0.40659106741E+02  0.00000000000E+00 0.  1.
         11    1    3    3    0    0  0.10839118971E+02  0.29922443956E+00 -0.86992890531E+01  0.13901570617E+02  0.51100000000E-03 0. -1.
        -11    1    3    3    0    0 -0.37278848066E+01  0.73656878518E+00 -0.32182937906E+00  0.38135591141E+01  0.51100000000E-03 0.  1.
         12    1    3    3    0    0 -0.82237741347E+01  0.11023701596E+02 -0.29792459095E+02  0.32813763527E+02  0.00000000000E+00 0. -1.
</event>
<event>
 7    1  0.5373252E-013  0.5052886E+02  0.7816164E-02  0.1300439E+00
        -11   -1    0    0    0    0  0.00000000000E+00  0.00000000000E+00  0.45593999997E+02  0.45594000000E+02  0.51100000000E-03 0. -1.
         11   -1    0    0    0    0 -0.00000000000E+00 -0.00000000000E+00 -0.45593999997E+02  0.45594000000E+02  0.51100000000E-03 0.  1.
    9900012    2    1    2    0    0 -0.11322656127E+02  0.25412249116E+02  0.29650982283E+02  0.50528859610E+02  0.29999999271E+02 0.  0.
        -12    1    1    2    0    0  0.11322656127E+02 -0.25412249116E+02 -0.29650982283E+02  0.40659140390E+02  0.00000000000E+00 0.  1.
         11    1    3    3    0    0  0.47095126123E+01  0.17001720833E+01  0.15433265585E+02  0.16225158891E+02  0.51100000000E-03 0. -1.
        -11    1    3    3    0    0 -0.73730175092E+01  0.21806281106E+01  0.57450524486E+01  0.95980286542E+01  0.51100000000E-03 0.  1.
         12    1    3    3    0    0 -0.86591512297E+01  0.21531448922E+02  0.84726642493E+01  0.24705672065E+02  0.00000000000E+00 0. -1.
</event>
<event>
 7    1  0.5373252E-013  0.5052886E+02  0.7816164E-02  0.1300439E+00
        -11   -1    0    0    0    0  0.00000000000E+00  0.00000000000E+00  0.45593999997E+02  0.45594000000E+02  0.51100000000E-03 0. -1.
         11   -1    0    0    0    0 -0.00000000000E+00 -0.00000000000E+00 -0.45593999997E+02  0.45594000000E+02  0.51100000000E-03 0.  1.
    9900012    2    1    2    0    0 -0.34086845845E+02 -0.21525108128E+02  0.52841567047E+01  0.50528860171E+02  0.30000000974E+02 0.  0.
        -12    1    1    2    0    0  0.34086845845E+02  0.21525108128E+02 -0.52841567047E+01  0.40659139829E+02  0.00000000000E+00 0.  1.
         11    1    3    3    0    0 -0.89497640162E+01 -0.12316488257E+02  0.10364243372E+02  0.18417700721E+02  0.51100000000E-03 0. -1.
        -11    1    3    3    0    0 -0.47102160088E+01 -0.81402711305E+01 -0.67679433848E+01  0.11586854916E+02  0.51100000000E-03 0.  1.
        -12    1    3    3    0    0 -0.20426865820E+02 -0.10683487407E+01  0.16878567177E+01  0.20524304533E+02  0.00000000000E+00 0.  1.
</event>
<event>
 7    1  0.5373252E-013  0.5052885E+02  0.7816164E-02  0.1300439E+00
        -11   -1    0    0    0    0  0.00000000000E+00  0.00000000000E+00  0.45593999997E+02  0.45594000000E+02  0.51100000000E-03 0.  1.
         11   -1    0    0    0    0 -0.00000000000E+00 -0.00000000000E+00 -0.45593999997E+02  0.45594000000E+02  0.51100000000E-03 0. -1.
    9900012    2    1    2    0    0  0.16857996211E+02 -0.65265847991E+01 -0.36419479984E+02  0.50528845217E+02  0.29999955520E+02 0.  0.
        -12    1    1    2    0    0 -0.16857996211E+02  0.65265847991E+01  0.36419479984E+02  0.40659154783E+02  0.00000000000E+00 0.  1.
         11    1    3    3    0    0  0.85746223235E+01 -0.99102252262E+01 -0.16249995720E+02  0.20875801139E+02  0.51100000000E-03 0. -1.
        -11    1    3    3    0    0  0.34918415292E+01 -0.36404304933E+01  0.23624517418E+01  0.55701768316E+01  0.51100000000E-03 0.  1.
        -12    1    3    3    0    0  0.47915323586E+01  0.70240709204E+01 -0.22531936006E+02  0.24082867246E+02  0.00000000000E+00 0.  1.
</event>
<event>
 7    1  0.5373252E-013  0.5052886E+02  0.7816164E-02  0.1300439E+00
        -11   -1    0    0    0    0  0.00000000000E+00  0.00000000000E+00  0.45593999997E+02  0.45594000000E+02  0.51100000000E-03 0.  1.
         11   -1    0    0    0    0 -0.00000000000E+00 -0.00000000000E+00 -0.45593999997E+02  0.45594000000E+02  0.51100000000E-03 0. -1.
    9900012    2    1    2    0    0 -0.63764416844E+01  0.32085480281E+02 -0.24145988056E+02  0.50528858438E+02  0.29999995707E+02 0.  0.
        -12    1    1    2    0    0  0.63764416844E+01 -0.32085480281E+02  0.24145988056E+02  0.40659141562E+02  0.00000000000E+00 0.  1.
         11    1    3    3    0    0  0.51580177841E+01  0.63082745616E+01  0.28181098874E+01  0.86221354086E+01  0.51100000000E-03 0. -1.
        -11    1    3    3    0    0  0.22628166076E+01  0.13251054185E+02 -0.11085660039E+02  0.17424196818E+02  0.51100000000E-03 0.  1.
         12    1    3    3    0    0 -0.13797276076E+02  0.12526151534E+02 -0.15878437905E+02  0.24482526211E+02  0.00000000000E+00 0. -1.
</event>
<event>
 7    1  0.5373252E-013  0.5052886E+02  0.7816164E-02  0.1300439E+00
        -11   -1    0    0    0    0  0.00000000000E+00  0.00000000000E+00  0.45593999997E+02  0.45594000000E+02  0.51100000000E-03 0.  1.
         11   -1    0    0    0    0 -0.00000000000E+00 -0.00000000000E+00 -0.45593999997E+02  0.45594000000E+02  0.51100000000E-03 0. -1.
    9900012    2    1    2    0    0 -0.61651850961E+00  0.40635646401E+02 -0.12368041382E+01  0.50528861568E+02  0.30000005223E+02 0.  0.
        -12    1    1    2    0    0  0.61651850961E+00 -0.40635646401E+02  0.12368041382E+01  0.40659138432E+02  0.00000000000E+00 0.  1.
         11    1    3    3    0    0  0.62370409146E+01  0.98860523089E+01  0.49074481513E+01  0.12677450739E+02  0.51100000000E-03 0. -1.
        -11    1    3    3    0    0 -0.31423576362E+01 -0.11824767837E+01  0.29214393828E+01  0.44505585251E+01  0.51100000000E-03 0.  1.
        -12    1    3    3    0    0 -0.37112017880E+01  0.31932070876E+02 -0.90656916723E+01  0.33400852304E+02  0.00000000000E+00 0.  1.
</event>
<event>
 7    1  0.5373252E-013  0.5052885E+02  0.7816164E-02  0.1300439E+00
        -11   -1    0    0    0    0  0.00000000000E+00  0.00000000000E+00  0.45593999997E+02  0.45594000000E+02  0.51100000000E-03 0.  1.
         11   -1    0    0    0    0 -0.00000000000E+00 -0.00000000000E+00 -0.45593999997E+02  0.45594000000E+02  0.51100000000E-03 0. -1.
    9900012    2    1    2    0    0 -0.31533665662E+02  0.18402160873E+02  0.17892864114E+02  0.50528853660E+02  0.29999981185E+02 0.  0.
        -12    1    1    2    0    0  0.31533665662E+02 -0.18402160873E+02 -0.17892864114E+02  0.40659146340E+02  0.00000000000E+00 0.  1.
         11    1    3    3    0    0 -0.96214973778E+01  0.50797783751E+01 -0.73629335884E+01  0.13137357094E+02  0.51100000000E-03 0. -1.
        -11    1    3    3    0    0 -0.28895282669E+01 -0.16807785345E+01  0.28845141571E+01  0.44152929994E+01  0.51100000000E-03 0.  1.
        -12    1    3    3    0    0 -0.19022640017E+02  0.15003161033E+02  0.22371283545E+02  0.32976203567E+02  0.00000000000E+00 0.  1.
</event>
<event>
 7    1  0.5373252E-013  0.5052885E+02  0.7816164E-02  0.1300439E+00
        -11   -1    0    0    0    0  0.00000000000E+00  0.00000000000E+00  0.45593999997E+02  0.45594000000E+02  0.51100000000E-03 0.  1.
         11   -1    0    0    0    0 -0.00000000000E+00 -0.00000000000E+00 -0.45593999997E+02  0.45594000000E+02  0.51100000000E-03 0. -1.
    9900012    2    1    2    0    0 -0.25341930889E+02  0.34658573404E+01 -0.31606020825E+02  0.50528853666E+02  0.29999981202E+02 0.  0.
        -12    1    1    2    0    0  0.25341930889E+02 -0.34658573404E+01  0.31606020825E+02  0.40659146334E+02  0.00000000000E+00 0.  1.
         11    1    3    3    0    0 -0.17524951997E+01  0.19352500828E+01  0.14609386956E+01  0.29917844912E+01  0.51100000000E-03 0. -1.
        -11    1    3    3    0    0 -0.21374982109E+02  0.11269670062E+02 -0.23483664870E+02  0.33695368220E+02  0.51100000000E-03 0.  1.
        -12    1    3    3    0    0 -0.22144535802E+01 -0.97390628048E+01 -0.95832946497E+01  0.13841700955E+02  0.00000000000E+00 0.  1.
</event>
<event>
 7    1  0.5373252E-013  0.5052886E+02  0.7816164E-02  0.1300439E+00
        -11   -1    0    0    0    0  0.00000000000E+00  0.00000000000E+00  0.45593999997E+02  0.45594000000E+02  0.51100000000E-03 0.  1.
         11   -1    0    0    0    0 -0.00000000000E+00 -0.00000000000E+00 -0.45593999997E+02  0.45594000000E+02  0.51100000000E-03 0. -1.
    9900012    2    1    2    0    0 -0.48305114811E+01 -0.27295704459E+02 -0.29745193887E+02  0.50528857333E+02  0.29999992348E+02 0.  0.
        -12    1    1    2    0    0  0.48305114811E+01  0.27295704459E+02  0.29745193887E+02  0.40659142667E+02  0.00000000000E+00 0.  1.
         11    1    3    3    0    0 -0.78877213421E+01 -0.20796198398E+01 -0.47218507411E+00  0.81709195109E+01  0.51100000000E-03 0. -1.
        -11    1    3    3    0    0 -0.39423404572E+01 -0.14292084099E+02 -0.65853975910E+01  0.16222613164E+02  0.51100000000E-03 0.  1.
         12    1    3    3    0    0  0.69995503181E+01 -0.10924000520E+02 -0.22687611222E+02  0.26135324658E+02  0.00000000000E+00 0. -1.
</event>
<event>
 7    1  0.5373252E-013  0.5052886E+02  0.7816164E-02  0.1300439E+00
        -11   -1    0    0    0    0  0.00000000000E+00  0.00000000000E+00  0.45593999997E+02  0.45594000000E+02  0.51100000000E-03 0.  1.
         11   -1    0    0    0    0 -0.00000000000E+00 -0.00000000000E+00 -0.45593999997E+02  0.45594000000E+02  0.51100000000E-03 0. -1.
    9900012    2    1    2    0    0 -0.30700509366E+02  0.13675608602E+02  0.22882792500E+02  0.50528859102E+02  0.29999997727E+02 0.  0.
        -12    1    1    2    0    0  0.30700509366E+02 -0.13675608602E+02 -0.22882792500E+02  0.40659140898E+02  0.00000000000E+00 0.  1.
         11    1    3    3    0    0 -0.11334588167E+02 -0.61009928390E+01  0.12814699664E+02  0.18163466912E+02  0.51100000000E-03 0. -1.
        -11    1    3    3    0    0  0.20119368320E+01  0.13887719790E+01  0.64515318893E-01  0.24455551339E+01  0.51100000000E-03 0.  1.
         12    1    3    3    0    0 -0.21377858031E+02  0.18387829462E+02  0.10003577518E+02  0.29919837056E+02  0.00000000000E+00 0. -1.
</event>
<event>
 7    1  0.5373252E-013  0.5052886E+02  0.7816164E-02  0.1300439E+00
        -11   -1    0    0    0    0  0.00000000000E+00  0.00000000000E+00  0.45593999997E+02  0.45594000000E+02  0.51100000000E-03 0.  1.
         11   -1    0    0    0    0 -0.00000000000E+00 -0.00000000000E+00 -0.45593999997E+02  0.45594000000E+02  0.51100000000E-03 0. -1.
    9900012    2    1    2    0    0 -0.30406792186E+02  0.16942010550E+02  0.21013358031E+02  0.50528856524E+02  0.29999989890E+02 0.  0.
        -12    1    1    2    0    0  0.30406792186E+02 -0.16942010550E+02 -0.21013358031E+02  0.40659143476E+02  0.00000000000E+00 0.  1.
         11    1    3    3    0    0  0.14534758867E+01  0.73001086509E+01  0.11195629192E+02  0.13444191747E+02  0.51100000000E-03 0. -1.
        -11    1    3    3    0    0 -0.33902041577E+01  0.42547144944E+00  0.60171663966E+01  0.69195955005E+01  0.51100000000E-03 0.  1.
         12    1    3    3    0    0 -0.28470063915E+02  0.92164304492E+01  0.38005624419E+01  0.30165069276E+02  0.00000000000E+00 0. -1.
</event>
<event>
 7    1  0.5373252E-013  0.5052885E+02  0.7816164E-02  0.1300439E+00
        -11   -1    0    0    0    0  0.00000000000E+00  0.00000000000E+00  0.45593999997E+02  0.45594000000E+02  0.51100000000E-03 0. -1.
         11   -1    0    0    0    0 -0.00000000000E+00 -0.00000000000E+00 -0.45593999997E+02  0.45594000000E+02  0.51100000000E-03 0.  1.
    9900012    2    1    2    0    0  0.36489113916E+02 -0.12154094386E+02  0.13190483763E+02  0.50528852116E+02  0.29999976491E+02 0.  0.
        -12    1    1    2    0    0 -0.36489113916E+02  0.12154094386E+02 -0.13190483763E+02  0.40659147884E+02  0.00000000000E+00 0.  1.
         11    1    3    3    0    0  0.21657763704E+02 -0.48840552873E+01  0.71095852940E+01  0.23312205559E+02  0.51100000000E-03 0. -1.
        -11    1    3    3    0    0  0.14618001809E+02 -0.25529646870E+01 -0.46022055325E+01  0.15536534415E+02  0.51100000000E-03 0.  1.
         12    1    3    3    0    0  0.21334840312E+00 -0.47170744117E+01  0.10683104002E+02  0.11680112142E+02  0.00000000000E+00 0. -1.
</event>
<event>
 7    1  0.5373252E-013  0.5052886E+02  0.7816164E-02  0.1300439E+00
        -11   -1    0    0    0    0  0.00000000000E+00  0.00000000000E+00  0.45593999997E+02  0.45594000000E+02  0.51100000000E-03 0. -1.
         11   -1    0    0    0    0 -0.00000000000E+00 -0.00000000000E+00 -0.45593999997E+02  0.45594000000E+02  0.51100000000E-03 0.  1.
    9900012    2    1    2    0    0 -0.35668235349E+02  0.15908296165E+02  0.11307917121E+02  0.50528857246E+02  0.29999992086E+02 0.  0.
        -12    1    1    2    0    0  0.35668235349E+02 -0.15908296165E+02 -0.11307917121E+02  0.40659142754E+02  0.00000000000E+00 0.  1.
         11    1    3    3    0    0  0.63162448404E+00 -0.11838987131E+01  0.12513779308E+01  0.18348058857E+01  0.51100000000E-03 0.  1.
        -11    1    3    3    0    0 -0.32343484729E+02  0.40128359718E+01  0.12321750340E+02  0.34842924514E+02  0.51100000000E-03 0. -1.
         12    1    3    3    0    0 -0.39563751047E+01  0.13079358907E+02 -0.22652111498E+01  0.13851126847E+02  0.00000000000E+00 0. -1.
</event>
<event>
 7    1  0.5373252E-013  0.5052886E+02  0.7816164E-02  0.1300439E+00
        -11   -1    0    0    0    0  0.00000000000E+00  0.00000000000E+00  0.45593999997E+02  0.45594000000E+02  0.51100000000E-03 0. -1.
         11   -1    0    0    0    0 -0.00000000000E+00 -0.00000000000E+00 -0.45593999997E+02  0.45594000000E+02  0.51100000000E-03 0.  1.
    9900012    2    1    2    0    0 -0.11729621876E+02  0.38641615335E+02 -0.47336168379E+01  0.50528860887E+02  0.30000003152E+02 0.  0.
        -12    1    1    2    0    0  0.11729621876E+02 -0.38641615335E+02  0.47336168379E+01  0.40659139113E+02  0.00000000000E+00 0.  1.
         11    1    3    3    0    0 -0.45557009771E+01  0.27176162025E+01  0.59811096293E+01  0.79945932902E+01  0.51100000000E-03 0. -1.
        -11    1    3    3    0    0  0.56540422770E+00 -0.10381467861E+01 -0.40092026411E+01  0.41798488930E+01  0.51100000000E-03 0.  1.
        -12    1    3    3    0    0 -0.77393251270E+01  0.36962145918E+02 -0.67055238262E+01  0.38354418704E+02  0.00000000000E+00 0.  1.
</event>
<event>
 7    1  0.6878254E-013  0.5052885E+02  0.7816164E-02  0.1300439E+00
        -11   -1    0    0    0    0  0.00000000000E+00  0.00000000000E+00  0.45593999997E+02  0.45594000000E+02  0.51100000000E-03 0. -1.
         11   -1    0    0    0    0 -0.00000000000E+00 -0.00000000000E+00 -0.45593999997E+02  0.45594000000E+02  0.51100000000E-03 0.  1.
    9900012    2    1    2    0    0 -0.17923073763E+02 -0.10557273846E+02  0.34935279577E+02  0.50528851420E+02  0.29999974376E+02 0.  0.
        -12    1    1    2    0    0  0.17923073763E+02  0.10557273846E+02 -0.34935279577E+02  0.40659148580E+02  0.00000000000E+00 0.  1.
         11    1    3    3    0    0 -0.74013275678E+01  0.45325654160E+01  0.64478983820E+01  0.10811993009E+02  0.51100000000E-03 0. -1.
        -11    1    3    3    0    0 -0.16113224468E+02 -0.67404783406E+01  0.20092955958E+02  0.26623240419E+02  0.51100000000E-03 0.  1.
        -12    1    3    3    0    0  0.55914782728E+01 -0.83493609213E+01  0.83944252367E+01  0.13093617992E+02  0.00000000000E+00 0.  1.
</event>
<event>
 7    1  0.5373252E-013  0.5052885E+02  0.7816164E-02  0.1300439E+00
        -11   -1    0    0    0    0  0.00000000000E+00  0.00000000000E+00  0.45593999997E+02  0.45594000000E+02  0.51100000000E-03 0.  1.
         11   -1    0    0    0    0 -0.00000000000E+00 -0.00000000000E+00 -0.45593999997E+02  0.45594000000E+02  0.51100000000E-03 0. -1.
    9900012    2    1    2    0    0 -0.67537060109E+01  0.26113414708E+02 -0.30424385512E+02  0.50528853349E+02  0.29999980240E+02 0.  0.
        -12    1    1    2    0    0  0.67537060109E+01 -0.26113414708E+02  0.30424385512E+02  0.40659146651E+02  0.00000000000E+00 0.  1.
         11    1    3    3    0    0  0.34240532943E+01  0.30958163132E+01 -0.19799142308E+02  0.20330131726E+02  0.51100000000E-03 0. -1.
        -11    1    3    3    0    0  0.94390100863E+00 -0.16458024881E+00  0.14931123927E+01  0.17740971368E+01  0.51100000000E-03 0.  1.
         12    1    3    3    0    0 -0.11121660314E+02  0.23182178644E+02 -0.12118355597E+02  0.28424624486E+02  0.00000000000E+00 0. -1.
</event>
<event>
 7    1  0.6204012E-013  0.5052885E+02  0.7816164E-02  0.1300439E+00
        -11   -1    0    0    0    0  0.00000000000E+00  0.00000000000E+00  0.45593999997E+02  0.45594000000E+02  0.51100000000E-03 0. -1.
         11   -1    0    0    0    0 -0.00000000000E+00 -0.00000000000E+00 -0.45593999997E+02  0.45594000000E+02  0.51100000000E-03 0.  1.
    9900012    2    1    2    0    0  0.37358029610E+02  0.74836611881E+01  0.14196438558E+02  0.50528850613E+02  0.29999971923E+02 0.  0.
        -12    1    1    2    0    0 -0.37358029610E+02 -0.74836611881E+01 -0.14196438558E+02  0.40659149387E+02  0.00000000000E+00 0.  1.
         11    1    3    3    0    0  0.15243406505E+02  0.51562324288E+01 -0.15242263586E+01  0.16163893126E+02  0.51100000000E-03 0. -1.
        -11    1    3    3    0    0 -0.35293417740E+01  0.32506800441E+01  0.14991918712E+01  0.50270021518E+01  0.51100000000E-03 0.  1.
        -12    1    3    3    0    0  0.25643964879E+02 -0.92325128474E+00  0.14221473045E+02  0.29337955335E+02  0.00000000000E+00 0.  1.
</event>
<event>
 7    1  0.5373252E-013  0.5052896E+02  0.7816164E-02  0.1300438E+00
        -11   -1    0    0    0    0  0.00000000000E+00  0.00000000000E+00  0.45593999997E+02  0.45594000000E+02  0.51100000000E-03 0.  1.
         11   -1    0    0    0    0 -0.00000000000E+00 -0.00000000000E+00 -0.45593999997E+02  0.45594000000E+02  0.51100000000E-03 0. -1.
    9900012    2    1    2    0    0  0.14811716973E+02 -0.31945844093E+02  0.20328147936E+02  0.50528960255E+02  0.30000305190E+02 0.  0.
        -12    1    1    2    0    0 -0.14811716973E+02  0.31945844093E+02 -0.20328147936E+02  0.40659039745E+02  0.00000000000E+00 0.  1.
         11    1    3    3    0    0 -0.26988795465E+01  0.46767530318E+00  0.71921808687E+01  0.76961118044E+01  0.51100000000E-03 0. -1.
        -11    1    3    3    0    0  0.41949643954E+01 -0.11057191618E+02 -0.38874058923E+01  0.12448740401E+02  0.51100000000E-03 0.  1.
         12    1    3    3    0    0  0.13315632125E+02 -0.21356327778E+02  0.17023372959E+02  0.30384108049E+02  0.00000000000E+00 0. -1.
</event>
<event>
 7    1  0.5373252E-013  0.5052886E+02  0.7816164E-02  0.1300439E+00
        -11   -1    0    0    0    0  0.00000000000E+00  0.00000000000E+00  0.45593999997E+02  0.45594000000E+02  0.51100000000E-03 0. -1.
         11   -1    0    0    0    0 -0.00000000000E+00 -0.00000000000E+00 -0.45593999997E+02  0.45594000000E+02  0.51100000000E-03 0.  1.
    9900012    2    1    2    0    0  0.22545574343E+02 -0.13512677295E+02  0.31020477283E+02  0.50528863499E+02  0.30000011093E+02 0.  0.
        -12    1    1    2    0    0 -0.22545574343E+02  0.13512677295E+02 -0.31020477283E+02  0.40659136501E+02  0.00000000000E+00 0.  1.
         11    1    3    3    0    0  0.36939469811E+01  0.39612196553E+01 -0.33593246181E+01  0.63735051273E+01  0.51100000000E-03 0. -1.
        -11    1    3    3    0    0  0.40513126161E+01 -0.46608776655E+01  0.23310837237E+01  0.66008231391E+01  0.51100000000E-03 0.  1.
         12    1    3    3    0    0  0.14800314745E+02 -0.12813019285E+02  0.32048718177E+02  0.37554535233E+02  0.00000000000E+00 0. -1.
</event>
<event>
 7    1  0.5373252E-013  0.5052886E+02  0.7816164E-02  0.1300439E+00
        -11   -1    0    0    0    0  0.00000000000E+00  0.00000000000E+00  0.45593999997E+02  0.45594000000E+02  0.51100000000E-03 0.  1.
         11   -1    0    0    0    0 -0.00000000000E+00 -0.00000000000E+00 -0.45593999997E+02  0.45594000000E+02  0.51100000000E-03 0. -1.
    9900012    2    1    2    0    0  0.92723900601E+01 -0.23534122104E+02 -0.31832905427E+02  0.50528856027E+02  0.29999988380E+02 0.  0.
        -12    1    1    2    0    0 -0.92723900601E+01  0.23534122104E+02  0.31832905427E+02  0.40659143973E+02  0.00000000000E+00 0.  1.
         11    1    3    3    0    0 -0.31239897247E+01 -0.52000407537E+01 -0.15547644225E+02  0.16689187423E+02  0.51100000000E-03 0. -1.
        -11    1    3    3    0    0  0.10434479775E+02 -0.14028918319E+02 -0.20887576773E+02  0.27239305811E+02  0.51100000000E-03 0.  1.
         12    1    3    3    0    0  0.19619000100E+01 -0.43051630315E+01  0.46023155708E+01  0.66003627923E+01  0.00000000000E+00 0. -1.
</event>
<event>
 7    1  0.5373252E-013  0.5052886E+02  0.7816164E-02  0.1300439E+00
        -11   -1    0    0    0    0  0.00000000000E+00  0.00000000000E+00  0.45593999997E+02  0.45594000000E+02  0.51100000000E-03 0.  1.
         11   -1    0    0    0    0 -0.00000000000E+00 -0.00000000000E+00 -0.45593999997E+02  0.45594000000E+02  0.51100000000E-03 0. -1.
    9900012    2    1    2    0    0 -0.31123163374E+02  0.21967912290E+02 -0.14210029381E+02  0.50528863218E+02  0.30000010239E+02 0.  0.
        -12    1    1    2    0    0  0.31123163374E+02 -0.21967912290E+02  0.14210029381E+02  0.40659136782E+02  0.00000000000E+00 0.  1.
         11    1    3    3    0    0 -0.33357544032E+01 -0.26183586889E+01 -0.62542272972E+01  0.75563495822E+01  0.51100000000E-03 0. -1.
        -11    1    3    3    0    0 -0.17128019405E+02  0.17548229592E+02 -0.14636549231E+02  0.28557625675E+02  0.51100000000E-03 0.  1.
        -12    1    3    3    0    0 -0.10659389566E+02  0.70380413865E+01  0.66807471469E+01  0.14414887961E+02  0.00000000000E+00 0.  1.
</event>
<event>
 7    1  0.5373252E-013  0.5052886E+02  0.7816164E-02  0.1300439E+00
        -11   -1    0    0    0    0  0.00000000000E+00  0.00000000000E+00  0.45593999997E+02  0.45594000000E+02  0.51100000000E-03 0.  1.
         11   -1    0    0    0    0 -0.00000000000E+00 -0.00000000000E+00 -0.45593999997E+02  0.45594000000E+02  0.51100000000E-03 0. -1.
    9900012    2    1    2    0    0 -0.28060661672E+02 -0.15576140732E+02 -0.24962945028E+02  0.50528861814E+02  0.30000005970E+02 0.  0.
        -12    1    1    2    0    0  0.28060661672E+02  0.15576140732E+02  0.24962945028E+02  0.40659138186E+02  0.00000000000E+00 0.  1.
         11    1    3    3    0    0 -0.17252192087E+02 -0.12194927238E+02 -0.26043555144E+02  0.33535371579E+02  0.51100000000E-03 0. -1.
        -11    1    3    3    0    0 -0.10612300421E+01 -0.58571267318E+01 -0.23034200952E+01  0.63826238453E+01  0.51100000000E-03 0.  1.
         12    1    3    3    0    0 -0.97472395427E+01  0.24759132377E+01  0.33840302118E+01  0.10610866390E+02  0.00000000000E+00 0. -1.
</event>
<event>
 7    1  0.5373252E-013  0.5052886E+02  0.7816164E-02  0.1300439E+00
        -11   -1    0    0    0    0  0.00000000000E+00  0.00000000000E+00  0.45593999997E+02  0.45594000000E+02  0.51100000000E-03 0.  1.
         11   -1    0    0    0    0 -0.00000000000E+00 -0.00000000000E+00 -0.45593999997E+02  0.45594000000E+02  0.51100000000E-03 0. -1.
    9900012    2    1    2    0    0 -0.10447375610E+02 -0.13610278695E+02 -0.36861614735E+02  0.50528856082E+02  0.29999988546E+02 0.  0.
        -12    1    1    2    0    0  0.10447375610E+02  0.13610278695E+02  0.36861614735E+02  0.40659143918E+02  0.00000000000E+00 0.  1.
         11    1    3    3    0    0 -0.10130270430E+02 -0.15525772976E+02 -0.14343153575E+02  0.23439241887E+02  0.51100000000E-03 0. -1.
        -11    1    3    3    0    0  0.50962076934E+01 -0.43598840312E+01 -0.11327142236E+02  0.13163740848E+02  0.51100000000E-03 0.  1.
        -12    1    3    3    0    0 -0.54133128731E+01  0.62753783121E+01 -0.11191318924E+02  0.13925873347E+02  0.00000000000E+00 0.  1.
</event>
<event>
 7    1  0.5373252E-013  0.5052885E+02  0.7816164E-02  0.1300439E+00
        -11   -1    0    0    0    0  0.00000000000E+00  0.00000000000E+00  0.45593999997E+02  0.45594000000E+02  0.51100000000E-03 0.  1.
         11   -1    0    0    0    0 -0.00000000000E+00 -0.00000000000E+00 -0.45593999997E+02  0.45594000000E+02  0.51100000000E-03 0. -1.
    9900012    2    1    2    0    0  0.36943096472E+02 -0.10864006199E+02 -0.13051710585E+02  0.50528853958E+02  0.29999982092E+02 0.  0.
        -12    1    1    2    0    0 -0.36943096472E+02  0.10864006199E+02  0.13051710585E+02  0.40659146042E+02  0.00000000000E+00 0.  1.
         11    1    3    3    0    0  0.17513455354E+02  0.64711768427E+01 -0.34382663480E+01  0.18984702366E+02  0.51100000000E-03 0.  1.
        -11    1    3    3    0    0  0.15575932449E+01 -0.43932005789E+01  0.35420187265E+01  0.58542467459E+01  0.51100000000E-03 0. -1.
         12    1    3    3    0    0  0.17872047873E+02 -0.12941982463E+02 -0.13155462964E+02  0.25689904847E+02  0.00000000000E+00 0. -1.
</event>
<event>
 7    1  0.5373252E-013  0.5052887E+02  0.7816164E-02  0.1300439E+00
        -11   -1    0    0    0    0  0.00000000000E+00  0.00000000000E+00  0.45593999997E+02  0.45594000000E+02  0.51100000000E-03 0.  1.
         11   -1    0    0    0    0 -0.00000000000E+00 -0.00000000000E+00 -0.45593999997E+02  0.45594000000E+02  0.51100000000E-03 0. -1.
    9900012    2    1    2    0    0  0.21968604386E+02  0.45560118455E+01 -0.33908520696E+02  0.50528873123E+02  0.30000040344E+02 0.  0.
        -12    1    1    2    0    0 -0.21968604386E+02 -0.45560118455E+01  0.33908520696E+02  0.40659126877E+02  0.00000000000E+00 0.  1.
         11    1    3    3    0    0  0.11339172067E+02  0.11184139346E+00 -0.21622224953E+02  0.24415362865E+02  0.51100000000E-03 0. -1.
        -11    1    3    3    0    0  0.71331048554E+01 -0.53162967397E+01 -0.12964786016E+02  0.15723545167E+02  0.51100000000E-03 0.  1.
         12    1    3    3    0    0  0.34963274639E+01  0.97604671917E+01  0.67849027337E+00  0.10389965091E+02  0.00000000000E+00 0. -1.
</event>
<event>
 7    1  0.5373252E-013  0.5052886E+02  0.7816164E-02  0.1300439E+00
        -11   -1    0    0    0    0  0.00000000000E+00  0.00000000000E+00  0.45593999997E+02  0.45594000000E+02  0.51100000000E-03 0.  1.
         11   -1    0    0    0    0 -0.00000000000E+00 -0.00000000000E+00 -0.45593999997E+02  0.45594000000E+02  0.51100000000E-03 0. -1.
    9900012    2    1    2    0    0  0.33672596196E+02  0.10504602952E+02 -0.20223139239E+02  0.50528858612E+02  0.29999996237E+02 0.  0.
        -12    1    1    2    0    0 -0.33672596196E+02 -0.10504602952E+02  0.20223139239E+02  0.40659141388E+02  0.00000000000E+00 0.  1.
         11    1    3    3    0    0 -0.22888597092E+01  0.15415137113E+01  0.90089539269E+00  0.29028875383E+01  0.51100000000E-03 0. -1.
        -11    1    3    3    0    0  0.10177427240E+02 -0.55881293969E+01 -0.64854087734E+00  0.11628749757E+02  0.51100000000E-03 0.  1.
         12    1    3    3    0    0  0.25784028664E+02  0.14551218637E+02 -0.20475493754E+02  0.35997221316E+02  0.00000000000E+00 0. -1.
</event>
<event>
 7    1  0.5373252E-013  0.5052891E+02  0.7816164E-02  0.1300439E+00
        -11   -1    0    0    0    0  0.00000000000E+00  0.00000000000E+00  0.45593999997E+02  0.45594000000E+02  0.51100000000E-03 0.  1.
         11   -1    0    0    0    0 -0.00000000000E+00 -0.00000000000E+00 -0.45593999997E+02  0.45594000000E+02  0.51100000000E-03 0. -1.
    9900012    2    1    2    0    0 -0.84367266226E+01 -0.18294973540E+02 -0.35316808624E+02  0.50528912647E+02  0.30000160483E+02 0.  0.
        -12    1    1    2    0    0  0.84367266226E+01  0.18294973540E+02  0.35316808624E+02  0.40659087353E+02  0.00000000000E+00 0.  1.
         11    1    3    3    0    0  0.51951091579E+00 -0.21403716928E+01 -0.16532274227E+02  0.16678344461E+02  0.51100000000E-03 0. -1.
        -11    1    3    3    0    0 -0.14333797599E+02 -0.17278616877E+02 -0.16676223710E+02  0.27966136527E+02  0.51100000000E-03 0.  1.
         12    1    3    3    0    0  0.53775600611E+01  0.11240150294E+01 -0.21083106880E+01  0.58844316594E+01  0.00000000000E+00 0. -1.
</event>
<event>
 7    1  0.5373252E-013  0.5052884E+02  0.7816164E-02  0.1300439E+00
        -11   -1    0    0    0    0  0.00000000000E+00  0.00000000000E+00  0.45593999997E+02  0.45594000000E+02  0.51100000000E-03 0. -1.
         11   -1    0    0    0    0 -0.00000000000E+00 -0.00000000000E+00 -0.45593999997E+02  0.45594000000E+02  0.51100000000E-03 0.  1.
    9900012    2    1    2    0    0  0.10402328218E+02  0.13828684731E+02  0.36793017467E+02  0.50528842507E+02  0.29999947284E+02 0.  0.
        -12    1    1    2    0    0 -0.10402328218E+02 -0.13828684731E+02 -0.36793017467E+02  0.40659157493E+02  0.00000000000E+00 0.  1.
         11    1    3    3    0    0  0.90676329470E+01  0.15414480674E+02  0.20940729329E+02  0.27538016029E+02  0.51100000000E-03 0. -1.
        -11    1    3    3    0    0  0.24263336912E+01  0.50541958802E+01 -0.17401563428E+00  0.56091240741E+01  0.51100000000E-03 0.  1.
         12    1    3    3    0    0 -0.10916384201E+01 -0.66399918237E+01  0.16026303773E+02  0.17381702404E+02  0.00000000000E+00 0. -1.
</event>
<event>
 7    1  0.5373252E-013  0.5052886E+02  0.7816164E-02  0.1300439E+00
        -11   -1    0    0    0    0  0.00000000000E+00  0.00000000000E+00  0.45593999997E+02  0.45594000000E+02  0.51100000000E-03 0.  1.
         11   -1    0    0    0    0 -0.00000000000E+00 -0.00000000000E+00 -0.45593999997E+02  0.45594000000E+02  0.51100000000E-03 0. -1.
    9900012    2    1    2    0    0 -0.12706008553E+01 -0.50775451182E+01 -0.40320832921E+02  0.50528862547E+02  0.30000008199E+02 0.  0.
        -12    1    1    2    0    0  0.12706008553E+01  0.50775451182E+01  0.40320832921E+02  0.40659137453E+02  0.00000000000E+00 0.  1.
         11    1    3    3    0    0 -0.33422540723E+01 -0.26105121194E+01 -0.36437892415E+02  0.36683858027E+02  0.51100000000E-03 0. -1.
        -11    1    3    3    0    0 -0.53650568822E+01 -0.23181908559E+01 -0.19266839380E+01  0.61538569574E+01  0.51100000000E-03 0.  1.
        -12    1    3    3    0    0  0.74367100991E+01 -0.14884214294E+00 -0.19562565678E+01  0.76911475633E+01  0.00000000000E+00 0.  1.
</event>
<event>
 7    1  0.5373252E-013  0.5052886E+02  0.7816164E-02  0.1300439E+00
        -11   -1    0    0    0    0  0.00000000000E+00  0.00000000000E+00  0.45593999997E+02  0.45594000000E+02  0.51100000000E-03 0. -1.
         11   -1    0    0    0    0 -0.00000000000E+00 -0.00000000000E+00 -0.45593999997E+02  0.45594000000E+02  0.51100000000E-03 0.  1.
    9900012    2    1    2    0    0 -0.28881743774E+02 -0.20558383499E+02 -0.19908886654E+02  0.50528855600E+02  0.29999987082E+02 0.  0.
        -12    1    1    2    0    0  0.28881743774E+02  0.20558383499E+02  0.19908886654E+02  0.40659144400E+02  0.00000000000E+00 0.  1.
         11    1    3    3    0    0  0.46598988760E+01 -0.76117250240E+00  0.19963330666E+01  0.51263424668E+01  0.51100000000E-03 0. -1.
        -11    1    3    3    0    0 -0.77658832940E+01 -0.12776021989E+01 -0.60294402654E+01  0.99144016909E+01  0.51100000000E-03 0.  1.
         12    1    3    3    0    0 -0.25775759356E+02 -0.18519608798E+02 -0.15875779456E+02  0.35488111442E+02  0.00000000000E+00 0. -1.
</event>
<event>
 7    1  0.5373252E-013  0.5052885E+02  0.7816164E-02  0.1300439E+00
        -11   -1    0    0    0    0  0.00000000000E+00  0.00000000000E+00  0.45593999997E+02  0.45594000000E+02  0.51100000000E-03 0.  1.
         11   -1    0    0    0    0 -0.00000000000E+00 -0.00000000000E+00 -0.45593999997E+02  0.45594000000E+02  0.51100000000E-03 0. -1.
    9900012    2    1    2    0    0  0.22378540680E+02 -0.28213186939E+02 -0.18878128343E+02  0.50528846910E+02  0.29999960668E+02 0.  0.
        -12    1    1    2    0    0 -0.22378540680E+02  0.28213186939E+02  0.18878128343E+02  0.40659153090E+02  0.00000000000E+00 0.  1.
         11    1    3    3    0    0  0.80742876722E+01 -0.54841273458E+01 -0.17798317329E+01  0.99215712172E+01  0.51100000000E-03 0. -1.
        -11    1    3    3    0    0  0.21373282684E+02 -0.19062504245E+02 -0.15191658996E+02  0.32418864633E+02  0.51100000000E-03 0.  1.
        -12    1    3    3    0    0 -0.70690296764E+01 -0.36665553490E+01 -0.19066376146E+01  0.81884110599E+01  0.00000000000E+00 0.  1.
</event>
<event>
 7    1  0.5373252E-013  0.5052885E+02  0.7816164E-02  0.1300439E+00
        -11   -1    0    0    0    0  0.00000000000E+00  0.00000000000E+00  0.45593999997E+02  0.45594000000E+02  0.51100000000E-03 0.  1.
         11   -1    0    0    0    0 -0.00000000000E+00 -0.00000000000E+00 -0.45593999997E+02  0.45594000000E+02  0.51100000000E-03 0. -1.
    9900012    2    1    2    0    0 -0.30320461056E+02 -0.24579389048E+02 -0.11388133716E+02  0.50528852024E+02  0.29999976212E+02 0.  0.
        -12    1    1    2    0    0  0.30320461056E+02  0.24579389048E+02  0.11388133716E+02  0.40659147976E+02  0.00000000000E+00 0.  1.
         11    1    3    3    0    0 -0.28099438167E+01  0.18753497507E+01  0.19855376083E+01  0.39185559579E+01  0.51100000000E-03 0. -1.
        -11    1    3    3    0    0  0.32101047491E+01 -0.80124986085E+01 -0.43233424600E+01  0.96538177287E+01  0.51100000000E-03 0.  1.
         12    1    3    3    0    0 -0.30720621988E+02 -0.18442240190E+02 -0.90503288640E+01  0.36956478337E+02  0.00000000000E+00 0. -1.
</event>
<event>
 7    1  0.5373252E-013  0.5052885E+02  0.7816164E-02  0.1300439E+00
        -11   -1    0    0    0    0  0.00000000000E+00  0.00000000000E+00  0.45593999997E+02  0.45594000000E+02  0.51100000000E-03 0.  1.
         11   -1    0    0    0    0 -0.00000000000E+00 -0.00000000000E+00 -0.45593999997E+02  0.45594000000E+02  0.51100000000E-03 0. -1.
    9900012    2    1    2    0    0 -0.29312077087E+02  0.14647386265E+02 -0.24071192564E+02  0.50528854669E+02  0.29999984253E+02 0.  0.
        -12    1    1    2    0    0  0.29312077087E+02 -0.14647386265E+02  0.24071192564E+02  0.40659145331E+02  0.00000000000E+00 0.  1.
         11    1    3    3    0    0 -0.25945147388E+02  0.12399902471E+02 -0.75397091068E+01  0.29728024959E+02  0.51100000000E-03 0. -1.
        -11    1    3    3    0    0 -0.44791645832E+01 -0.37222105449E+01 -0.46313624331E+01  0.74409196308E+01  0.51100000000E-03 0.  1.
        -12    1    3    3    0    0  0.11122348841E+01  0.59696943388E+01 -0.11900121025E+02  0.13359910080E+02  0.00000000000E+00 0.  1.
</event>
<event>
 7    1  0.5373252E-013  0.5052887E+02  0.7816164E-02  0.1300439E+00
        -11   -1    0    0    0    0  0.00000000000E+00  0.00000000000E+00  0.45593999997E+02  0.45594000000E+02  0.51100000000E-03 0. -1.
         11   -1    0    0    0    0 -0.00000000000E+00 -0.00000000000E+00 -0.45593999997E+02  0.45594000000E+02  0.51100000000E-03 0.  1.
    9900012    2    1    2    0    0  0.94322580880E+01  0.23906633113E+02  0.31506670022E+02  0.50528869964E+02  0.30000030742E+02 0.  0.
        -12    1    1    2    0    0 -0.94322580880E+01 -0.23906633113E+02 -0.31506670022E+02  0.40659130036E+02  0.00000000000E+00 0.  1.
         11    1    3    3    0    0 -0.17591250382E+01  0.20818109339E+02  0.26207979319E+02  0.33516359850E+02  0.51100000000E-03 0. -1.
        -11    1    3    3    0    0 -0.13840515661E+01 -0.20970057460E+01  0.34589302745E+00  0.25362716897E+01  0.51100000000E-03 0.  1.
        -12    1    3    3    0    0  0.12575434692E+02  0.51855295197E+01  0.49527976753E+01  0.14476238424E+02  0.00000000000E+00 0.  1.
</event>
<event>
 7    1  0.5373252E-013  0.5052886E+02  0.7816164E-02  0.1300439E+00
        -11   -1    0    0    0    0  0.00000000000E+00  0.00000000000E+00  0.45593999997E+02  0.45594000000E+02  0.51100000000E-03 0.  1.
         11   -1    0    0    0    0 -0.00000000000E+00 -0.00000000000E+00 -0.45593999997E+02  0.45594000000E+02  0.51100000000E-03 0. -1.
    9900012    2    1    2    0    0  0.21065061071E+02 -0.27298925396E+02 -0.21545248664E+02  0.50528857539E+02  0.29999992974E+02 0.  0.
        -12    1    1    2    0    0 -0.21065061071E+02  0.27298925396E+02  0.21545248664E+02  0.40659142461E+02  0.00000000000E+00 0.  1.
         11    1    3    3    0    0  0.15893287999E+02 -0.48832792035E+01 -0.12129609425E+02  0.20580827104E+02  0.51100000000E-03 0. -1.
        -11    1    3    3    0    0  0.10568291625E+01  0.24791656206E+01  0.66570416248E+00  0.27760245579E+01  0.51100000000E-03 0.  1.
         12    1    3    3    0    0  0.41149439090E+01 -0.24894811814E+02 -0.10081343401E+02  0.27172005877E+02  0.00000000000E+00 0. -1.
</event>
<event>
 7    1  0.5373252E-013  0.5052887E+02  0.7816164E-02  0.1300439E+00
        -11   -1    0    0    0    0  0.00000000000E+00  0.00000000000E+00  0.45593999997E+02  0.45594000000E+02  0.51100000000E-03 0.  1.
         11   -1    0    0    0    0 -0.00000000000E+00 -0.00000000000E+00 -0.45593999997E+02  0.45594000000E+02  0.51100000000E-03 0. -1.
    9900012    2    1    2    0    0 -0.36234129253E+02 -0.16335426385E+02 -0.85677613722E+01  0.50528870487E+02  0.30000032331E+02 0.  0.
        -12    1    1    2    0    0  0.36234129253E+02  0.16335426385E+02  0.85677613722E+01  0.40659129513E+02  0.00000000000E+00 0.  1.
         11    1    3    3    0    0 -0.97581895888E+01 -0.10954528955E+02 -0.68301817649E+01  0.16182563205E+02  0.51100000000E-03 0. -1.
        -11    1    3    3    0    0  0.29134933020E+01 -0.30106118125E+01  0.19693873506E+01  0.46293318636E+01  0.51100000000E-03 0.  1.
        -12    1    3    3    0    0 -0.29389432966E+02 -0.23702856166E+01 -0.37069669579E+01  0.29716975418E+02  0.00000000000E+00 0.  1.
</event>
<event>
 7    1  0.5373252E-013  0.5052886E+02  0.7816164E-02  0.1300439E+00
        -11   -1    0    0    0    0  0.00000000000E+00  0.00000000000E+00  0.45593999997E+02  0.45594000000E+02  0.51100000000E-03 0.  1.
         11   -1    0    0    0    0 -0.00000000000E+00 -0.00000000000E+00 -0.45593999997E+02  0.45594000000E+02  0.51100000000E-03 0. -1.
    9900012    2    1    2    0    0 -0.32408607988E+02  0.13870186811E+02 -0.20259943523E+02  0.50528864920E+02  0.30000015411E+02 0.  0.
        -12    1    1    2    0    0  0.32408607988E+02 -0.13870186811E+02  0.20259943523E+02  0.40659135080E+02  0.00000000000E+00 0.  1.
         11    1    3    3    0    0 -0.10038298498E+02  0.76512821877E+01 -0.18066768220E+02  0.22039003381E+02  0.51100000000E-03 0. -1.
        -11    1    3    3    0    0 -0.17528793094E+02  0.96671420928E+01 -0.66139863922E+01  0.21082149791E+02  0.51100000000E-03 0.  1.
        -12    1    3    3    0    0 -0.48415163962E+01 -0.34482374694E+01  0.44208110887E+01  0.74077117480E+01  0.00000000000E+00 0.  1.
</event>
<event>
 7    1  0.5373252E-013  0.5052887E+02  0.7816164E-02  0.1300439E+00
        -11   -1    0    0    0    0  0.00000000000E+00  0.00000000000E+00  0.45593999997E+02  0.45594000000E+02  0.51100000000E-03 0.  1.
         11   -1    0    0    0    0 -0.00000000000E+00 -0.00000000000E+00 -0.45593999997E+02  0.45594000000E+02  0.51100000000E-03 0. -1.
    9900012    2    1    2    0    0  0.24522485986E+02 -0.30567027853E+02 -0.10838340826E+02  0.50528866431E+02  0.30000020003E+02 0.  0.
        -12    1    1    2    0    0 -0.24522485986E+02  0.30567027853E+02  0.10838340826E+02  0.40659133569E+02  0.00000000000E+00 0.  1.
         11    1    3    3    0    0  0.45834490987E+01 -0.21846346296E+02 -0.81984812062E+01  0.23779948412E+02  0.51100000000E-03 0. -1.
        -11    1    3    3    0    0  0.56687346448E+01 -0.52131214832E+01 -0.80021170078E+01  0.11106082340E+02  0.51100000000E-03 0.  1.
        -12    1    3    3    0    0  0.14270302243E+02 -0.35075600741E+01  0.53622573882E+01  0.15642835679E+02  0.00000000000E+00 0.  1.
</event>
<event>
 7    1  0.5373252E-013  0.5052888E+02  0.7816164E-02  0.1300439E+00
        -11   -1    0    0    0    0  0.00000000000E+00  0.00000000000E+00  0.45593999997E+02  0.45594000000E+02  0.51100000000E-03 0.  1.
         11   -1    0    0    0    0 -0.00000000000E+00 -0.00000000000E+00 -0.45593999997E+02  0.45594000000E+02  0.51100000000E-03 0. -1.
    9900012    2    1    2    0    0  0.28121466569E+02  0.27179636353E+01 -0.29239700057E+02  0.50528877189E+02  0.30000052705E+02 0.  0.
        -12    1    1    2    0    0 -0.28121466569E+02 -0.27179636353E+01  0.29239700057E+02  0.40659122811E+02  0.00000000000E+00 0.  1.
         11    1    3    3    0    0  0.11760965638E+02 -0.49263222555E+01 -0.21338796509E+02  0.24858262216E+02  0.51100000000E-03 0. -1.
        -11    1    3    3    0    0  0.17480567037E+02  0.31845889038E+01 -0.10244060774E+02  0.20509817449E+02  0.51100000000E-03 0.  1.
        -12    1    3    3    0    0 -0.11200661065E+01  0.44596969870E+01  0.23431572250E+01  0.51607975237E+01  0.00000000000E+00 0.  1.
</event>
<event>
 7    1  0.5373252E-013  0.5052886E+02  0.7816164E-02  0.1300439E+00
        -11   -1    0    0    0    0  0.00000000000E+00  0.00000000000E+00  0.45593999997E+02  0.45594000000E+02  0.51100000000E-03 0. -1.
         11   -1    0    0    0    0 -0.00000000000E+00 -0.00000000000E+00 -0.45593999997E+02  0.45594000000E+02  0.51100000000E-03 0.  1.
    9900012    2    1    2    0    0  0.13616721290E+02  0.38209827130E+02 -0.27855801922E+01  0.50528862711E+02  0.30000008698E+02 0.  0.
        -12    1    1    2    0    0 -0.13616721290E+02 -0.38209827130E+02  0.27855801922E+01  0.40659137289E+02  0.00000000000E+00 0.  1.
         11    1    3    3    0    0 -0.55823299062E+00  0.44264563547E+01  0.32251341131E+00  0.44731594084E+01  0.51100000000E-03 0. -1.
        -11    1    3    3    0    0  0.14955607622E+01  0.16369942609E+02  0.11471349557E+02  0.20045038886E+02  0.51100000000E-03 0.  1.
         12    1    3    3    0    0  0.12679393519E+02  0.17413428167E+02 -0.14579443161E+02  0.26010664417E+02  0.00000000000E+00 0. -1.
</event>
<event>
 7    1  0.5373252E-013  0.5052886E+02  0.7816164E-02  0.1300439E+00
        -11   -1    0    0    0    0  0.00000000000E+00  0.00000000000E+00  0.45593999997E+02  0.45594000000E+02  0.51100000000E-03 0.  1.
         11   -1    0    0    0    0 -0.00000000000E+00 -0.00000000000E+00 -0.45593999997E+02  0.45594000000E+02  0.51100000000E-03 0. -1.
    9900012    2    1    2    0    0 -0.13430700735E+02  0.34634031014E+02 -0.16530745190E+02  0.50528863719E+02  0.30000011761E+02 0.  0.
        -12    1    1    2    0    0  0.13430700735E+02 -0.34634031014E+02  0.16530745190E+02  0.40659136281E+02  0.00000000000E+00 0.  1.
         11    1    3    3    0    0 -0.10581423387E+02  0.14802626118E+02 -0.58457788862E+01  0.19111708242E+02  0.51100000000E-03 0. -1.
        -11    1    3    3    0    0 -0.10786325931E+02  0.17883118191E+02 -0.10168457992E+02  0.23228178609E+02  0.51100000000E-03 0.  1.
        -12    1    3    3    0    0  0.79370485833E+01  0.19482867062E+01 -0.51650831197E+00  0.81889768677E+01  0.00000000000E+00 0.  1.
</event>
<event>
 7    1  0.5373252E-013  0.5052886E+02  0.7816164E-02  0.1300439E+00
        -11   -1    0    0    0    0  0.00000000000E+00  0.00000000000E+00  0.45593999997E+02  0.45594000000E+02  0.51100000000E-03 0.  1.
         11   -1    0    0    0    0 -0.00000000000E+00 -0.00000000000E+00 -0.45593999997E+02  0.45594000000E+02  0.51100000000E-03 0. -1.
    9900012    2    1    2    0    0 -0.23150533220E+02 -0.35561478573E+01 -0.33235110822E+02  0.50528856289E+02  0.29999989175E+02 0.  0.
        -12    1    1    2    0    0  0.23150533220E+02  0.35561478573E+01  0.33235110822E+02  0.40659143711E+02  0.00000000000E+00 0.  1.
         11    1    3    3    0    0 -0.16266813519E+02  0.37484843802E+01 -0.23683112375E+02  0.28974992135E+02  0.51100000000E-03 0. -1.
        -11    1    3    3    0    0 -0.95166816546E+01  0.79764817976E+00 -0.12029908760E+01  0.96255212660E+01  0.51100000000E-03 0.  1.
         12    1    3    3    0    0  0.26329619535E+01 -0.81022804172E+01 -0.83490075715E+01  0.11928342887E+02  0.00000000000E+00 0. -1.
</event>
<event>
 7    1  0.5373252E-013  0.5052887E+02  0.7816164E-02  0.1300439E+00
        -11   -1    0    0    0    0  0.00000000000E+00  0.00000000000E+00  0.45593999997E+02  0.45594000000E+02  0.51100000000E-03 0.  1.
         11   -1    0    0    0    0 -0.00000000000E+00 -0.00000000000E+00 -0.45593999997E+02  0.45594000000E+02  0.51100000000E-03 0. -1.
    9900012    2    1    2    0    0  0.10326978511E+02  0.39309686837E+02 -0.11257059172E+01  0.50528865994E+02  0.30000018674E+02 0.  0.
        -12    1    1    2    0    0 -0.10326978511E+02 -0.39309686837E+02  0.11257059172E+01  0.40659134006E+02  0.00000000000E+00 0.  1.
         11    1    3    3    0    0  0.83680295153E+01  0.14232040269E+02  0.11690218569E+02  0.20229584737E+02  0.51100000000E-03 0.  1.
        -11    1    3    3    0    0 -0.34769464404E+01  0.26519426610E+01 -0.17865260803E+01  0.47237307420E+01  0.51100000000E-03 0. -1.
        -12    1    3    3    0    0  0.54358954358E+01  0.22425703907E+02 -0.11029398406E+02  0.25575550514E+02  0.00000000000E+00 0.  1.
</event>
<event>
 7    1  0.5373252E-013  0.5052885E+02  0.7816164E-02  0.1300439E+00
        -11   -1    0    0    0    0  0.00000000000E+00  0.00000000000E+00  0.45593999997E+02  0.45594000000E+02  0.51100000000E-03 0. -1.
         11   -1    0    0    0    0 -0.00000000000E+00 -0.00000000000E+00 -0.45593999997E+02  0.45594000000E+02  0.51100000000E-03 0.  1.
    9900012    2    1    2    0    0 -0.17734308287E+02  0.30036178192E+02  0.20892314669E+02  0.50528849701E+02  0.29999969151E+02 0.  0.
        -12    1    1    2    0    0  0.17734308287E+02 -0.30036178192E+02 -0.20892314669E+02  0.40659150299E+02  0.00000000000E+00 0.  1.
         11    1    3    3    0    0  0.20387491339E+01  0.33758578606E+01  0.84053024863E+01  0.92845045357E+01  0.51100000000E-03 0. -1.
        -11    1    3    3    0    0 -0.14554208161E+02  0.20194677473E+02  0.18477387363E+02  0.31001029297E+02  0.51100000000E-03 0.  1.
        -12    1    3    3    0    0 -0.52188492602E+01  0.64656428588E+01 -0.59903751804E+01  0.10243315868E+02  0.00000000000E+00 0.  1.
</event>
<event>
 7    1  0.5373252E-013  0.5052886E+02  0.7816164E-02  0.1300439E+00
        -11   -1    0    0    0    0  0.00000000000E+00  0.00000000000E+00  0.45593999997E+02  0.45594000000E+02  0.51100000000E-03 0.  1.
         11   -1    0    0    0    0 -0.00000000000E+00 -0.00000000000E+00 -0.45593999997E+02  0.45594000000E+02  0.51100000000E-03 0. -1.
    9900012    2    1    2    0    0 -0.34338075914E+01  0.37958528157E+02 -0.14160671236E+02  0.50528861983E+02  0.30000006484E+02 0.  0.
        -12    1    1    2    0    0  0.34338075914E+01 -0.37958528157E+02  0.14160671236E+02  0.40659138017E+02  0.00000000000E+00 0.  1.
         11    1    3    3    0    0 -0.47814733908E+01  0.47569319969E+00 -0.79308477325E+01  0.92729239091E+01  0.51100000000E-03 0. -1.
        -11    1    3    3    0    0  0.75740521252E+01  0.97597188905E+01 -0.13699752897E+01  0.12429610250E+02  0.51100000000E-03 0.  1.
         12    1    3    3    0    0 -0.62263863259E+01  0.27723116067E+02 -0.48598482135E+01  0.28826327824E+02  0.00000000000E+00 0. -1.
</event>
<event>
 7    1  0.5373252E-013  0.5052888E+02  0.7816164E-02  0.1300439E+00
        -11   -1    0    0    0    0  0.00000000000E+00  0.00000000000E+00  0.45593999997E+02  0.45594000000E+02  0.51100000000E-03 0. -1.
         11   -1    0    0    0    0 -0.00000000000E+00 -0.00000000000E+00 -0.45593999997E+02  0.45594000000E+02  0.51100000000E-03 0.  1.
    9900012    2    1    2    0    0 -0.65177007394E+00 -0.28793822173E+02  0.28699385397E+02  0.50528883904E+02  0.30000073114E+02 0.  0.
        -12    1    1    2    0    0  0.65177007394E+00  0.28793822173E+02 -0.28699385397E+02  0.40659116096E+02  0.00000000000E+00 0.  1.
         11    1    3    3    0    0  0.59898310696E+01 -0.47270916380E+01  0.29592808083E+01  0.81841807629E+01  0.51100000000E-03 0. -1.
        -11    1    3    3    0    0  0.37796949357E+01 -0.63616330211E+01 -0.21489816437E+01  0.77054909557E+01  0.51100000000E-03 0.  1.
         12    1    3    3    0    0 -0.10421296079E+02 -0.17705097514E+02  0.27889086232E+02  0.34639212185E+02  0.00000000000E+00 0. -1.
</event>
<event>
 7    1  0.5373252E-013  0.5052886E+02  0.7816164E-02  0.1300439E+00
        -11   -1    0    0    0    0  0.00000000000E+00  0.00000000000E+00  0.45593999997E+02  0.45594000000E+02  0.51100000000E-03 0. -1.
         11   -1    0    0    0    0 -0.00000000000E+00 -0.00000000000E+00 -0.45593999997E+02  0.45594000000E+02  0.51100000000E-03 0.  1.
    9900012    2    1    2    0    0 -0.19544076202E+02 -0.95317453186E+01  0.34356087626E+02  0.50528857849E+02  0.29999993919E+02 0.  0.
        -12    1    1    2    0    0  0.19544076202E+02  0.95317453186E+01 -0.34356087626E+02  0.40659142151E+02  0.00000000000E+00 0.  1.
         11    1    3    3    0    0 -0.20234038378E+02 -0.56933743716E+01  0.29828361840E+02  0.36490574004E+02  0.51100000000E-03 0. -1.
        -11    1    3    3    0    0  0.25883835964E+01  0.42247456882E+01  0.22870580674E+01  0.54569992338E+01  0.51100000000E-03 0.  1.
        -12    1    3    3    0    0 -0.18984214211E+01 -0.80631166352E+01  0.22406677189E+01  0.85812846119E+01  0.00000000000E+00 0.  1.
</event>
<event>
 7    1  0.5373252E-013  0.5052886E+02  0.7816164E-02  0.1300439E+00
        -11   -1    0    0    0    0  0.00000000000E+00  0.00000000000E+00  0.45593999997E+02  0.45594000000E+02  0.51100000000E-03 0. -1.
         11   -1    0    0    0    0 -0.00000000000E+00 -0.00000000000E+00 -0.45593999997E+02  0.45594000000E+02  0.51100000000E-03 0.  1.
    9900012    2    1    2    0    0 -0.21032865813E+01 -0.97345538737E+01  0.39420559267E+02  0.50528857775E+02  0.29999993694E+02 0.  0.
        -12    1    1    2    0    0  0.21032865813E+01  0.97345538737E+01 -0.39420559267E+02  0.40659142225E+02  0.00000000000E+00 0.  1.
         11    1    3    3    0    0 -0.10765491427E+01 -0.34008492613E+01  0.24578887636E+02  0.24836393688E+02  0.51100000000E-03 0. -1.
        -11    1    3    3    0    0 -0.56473379837E+01 -0.12217995856E+02  0.10196165363E+02  0.16885900551E+02  0.51100000000E-03 0.  1.
         12    1    3    3    0    0  0.46206005451E+01  0.58842912437E+01  0.46455062678E+01  0.88065635365E+01  0.00000000000E+00 0. -1.
</event>
<event>
 7    1  0.5373252E-013  0.5052886E+02  0.7816164E-02  0.1300439E+00
        -11   -1    0    0    0    0  0.00000000000E+00  0.00000000000E+00  0.45593999997E+02  0.45594000000E+02  0.51100000000E-03 0.  1.
         11   -1    0    0    0    0 -0.00000000000E+00 -0.00000000000E+00 -0.45593999997E+02  0.45594000000E+02  0.51100000000E-03 0. -1.
    9900012    2    1    2    0    0 -0.34664562826E+02  0.21059104599E+02 -0.28368775472E+01  0.50528859864E+02  0.30000000042E+02 0.  0.
        -12    1    1    2    0    0  0.34664562826E+02 -0.21059104599E+02  0.28368775472E+01  0.40659140136E+02  0.00000000000E+00 0.  1.
         11    1    3    3    0    0 -0.13639680440E+02  0.32869779049E+01 -0.60457761297E+01  0.15277320299E+02  0.51100000000E-03 0. -1.
        -11    1    3    3    0    0 -0.24333442326E+02  0.18157461806E+02 -0.36843613933E+00  0.30363556776E+02  0.51100000000E-03 0.  1.
        -12    1    3    3    0    0  0.33085599402E+01 -0.38533511233E+00  0.35773347218E+01  0.48879827882E+01  0.00000000000E+00 0.  1.
</event>
<event>
 7    1  0.5373252E-013  0.5052886E+02  0.7816164E-02  0.1300439E+00
        -11   -1    0    0    0    0  0.00000000000E+00  0.00000000000E+00  0.45593999997E+02  0.45594000000E+02  0.51100000000E-03 0.  1.
         11   -1    0    0    0    0 -0.00000000000E+00 -0.00000000000E+00 -0.45593999997E+02  0.45594000000E+02  0.51100000000E-03 0. -1.
    9900012    2    1    2    0    0  0.39899545208E+02 -0.19471240792E+01 -0.75763398367E+01  0.50528856805E+02  0.29999990746E+02 0.  0.
        -12    1    1    2    0    0 -0.39899545208E+02  0.19471240792E+01  0.75763398367E+01  0.40659143195E+02  0.00000000000E+00 0.  1.
         11    1    3    3    0    0  0.43756681355E+01 -0.37161397057E+01 -0.25634157864E+01  0.62870713929E+01  0.51100000000E-03 0. -1.
        -11    1    3    3    0    0  0.30135992765E+02  0.11902189922E+02 -0.48640676176E+01  0.32764299762E+02  0.51100000000E-03 0.  1.
        -12    1    3    3    0    0  0.53878843078E+01 -0.10133174295E+02 -0.14885643270E+00  0.11477485650E+02  0.00000000000E+00 0.  1.
</event>
<event>
 7    1  0.5373252E-013  0.5052885E+02  0.7816164E-02  0.1300439E+00
        -11   -1    0    0    0    0  0.00000000000E+00  0.00000000000E+00  0.45593999997E+02  0.45594000000E+02  0.51100000000E-03 0. -1.
         11   -1    0    0    0    0 -0.00000000000E+00 -0.00000000000E+00 -0.45593999997E+02  0.45594000000E+02  0.51100000000E-03 0.  1.
    9900012    2    1    2    0    0  0.40554343179E+02 -0.15892293080E+01 -0.24466273275E+01  0.50528851143E+02  0.29999973536E+02 0.  0.
        -12    1    1    2    0    0 -0.40554343179E+02  0.15892293080E+01  0.24466273275E+01  0.40659148857E+02  0.00000000000E+00 0.  1.
         11    1    3    3    0    0  0.29049692493E+02  0.57665215238E+01 -0.74276466250E+00  0.29625818200E+02  0.51100000000E-03 0. -1.
        -11    1    3    3    0    0  0.12965777599E+02 -0.98193280622E+01  0.18155008696E+01  0.16365409742E+02  0.51100000000E-03 0.  1.
        -12    1    3    3    0    0 -0.14611269137E+01  0.24635772304E+01 -0.35193635346E+01  0.45376232013E+01  0.00000000000E+00 0.  1.
</event>
<event>
 7    1  0.5373252E-013  0.5052884E+02  0.7816164E-02  0.1300439E+00
        -11   -1    0    0    0    0  0.00000000000E+00  0.00000000000E+00  0.45593999997E+02  0.45594000000E+02  0.51100000000E-03 0. -1.
         11   -1    0    0    0    0 -0.00000000000E+00 -0.00000000000E+00 -0.45593999997E+02  0.45594000000E+02  0.51100000000E-03 0.  1.
    9900012    2    1    2    0    0 -0.17771087604E+02 -0.35084630446E+02  0.10316212124E+02  0.50528842596E+02  0.29999947555E+02 0.  0.
        -12    1    1    2    0    0  0.17771087604E+02  0.35084630446E+02 -0.10316212124E+02  0.40659157404E+02  0.00000000000E+00 0.  1.
         11    1    3    3    0    0  0.14880636004E+01 -0.59354195044E+01  0.21127724040E+01  0.64735882989E+01  0.51100000000E-03 0. -1.
        -11    1    3    3    0    0 -0.61995418168E+01  0.15368598675E+01 -0.50765770505E+01  0.81589148667E+01  0.51100000000E-03 0.  1.
         12    1    3    3    0    0 -0.13059609388E+02 -0.30686070810E+02  0.13280016771E+02  0.35896339431E+02  0.00000000000E+00 0. -1.
</event>
<event>
 7    1  0.5373252E-013  0.5052885E+02  0.7816164E-02  0.1300439E+00
        -11   -1    0    0    0    0  0.00000000000E+00  0.00000000000E+00  0.45593999997E+02  0.45594000000E+02  0.51100000000E-03 0. -1.
         11   -1    0    0    0    0 -0.00000000000E+00 -0.00000000000E+00 -0.45593999997E+02  0.45594000000E+02  0.51100000000E-03 0.  1.
    9900012    2    1    2    0    0  0.59665578055E+01  0.38468305916E+02  0.11736956551E+02  0.50528849478E+02  0.29999968474E+02 0.  0.
        -12    1    1    2    0    0 -0.59665578055E+01 -0.38468305916E+02 -0.11736956551E+02  0.40659150522E+02  0.00000000000E+00 0.  1.
         11    1    3    3    0    0 -0.80570957180E+00  0.15316680362E+02  0.17275013503E+02  0.23101427597E+02  0.51100000000E-03 0. -1.
        -11    1    3    3    0    0  0.13774474072E+01  0.60678561874E+00  0.24779466739E+01  0.28992706197E+01  0.51100000000E-03 0.  1.
         12    1    3    3    0    0  0.53948199701E+01  0.22544839935E+02 -0.80160036255E+01  0.24528151262E+02  0.00000000000E+00 0. -1.
</event>
<event>
 7    1  0.5373252E-013  0.5052886E+02  0.7816164E-02  0.1300439E+00
        -11   -1    0    0    0    0  0.00000000000E+00  0.00000000000E+00  0.45593999997E+02  0.45594000000E+02  0.51100000000E-03 0.  1.
         11   -1    0    0    0    0 -0.00000000000E+00 -0.00000000000E+00 -0.45593999997E+02  0.45594000000E+02  0.51100000000E-03 0. -1.
    9900012    2    1    2    0    0 -0.31892944195E+02  0.18626059397E+02 -0.17002218700E+02  0.50528863034E+02  0.30000009679E+02 0.  0.
        -12    1    1    2    0    0  0.31892944195E+02 -0.18626059397E+02  0.17002218700E+02  0.40659136966E+02  0.00000000000E+00 0.  1.
         11    1    3    3    0    0 -0.72135938037E+01 -0.12329502055E+01 -0.13828069643E+02  0.15645178557E+02  0.51100000000E-03 0. -1.
        -11    1    3    3    0    0 -0.19149136074E+01 -0.12853328919E+00  0.33818461535E+01  0.38884828143E+01  0.51100000000E-03 0.  1.
         12    1    3    3    0    0 -0.22764436783E+02  0.19987542892E+02 -0.65559952112E+01  0.30995201663E+02  0.00000000000E+00 0. -1.
</event>
<event>
 7    1  0.5373252E-013  0.5052889E+02  0.7816164E-02  0.1300439E+00
        -11   -1    0    0    0    0  0.00000000000E+00  0.00000000000E+00  0.45593999997E+02  0.45594000000E+02  0.51100000000E-03 0.  1.
         11   -1    0    0    0    0 -0.00000000000E+00 -0.00000000000E+00 -0.45593999997E+02  0.45594000000E+02  0.51100000000E-03 0. -1.
    9900012    2    1    2    0    0  0.11202733495E+02 -0.14045663129E+02 -0.36474391997E+02  0.50528890787E+02  0.30000094035E+02 0.  0.
        -12    1    1    2    0    0 -0.11202733495E+02  0.14045663129E+02  0.36474391997E+02  0.40659109213E+02  0.00000000000E+00 0.  1.
         11    1    3    3    0    0  0.35002222574E+01 -0.64718158888E+00 -0.32140328318E+01  0.47958739730E+01  0.51100000000E-03 0. -1.
        -11    1    3    3    0    0 -0.55548132187E+01  0.20218406422E+01  0.89842000871E+00  0.59792096677E+01  0.51100000000E-03 0.  1.
         12    1    3    3    0    0  0.13257324456E+02 -0.15420322182E+02 -0.34158779174E+02  0.39753807146E+02  0.00000000000E+00 0. -1.
</event>
<event>
 7    1  0.5373252E-013  0.5052887E+02  0.7816164E-02  0.1300439E+00
        -11   -1    0    0    0    0  0.00000000000E+00  0.00000000000E+00  0.45593999997E+02  0.45594000000E+02  0.51100000000E-03 0.  1.
         11   -1    0    0    0    0 -0.00000000000E+00 -0.00000000000E+00 -0.45593999997E+02  0.45594000000E+02  0.51100000000E-03 0. -1.
    9900012    2    1    2    0    0  0.19380441837E+02  0.10829296028E+02 -0.34063028672E+02  0.50528866948E+02  0.30000021574E+02 0.  0.
        -12    1    1    2    0    0 -0.19380441837E+02 -0.10829296028E+02  0.34063028672E+02  0.40659133052E+02  0.00000000000E+00 0.  1.
         11    1    3    3    0    0  0.19036398845E+01  0.47289833149E+00 -0.23426675064E+02  0.23508649099E+02  0.51100000000E-03 0. -1.
        -11    1    3    3    0    0  0.51126786444E+01  0.16912642902E+01 -0.10636461110E+02  0.11922003314E+02  0.51100000000E-03 0.  1.
        -12    1    3    3    0    0  0.12364123308E+02  0.86651334061E+01  0.10750179230E-03  0.15098214535E+02  0.00000000000E+00 0.  1.
</event>
<event>
 7    1  0.5373252E-013  0.5052886E+02  0.7816164E-02  0.1300439E+00
        -11   -1    0    0    0    0  0.00000000000E+00  0.00000000000E+00  0.45593999997E+02  0.45594000000E+02  0.51100000000E-03 0.  1.
         11   -1    0    0    0    0 -0.00000000000E+00 -0.00000000000E+00 -0.45593999997E+02  0.45594000000E+02  0.51100000000E-03 0. -1.
    9900012    2    1    2    0    0 -0.34184570415E+02  0.13108244450E+02 -0.17684877443E+02  0.50528858135E+02  0.29999994788E+02 0.  0.
        -12    1    1    2    0    0  0.34184570415E+02 -0.13108244450E+02  0.17684877443E+02  0.40659141865E+02  0.00000000000E+00 0.  1.
         11    1    3    3    0    0 -0.51233601497E+01  0.31174244579E+00 -0.56372081629E+01  0.76239175434E+01  0.51100000000E-03 0. -1.
        -11    1    3    3    0    0 -0.69463310156E+01  0.15908996879E+02 -0.10992718253E+02  0.20547203000E+02  0.51100000000E-03 0.  1.
        -12    1    3    3    0    0 -0.22114879249E+02 -0.31124948747E+01 -0.10549510269E+01  0.22357737592E+02  0.00000000000E+00 0.  1.
</event>
<event>
 7    1  0.5373252E-013  0.5052886E+02  0.7816164E-02  0.1300439E+00
        -11   -1    0    0    0    0  0.00000000000E+00  0.00000000000E+00  0.45593999997E+02  0.45594000000E+02  0.51100000000E-03 0.  1.
         11   -1    0    0    0    0 -0.00000000000E+00 -0.00000000000E+00 -0.45593999997E+02  0.45594000000E+02  0.51100000000E-03 0. -1.
    9900012    2    1    2    0    0 -0.27961140746E+02  0.11733268773E+01 -0.29495147722E+02  0.50528858016E+02  0.29999994424E+02 0.  0.
        -12    1    1    2    0    0  0.27961140746E+02 -0.11733268773E+01  0.29495147722E+02  0.40659141984E+02  0.00000000000E+00 0.  1.
         11    1    3    3    0    0 -0.65884772795E+01 -0.70727116973E+01 -0.36433596386E+01  0.10329828330E+02  0.51100000000E-03 0. -1.
        -11    1    3    3    0    0 -0.13902525496E+02  0.45176369211E+01 -0.17867706951E+01  0.14726907629E+02  0.51100000000E-03 0.  1.
         12    1    3    3    0    0 -0.74701379703E+01  0.37284016535E+01 -0.24065017388E+02  0.25472122057E+02  0.00000000000E+00 0. -1.
</event>
<event>
 7    1  0.5373252E-013  0.5052888E+02  0.7816164E-02  0.1300439E+00
        -11   -1    0    0    0    0  0.00000000000E+00  0.00000000000E+00  0.45593999997E+02  0.45594000000E+02  0.51100000000E-03 0.  1.
         11   -1    0    0    0    0 -0.00000000000E+00 -0.00000000000E+00 -0.45593999997E+02  0.45594000000E+02  0.51100000000E-03 0. -1.
    9900012    2    1    2    0    0 -0.10884037623E+02  0.39046434353E+02 -0.31745959291E+01  0.50528875932E+02  0.30000048883E+02 0.  0.
        -12    1    1    2    0    0  0.10884037623E+02 -0.39046434353E+02  0.31745959291E+01  0.40659124068E+02  0.00000000000E+00 0.  1.
         11    1    3    3    0    0 -0.20155489588E+01  0.18488148107E+02  0.12431546068E+02  0.22370011085E+02  0.51100000000E-03 0. -1.
        -11    1    3    3    0    0 -0.30706090962E+01  0.14054682459E+01 -0.16263237801E+01  0.37481876302E+01  0.51100000000E-03 0.  1.
         12    1    3    3    0    0 -0.57978795683E+01  0.19152818000E+02 -0.13979818217E+02  0.24410677217E+02  0.00000000000E+00 0. -1.
</event>
<event>
 7    1  0.5373252E-013  0.5052885E+02  0.7816164E-02  0.1300439E+00
        -11   -1    0    0    0    0  0.00000000000E+00  0.00000000000E+00  0.45593999997E+02  0.45594000000E+02  0.51100000000E-03 0.  1.
         11   -1    0    0    0    0 -0.00000000000E+00 -0.00000000000E+00 -0.45593999997E+02  0.45594000000E+02  0.51100000000E-03 0. -1.
    9900012    2    1    2    0    0 -0.12618366317E+02 -0.12285610708E+02 -0.36647059743E+02  0.50528851131E+02  0.29999973496E+02 0.  0.
        -12    1    1    2    0    0  0.12618366317E+02  0.12285610708E+02  0.36647059743E+02  0.40659148869E+02  0.00000000000E+00 0.  1.
         11    1    3    3    0    0 -0.90463216312E+01  0.23337064933E+01 -0.17390217251E+01  0.95029636363E+01  0.51100000000E-03 0.  1.
        -11    1    3    3    0    0 -0.47022207297E+01 -0.75374918327E+01 -0.48448013848E+01  0.10119128601E+02  0.51100000000E-03 0. -1.
        -12    1    3    3    0    0  0.11301760439E+01 -0.70818253686E+01 -0.30063236633E+02  0.30906758894E+02  0.00000000000E+00 0.  1.
</event>
<event>
 7    1  0.5373252E-013  0.5052886E+02  0.7816164E-02  0.1300439E+00
        -11   -1    0    0    0    0  0.00000000000E+00  0.00000000000E+00  0.45593999997E+02  0.45594000000E+02  0.51100000000E-03 0.  1.
         11   -1    0    0    0    0 -0.00000000000E+00 -0.00000000000E+00 -0.45593999997E+02  0.45594000000E+02  0.51100000000E-03 0. -1.
    9900012    2    1    2    0    0  0.21799042697E+02 -0.21613193760E+02 -0.26661537138E+02  0.50528856261E+02  0.29999989091E+02 0.  0.
        -12    1    1    2    0    0 -0.21799042697E+02  0.21613193760E+02  0.26661537138E+02  0.40659143739E+02  0.00000000000E+00 0.  1.
         11    1    3    3    0    0  0.81473386863E+01 -0.18578988472E+02 -0.19385150032E+02  0.28059614793E+02  0.51100000000E-03 0. -1.
        -11    1    3    3    0    0 -0.25730063676E+01 -0.17394499141E+01 -0.52056555321E+01  0.60617569690E+01  0.51100000000E-03 0.  1.
        -12    1    3    3    0    0  0.16224710378E+02 -0.12947553743E+01 -0.20707315741E+01  0.16407484499E+02  0.00000000000E+00 0.  1.
</event>
<event>
 7    1  0.5373252E-013  0.5052883E+02  0.7816164E-02  0.1300439E+00
        -11   -1    0    0    0    0  0.00000000000E+00  0.00000000000E+00  0.45593999997E+02  0.45594000000E+02  0.51100000000E-03 0.  1.
         11   -1    0    0    0    0 -0.00000000000E+00 -0.00000000000E+00 -0.45593999997E+02  0.45594000000E+02  0.51100000000E-03 0. -1.
    9900012    2    1    2    0    0  0.24794816893E+01  0.12035254105E+02 -0.38757870572E+02  0.50528834956E+02  0.29999924331E+02 0.  0.
        -12    1    1    2    0    0 -0.24794816893E+01 -0.12035254105E+02  0.38757870572E+02  0.40659165044E+02  0.00000000000E+00 0.  1.
         11    1    3    3    0    0 -0.50224210676E+01  0.27724271885E-01 -0.22186064464E+01  0.54906918362E+01  0.51100000000E-03 0. -1.
        -11    1    3    3    0    0  0.84070125676E+01 -0.57449173561E+00 -0.29313557144E+02  0.30500697267E+02  0.51100000000E-03 0.  1.
         12    1    3    3    0    0 -0.90510981078E+00  0.12582021569E+02 -0.72257069814E+01  0.14537445852E+02  0.00000000000E+00 0. -1.
</event>
<event>
 7    1  0.5373252E-013  0.5052888E+02  0.7816164E-02  0.1300439E+00
        -11   -1    0    0    0    0  0.00000000000E+00  0.00000000000E+00  0.45593999997E+02  0.45594000000E+02  0.51100000000E-03 0.  1.
         11   -1    0    0    0    0 -0.00000000000E+00 -0.00000000000E+00 -0.45593999997E+02  0.45594000000E+02  0.51100000000E-03 0. -1.
    9900012    2    1    2    0    0  0.26473299370E+02  0.30359767291E+02  0.55328702184E+01  0.50528884142E+02  0.30000073838E+02 0.  0.
        -12    1    1    2    0    0 -0.26473299370E+02 -0.30359767291E+02 -0.55328702184E+01  0.40659115858E+02  0.00000000000E+00 0.  1.
         11    1    3    3    0    0  0.20274364960E+02  0.18434976961E+02 -0.17092651269E+01  0.27455779676E+02  0.51100000000E-03 0. -1.
        -11    1    3    3    0    0  0.50534276994E+01  0.15883803614E+02  0.26074996917E+01  0.16871022602E+02  0.51100000000E-03 0.  1.
         12    1    3    3    0    0  0.11455067107E+01 -0.39590132833E+01  0.46346356535E+01  0.62020818636E+01  0.00000000000E+00 0. -1.
</event>
<event>
 7    1  0.5373252E-013  0.5052886E+02  0.7816164E-02  0.1300439E+00
        -11   -1    0    0    0    0  0.00000000000E+00  0.00000000000E+00  0.45593999997E+02  0.45594000000E+02  0.51100000000E-03 0.  1.
         11   -1    0    0    0    0 -0.00000000000E+00 -0.00000000000E+00 -0.45593999997E+02  0.45594000000E+02  0.51100000000E-03 0. -1.
    9900012    2    1    2    0    0  0.14539158252E+02 -0.32219764532E+02 -0.20091420689E+02  0.50528861612E+02  0.30000005355E+02 0.  0.
        -12    1    1    2    0    0 -0.14539158252E+02  0.32219764532E+02  0.20091420689E+02  0.40659138388E+02  0.00000000000E+00 0.  1.
         11    1    3    3    0    0  0.14160234891E+02 -0.10361219236E+02 -0.98722642281E+01  0.20132777192E+02  0.51100000000E-03 0. -1.
        -11    1    3    3    0    0  0.51384129097E+00 -0.20055327808E+01 -0.10336978881E+02  0.10542263858E+02  0.51100000000E-03 0.  1.
        -12    1    3    3    0    0 -0.13491792978E+00 -0.19853012515E+02  0.11782241951E+00  0.19853820562E+02  0.00000000000E+00 0.  1.
</event>
<event>
 7    1  0.5373252E-013  0.5052886E+02  0.7816164E-02  0.1300439E+00
        -11   -1    0    0    0    0  0.00000000000E+00  0.00000000000E+00  0.45593999997E+02  0.45594000000E+02  0.51100000000E-03 0.  1.
         11   -1    0    0    0    0 -0.00000000000E+00 -0.00000000000E+00 -0.45593999997E+02  0.45594000000E+02  0.51100000000E-03 0. -1.
    9900012    2    1    2    0    0  0.34107763517E+02 -0.26391041390E+01 -0.21974104885E+02  0.50528859720E+02  0.29999999605E+02 0.  0.
        -12    1    1    2    0    0 -0.34107763517E+02  0.26391041390E+01  0.21974104885E+02  0.40659140280E+02  0.00000000000E+00 0.  1.
         11    1    3    3    0    0  0.19494741929E+02 -0.20883731126E+01 -0.38056863472E+01  0.19972218554E+02  0.51100000000E-03 0. -1.
        -11    1    3    3    0    0  0.17040112899E+02 -0.54789089386E+01 -0.94206744542E+01  0.20227036318E+02  0.51100000000E-03 0.  1.
        -12    1    3    3    0    0 -0.24270913106E+01  0.49281779122E+01 -0.87477440838E+01  0.10329604848E+02  0.00000000000E+00 0.  1.
</event>
<event>
 7    1  0.5373252E-013  0.5052885E+02  0.7816164E-02  0.1300439E+00
        -11   -1    0    0    0    0  0.00000000000E+00  0.00000000000E+00  0.45593999997E+02  0.45594000000E+02  0.51100000000E-03 0.  1.
         11   -1    0    0    0    0 -0.00000000000E+00 -0.00000000000E+00 -0.45593999997E+02  0.45594000000E+02  0.51100000000E-03 0. -1.
    9900012    2    1    2    0    0  0.34322809116E+02  0.21339737405E+02  0.44414503889E+01  0.50528854661E+02  0.29999984228E+02 0.  0.
        -12    1    1    2    0    0 -0.34322809116E+02 -0.21339737405E+02 -0.44414503889E+01  0.40659145339E+02  0.00000000000E+00 0.  1.
         11    1    3    3    0    0  0.68057060913E+01  0.28496717439E+01  0.72398362889E+01  0.10336996382E+02  0.51100000000E-03 0. -1.
        -11    1    3    3    0    0  0.53000571601E+01  0.16980776542E+02 -0.38087664731E+00  0.17792763843E+02  0.51100000000E-03 0.  1.
         12    1    3    3    0    0  0.22217045864E+02  0.15092891188E+01 -0.24175092527E+01  0.22399094436E+02  0.00000000000E+00 0. -1.
</event>
<event>
 7    1  0.5373252E-013  0.5052885E+02  0.7816164E-02  0.1300439E+00
        -11   -1    0    0    0    0  0.00000000000E+00  0.00000000000E+00  0.45593999997E+02  0.45594000000E+02  0.51100000000E-03 0. -1.
         11   -1    0    0    0    0 -0.00000000000E+00 -0.00000000000E+00 -0.45593999997E+02  0.45594000000E+02  0.51100000000E-03 0.  1.
    9900012    2    1    2    0    0 -0.32079559837E+02 -0.14755294975E+02 -0.20158120937E+02  0.50528846924E+02  0.29999960711E+02 0.  0.
        -12    1    1    2    0    0  0.32079559837E+02  0.14755294975E+02  0.20158120937E+02  0.40659153076E+02  0.00000000000E+00 0.  1.
         11    1    3    3    0    0 -0.16264097987E+02 -0.99847828657E+01  0.17744456946E+01  0.19166779333E+02  0.51100000000E-03 0. -1.
        -11    1    3    3    0    0  0.13572859963E+01 -0.34990013763E+01 -0.37556690958E+00  0.37717750028E+01  0.51100000000E-03 0.  1.
         12    1    3    3    0    0 -0.17172747846E+02 -0.12715107332E+01 -0.21556999722E+02  0.27590292589E+02  0.00000000000E+00 0. -1.
</event>
<event>
 7    1  0.5373252E-013  0.5052886E+02  0.7816164E-02  0.1300439E+00
        -11   -1    0    0    0    0  0.00000000000E+00  0.00000000000E+00  0.45593999997E+02  0.45594000000E+02  0.51100000000E-03 0.  1.
         11   -1    0    0    0    0 -0.00000000000E+00 -0.00000000000E+00 -0.45593999997E+02  0.45594000000E+02  0.51100000000E-03 0. -1.
    9900012    2    1    2    0    0 -0.13534616106E+02 -0.30979259621E+02 -0.22589052910E+02  0.50528859931E+02  0.30000000245E+02 0.  0.
        -12    1    1    2    0    0  0.13534616106E+02  0.30979259621E+02  0.22589052910E+02  0.40659140069E+02  0.00000000000E+00 0.  1.
         11    1    3    3    0    0 -0.57754131125E+01 -0.99639021502E+01  0.15092419313E+01  0.11615186359E+02  0.51100000000E-03 0.  1.
        -11    1    3    3    0    0  0.98050548482E+00 -0.18603283246E+02 -0.23271642687E+02  0.29809610735E+02  0.51100000000E-03 0. -1.
         12    1    3    3    0    0 -0.87397084787E+01 -0.24120742252E+01 -0.82665215370E+00  0.91040628372E+01  0.00000000000E+00 0. -1.
</event>
<event>
 7    1  0.5373252E-013  0.5052886E+02  0.7816164E-02  0.1300439E+00
        -11   -1    0    0    0    0  0.00000000000E+00  0.00000000000E+00  0.45593999997E+02  0.45594000000E+02  0.51100000000E-03 0. -1.
         11   -1    0    0    0    0 -0.00000000000E+00 -0.00000000000E+00 -0.45593999997E+02  0.45594000000E+02  0.51100000000E-03 0.  1.
    9900012    2    1    2    0    0 -0.53772474944E+01 -0.99776478983E+01  0.39047372281E+02  0.50528861664E+02  0.30000005513E+02 0.  0.
        -12    1    1    2    0    0  0.53772474944E+01  0.99776478983E+01 -0.39047372281E+02  0.40659138336E+02  0.00000000000E+00 0.  1.
         11    1    3    3    0    0 -0.30140183920E+01 -0.76881575232E+01  0.20998191631E+02  0.22563601774E+02  0.51100000000E-03 0.  1.
        -11    1    3    3    0    0 -0.62234323393E+01 -0.77790783866E+01  0.18735384531E+02  0.21219326201E+02  0.51100000000E-03 0. -1.
        -12    1    3    3    0    0  0.38602032369E+01  0.54895880115E+01 -0.68620388142E+00  0.67459336887E+01  0.00000000000E+00 0.  1.
</event>
<event>
 7    1  0.5629895E-013  0.5052887E+02  0.7816164E-02  0.1300439E+00
        -11   -1    0    0    0    0  0.00000000000E+00  0.00000000000E+00  0.45593999997E+02  0.45594000000E+02  0.51100000000E-03 0. -1.
         11   -1    0    0    0    0 -0.00000000000E+00 -0.00000000000E+00 -0.45593999997E+02  0.45594000000E+02  0.51100000000E-03 0.  1.
    9900012    2    1    2    0    0  0.21178628766E+02  0.31610831173E+02  0.14331302377E+02  0.50528865827E+02  0.30000018169E+02 0.  0.
        -12    1    1    2    0    0 -0.21178628766E+02 -0.31610831173E+02 -0.14331302377E+02  0.40659134173E+02  0.00000000000E+00 0.  1.
         11    1    3    3    0    0  0.12634657859E+02  0.18014252416E+01  0.87969179656E+01  0.15500499285E+02  0.51100000000E-03 0. -1.
        -11    1    3    3    0    0  0.76629535845E+01  0.91611726891E+01 -0.35397264501E+01  0.12457030396E+02  0.51100000000E-03 0.  1.
        -12    1    3    3    0    0  0.88101732243E+00  0.20648233242E+02  0.90741108615E+01  0.22571336147E+02  0.00000000000E+00 0.  1.
</event>
<event>
 7    1  0.5373252E-013  0.5052886E+02  0.7816164E-02  0.1300439E+00
        -11   -1    0    0    0    0  0.00000000000E+00  0.00000000000E+00  0.45593999997E+02  0.45594000000E+02  0.51100000000E-03 0.  1.
         11   -1    0    0    0    0 -0.00000000000E+00 -0.00000000000E+00 -0.45593999997E+02  0.45594000000E+02  0.51100000000E-03 0. -1.
    9900012    2    1    2    0    0  0.82614931406E-01 -0.22930400405E+02 -0.33576114489E+02  0.50528861394E+02  0.30000004695E+02 0.  0.
        -12    1    1    2    0    0 -0.82614931406E-01  0.22930400405E+02  0.33576114489E+02  0.40659138606E+02  0.00000000000E+00 0.  1.
         11    1    3    3    0    0  0.24632414891E+01 -0.63426779342E+01 -0.82669171558E+01  0.10706962292E+02  0.51100000000E-03 0. -1.
        -11    1    3    3    0    0  0.42069596025E+01  0.49691125809E+01 -0.11979847520E+02  0.13634784039E+02  0.51100000000E-03 0.  1.
         12    1    3    3    0    0 -0.65875861602E+01 -0.21556835052E+02 -0.13329349814E+02  0.26187115063E+02  0.00000000000E+00 0. -1.
</event>
<event>
 7    1  0.5373252E-013  0.5052886E+02  0.7816164E-02  0.1300439E+00
        -11   -1    0    0    0    0  0.00000000000E+00  0.00000000000E+00  0.45593999997E+02  0.45594000000E+02  0.51100000000E-03 0.  1.
         11   -1    0    0    0    0 -0.00000000000E+00 -0.00000000000E+00 -0.45593999997E+02  0.45594000000E+02  0.51100000000E-03 0. -1.
    9900012    2    1    2    0    0 -0.38195976161E+01  0.31028161908E+02 -0.25996715520E+02  0.50528863571E+02  0.30000011310E+02 0.  0.
        -12    1    1    2    0    0  0.38195976161E+01 -0.31028161908E+02  0.25996715520E+02  0.40659136429E+02  0.00000000000E+00 0.  1.
         11    1    3    3    0    0  0.52558168981E+01  0.17319586528E+02 -0.10306315729E+02  0.20828150012E+02  0.51100000000E-03 0. -1.
        -11    1    3    3    0    0 -0.10742635820E+02  0.16754600190E+02 -0.16810442951E+02  0.26052098656E+02  0.51100000000E-03 0.  1.
        -12    1    3    3    0    0  0.16672213059E+01 -0.30460248105E+01  0.11200431600E+01  0.36486149028E+01  0.00000000000E+00 0.  1.
</event>
<event>
 7    1  0.5373252E-013  0.5052886E+02  0.7816164E-02  0.1300439E+00
        -11   -1    0    0    0    0  0.00000000000E+00  0.00000000000E+00  0.45593999997E+02  0.45594000000E+02  0.51100000000E-03 0.  1.
         11   -1    0    0    0    0 -0.00000000000E+00 -0.00000000000E+00 -0.45593999997E+02  0.45594000000E+02  0.51100000000E-03 0. -1.
    9900012    2    1    2    0    0  0.13517730641E+02  0.36462641624E+01 -0.38172519491E+02  0.50528861687E+02  0.30000005584E+02 0.  0.
        -12    1    1    2    0    0 -0.13517730641E+02 -0.36462641624E+01  0.38172519491E+02  0.40659138313E+02  0.00000000000E+00 0.  1.
         11    1    3    3    0    0  0.34615892501E+01 -0.64106244433E+01  0.11465171159E+01  0.73751750927E+01  0.51100000000E-03 0. -1.
        -11    1    3    3    0    0  0.77603287958E+01  0.36253919778E+00 -0.18881733500E+02  0.20417492449E+02  0.51100000000E-03 0.  1.
        -12    1    3    3    0    0  0.22958125955E+01  0.96943494079E+01 -0.20437303107E+02  0.22736194146E+02  0.00000000000E+00 0.  1.
</event>
<event>
 7    1  0.5373252E-013  0.5052886E+02  0.7816164E-02  0.1300439E+00
        -11   -1    0    0    0    0  0.00000000000E+00  0.00000000000E+00  0.45593999997E+02  0.45594000000E+02  0.51100000000E-03 0. -1.
         11   -1    0    0    0    0 -0.00000000000E+00 -0.00000000000E+00 -0.45593999997E+02  0.45594000000E+02  0.51100000000E-03 0.  1.
    9900012    2    1    2    0    0  0.18483529001E+02  0.34172692729E+02  0.11989660527E+02  0.50528859180E+02  0.29999997963E+02 0.  0.
        -12    1    1    2    0    0 -0.18483529001E+02 -0.34172692729E+02 -0.11989660527E+02  0.40659140820E+02  0.00000000000E+00 0.  1.
         11    1    3    3    0    0  0.10455032852E+02  0.29828226321E+02  0.33822933047E+00  0.31609258086E+02  0.51100000000E-03 0. -1.
        -11    1    3    3    0    0  0.10575369145E+01 -0.37038424071E+00 -0.23387172550E+01  0.25932927854E+01  0.51100000000E-03 0.  1.
         12    1    3    3    0    0  0.69709592355E+01  0.47148506481E+01  0.13990148451E+02  0.16326308309E+02  0.00000000000E+00 0. -1.
</event>
<event>
 7    1  0.5373252E-013  0.5052884E+02  0.7816164E-02  0.1300439E+00
        -11   -1    0    0    0    0  0.00000000000E+00  0.00000000000E+00  0.45593999997E+02  0.45594000000E+02  0.51100000000E-03 0. -1.
         11   -1    0    0    0    0 -0.00000000000E+00 -0.00000000000E+00 -0.45593999997E+02  0.45594000000E+02  0.51100000000E-03 0.  1.
    9900012    2    1    2    0    0 -0.35723675894E+02 -0.18349277994E+02 -0.63474655497E+01  0.50528839394E+02  0.29999937821E+02 0.  0.
        -12    1    1    2    0    0  0.35723675894E+02  0.18349277994E+02  0.63474655497E+01  0.40659160606E+02  0.00000000000E+00 0.  1.
         11    1    3    3    0    0 -0.18239535200E+01 -0.65054813763E+01 -0.23971879920E+01  0.71690030625E+01  0.51100000000E-03 0.  1.
        -11    1    3    3    0    0 -0.21190908042E+02 -0.55464238646E+01 -0.13982415478E+02  0.25987022611E+02  0.51100000000E-03 0. -1.
         12    1    3    3    0    0 -0.12708814332E+02 -0.62973727534E+01  0.10032137920E+02  0.17372813720E+02  0.00000000000E+00 0. -1.
</event>
<event>
 7    1  0.5373252E-013  0.5052885E+02  0.7816164E-02  0.1300439E+00
        -11   -1    0    0    0    0  0.00000000000E+00  0.00000000000E+00  0.45593999997E+02  0.45594000000E+02  0.51100000000E-03 0.  1.
         11   -1    0    0    0    0 -0.00000000000E+00 -0.00000000000E+00 -0.45593999997E+02  0.45594000000E+02  0.51100000000E-03 0. -1.
    9900012    2    1    2    0    0  0.31875156138E+02 -0.54108063759E+01 -0.24654894622E+02  0.50528853019E+02  0.29999979236E+02 0.  0.
        -12    1    1    2    0    0 -0.31875156138E+02  0.54108063759E+01  0.24654894622E+02  0.40659146981E+02  0.00000000000E+00 0.  1.
         11    1    3    3    0    0  0.90100077247E+01 -0.76696483942E+00 -0.22751924477E+02  0.24483025588E+02  0.51100000000E-03 0. -1.
        -11    1    3    3    0    0  0.41630139899E+01  0.35939235891E+01  0.18935579430E+00  0.55029835655E+01  0.51100000000E-03 0.  1.
        -12    1    3    3    0    0  0.18702134423E+02 -0.82377651255E+01 -0.20923259387E+01  0.20542843865E+02  0.00000000000E+00 0.  1.
</event>
<event>
 7    1  0.5373252E-013  0.5052885E+02  0.7816164E-02  0.1300439E+00
        -11   -1    0    0    0    0  0.00000000000E+00  0.00000000000E+00  0.45593999997E+02  0.45594000000E+02  0.51100000000E-03 0.  1.
         11   -1    0    0    0    0 -0.00000000000E+00 -0.00000000000E+00 -0.45593999997E+02  0.45594000000E+02  0.51100000000E-03 0. -1.
    9900012    2    1    2    0    0 -0.60978988215E+00 -0.29160964869E+02 -0.28327242797E+02  0.50528850965E+02  0.29999972992E+02 0.  0.
        -12    1    1    2    0    0  0.60978988215E+00  0.29160964869E+02  0.28327242797E+02  0.40659149035E+02  0.00000000000E+00 0.  1.
         11    1    3    3    0    0  0.51100204961E+01  0.73242815622E+00 -0.46668515706E+01  0.69590419109E+01  0.51100000000E-03 0. -1.
        -11    1    3    3    0    0 -0.74092337053E+01 -0.44865366350E+01  0.21480105703E+00  0.86644038937E+01  0.51100000000E-03 0.  1.
         12    1    3    3    0    0  0.16894233271E+01 -0.25406856391E+02 -0.23875192283E+02  0.34905405160E+02  0.00000000000E+00 0. -1.
</event>
<event>
 7    1  0.5373252E-013  0.5052886E+02  0.7816164E-02  0.1300439E+00
        -11   -1    0    0    0    0  0.00000000000E+00  0.00000000000E+00  0.45593999997E+02  0.45594000000E+02  0.51100000000E-03 0.  1.
         11   -1    0    0    0    0 -0.00000000000E+00 -0.00000000000E+00 -0.45593999997E+02  0.45594000000E+02  0.51100000000E-03 0. -1.
    9900012    2    1    2    0    0  0.39867427458E+02  0.72668378743E+01  0.33085651762E+01  0.50528864392E+02  0.30000013807E+02 0.  0.
        -12    1    1    2    0    0 -0.39867427458E+02 -0.72668378743E+01 -0.33085651762E+01  0.40659135608E+02  0.00000000000E+00 0.  1.
         11    1    3    3    0    0  0.38061019290E+01  0.19817093064E+01 -0.49660444113E+01  0.65631685203E+01  0.51100000000E-03 0. -1.
        -11    1    3    3    0    0  0.10751968235E+02 -0.86898286739E+01  0.56533792972E+01  0.14935817388E+02  0.51100000000E-03 0.  1.
         12    1    3    3    0    0  0.25309357294E+02  0.13974957242E+02  0.26212302902E+01  0.29029878484E+02  0.00000000000E+00 0. -1.
</event>
<event>
 7    1  0.5373252E-013  0.5052886E+02  0.7816164E-02  0.1300439E+00
        -11   -1    0    0    0    0  0.00000000000E+00  0.00000000000E+00  0.45593999997E+02  0.45594000000E+02  0.51100000000E-03 0.  1.
         11   -1    0    0    0    0 -0.00000000000E+00 -0.00000000000E+00 -0.45593999997E+02  0.45594000000E+02  0.51100000000E-03 0. -1.
    9900012    2    1    2    0    0  0.25528851302E+02 -0.18269591493E+02 -0.25839225304E+02  0.50528858513E+02  0.29999995937E+02 0.  0.
        -12    1    1    2    0    0 -0.25528851302E+02  0.18269591493E+02  0.25839225304E+02  0.40659141487E+02  0.00000000000E+00 0.  1.
         11    1    3    3    0    0  0.21841879977E+02 -0.12102962092E+01 -0.90423072504E+01  0.23670569459E+02  0.51100000000E-03 0.  1.
        -11    1    3    3    0    0 -0.10987345251E+01 -0.28245264354E+00 -0.65039818352E+01  0.66021797178E+01  0.51100000000E-03 0. -1.
        -12    1    3    3    0    0  0.47857058503E+01 -0.16776842640E+02 -0.10292936219E+02  0.20256109337E+02  0.00000000000E+00 0.  1.
</event>
<event>
 7    1  0.5373252E-013  0.5052887E+02  0.7816164E-02  0.1300439E+00
        -11   -1    0    0    0    0  0.00000000000E+00  0.00000000000E+00  0.45593999997E+02  0.45594000000E+02  0.51100000000E-03 0.  1.
         11   -1    0    0    0    0 -0.00000000000E+00 -0.00000000000E+00 -0.45593999997E+02  0.45594000000E+02  0.51100000000E-03 0. -1.
    9900012    2    1    2    0    0 -0.23734217246E+02  0.33004565272E+02  0.74217962439E+00  0.50528865385E+02  0.30000016823E+02 0.  0.
        -12    1    1    2    0    0  0.23734217246E+02 -0.33004565272E+02 -0.74217962439E+00  0.40659134615E+02  0.00000000000E+00 0.  1.
         11    1    3    3    0    0 -0.11114586711E+02  0.10941304249E+02 -0.20133243297E+01  0.15725763941E+02  0.51100000000E-03 0.  1.
        -11    1    3    3    0    0 -0.61576008125E+01  0.22567032382E+01  0.10663473175E+02  0.12518722686E+02  0.51100000000E-03 0. -1.
         12    1    3    3    0    0 -0.64620297231E+01  0.19806557785E+02 -0.79079692207E+01  0.22284378758E+02  0.00000000000E+00 0. -1.
</event>
<event>
 7    1  0.5373252E-013  0.5052886E+02  0.7816164E-02  0.1300439E+00
        -11   -1    0    0    0    0  0.00000000000E+00  0.00000000000E+00  0.45593999997E+02  0.45594000000E+02  0.51100000000E-03 0.  1.
         11   -1    0    0    0    0 -0.00000000000E+00 -0.00000000000E+00 -0.45593999997E+02  0.45594000000E+02  0.51100000000E-03 0. -1.
    9900012    2    1    2    0    0  0.21717776568E+02 -0.12375011516E+02 -0.32068102461E+02  0.50528856816E+02  0.29999990776E+02 0.  0.
        -12    1    1    2    0    0 -0.21717776568E+02  0.12375011516E+02  0.32068102461E+02  0.40659143184E+02  0.00000000000E+00 0.  1.
         11    1    3    3    0    0  0.11672564800E+02  0.56438801081E+00 -0.10849321828E+02  0.15946005369E+02  0.51100000000E-03 0. -1.
        -11    1    3    3    0    0  0.10230462701E+02 -0.32613502925E+01  0.55739342690E+00  0.10752183987E+02  0.51100000000E-03 0.  1.
         12    1    3    3    0    0 -0.18525093273E+00 -0.96780492341E+01 -0.21776174060E+02  0.23830667460E+02  0.00000000000E+00 0. -1.
</event>
<event>
 7    1  0.5373252E-013  0.5052886E+02  0.7816164E-02  0.1300439E+00
        -11   -1    0    0    0    0  0.00000000000E+00  0.00000000000E+00  0.45593999997E+02  0.45594000000E+02  0.51100000000E-03 0. -1.
         11   -1    0    0    0    0 -0.00000000000E+00 -0.00000000000E+00 -0.45593999997E+02  0.45594000000E+02  0.51100000000E-03 0.  1.
    9900012    2    1    2    0    0 -0.41395956718E+01 -0.11922472308E+02  0.38650792181E+02  0.50528864071E+02  0.30000012830E+02 0.  0.
        -12    1    1    2    0    0  0.41395956718E+01  0.11922472308E+02 -0.38650792181E+02  0.40659135929E+02  0.00000000000E+00 0.  1.
         11    1    3    3    0    0  0.82663632984E+01 -0.76413382771E+01  0.26603971657E+02  0.28887611896E+02  0.51100000000E-03 0. -1.
        -11    1    3    3    0    0 -0.20501207551E+01  0.36482357709E+01  0.48728828501E+00  0.42130831329E+01  0.51100000000E-03 0.  1.
        -12    1    3    3    0    0 -0.10355838215E+02 -0.79293698014E+01  0.11559532239E+02  0.17428169043E+02  0.00000000000E+00 0.  1.
</event>
<event>
 7    1  0.5373252E-013  0.5052885E+02  0.7816164E-02  0.1300439E+00
        -11   -1    0    0    0    0  0.00000000000E+00  0.00000000000E+00  0.45593999997E+02  0.45594000000E+02  0.51100000000E-03 0.  1.
         11   -1    0    0    0    0 -0.00000000000E+00 -0.00000000000E+00 -0.45593999997E+02  0.45594000000E+02  0.51100000000E-03 0. -1.
    9900012    2    1    2    0    0 -0.23781651978E+02  0.29756346406E+02 -0.14218262329E+02  0.50528854584E+02  0.29999983994E+02 0.  0.
        -12    1    1    2    0    0  0.23781651978E+02 -0.29756346406E+02  0.14218262329E+02  0.40659145416E+02  0.00000000000E+00 0.  1.
         11    1    3    3    0    0 -0.15541692737E+02  0.12856329801E+02 -0.12852409071E+02  0.23916810997E+02  0.51100000000E-03 0. -1.
        -11    1    3    3    0    0 -0.61385949962E+01  0.65020357052E+01 -0.96473359624E+01  0.13154083331E+02  0.51100000000E-03 0.  1.
        -12    1    3    3    0    0 -0.21013642454E+01  0.10397980900E+02  0.82814827040E+01  0.13457960256E+02  0.00000000000E+00 0.  1.
</event>
<event>
 7    1  0.5373252E-013  0.5052884E+02  0.7816164E-02  0.1300439E+00
        -11   -1    0    0    0    0  0.00000000000E+00  0.00000000000E+00  0.45593999997E+02  0.45594000000E+02  0.51100000000E-03 0.  1.
         11   -1    0    0    0    0 -0.00000000000E+00 -0.00000000000E+00 -0.45593999997E+02  0.45594000000E+02  0.51100000000E-03 0. -1.
    9900012    2    1    2    0    0  0.25678784070E+02  0.30165680763E+02 -0.91541947473E+01  0.50528837088E+02  0.29999930813E+02 0.  0.
        -12    1    1    2    0    0 -0.25678784070E+02 -0.30165680763E+02  0.91541947473E+01  0.40659162912E+02  0.00000000000E+00 0.  1.
         11    1    3    3    0    0 -0.14026776885E+01 -0.67759781269E+00 -0.20093467195E+01  0.25424629779E+01  0.51100000000E-03 0. -1.
        -11    1    3    3    0    0  0.52999963302E+01  0.22258991659E+02 -0.88018115255E+01  0.24515802193E+02  0.51100000000E-03 0.  1.
        -12    1    3    3    0    0  0.21781465429E+02  0.85842869171E+01  0.16569634978E+01  0.23470571917E+02  0.00000000000E+00 0.  1.
</event>
<event>
 7    1  0.5373252E-013  0.5052887E+02  0.7816164E-02  0.1300439E+00
        -11   -1    0    0    0    0  0.00000000000E+00  0.00000000000E+00  0.45593999997E+02  0.45594000000E+02  0.51100000000E-03 0. -1.
         11   -1    0    0    0    0 -0.00000000000E+00 -0.00000000000E+00 -0.45593999997E+02  0.45594000000E+02  0.51100000000E-03 0.  1.
    9900012    2    1    2    0    0 -0.21527684167E+02  0.33959915966E+02  0.60371791544E+01  0.50528872979E+02  0.30000039905E+02 0.  0.
        -12    1    1    2    0    0  0.21527684167E+02 -0.33959915966E+02 -0.60371791544E+01  0.40659127021E+02  0.00000000000E+00 0.  1.
         11    1    3    3    0    0 -0.18780537937E+02  0.25888144980E+02  0.71659289049E+01  0.32775832454E+02  0.51100000000E-03 0. -1.
        -11    1    3    3    0    0 -0.65792641715E+01  0.87730647121E+01 -0.51840827307E+01  0.12129637072E+02  0.51100000000E-03 0.  1.
         12    1    3    3    0    0  0.38321179419E+01 -0.70129372593E+00  0.40553329802E+01  0.56234034526E+01  0.00000000000E+00 0. -1.
</event>
<event>
 7    1  0.5373252E-013  0.5052886E+02  0.7816164E-02  0.1300439E+00
        -11   -1    0    0    0    0  0.00000000000E+00  0.00000000000E+00  0.45593999997E+02  0.45594000000E+02  0.51100000000E-03 0. -1.
         11   -1    0    0    0    0 -0.00000000000E+00 -0.00000000000E+00 -0.45593999997E+02  0.45594000000E+02  0.51100000000E-03 0.  1.
    9900012    2    1    2    0    0 -0.32462789247E+02  0.23609243836E+02  0.64758675562E+01  0.50528856615E+02  0.29999990167E+02 0.  0.
        -12    1    1    2    0    0  0.32462789247E+02 -0.23609243836E+02 -0.64758675562E+01  0.40659143385E+02  0.00000000000E+00 0.  1.
         11    1    3    3    0    0 -0.15241394128E+02  0.57792585186E+01  0.42589134873E+01  0.16847500359E+02  0.51100000000E-03 0. -1.
        -11    1    3    3    0    0  0.14439964899E-01 -0.42351817828E+01  0.37270703261E+01  0.56416333381E+01  0.51100000000E-03 0.  1.
         12    1    3    3    0    0 -0.17235835083E+02  0.22065167101E+02 -0.15101162571E+01  0.28039722918E+02  0.00000000000E+00 0. -1.
</event>
<event>
 7    1  0.5373252E-013  0.5052886E+02  0.7816164E-02  0.1300439E+00
        -11   -1    0    0    0    0  0.00000000000E+00  0.00000000000E+00  0.45593999997E+02  0.45594000000E+02  0.51100000000E-03 0.  1.
         11   -1    0    0    0    0 -0.00000000000E+00 -0.00000000000E+00 -0.45593999997E+02  0.45594000000E+02  0.51100000000E-03 0. -1.
    9900012    2    1    2    0    0 -0.23958824041E+02 -0.24717044030E+02 -0.21638119107E+02  0.50528859411E+02  0.29999998665E+02 0.  0.
        -12    1    1    2    0    0  0.23958824041E+02  0.24717044030E+02  0.21638119107E+02  0.40659140589E+02  0.00000000000E+00 0.  1.
         11    1    3    3    0    0 -0.92178035500E+01 -0.36362813426E+01 -0.57507511315E+01  0.11456944755E+02  0.51100000000E-03 0. -1.
        -11    1    3    3    0    0 -0.49125828433E+01  0.12958790530E+01  0.48467811235E+01  0.70216849995E+01  0.51100000000E-03 0.  1.
        -12    1    3    3    0    0 -0.98284376475E+01 -0.22376641740E+02 -0.20734149099E+02  0.32050229656E+02  0.00000000000E+00 0.  1.
</event>
<event>
 7    1  0.5373252E-013  0.5052888E+02  0.7816164E-02  0.1300439E+00
        -11   -1    0    0    0    0  0.00000000000E+00  0.00000000000E+00  0.45593999997E+02  0.45594000000E+02  0.51100000000E-03 0.  1.
         11   -1    0    0    0    0 -0.00000000000E+00 -0.00000000000E+00 -0.45593999997E+02  0.45594000000E+02  0.51100000000E-03 0. -1.
    9900012    2    1    2    0    0  0.29590888816E+01  0.11834136562E+02 -0.38786089202E+02  0.50528884038E+02  0.30000073523E+02 0.  0.
        -12    1    1    2    0    0 -0.29590888816E+01 -0.11834136562E+02  0.38786089202E+02  0.40659115962E+02  0.00000000000E+00 0.  1.
         11    1    3    3    0    0  0.12090047162E+01 -0.14557501427E+01 -0.29959379126E+02  0.30019082244E+02  0.51100000000E-03 0. -1.
        -11    1    3    3    0    0 -0.33072038443E+01 -0.77940919182E+00 -0.61687673460E+00  0.34533481033E+01  0.51100000000E-03 0.  1.
         12    1    3    3    0    0  0.50572880096E+01  0.14069295896E+02 -0.82098333416E+01  0.17056453691E+02  0.00000000000E+00 0. -1.
</event>
<event>
 7    1  0.5373252E-013  0.5052886E+02  0.7816164E-02  0.1300439E+00
        -11   -1    0    0    0    0  0.00000000000E+00  0.00000000000E+00  0.45593999997E+02  0.45594000000E+02  0.51100000000E-03 0. -1.
         11   -1    0    0    0    0 -0.00000000000E+00 -0.00000000000E+00 -0.45593999997E+02  0.45594000000E+02  0.51100000000E-03 0.  1.
    9900012    2    1    2    0    0 -0.16205958208E+02  0.57740528900E+01  0.36840101316E+02  0.50528857938E+02  0.29999994188E+02 0.  0.
        -12    1    1    2    0    0  0.16205958208E+02 -0.57740528900E+01 -0.36840101316E+02  0.40659142062E+02  0.00000000000E+00 0.  1.
         11    1    3    3    0    0 -0.80540485720E+01 -0.45762241917E+01  0.13383102613E+02  0.16276269907E+02  0.51100000000E-03 0. -1.
        -11    1    3    3    0    0 -0.15201346120E+02  0.76919522469E+01  0.18910813692E+02  0.25453210564E+02  0.51100000000E-03 0.  1.
        -12    1    3    3    0    0  0.70494364840E+01  0.26583248348E+01  0.45461850106E+01  0.87993774677E+01  0.00000000000E+00 0.  1.
</event>
<event>
 7    1  0.5373252E-013  0.5052887E+02  0.7816164E-02  0.1300439E+00
        -11   -1    0    0    0    0  0.00000000000E+00  0.00000000000E+00  0.45593999997E+02  0.45594000000E+02  0.51100000000E-03 0.  1.
         11   -1    0    0    0    0 -0.00000000000E+00 -0.00000000000E+00 -0.45593999997E+02  0.45594000000E+02  0.51100000000E-03 0. -1.
    9900012    2    1    2    0    0 -0.41021264718E+01  0.39343716225E+02  0.94026472170E+01  0.50528865447E+02  0.30000017011E+02 0.  0.
        -12    1    1    2    0    0  0.41021264718E+01 -0.39343716225E+02 -0.94026472170E+01  0.40659134553E+02  0.00000000000E+00 0.  1.
         11    1    3    3    0    0  0.57972883080E+01  0.25295533854E+02  0.17686963787E+02  0.31405433812E+02  0.51100000000E-03 0.  1.
        -11    1    3    3    0    0 -0.16656182497E+01  0.17484546748E+01 -0.14870612146E+01  0.28359705959E+01  0.51100000000E-03 0. -1.
        -12    1    3    3    0    0 -0.82337965301E+01  0.12299727696E+02 -0.67972553559E+01  0.16287461038E+02  0.00000000000E+00 0.  1.
</event>
<event>
 7    1  0.5373252E-013  0.5052890E+02  0.7816164E-02  0.1300439E+00
        -11   -1    0    0    0    0  0.00000000000E+00  0.00000000000E+00  0.45593999997E+02  0.45594000000E+02  0.51100000000E-03 0. -1.
         11   -1    0    0    0    0 -0.00000000000E+00 -0.00000000000E+00 -0.45593999997E+02  0.45594000000E+02  0.51100000000E-03 0.  1.
    9900012    2    1    2    0    0 -0.19727933433E+02  0.31337393351E+02  0.16791034284E+02  0.50528900012E+02  0.30000122075E+02 0.  0.
        -12    1    1    2    0    0  0.19727933433E+02 -0.31337393351E+02 -0.16791034284E+02  0.40659099988E+02  0.00000000000E+00 0.  1.
         11    1    3    3    0    0 -0.15443873065E+02  0.17697692120E+02  0.63263969056E+01  0.24325805633E+02  0.51100000000E-03 0. -1.
        -11    1    3    3    0    0 -0.67589679235E+01  0.14573539287E+02  0.14324673547E+02  0.21523660637E+02  0.51100000000E-03 0.  1.
        -12    1    3    3    0    0  0.24749075555E+01 -0.93383805598E+00 -0.38600361685E+01  0.46794337420E+01  0.00000000000E+00 0.  1.
</event>
<event>
 7    1  0.5373252E-013  0.5052886E+02  0.7816164E-02  0.1300439E+00
        -11   -1    0    0    0    0  0.00000000000E+00  0.00000000000E+00  0.45593999997E+02  0.45594000000E+02  0.51100000000E-03 0.  1.
         11   -1    0    0    0    0 -0.00000000000E+00 -0.00000000000E+00 -0.45593999997E+02  0.45594000000E+02  0.51100000000E-03 0. -1.
    9900012    2    1    2    0    0 -0.10149789125E+02 -0.39158677161E+02  0.40921597609E+01  0.50528856037E+02  0.29999988411E+02 0.  0.
        -12    1    1    2    0    0  0.10149789125E+02  0.39158677161E+02 -0.40921597609E+01  0.40659143963E+02  0.00000000000E+00 0.  1.
         11    1    3    3    0    0  0.62735210025E+00 -0.18561394454E+02  0.87902229043E-01  0.18572201318E+02  0.51100000000E-03 0. -1.
        -11    1    3    3    0    0  0.48247994107E+01 -0.81836819532E+01  0.69926016440E+01  0.11796093323E+02  0.51100000000E-03 0.  1.
        -12    1    3    3    0    0 -0.15601940636E+02 -0.12413600753E+02 -0.29883441122E+01  0.20160561396E+02  0.00000000000E+00 0.  1.
</event>
<event>
 7    1  0.5373252E-013  0.5052886E+02  0.7816164E-02  0.1300439E+00
        -11   -1    0    0    0    0  0.00000000000E+00  0.00000000000E+00  0.45593999997E+02  0.45594000000E+02  0.51100000000E-03 0.  1.
         11   -1    0    0    0    0 -0.00000000000E+00 -0.00000000000E+00 -0.45593999997E+02  0.45594000000E+02  0.51100000000E-03 0. -1.
    9900012    2    1    2    0    0 -0.11837465538E+02  0.70700978706E+01 -0.38249883885E+02  0.50528862140E+02  0.30000006961E+02 0.  0.
        -12    1    1    2    0    0  0.11837465538E+02 -0.70700978706E+01  0.38249883885E+02  0.40659137860E+02  0.00000000000E+00 0.  1.
         11    1    3    3    0    0 -0.10245331002E+02  0.28634954300E+01 -0.12762867011E+02  0.16614968794E+02  0.51100000000E-03 0. -1.
        -11    1    3    3    0    0 -0.31709237600E+01  0.99536175445E+01 -0.25912309677E+02  0.27938809080E+02  0.51100000000E-03 0.  1.
        -12    1    3    3    0    0  0.15787892246E+01 -0.57470151039E+01  0.42529280304E+00  0.59750842663E+01  0.00000000000E+00 0.  1.
</event>
<event>
 7    1  0.5373252E-013  0.5052886E+02  0.7816164E-02  0.1300439E+00
        -11   -1    0    0    0    0  0.00000000000E+00  0.00000000000E+00  0.45593999997E+02  0.45594000000E+02  0.51100000000E-03 0.  1.
         11   -1    0    0    0    0 -0.00000000000E+00 -0.00000000000E+00 -0.45593999997E+02  0.45594000000E+02  0.51100000000E-03 0. -1.
    9900012    2    1    2    0    0 -0.24614050211E+02  0.26998269788E+02 -0.17843987311E+02  0.50528856840E+02  0.29999990851E+02 0.  0.
        -12    1    1    2    0    0  0.24614050211E+02 -0.26998269788E+02  0.17843987311E+02  0.40659143160E+02  0.00000000000E+00 0.  1.
         11    1    3    3    0    0 -0.23783806407E+01  0.80665052352E+01 -0.39566081777E+01  0.92940814346E+01  0.51100000000E-03 0. -1.
        -11    1    3    3    0    0 -0.37960068399E+01  0.19997528584E+02 -0.71486810393E+01  0.21573466533E+02  0.51100000000E-03 0.  1.
        -12    1    3    3    0    0 -0.18439662730E+02 -0.10657640308E+01 -0.67386980939E+01  0.19661308872E+02  0.00000000000E+00 0.  1.
</event>
<event>
 7    1  0.5373252E-013  0.5052887E+02  0.7816164E-02  0.1300439E+00
        -11   -1    0    0    0    0  0.00000000000E+00  0.00000000000E+00  0.45593999997E+02  0.45594000000E+02  0.51100000000E-03 0.  1.
         11   -1    0    0    0    0 -0.00000000000E+00 -0.00000000000E+00 -0.45593999997E+02  0.45594000000E+02  0.51100000000E-03 0. -1.
    9900012    2    1    2    0    0  0.23165744733E+02  0.25049945807E+01 -0.33320241773E+02  0.50528865249E+02  0.30000016412E+02 0.  0.
        -12    1    1    2    0    0 -0.23165744733E+02 -0.25049945807E+01  0.33320241773E+02  0.40659134751E+02  0.00000000000E+00 0.  1.
         11    1    3    3    0    0  0.10221449941E+02  0.10716799747E+02 -0.35416527525E+01  0.15227315594E+02  0.51100000000E-03 0. -1.
        -11    1    3    3    0    0 -0.19989381820E+01 -0.28277030628E+00 -0.37457575002E+01  0.42551630301E+01  0.51100000000E-03 0.  1.
         12    1    3    3    0    0  0.14943232975E+02 -0.79290348604E+01 -0.26032831520E+02  0.31046386625E+02  0.00000000000E+00 0. -1.
</event>
<event>
 7    1  0.5373252E-013  0.5052888E+02  0.7816164E-02  0.1300439E+00
        -11   -1    0    0    0    0  0.00000000000E+00  0.00000000000E+00  0.45593999997E+02  0.45594000000E+02  0.51100000000E-03 0.  1.
         11   -1    0    0    0    0 -0.00000000000E+00 -0.00000000000E+00 -0.45593999997E+02  0.45594000000E+02  0.51100000000E-03 0. -1.
    9900012    2    1    2    0    0  0.22144718813E+02  0.27265058469E+02 -0.20479059627E+02  0.50528882107E+02  0.30000067653E+02 0.  0.
        -12    1    1    2    0    0 -0.22144718813E+02 -0.27265058469E+02  0.20479059627E+02  0.40659117893E+02  0.00000000000E+00 0.  1.
         11    1    3    3    0    0  0.36897125387E+01  0.93571746975E+01 -0.20420398382E+01  0.10263558053E+02  0.51100000000E-03 0. -1.
        -11    1    3    3    0    0 -0.59970269217E+01  0.10329484624E+01 -0.32609444469E+01  0.69039896707E+01  0.51100000000E-03 0.  1.
        -12    1    3    3    0    0  0.24452033196E+02  0.16874935309E+02 -0.15176075342E+02  0.33361334384E+02  0.00000000000E+00 0.  1.
</event>
<event>
 7    1  0.5373252E-013  0.5052886E+02  0.7816164E-02  0.1300439E+00
        -11   -1    0    0    0    0  0.00000000000E+00  0.00000000000E+00  0.45593999997E+02  0.45594000000E+02  0.51100000000E-03 0.  1.
         11   -1    0    0    0    0 -0.00000000000E+00 -0.00000000000E+00 -0.45593999997E+02  0.45594000000E+02  0.51100000000E-03 0. -1.
    9900012    2    1    2    0    0 -0.38561795313E+02 -0.29322537938E+01 -0.12552120222E+02  0.50528857213E+02  0.29999991986E+02 0.  0.
        -12    1    1    2    0    0  0.38561795313E+02  0.29322537938E+01  0.12552120222E+02  0.40659142787E+02  0.00000000000E+00 0.  1.
         11    1    3    3    0    0 -0.63057254862E+01 -0.10019812716E+02 -0.56679039515E+01  0.13125698314E+02  0.51100000000E-03 0. -1.
        -11    1    3    3    0    0 -0.15630588029E+02  0.31063118264E+01 -0.11550853530E+02  0.19682140961E+02  0.51100000000E-03 0.  1.
        -12    1    3    3    0    0 -0.16625481798E+02  0.39812470957E+01  0.46666372589E+01  0.17721017938E+02  0.00000000000E+00 0.  1.
</event>
<event>
 7    1  0.5373252E-013  0.5052888E+02  0.7816164E-02  0.1300439E+00
        -11   -1    0    0    0    0  0.00000000000E+00  0.00000000000E+00  0.45593999997E+02  0.45594000000E+02  0.51100000000E-03 0.  1.
         11   -1    0    0    0    0 -0.00000000000E+00 -0.00000000000E+00 -0.45593999997E+02  0.45594000000E+02  0.51100000000E-03 0. -1.
    9900012    2    1    2    0    0 -0.32625933582E+02  0.13187283554E+02 -0.20366845687E+02  0.50528875650E+02  0.30000048027E+02 0.  0.
        -12    1    1    2    0    0  0.32625933582E+02 -0.13187283554E+02  0.20366845687E+02  0.40659124350E+02  0.00000000000E+00 0.  1.
         11    1    3    3    0    0 -0.13692740718E+01 -0.81137137202E+00 -0.10635262254E+02  0.10753698827E+02  0.51100000000E-03 0. -1.
        -11    1    3    3    0    0 -0.25031593289E+02  0.20776136439E+01 -0.62881083623E+01  0.25892806879E+02  0.51100000000E-03 0.  1.
        -12    1    3    3    0    0 -0.62250662215E+01  0.11921041282E+02 -0.34434750708E+01  0.13882369944E+02  0.00000000000E+00 0.  1.
</event>
<event>
 7    1  0.5373252E-013  0.5052886E+02  0.7816164E-02  0.1300439E+00
        -11   -1    0    0    0    0  0.00000000000E+00  0.00000000000E+00  0.45593999997E+02  0.45594000000E+02  0.51100000000E-03 0.  1.
         11   -1    0    0    0    0 -0.00000000000E+00 -0.00000000000E+00 -0.45593999997E+02  0.45594000000E+02  0.51100000000E-03 0. -1.
    9900012    2    1    2    0    0  0.30623584269E+02 -0.23775840107E+02 -0.12250352412E+02  0.50528860554E+02  0.30000002141E+02 0.  0.
        -12    1    1    2    0    0 -0.30623584269E+02  0.23775840107E+02  0.12250352412E+02  0.40659139446E+02  0.00000000000E+00 0.  1.
         11    1    3    3    0    0  0.13835764921E+02 -0.33197817958E+01 -0.46330243468E+01  0.14963764799E+02  0.51100000000E-03 0. -1.
        -11    1    3    3    0    0  0.27151541278E+01  0.42770599701E+00  0.62420783681E+01  0.68204499098E+01  0.51100000000E-03 0.  1.
        -12    1    3    3    0    0  0.14072665220E+02 -0.20883764308E+02 -0.13859406433E+02  0.28744645845E+02  0.00000000000E+00 0.  1.
</event>
<event>
 7    1  0.5447989E-013  0.5052887E+02  0.7816164E-02  0.1300439E+00
        -11   -1    0    0    0    0  0.00000000000E+00  0.00000000000E+00  0.45593999997E+02  0.45594000000E+02  0.51100000000E-03 0.  1.
         11   -1    0    0    0    0 -0.00000000000E+00 -0.00000000000E+00 -0.45593999997E+02  0.45594000000E+02  0.51100000000E-03 0. -1.
    9900012    2    1    2    0    0  0.12690265415E+02 -0.38480153678E+02 -0.33763431493E+01  0.50528871179E+02  0.30000034437E+02 0.  0.
        -12    1    1    2    0    0 -0.12690265415E+02  0.38480153678E+02  0.33763431493E+01  0.40659128821E+02  0.00000000000E+00 0.  1.
         11    1    3    3    0    0  0.14286803884E+02 -0.23003264990E+02  0.58832212530E+00  0.27085219006E+02  0.51100000000E-03 0.  1.
        -11    1    3    3    0    0 -0.69355456535E+00 -0.19185236413E+02 -0.40744184522E+01  0.19625371338E+02  0.51100000000E-03 0. -1.
        -12    1    3    3    0    0 -0.90298390355E+00  0.37083477250E+01  0.10975317765E+00  0.38182808357E+01  0.00000000000E+00 0.  1.
</event>
<event>
 7    1  0.5373252E-013  0.5052886E+02  0.7816164E-02  0.1300439E+00
        -11   -1    0    0    0    0  0.00000000000E+00  0.00000000000E+00  0.45593999997E+02  0.45594000000E+02  0.51100000000E-03 0. -1.
         11   -1    0    0    0    0 -0.00000000000E+00 -0.00000000000E+00 -0.45593999997E+02  0.45594000000E+02  0.51100000000E-03 0.  1.
    9900012    2    1    2    0    0  0.34274868267E+02 -0.16995213073E+02 -0.13768137493E+02  0.50528862378E+02  0.30000007684E+02 0.  0.
        -12    1    1    2    0    0 -0.34274868267E+02  0.16995213073E+02  0.13768137493E+02  0.40659137622E+02  0.00000000000E+00 0.  1.
         11    1    3    3    0    0  0.22704002680E+01 -0.53237034604E+01  0.39104934774E+00  0.58008150949E+01  0.51100000000E-03 0. -1.
        -11    1    3    3    0    0  0.61591484668E+01 -0.93938855446E+01  0.51782093563E+01  0.12369076273E+02  0.51100000000E-03 0.  1.
         12    1    3    3    0    0  0.25845319533E+02 -0.22776240681E+01 -0.19337396197E+02  0.32358971010E+02  0.00000000000E+00 0. -1.
</event>
<event>
 7    1  0.5373252E-013  0.5052888E+02  0.7816164E-02  0.1300439E+00
        -11   -1    0    0    0    0  0.00000000000E+00  0.00000000000E+00  0.45593999997E+02  0.45594000000E+02  0.51100000000E-03 0.  1.
         11   -1    0    0    0    0 -0.00000000000E+00 -0.00000000000E+00 -0.45593999997E+02  0.45594000000E+02  0.51100000000E-03 0. -1.
    9900012    2    1    2    0    0  0.73158880083E+01 -0.31376055038E+02 -0.24802922935E+02  0.50528880073E+02  0.30000061471E+02 0.  0.
        -12    1    1    2    0    0 -0.73158880083E+01  0.31376055038E+02  0.24802922935E+02  0.40659119927E+02  0.00000000000E+00 0.  1.
         11    1    3    3    0    0 -0.13818579478E+01 -0.14295008139E+02 -0.78601436488E+01  0.16371885888E+02  0.51100000000E-03 0. -1.
        -11    1    3    3    0    0  0.59046477630E+01 -0.12883511533E+02  0.22173798988E+01  0.14344563727E+02  0.51100000000E-03 0.  1.
        -12    1    3    3    0    0  0.27930981932E+01 -0.41975353650E+01 -0.19160159185E+02  0.19812430458E+02  0.00000000000E+00 0.  1.
</event>
<event>
 7    1  0.5373252E-013  0.5052888E+02  0.7816164E-02  0.1300439E+00
        -11   -1    0    0    0    0  0.00000000000E+00  0.00000000000E+00  0.45593999997E+02  0.45594000000E+02  0.51100000000E-03 0.  1.
         11   -1    0    0    0    0 -0.00000000000E+00 -0.00000000000E+00 -0.45593999997E+02  0.45594000000E+02  0.51100000000E-03 0. -1.
    9900012    2    1    2    0    0  0.17816949617E+02 -0.36529576234E+02 -0.11447100885E+01  0.50528880548E+02  0.30000062912E+02 0.  0.
        -12    1    1    2    0    0 -0.17816949617E+02  0.36529576234E+02  0.11447100885E+01  0.40659119452E+02  0.00000000000E+00 0.  1.
         11    1    3    3    0    0  0.12054524887E+02 -0.71152193027E+01  0.50684825996E+01  0.14887156616E+02  0.51100000000E-03 0. -1.
        -11    1    3    3    0    0  0.65297628078E+01 -0.89453096502E+01  0.51540245348E+01  0.12215577605E+02  0.51100000000E-03 0.  1.
         12    1    3    3    0    0 -0.76733807809E+00 -0.20469047281E+02 -0.11367217223E+02  0.23426146326E+02  0.00000000000E+00 0. -1.
</event>
<event>
 7    1  0.5373252E-013  0.5052887E+02  0.7816164E-02  0.1300439E+00
        -11   -1    0    0    0    0  0.00000000000E+00  0.00000000000E+00  0.45593999997E+02  0.45594000000E+02  0.51100000000E-03 0.  1.
         11   -1    0    0    0    0 -0.00000000000E+00 -0.00000000000E+00 -0.45593999997E+02  0.45594000000E+02  0.51100000000E-03 0. -1.
    9900012    2    1    2    0    0 -0.84737358969E+01 -0.77200861653E+01 -0.39009757048E+02  0.50528867257E+02  0.30000022515E+02 0.  0.
        -12    1    1    2    0    0  0.84737358969E+01  0.77200861653E+01  0.39009757048E+02  0.40659132743E+02  0.00000000000E+00 0.  1.
         11    1    3    3    0    0  0.70888071559E+01  0.74809506315E+00 -0.32806756383E+01  0.78468889391E+01  0.51100000000E-03 0. -1.
        -11    1    3    3    0    0 -0.42280980280E+01  0.29239983897E+01 -0.23841556900E+01  0.56666372861E+01  0.51100000000E-03 0.  1.
         12    1    3    3    0    0 -0.11334445025E+02 -0.11392179618E+02 -0.33344925720E+02  0.37015341032E+02  0.00000000000E+00 0. -1.
</event>
<event>
 7    1  0.5373252E-013  0.5052886E+02  0.7816164E-02  0.1300439E+00
        -11   -1    0    0    0    0  0.00000000000E+00  0.00000000000E+00  0.45593999997E+02  0.45594000000E+02  0.51100000000E-03 0. -1.
         11   -1    0    0    0    0 -0.00000000000E+00 -0.00000000000E+00 -0.45593999997E+02  0.45594000000E+02  0.51100000000E-03 0.  1.
    9900012    2    1    2    0    0 -0.28426589588E+01 -0.23584551373E+02  0.32997790058E+02  0.50528856845E+02  0.29999990865E+02 0.  0.
        -12    1    1    2    0    0  0.28426589588E+01  0.23584551373E+02 -0.32997790058E+02  0.40659143155E+02  0.00000000000E+00 0.  1.
         11    1    3    3    0    0  0.74398491746E+01 -0.88991101811E+01  0.11260937957E+01  0.11653909441E+02  0.51100000000E-03 0. -1.
        -11    1    3    3    0    0  0.14658267767E+01  0.48211229815E+00 -0.14520139075E+00  0.15498916454E+01  0.51100000000E-03 0.  1.
         12    1    3    3    0    0 -0.11748334910E+02 -0.15167553490E+02  0.32016897653E+02  0.37325055758E+02  0.00000000000E+00 0. -1.
</event>
<event>
 7    1  0.5373252E-013  0.5052887E+02  0.7816164E-02  0.1300439E+00
        -11   -1    0    0    0    0  0.00000000000E+00  0.00000000000E+00  0.45593999997E+02  0.45594000000E+02  0.51100000000E-03 0.  1.
         11   -1    0    0    0    0 -0.00000000000E+00 -0.00000000000E+00 -0.45593999997E+02  0.45594000000E+02  0.51100000000E-03 0. -1.
    9900012    2    1    2    0    0  0.11011290665E+02 -0.38968517731E+02 -0.36565969550E+01  0.50528873133E+02  0.30000040376E+02 0.  0.
        -12    1    1    2    0    0 -0.11011290665E+02  0.38968517731E+02  0.36565969550E+01  0.40659126867E+02  0.00000000000E+00 0.  1.
         11    1    3    3    0    0  0.11030548903E+01 -0.12573874797E+02 -0.96592300956E+01  0.15894017233E+02  0.51100000000E-03 0. -1.
        -11    1    3    3    0    0  0.15331242489E+02 -0.14794320279E+02  0.37686653764E+01  0.21636121366E+02  0.51100000000E-03 0.  1.
         12    1    3    3    0    0 -0.54230067145E+01 -0.11600322655E+02  0.22339677641E+01  0.12998734535E+02  0.00000000000E+00 0. -1.
</event>
<event>
 7    1  0.5373252E-013  0.5052886E+02  0.7816164E-02  0.1300439E+00
        -11   -1    0    0    0    0  0.00000000000E+00  0.00000000000E+00  0.45593999997E+02  0.45594000000E+02  0.51100000000E-03 0.  1.
         11   -1    0    0    0    0 -0.00000000000E+00 -0.00000000000E+00 -0.45593999997E+02  0.45594000000E+02  0.51100000000E-03 0. -1.
    9900012    2    1    2    0    0  0.28589658395E+02 -0.17171156907E+02 -0.23258295657E+02  0.50528861870E+02  0.30000006139E+02 0.  0.
        -12    1    1    2    0    0 -0.28589658395E+02  0.17171156907E+02  0.23258295657E+02  0.40659138130E+02  0.00000000000E+00 0.  1.
         11    1    3    3    0    0  0.11590660906E+02 -0.21726868162E+01 -0.78741941483E+01  0.14179806839E+02  0.51100000000E-03 0. -1.
        -11    1    3    3    0    0  0.16087617352E+02 -0.76083773345E+01  0.15368088846E+01  0.17862268040E+02  0.51100000000E-03 0.  1.
         12    1    3    3    0    0  0.91138013588E+00 -0.73900927561E+01 -0.16920910393E+02  0.18486786990E+02  0.00000000000E+00 0. -1.
</event>
<event>
 7    1  0.5373252E-013  0.5052885E+02  0.7816164E-02  0.1300439E+00
        -11   -1    0    0    0    0  0.00000000000E+00  0.00000000000E+00  0.45593999997E+02  0.45594000000E+02  0.51100000000E-03 0. -1.
         11   -1    0    0    0    0 -0.00000000000E+00 -0.00000000000E+00 -0.45593999997E+02  0.45594000000E+02  0.51100000000E-03 0.  1.
    9900012    2    1    2    0    0 -0.16116922219E+02 -0.61418439429E+01  0.36819684642E+02  0.50528848436E+02  0.29999965305E+02 0.  0.
        -12    1    1    2    0    0  0.16116922219E+02  0.61418439429E+01 -0.36819684642E+02  0.40659151564E+02  0.00000000000E+00 0.  1.
         11    1    3    3    0    0  0.99794375258E-02 -0.62229320109E+01 -0.27074912785E+00  0.62288271571E+01  0.51100000000E-03 0.  1.
        -11    1    3    3    0    0 -0.12407720917E+00 -0.62872378376E+01  0.15176129022E+02  0.16427405368E+02  0.51100000000E-03 0. -1.
         12    1    3    3    0    0 -0.16002824447E+02  0.63683259056E+01  0.21914304748E+02  0.27872615911E+02  0.00000000000E+00 0. -1.
</event>
<event>
 7    1  0.5373252E-013  0.5052886E+02  0.7816164E-02  0.1300439E+00
        -11   -1    0    0    0    0  0.00000000000E+00  0.00000000000E+00  0.45593999997E+02  0.45594000000E+02  0.51100000000E-03 0.  1.
         11   -1    0    0    0    0 -0.00000000000E+00 -0.00000000000E+00 -0.45593999997E+02  0.45594000000E+02  0.51100000000E-03 0. -1.
    9900012    2    1    2    0    0 -0.49873175538E+01 -0.16818965107E+02 -0.36679893359E+02  0.50528862029E+02  0.30000006625E+02 0.  0.
        -12    1    1    2    0    0  0.49873175538E+01  0.16818965107E+02  0.36679893359E+02  0.40659137971E+02  0.00000000000E+00 0.  1.
         11    1    3    3    0    0  0.19188688910E+01 -0.11522532557E+02 -0.17168740903E+02  0.20765752546E+02  0.51100000000E-03 0. -1.
        -11    1    3    3    0    0  0.19225498761E+01 -0.88187396099E+01 -0.11650416753E+01  0.91007520953E+01  0.51100000000E-03 0.  1.
         12    1    3    3    0    0 -0.88287363208E+01  0.35223070598E+01 -0.18346110781E+02  0.20662357389E+02  0.00000000000E+00 0. -1.
</event>
<event>
 7    1  0.5373252E-013  0.5052885E+02  0.7816164E-02  0.1300439E+00
        -11   -1    0    0    0    0  0.00000000000E+00  0.00000000000E+00  0.45593999997E+02  0.45594000000E+02  0.51100000000E-03 0.  1.
         11   -1    0    0    0    0 -0.00000000000E+00 -0.00000000000E+00 -0.45593999997E+02  0.45594000000E+02  0.51100000000E-03 0. -1.
    9900012    2    1    2    0    0 -0.46511470245E+01  0.69461933911E+01 -0.39790492712E+02  0.50528854884E+02  0.29999984906E+02 0.  0.
        -12    1    1    2    0    0  0.46511470245E+01 -0.69461933911E+01  0.39790492712E+02  0.40659145116E+02  0.00000000000E+00 0.  1.
         11    1    3    3    0    0 -0.10897371928E+02  0.64252470957E+01 -0.24427515001E+02  0.27508907731E+02  0.51100000000E-03 0. -1.
        -11    1    3    3    0    0 -0.20060868033E+01  0.63936229794E+01 -0.40257268330E+01  0.78172422158E+01  0.51100000000E-03 0.  1.
        -12    1    3    3    0    0  0.82523117067E+01 -0.58726766840E+01 -0.11337250879E+02  0.15202704938E+02  0.00000000000E+00 0.  1.
</event>
<event>
 7    1  0.5373252E-013  0.5052884E+02  0.7816164E-02  0.1300439E+00
        -11   -1    0    0    0    0  0.00000000000E+00  0.00000000000E+00  0.45593999997E+02  0.45594000000E+02  0.51100000000E-03 0. -1.
         11   -1    0    0    0    0 -0.00000000000E+00 -0.00000000000E+00 -0.45593999997E+02  0.45594000000E+02  0.51100000000E-03 0.  1.
    9900012    2    1    2    0    0 -0.27136891761E+01 -0.36549522402E+02 -0.17604983743E+02  0.50528841753E+02  0.29999944992E+02 0.  0.
        -12    1    1    2    0    0  0.27136891761E+01  0.36549522402E+02  0.17604983743E+02  0.40659158247E+02  0.00000000000E+00 0.  1.
         11    1    3    3    0    0  0.17857939433E+01 -0.68894637851E+01  0.66880974855E+01  0.97664947392E+01  0.51100000000E-03 0. -1.
        -11    1    3    3    0    0 -0.41653626734E+01 -0.16839660273E+02 -0.58668741698E+01  0.18312417019E+02  0.51100000000E-03 0.  1.
        -12    1    3    3    0    0 -0.33412044597E+00 -0.12820398344E+02 -0.18426207059E+02  0.22449929994E+02  0.00000000000E+00 0.  1.
</event>
<event>
 7    1  0.5441023E-013  0.5052886E+02  0.7816164E-02  0.1300439E+00
        -11   -1    0    0    0    0  0.00000000000E+00  0.00000000000E+00  0.45593999997E+02  0.45594000000E+02  0.51100000000E-03 0. -1.
         11   -1    0    0    0    0 -0.00000000000E+00 -0.00000000000E+00 -0.45593999997E+02  0.45594000000E+02  0.51100000000E-03 0.  1.
    9900012    2    1    2    0    0  0.25227399983E+02 -0.20056787376E+02  0.24788484394E+02  0.50528863410E+02  0.30000010820E+02 0.  0.
        -12    1    1    2    0    0 -0.25227399983E+02  0.20056787376E+02 -0.24788484394E+02  0.40659136590E+02  0.00000000000E+00 0.  1.
         11    1    3    3    0    0  0.99423943113E+01 -0.53502496105E+01  0.97692253575E+01  0.14930309437E+02  0.51100000000E-03 0. -1.
        -11    1    3    3    0    0  0.12434662638E+02  0.42002086725E+01  0.53648768906E+01  0.14179015908E+02  0.51100000000E-03 0.  1.
        -12    1    3    3    0    0  0.28503430332E+01 -0.18906746438E+02  0.96543821462E+01  0.21419538064E+02  0.00000000000E+00 0.  1.
</event>
<event>
 7    1  0.5373252E-013  0.5052880E+02  0.7816164E-02  0.1300439E+00
        -11   -1    0    0    0    0  0.00000000000E+00  0.00000000000E+00  0.45593999997E+02  0.45594000000E+02  0.51100000000E-03 0.  1.
         11   -1    0    0    0    0 -0.00000000000E+00 -0.00000000000E+00 -0.45593999997E+02  0.45594000000E+02  0.51100000000E-03 0. -1.
    9900012    2    1    2    0    0  0.23621218218E+02  0.33093829996E+02  0.81845459844E-01  0.50528803837E+02  0.29999829744E+02 0.  0.
        -12    1    1    2    0    0 -0.23621218218E+02 -0.33093829996E+02 -0.81845459844E-01  0.40659196163E+02  0.00000000000E+00 0.  1.
         11    1    3    3    0    0  0.29659695699E+01  0.20708609812E+02  0.43970474866E+01  0.21377032598E+02  0.51100000000E-03 0. -1.
        -11    1    3    3    0    0 -0.13062276413E+01  0.21991837441E+01  0.29229938053E+01  0.38841386224E+01  0.51100000000E-03 0.  1.
        -12    1    3    3    0    0  0.21961476289E+02  0.10186036440E+02 -0.72381958320E+01  0.25267632617E+02  0.00000000000E+00 0.  1.
</event>
<event>
 7    1  0.5373252E-013  0.5052886E+02  0.7816164E-02  0.1300439E+00
        -11   -1    0    0    0    0  0.00000000000E+00  0.00000000000E+00  0.45593999997E+02  0.45594000000E+02  0.51100000000E-03 0.  1.
         11   -1    0    0    0    0 -0.00000000000E+00 -0.00000000000E+00 -0.45593999997E+02  0.45594000000E+02  0.51100000000E-03 0. -1.
    9900012    2    1    2    0    0 -0.10349647410E+02  0.90402527489E+01 -0.38266491163E+02  0.50528859365E+02  0.29999998525E+02 0.  0.
        -12    1    1    2    0    0  0.10349647410E+02 -0.90402527489E+01  0.38266491163E+02  0.40659140635E+02  0.00000000000E+00 0.  1.
         11    1    3    3    0    0 -0.11134802139E+01  0.14801256145E+02 -0.24031113789E+02  0.28245556321E+02  0.51100000000E-03 0. -1.
        -11    1    3    3    0    0  0.13968242165E+01  0.24292595323E+01 -0.57714282854E+01  0.64157466036E+01  0.51100000000E-03 0.  1.
        -12    1    3    3    0    0 -0.10632991412E+02 -0.81902629288E+01 -0.84639490887E+01  0.15867556441E+02  0.00000000000E+00 0.  1.
</event>
<event>
 7    1  0.5373252E-013  0.5052888E+02  0.7816164E-02  0.1300439E+00
        -11   -1    0    0    0    0  0.00000000000E+00  0.00000000000E+00  0.45593999997E+02  0.45594000000E+02  0.51100000000E-03 0.  1.
         11   -1    0    0    0    0 -0.00000000000E+00 -0.00000000000E+00 -0.45593999997E+02  0.45594000000E+02  0.51100000000E-03 0. -1.
    9900012    2    1    2    0    0  0.37839133928E+02 -0.14790967726E+02 -0.16098641868E+01  0.50528875005E+02  0.30000046064E+02 0.  0.
        -12    1    1    2    0    0 -0.37839133928E+02  0.14790967726E+02  0.16098641868E+01  0.40659124995E+02  0.00000000000E+00 0.  1.
         11    1    3    3    0    0  0.10818844502E+02  0.35160407509E+01  0.41221963776E+00  0.11383315168E+02  0.51100000000E-03 0.  1.
        -11    1    3    3    0    0  0.10043989331E+02  0.23274329781E+01 -0.63035213289E+01  0.12084413406E+02  0.51100000000E-03 0. -1.
        -12    1    3    3    0    0  0.16976300095E+02 -0.20634441455E+02  0.42814375043E+01  0.27061146431E+02  0.00000000000E+00 0.  1.
</event>
<event>
 7    1  0.5373252E-013  0.5052887E+02  0.7816164E-02  0.1300439E+00
        -11   -1    0    0    0    0  0.00000000000E+00  0.00000000000E+00  0.45593999997E+02  0.45594000000E+02  0.51100000000E-03 0. -1.
         11   -1    0    0    0    0 -0.00000000000E+00 -0.00000000000E+00 -0.45593999997E+02  0.45594000000E+02  0.51100000000E-03 0.  1.
    9900012    2    1    2    0    0  0.23418547078E+02 -0.12522801437E+02  0.30788247521E+02  0.50528867096E+02  0.30000022026E+02 0.  0.
        -12    1    1    2    0    0 -0.23418547078E+02  0.12522801437E+02 -0.30788247521E+02  0.40659132904E+02  0.00000000000E+00 0.  1.
         11    1    3    3    0    0  0.84684688059E+01 -0.48005670845E+00  0.15349256713E+02  0.17536963826E+02  0.51100000000E-03 0. -1.
        -11    1    3    3    0    0  0.15059145042E+02  0.19148576850E+01  0.74622482617E+01  0.16915368122E+02  0.51100000000E-03 0.  1.
         12    1    3    3    0    0 -0.10906676923E+00 -0.13957602413E+02  0.79767425466E+01  0.16076535147E+02  0.00000000000E+00 0. -1.
</event>
<event>
 7    1  0.5373252E-013  0.5052887E+02  0.7816164E-02  0.1300439E+00
        -11   -1    0    0    0    0  0.00000000000E+00  0.00000000000E+00  0.45593999997E+02  0.45594000000E+02  0.51100000000E-03 0.  1.
         11   -1    0    0    0    0 -0.00000000000E+00 -0.00000000000E+00 -0.45593999997E+02  0.45594000000E+02  0.51100000000E-03 0. -1.
    9900012    2    1    2    0    0  0.14010981919E+00 -0.42569900512E+01 -0.40435420217E+02  0.50528870604E+02  0.30000032689E+02 0.  0.
        -12    1    1    2    0    0 -0.14010981919E+00  0.42569900512E+01  0.40435420217E+02  0.40659129396E+02  0.00000000000E+00 0.  1.
         11    1    3    3    0    0 -0.61159768980E+01 -0.76692427177E+01 -0.12776514862E+02  0.16107817653E+02  0.51100000000E-03 0. -1.
        -11    1    3    3    0    0  0.50868849540E+01 -0.22444667131E+01  0.58666096619E+00  0.55909033896E+01  0.51100000000E-03 0.  1.
        -12    1    3    3    0    0  0.11692017632E+01  0.56567193797E+01 -0.28245566322E+02  0.28830149562E+02  0.00000000000E+00 0.  1.
</event>
<event>
 7    1  0.5373252E-013  0.5052886E+02  0.7816164E-02  0.1300439E+00
        -11   -1    0    0    0    0  0.00000000000E+00  0.00000000000E+00  0.45593999997E+02  0.45594000000E+02  0.51100000000E-03 0.  1.
         11   -1    0    0    0    0 -0.00000000000E+00 -0.00000000000E+00 -0.45593999997E+02  0.45594000000E+02  0.51100000000E-03 0. -1.
    9900012    2    1    2    0    0  0.13034837140E+02  0.31885397941E+02 -0.21600460872E+02  0.50528862146E+02  0.30000006980E+02 0.  0.
        -12    1    1    2    0    0 -0.13034837140E+02 -0.31885397941E+02  0.21600460872E+02  0.40659137854E+02  0.00000000000E+00 0.  1.
         11    1    3    3    0    0  0.11088863614E+01  0.11807301059E+02 -0.89745162846E+00  0.11893166397E+02  0.51100000000E-03 0. -1.
        -11    1    3    3    0    0 -0.74698574504E+00  0.46208824545E+01  0.44834050364E+01  0.64816250542E+01  0.51100000000E-03 0.  1.
        -12    1    3    3    0    0  0.12672936523E+02  0.15457214428E+02 -0.25186414280E+02  0.32154070695E+02  0.00000000000E+00 0.  1.
</event>
<event>
 7    1  0.5373252E-013  0.5052886E+02  0.7816164E-02  0.1300439E+00
        -11   -1    0    0    0    0  0.00000000000E+00  0.00000000000E+00  0.45593999997E+02  0.45594000000E+02  0.51100000000E-03 0.  1.
         11   -1    0    0    0    0 -0.00000000000E+00 -0.00000000000E+00 -0.45593999997E+02  0.45594000000E+02  0.51100000000E-03 0. -1.
    9900012    2    1    2    0    0 -0.36796320622E+02 -0.11744248148E+02  0.12699181788E+02  0.50528858421E+02  0.29999995657E+02 0.  0.
        -12    1    1    2    0    0  0.36796320622E+02  0.11744248148E+02 -0.12699181788E+02  0.40659141579E+02  0.00000000000E+00 0.  1.
         11    1    3    3    0    0 -0.65503164433E+01 -0.13178538865E+02  0.97023302171E+01  0.17627130908E+02  0.51100000000E-03 0. -1.
        -11    1    3    3    0    0 -0.11648050385E+02 -0.33988320898E+01  0.58585451804E+01  0.13474111816E+02  0.51100000000E-03 0.  1.
         12    1    3    3    0    0 -0.18597953793E+02  0.48331228066E+01 -0.28616936099E+01  0.19427615697E+02  0.00000000000E+00 0. -1.
</event>
<event>
 7    1  0.5373252E-013  0.5052886E+02  0.7816164E-02  0.1300439E+00
        -11   -1    0    0    0    0  0.00000000000E+00  0.00000000000E+00  0.45593999997E+02  0.45594000000E+02  0.51100000000E-03 0.  1.
         11   -1    0    0    0    0 -0.00000000000E+00 -0.00000000000E+00 -0.45593999997E+02  0.45594000000E+02  0.51100000000E-03 0. -1.
    9900012    2    1    2    0    0  0.25148935854E+02 -0.69447284510E+01 -0.31184410706E+02  0.50528859590E+02  0.29999999209E+02 0.  0.
        -12    1    1    2    0    0 -0.25148935854E+02  0.69447284510E+01  0.31184410706E+02  0.40659140410E+02  0.00000000000E+00 0.  1.
         11    1    3    3    0    0 -0.15593282170E+01 -0.38247662007E+00 -0.86913287369E+01  0.88383815445E+01  0.51100000000E-03 0. -1.
        -11    1    3    3    0    0  0.36261611521E+01  0.52202732888E+01  0.13244677908E+01  0.64926506991E+01  0.51100000000E-03 0.  1.
         12    1    3    3    0    0  0.23082102919E+02 -0.11782525120E+02 -0.23817549759E+02  0.35197827346E+02  0.00000000000E+00 0. -1.
</event>
<event>
 7    1  0.5373252E-013  0.5052886E+02  0.7816164E-02  0.1300439E+00
        -11   -1    0    0    0    0  0.00000000000E+00  0.00000000000E+00  0.45593999997E+02  0.45594000000E+02  0.51100000000E-03 0. -1.
         11   -1    0    0    0    0 -0.00000000000E+00 -0.00000000000E+00 -0.45593999997E+02  0.45594000000E+02  0.51100000000E-03 0.  1.
    9900012    2    1    2    0    0  0.22337666492E+02  0.19513921849E+02  0.27810091652E+02  0.50528859724E+02  0.29999999617E+02 0.  0.
        -12    1    1    2    0    0 -0.22337666492E+02 -0.19513921849E+02 -0.27810091652E+02  0.40659140276E+02  0.00000000000E+00 0.  1.
         11    1    3    3    0    0  0.63692719562E+01  0.63550841587E+01  0.21294822256E+02  0.23117616121E+02  0.51100000000E-03 0. -1.
        -11    1    3    3    0    0  0.78064811845E+01  0.14028197369E+02  0.95270478304E+01  0.18668050528E+02  0.51100000000E-03 0.  1.
        -12    1    3    3    0    0  0.81619133515E+01 -0.86935967836E+00 -0.30117784341E+01  0.87431930749E+01  0.00000000000E+00 0.  1.
</event>
<event>
 7    1  0.5373252E-013  0.5052886E+02  0.7816164E-02  0.1300439E+00
        -11   -1    0    0    0    0  0.00000000000E+00  0.00000000000E+00  0.45593999997E+02  0.45594000000E+02  0.51100000000E-03 0. -1.
         11   -1    0    0    0    0 -0.00000000000E+00 -0.00000000000E+00 -0.45593999997E+02  0.45594000000E+02  0.51100000000E-03 0.  1.
    9900012    2    1    2    0    0  0.16229617595E+02 -0.37278584109E+02 -0.26907154954E+00  0.50528859331E+02  0.29999998423E+02 0.  0.
        -12    1    1    2    0    0 -0.16229617595E+02  0.37278584109E+02  0.26907154954E+00  0.40659140669E+02  0.00000000000E+00 0.  1.
         11    1    3    3    0    0 -0.24773982428E+01 -0.17203637727E+02  0.77953341393E+01  0.19049144015E+02  0.51100000000E-03 0. -1.
        -11    1    3    3    0    0 -0.93678330678E+00 -0.41950606122E+01 -0.40448039742E+01  0.59022483813E+01  0.51100000000E-03 0.  1.
         12    1    3    3    0    0  0.19643799144E+02 -0.15879885770E+02 -0.40196017146E+01  0.25577466935E+02  0.00000000000E+00 0. -1.
</event>
<event>
 7    1  0.5373252E-013  0.5052886E+02  0.7816164E-02  0.1300439E+00
        -11   -1    0    0    0    0  0.00000000000E+00  0.00000000000E+00  0.45593999997E+02  0.45594000000E+02  0.51100000000E-03 0.  1.
         11   -1    0    0    0    0 -0.00000000000E+00 -0.00000000000E+00 -0.45593999997E+02  0.45594000000E+02  0.51100000000E-03 0. -1.
    9900012    2    1    2    0    0  0.35466665422E+02  0.97919526433E+01 -0.17303142841E+02  0.50528862713E+02  0.30000008702E+02 0.  0.
        -12    1    1    2    0    0 -0.35466665422E+02 -0.97919526433E+01  0.17303142841E+02  0.40659137287E+02  0.00000000000E+00 0.  1.
         11    1    3    3    0    0  0.27402933434E+02 -0.15185815591E+01 -0.56052124400E+01  0.28011520086E+02  0.51100000000E-03 0. -1.
        -11    1    3    3    0    0  0.82850598450E+01  0.86373109738E+01 -0.14390178967E+02  0.18716907022E+02  0.51100000000E-03 0.  1.
        -12    1    3    3    0    0 -0.22132785701E+00  0.26732232286E+01  0.26922485659E+01  0.38004356054E+01  0.00000000000E+00 0.  1.
</event>
<event>
 7    1  0.5373252E-013  0.5052886E+02  0.7816164E-02  0.1300439E+00
        -11   -1    0    0    0    0  0.00000000000E+00  0.00000000000E+00  0.45593999997E+02  0.45594000000E+02  0.51100000000E-03 0.  1.
         11   -1    0    0    0    0 -0.00000000000E+00 -0.00000000000E+00 -0.45593999997E+02  0.45594000000E+02  0.51100000000E-03 0. -1.
    9900012    2    1    2    0    0  0.39115653560E+02  0.38248363947E+01 -0.10416433726E+02  0.50528858119E+02  0.29999994740E+02 0.  0.
        -12    1    1    2    0    0 -0.39115653560E+02 -0.38248363947E+01  0.10416433726E+02  0.40659141881E+02  0.00000000000E+00 0.  1.
         11    1    3    3    0    0  0.15926758992E+01 -0.47301257322E+01 -0.38324320953E+01  0.62927134043E+01  0.51100000000E-03 0. -1.
        -11    1    3    3    0    0  0.53852746285E+01  0.24822052313E+01  0.66890931353E+01  0.89390431741E+01  0.51100000000E-03 0.  1.
         12    1    3    3    0    0  0.32137703033E+02  0.60727568956E+01 -0.13273094766E+02  0.35297101541E+02  0.00000000000E+00 0. -1.
</event>
<event>
 7    1  0.5373252E-013  0.5052886E+02  0.7816164E-02  0.1300439E+00
        -11   -1    0    0    0    0  0.00000000000E+00  0.00000000000E+00  0.45593999997E+02  0.45594000000E+02  0.51100000000E-03 0.  1.
         11   -1    0    0    0    0 -0.00000000000E+00 -0.00000000000E+00 -0.45593999997E+02  0.45594000000E+02  0.51100000000E-03 0. -1.
    9900012    2    1    2    0    0  0.68062581967E+01 -0.27329727408E+02  0.29324506249E+02  0.50528858130E+02  0.29999994773E+02 0.  0.
        -12    1    1    2    0    0 -0.68062581967E+01  0.27329727408E+02 -0.29324506249E+02  0.40659141870E+02  0.00000000000E+00 0.  1.
         11    1    3    3    0    0  0.14119252997E+01 -0.28889018975E+02  0.25093033764E+02  0.38291373626E+02  0.51100000000E-03 0. -1.
        -11    1    3    3    0    0 -0.19570758973E+01 -0.20645804134E+01 -0.31955924282E+00  0.28626485502E+01  0.51100000000E-03 0.  1.
        -12    1    3    3    0    0  0.73514087944E+01  0.36238719803E+01  0.45510317275E+01  0.93748359546E+01  0.00000000000E+00 0.  1.
</event>
<event>
 7    1  0.5373252E-013  0.5052883E+02  0.7816164E-02  0.1300439E+00
        -11   -1    0    0    0    0  0.00000000000E+00  0.00000000000E+00  0.45593999997E+02  0.45594000000E+02  0.51100000000E-03 0.  1.
         11   -1    0    0    0    0 -0.00000000000E+00 -0.00000000000E+00 -0.45593999997E+02  0.45594000000E+02  0.51100000000E-03 0. -1.
    9900012    2    1    2    0    0 -0.26307227966E+02  0.26907199701E+02 -0.15398059976E+02  0.50528832645E+02  0.29999917306E+02 0.  0.
        -12    1    1    2    0    0  0.26307227966E+02 -0.26907199701E+02  0.15398059976E+02  0.40659167355E+02  0.00000000000E+00 0.  1.
         11    1    3    3    0    0 -0.11488022576E+02  0.27124569396E+02 -0.58894084454E+01  0.30040007652E+02  0.51100000000E-03 0. -1.
        -11    1    3    3    0    0 -0.81807106319E+00 -0.23278088403E+01  0.11926341532E+01  0.27404946170E+01  0.51100000000E-03 0.  1.
        -12    1    3    3    0    0 -0.14001134327E+02  0.21104391448E+01 -0.10701285683E+02  0.17748330375E+02  0.00000000000E+00 0.  1.
</event>
<event>
 7    1  0.5373252E-013  0.5052886E+02  0.7816164E-02  0.1300439E+00
        -11   -1    0    0    0    0  0.00000000000E+00  0.00000000000E+00  0.45593999997E+02  0.45594000000E+02  0.51100000000E-03 0.  1.
         11   -1    0    0    0    0 -0.00000000000E+00 -0.00000000000E+00 -0.45593999997E+02  0.45594000000E+02  0.51100000000E-03 0. -1.
    9900012    2    1    2    0    0 -0.40517451185E+02  0.29979452403E+01  0.15854936619E+01  0.50528864294E+02  0.30000013509E+02 0.  0.
        -12    1    1    2    0    0  0.40517451185E+02 -0.29979452403E+01 -0.15854936619E+01  0.40659135706E+02  0.00000000000E+00 0.  1.
         11    1    3    3    0    0 -0.98734218407E+01  0.77503195443E+01  0.68010250486E+01  0.14276058765E+02  0.51100000000E-03 0. -1.
        -11    1    3    3    0    0  0.23694051635E+01 -0.25082496694E+00  0.53321834982E+00  0.24415806484E+01  0.51100000000E-03 0.  1.
         12    1    3    3    0    0 -0.33013434508E+02 -0.45015493371E+01 -0.57487497365E+01  0.33811224881E+02  0.00000000000E+00 0. -1.
</event>
<event>
 7    1  0.5373252E-013  0.5052885E+02  0.7816164E-02  0.1300439E+00
        -11   -1    0    0    0    0  0.00000000000E+00  0.00000000000E+00  0.45593999997E+02  0.45594000000E+02  0.51100000000E-03 0. -1.
         11   -1    0    0    0    0 -0.00000000000E+00 -0.00000000000E+00 -0.45593999997E+02  0.45594000000E+02  0.51100000000E-03 0.  1.
    9900012    2    1    2    0    0 -0.37476956675E+02  0.10348578763E+02 -0.11897536156E+02  0.50528846902E+02  0.29999960643E+02 0.  0.
        -12    1    1    2    0    0  0.37476956675E+02 -0.10348578763E+02  0.11897536156E+02  0.40659153098E+02  0.00000000000E+00 0.  1.
         11    1    3    3    0    0 -0.15737411317E+02  0.60821524248E+01 -0.13213471067E+02  0.21430224240E+02  0.51100000000E-03 0. -1.
        -11    1    3    3    0    0 -0.22888411716E+02  0.39684553018E+01 -0.40697572715E+01  0.23583701001E+02  0.51100000000E-03 0.  1.
        -12    1    3    3    0    0  0.11488663577E+01  0.29797103589E+00  0.53856921825E+01  0.55149216613E+01  0.00000000000E+00 0.  1.
</event>
<event>
 7    1  0.5373252E-013  0.5052886E+02  0.7816164E-02  0.1300439E+00
        -11   -1    0    0    0    0  0.00000000000E+00  0.00000000000E+00  0.45593999997E+02  0.45594000000E+02  0.51100000000E-03 0.  1.
         11   -1    0    0    0    0 -0.00000000000E+00 -0.00000000000E+00 -0.45593999997E+02  0.45594000000E+02  0.51100000000E-03 0. -1.
    9900012    2    1    2    0    0 -0.25178616464E+02  0.29078340565E+02 -0.13177736476E+02  0.50528863811E+02  0.30000012040E+02 0.  0.
        -12    1    1    2    0    0  0.25178616464E+02 -0.29078340565E+02  0.13177736476E+02  0.40659136189E+02  0.00000000000E+00 0.  1.
         11    1    3    3    0    0 -0.54300790789E+01 -0.35467802871E+01 -0.48730366948E+01  0.81124531492E+01  0.51100000000E-03 0. -1.
        -11    1    3    3    0    0  0.12496226927E+01  0.10939733357E+02  0.34356501218E+00  0.11016231660E+02  0.51100000000E-03 0.  1.
        -12    1    3    3    0    0 -0.20998160077E+02  0.21685387495E+02 -0.86482647932E+01  0.31400179002E+02  0.00000000000E+00 0.  1.
</event>
<event>
 7    1  0.5373252E-013  0.5052885E+02  0.7816164E-02  0.1300439E+00
        -11   -1    0    0    0    0  0.00000000000E+00  0.00000000000E+00  0.45593999997E+02  0.45594000000E+02  0.51100000000E-03 0.  1.
         11   -1    0    0    0    0 -0.00000000000E+00 -0.00000000000E+00 -0.45593999997E+02  0.45594000000E+02  0.51100000000E-03 0. -1.
    9900012    2    1    2    0    0  0.10312045663E+02 -0.13144899002E+02 -0.37068042096E+02  0.50528850964E+02  0.29999972989E+02 0.  0.
        -12    1    1    2    0    0 -0.10312045663E+02  0.13144899002E+02  0.37068042096E+02  0.40659149036E+02  0.00000000000E+00 0.  1.
         11    1    3    3    0    0  0.63852412042E+01  0.34064186985E+01 -0.16427563825E+02  0.17951040278E+02  0.51100000000E-03 0. -1.
        -11    1    3    3    0    0  0.72878621374E+00  0.37695966019E+01 -0.67197775783E+01  0.77392763776E+01  0.51100000000E-03 0.  1.
        -12    1    3    3    0    0  0.31980182452E+01 -0.20320914303E+02 -0.13920700693E+02  0.24838534308E+02  0.00000000000E+00 0.  1.
</event>
<event>
 7    1  0.5373252E-013  0.5052886E+02  0.7816164E-02  0.1300439E+00
        -11   -1    0    0    0    0  0.00000000000E+00  0.00000000000E+00  0.45593999997E+02  0.45594000000E+02  0.51100000000E-03 0.  1.
         11   -1    0    0    0    0 -0.00000000000E+00 -0.00000000000E+00 -0.45593999997E+02  0.45594000000E+02  0.51100000000E-03 0. -1.
    9900012    2    1    2    0    0 -0.52184194687E+01 -0.16329053618E+02 -0.36868629458E+02  0.50528859183E+02  0.29999997974E+02 0.  0.
        -12    1    1    2    0    0  0.52184194687E+01  0.16329053618E+02  0.36868629458E+02  0.40659140817E+02  0.00000000000E+00 0.  1.
         11    1    3    3    0    0  0.28641543600E+01 -0.12162953342E+02 -0.12166345236E+02  0.17440205585E+02  0.51100000000E-03 0. -1.
        -11    1    3    3    0    0 -0.80299466242E+01 -0.91874057797E+01 -0.25243609329E+02  0.28037979242E+02  0.51100000000E-03 0.  1.
        -12    1    3    3    0    0 -0.52627204434E-01  0.50213055036E+01  0.54132510625E+00  0.50506743563E+01  0.00000000000E+00 0.  1.
</event>
<event>
 7    1  0.5373252E-013  0.5052886E+02  0.7816164E-02  0.1300439E+00
        -11   -1    0    0    0    0  0.00000000000E+00  0.00000000000E+00  0.45593999997E+02  0.45594000000E+02  0.51100000000E-03 0. -1.
         11   -1    0    0    0    0 -0.00000000000E+00 -0.00000000000E+00 -0.45593999997E+02  0.45594000000E+02  0.51100000000E-03 0.  1.
    9900012    2    1    2    0    0 -0.26614018095E+02  0.10495872245E+02  0.28891108019E+02  0.50528863070E+02  0.30000009787E+02 0.  0.
        -12    1    1    2    0    0  0.26614018095E+02 -0.10495872245E+02 -0.28891108019E+02  0.40659136930E+02  0.00000000000E+00 0.  1.
         11    1    3    3    0    0 -0.89289583057E+01 -0.80959389224E+01  0.87581481031E+01  0.14898848342E+02  0.51100000000E-03 0. -1.
        -11    1    3    3    0    0  0.11848409639E+01  0.47878070848E+01  0.24974962001E+00  0.49385544368E+01  0.51100000000E-03 0.  1.
        -12    1    3    3    0    0 -0.18869900753E+02  0.13804004083E+02  0.19883210296E+02  0.30691460291E+02  0.00000000000E+00 0.  1.
</event>
<event>
 7    1  0.5373252E-013  0.5052886E+02  0.7816164E-02  0.1300439E+00
        -11   -1    0    0    0    0  0.00000000000E+00  0.00000000000E+00  0.45593999997E+02  0.45594000000E+02  0.51100000000E-03 0. -1.
         11   -1    0    0    0    0 -0.00000000000E+00 -0.00000000000E+00 -0.45593999997E+02  0.45594000000E+02  0.51100000000E-03 0.  1.
    9900012    2    1    2    0    0  0.65152469730E+01  0.35634760368E+02  0.18462965667E+02  0.50528859689E+02  0.29999999511E+02 0.  0.
        -12    1    1    2    0    0 -0.65152469730E+01 -0.35634760368E+02 -0.18462965667E+02  0.40659140311E+02  0.00000000000E+00 0.  1.
         11    1    3    3    0    0  0.29265005553E+01  0.96736072297E+01  0.17274573851E+02  0.20013844816E+02  0.51100000000E-03 0. -1.
        -11    1    3    3    0    0 -0.47851181023E+01  0.28172111881E+01  0.19656323192E+01  0.58904791662E+01  0.51100000000E-03 0.  1.
         12    1    3    3    0    0  0.83738645200E+01  0.23143941950E+02 -0.77724050278E+00  0.24624535707E+02  0.00000000000E+00 0. -1.
</event>
<event>
 7    1  0.5373252E-013  0.5052885E+02  0.7816164E-02  0.1300439E+00
        -11   -1    0    0    0    0  0.00000000000E+00  0.00000000000E+00  0.45593999997E+02  0.45594000000E+02  0.51100000000E-03 0. -1.
         11   -1    0    0    0    0 -0.00000000000E+00 -0.00000000000E+00 -0.45593999997E+02  0.45594000000E+02  0.51100000000E-03 0.  1.
    9900012    2    1    2    0    0  0.23157133502E+02 -0.10623247263E+02  0.31686911507E+02  0.50528848812E+02  0.29999966449E+02 0.  0.
        -12    1    1    2    0    0 -0.23157133502E+02  0.10623247263E+02 -0.31686911507E+02  0.40659151188E+02  0.00000000000E+00 0.  1.
         11    1    3    3    0    0  0.34309788399E+01  0.65595702785E+01  0.13868217891E+02  0.15720274991E+02  0.51100000000E-03 0. -1.
        -11    1    3    3    0    0  0.16593262346E+01 -0.15620934265E+01  0.91040025709E+01  0.93849007719E+01  0.51100000000E-03 0.  1.
        -12    1    3    3    0    0  0.18066828428E+02 -0.15620724115E+02  0.87146910448E+01  0.25423673049E+02  0.00000000000E+00 0.  1.
</event>
<event>
 7    1  0.5373252E-013  0.5052886E+02  0.7816164E-02  0.1300439E+00
        -11   -1    0    0    0    0  0.00000000000E+00  0.00000000000E+00  0.45593999997E+02  0.45594000000E+02  0.51100000000E-03 0.  1.
         11   -1    0    0    0    0 -0.00000000000E+00 -0.00000000000E+00 -0.45593999997E+02  0.45594000000E+02  0.51100000000E-03 0. -1.
    9900012    2    1    2    0    0 -0.24863303784E+02 -0.20034192309E+02 -0.25171664316E+02  0.50528863008E+02  0.30000009599E+02 0.  0.
        -12    1    1    2    0    0  0.24863303784E+02  0.20034192309E+02  0.25171664316E+02  0.40659136992E+02  0.00000000000E+00 0.  1.
         11    1    3    3    0    0 -0.20995952150E+02 -0.13093620222E+02 -0.13172115894E+02  0.28031723718E+02  0.51100000000E-03 0. -1.
        -11    1    3    3    0    0 -0.99433750701E+01 -0.46011712997E+00 -0.47410287783E+01  0.11025414718E+02  0.51100000000E-03 0.  1.
        -12    1    3    3    0    0  0.60760234367E+01 -0.64804549568E+01 -0.72585196436E+01  0.11471724572E+02  0.00000000000E+00 0.  1.
</event>
<event>
 7    1  0.5373252E-013  0.5052886E+02  0.7816164E-02  0.1300439E+00
        -11   -1    0    0    0    0  0.00000000000E+00  0.00000000000E+00  0.45593999997E+02  0.45594000000E+02  0.51100000000E-03 0.  1.
         11   -1    0    0    0    0 -0.00000000000E+00 -0.00000000000E+00 -0.45593999997E+02  0.45594000000E+02  0.51100000000E-03 0. -1.
    9900012    2    1    2    0    0  0.98319276771E+01 -0.23699464520E+02 -0.31540995115E+02  0.50528858430E+02  0.29999995683E+02 0.  0.
        -12    1    1    2    0    0 -0.98319276771E+01  0.23699464520E+02  0.31540995115E+02  0.40659141570E+02  0.00000000000E+00 0.  1.
         11    1    3    3    0    0  0.11025209894E+02 -0.15842726104E+02 -0.28233885933E+02  0.34200870438E+02  0.51100000000E-03 0.  1.
        -11    1    3    3    0    0 -0.59769191914E+01 -0.46071585762E+01 -0.62871696626E+01  0.98223202857E+01  0.51100000000E-03 0. -1.
        -12    1    3    3    0    0  0.47836369745E+01 -0.32495798394E+01  0.29800604800E+01  0.65056677059E+01  0.00000000000E+00 0.  1.
</event>
<event>
 7    1  0.5373252E-013  0.5052886E+02  0.7816164E-02  0.1300439E+00
        -11   -1    0    0    0    0  0.00000000000E+00  0.00000000000E+00  0.45593999997E+02  0.45594000000E+02  0.51100000000E-03 0.  1.
         11   -1    0    0    0    0 -0.00000000000E+00 -0.00000000000E+00 -0.45593999997E+02  0.45594000000E+02  0.51100000000E-03 0. -1.
    9900012    2    1    2    0    0  0.15769306598E+02 -0.15543851108E+02 -0.34101078765E+02  0.50528856984E+02  0.29999991289E+02 0.  0.
        -12    1    1    2    0    0 -0.15769306598E+02  0.15543851108E+02  0.34101078765E+02  0.40659143016E+02  0.00000000000E+00 0.  1.
         11    1    3    3    0    0  0.11192095307E+02 -0.88749027346E+01 -0.13713530610E+02  0.19801207488E+02  0.51100000000E-03 0. -1.
        -11    1    3    3    0    0  0.98766219681E+00 -0.79430078293E+01 -0.24108712241E+02  0.25402693876E+02  0.51100000000E-03 0.  1.
         12    1    3    3    0    0  0.35895490941E+01  0.12740594558E+01  0.37211640864E+01  0.53249556199E+01  0.00000000000E+00 0. -1.
</event>
<event>
 7    1  0.5373252E-013  0.5052886E+02  0.7816164E-02  0.1300439E+00
        -11   -1    0    0    0    0  0.00000000000E+00  0.00000000000E+00  0.45593999997E+02  0.45594000000E+02  0.51100000000E-03 0.  1.
         11   -1    0    0    0    0 -0.00000000000E+00 -0.00000000000E+00 -0.45593999997E+02  0.45594000000E+02  0.51100000000E-03 0. -1.
    9900012    2    1    2    0    0 -0.17204480916E+02 -0.23644682945E+02 -0.28250673088E+02  0.50528859268E+02  0.29999998230E+02 0.  0.
        -12    1    1    2    0    0  0.17204480916E+02  0.23644682945E+02  0.28250673088E+02  0.40659140732E+02  0.00000000000E+00 0.  1.
         11    1    3    3    0    0  0.64006082388E+01 -0.10236236388E+02 -0.10888855255E+02  0.16257782451E+02  0.51100000000E-03 0. -1.
        -11    1    3    3    0    0 -0.57869212289E+01  0.14928291029E+01 -0.15562077281E+01  0.61756601910E+01  0.51100000000E-03 0.  1.
        -12    1    3    3    0    0 -0.17818167926E+02 -0.14901275660E+02 -0.15805610105E+02  0.28095416625E+02  0.00000000000E+00 0.  1.
</event>
<event>
 7    1  0.5373252E-013  0.5052887E+02  0.7816164E-02  0.1300439E+00
        -11   -1    0    0    0    0  0.00000000000E+00  0.00000000000E+00  0.45593999997E+02  0.45594000000E+02  0.51100000000E-03 0. -1.
         11   -1    0    0    0    0 -0.00000000000E+00 -0.00000000000E+00 -0.45593999997E+02  0.45594000000E+02  0.51100000000E-03 0.  1.
    9900012    2    1    2    0    0  0.40389643288E+02 -0.27187448135E+01  0.38013010186E+01  0.50528871287E+02  0.30000034763E+02 0.  0.
        -12    1    1    2    0    0 -0.40389643288E+02  0.27187448135E+01 -0.38013010186E+01  0.40659128713E+02  0.00000000000E+00 0.  1.
         11    1    3    3    0    0  0.15715924890E+02  0.34176287968E+01 -0.56084650662E+01  0.17033066735E+02  0.51100000000E-03 0.  1.
        -11    1    3    3    0    0 -0.23713018770E+00 -0.25217111061E+01  0.78806433972E+01  0.82776686478E+01  0.51100000000E-03 0. -1.
         12    1    3    3    0    0  0.24910848586E+02 -0.36146625042E+01  0.15291226876E+01  0.25218135904E+02  0.00000000000E+00 0. -1.
</event>
<event>
 7    1  0.5373252E-013  0.5052886E+02  0.7816164E-02  0.1300439E+00
        -11   -1    0    0    0    0  0.00000000000E+00  0.00000000000E+00  0.45593999997E+02  0.45594000000E+02  0.51100000000E-03 0. -1.
         11   -1    0    0    0    0 -0.00000000000E+00 -0.00000000000E+00 -0.45593999997E+02  0.45594000000E+02  0.51100000000E-03 0.  1.
    9900012    2    1    2    0    0 -0.87647419341E+01  0.27984552570E+01  0.39604463411E+02  0.50528861113E+02  0.30000003839E+02 0.  0.
        -12    1    1    2    0    0  0.87647419341E+01 -0.27984552570E+01 -0.39604463411E+02  0.40659138887E+02  0.00000000000E+00 0.  1.
         11    1    3    3    0    0 -0.10106549877E+02  0.63708539454E+01  0.10173376927E+02  0.15691645190E+02  0.51100000000E-03 0. -1.
        -11    1    3    3    0    0  0.17462952440E+01  0.68247781801E+01  0.62080328259E+01  0.93897186388E+01  0.51100000000E-03 0.  1.
         12    1    3    3    0    0 -0.40448730071E+00 -0.10397176869E+02  0.23223053658E+02  0.25447497284E+02  0.00000000000E+00 0. -1.
</event>
<event>
 7    1  0.5373252E-013  0.5052885E+02  0.7816164E-02  0.1300439E+00
        -11   -1    0    0    0    0  0.00000000000E+00  0.00000000000E+00  0.45593999997E+02  0.45594000000E+02  0.51100000000E-03 0.  1.
         11   -1    0    0    0    0 -0.00000000000E+00 -0.00000000000E+00 -0.45593999997E+02  0.45594000000E+02  0.51100000000E-03 0. -1.
    9900012    2    1    2    0    0 -0.21211428415E+02  0.32964151138E+02 -0.10798444486E+02  0.50528851473E+02  0.29999974537E+02 0.  0.
        -12    1    1    2    0    0  0.21211428415E+02 -0.32964151138E+02  0.10798444486E+02  0.40659148527E+02  0.00000000000E+00 0.  1.
         11    1    3    3    0    0  0.28891175970E+01  0.11513860662E+02 -0.53139240572E+01  0.13005913154E+02  0.51100000000E-03 0. -1.
        -11    1    3    3    0    0 -0.20121838452E+01  0.78909517932E+01  0.50094776849E+01  0.95609032505E+01  0.51100000000E-03 0.  1.
        -12    1    3    3    0    0 -0.22088362167E+02  0.13559338683E+02 -0.10493998113E+02  0.27962035068E+02  0.00000000000E+00 0.  1.
</event>
<event>
 7    1  0.5373252E-013  0.5052887E+02  0.7816164E-02  0.1300439E+00
        -11   -1    0    0    0    0  0.00000000000E+00  0.00000000000E+00  0.45593999997E+02  0.45594000000E+02  0.51100000000E-03 0. -1.
         11   -1    0    0    0    0 -0.00000000000E+00 -0.00000000000E+00 -0.45593999997E+02  0.45594000000E+02  0.51100000000E-03 0.  1.
    9900012    2    1    2    0    0 -0.22254028509E+02  0.41600997576E+01  0.33773010566E+02  0.50528874855E+02  0.30000045610E+02 0.  0.
        -12    1    1    2    0    0  0.22254028509E+02 -0.41600997576E+01 -0.33773010566E+02  0.40659125145E+02  0.00000000000E+00 0.  1.
         11    1    3    3    0    0 -0.10328546968E+02 -0.99495903686E+01  0.91405166238E+01  0.17006536255E+02  0.51100000000E-03 0. -1.
        -11    1    3    3    0    0 -0.77857289830E+00  0.37264703822E+01 -0.78719414871E+00  0.38874711775E+01  0.51100000000E-03 0.  1.
        -12    1    3    3    0    0 -0.11146908643E+02  0.10383219744E+02  0.25419688091E+02  0.29634867423E+02  0.00000000000E+00 0.  1.
</event>
<event>
 7    1  0.5373252E-013  0.5052886E+02  0.7816164E-02  0.1300439E+00
        -11   -1    0    0    0    0  0.00000000000E+00  0.00000000000E+00  0.45593999997E+02  0.45594000000E+02  0.51100000000E-03 0. -1.
         11   -1    0    0    0    0 -0.00000000000E+00 -0.00000000000E+00 -0.45593999997E+02  0.45594000000E+02  0.51100000000E-03 0.  1.
    9900012    2    1    2    0    0 -0.84659725575E+01 -0.36983129237E+02  0.14619896619E+02  0.50528856912E+02  0.29999991069E+02 0.  0.
        -12    1    1    2    0    0  0.84659725575E+01  0.36983129237E+02 -0.14619896619E+02  0.40659143088E+02  0.00000000000E+00 0.  1.
         11    1    3    3    0    0  0.40033992554E+01 -0.31383611171E+01  0.23574366652E+01  0.56066053893E+01  0.51100000000E-03 0.  1.
        -11    1    3    3    0    0 -0.16766289191E+02 -0.14918562359E+02  0.12136377980E+02  0.25513988846E+02  0.51100000000E-03 0. -1.
         12    1    3    3    0    0  0.42969173776E+01 -0.18926205761E+02  0.12608197393E+00  0.19408262677E+02  0.00000000000E+00 0. -1.
</event>
<event>
 7    1  0.5373252E-013  0.5052886E+02  0.7816164E-02  0.1300439E+00
        -11   -1    0    0    0    0  0.00000000000E+00  0.00000000000E+00  0.45593999997E+02  0.45594000000E+02  0.51100000000E-03 0.  1.
         11   -1    0    0    0    0 -0.00000000000E+00 -0.00000000000E+00 -0.45593999997E+02  0.45594000000E+02  0.51100000000E-03 0. -1.
    9900012    2    1    2    0    0 -0.23889276078E+02  0.29363820180E+02 -0.14840280545E+02  0.50528863588E+02  0.30000011363E+02 0.  0.
        -12    1    1    2    0    0  0.23889276078E+02 -0.29363820180E+02  0.14840280545E+02  0.40659136412E+02  0.00000000000E+00 0.  1.
         11    1    3    3    0    0  0.40037867821E+01  0.64670080070E+01 -0.51150220306E+01  0.91660215903E+01  0.51100000000E-03 0. -1.
        -11    1    3    3    0    0 -0.94696214650E+01  0.84519233307E+01  0.50705540239E+01  0.13668184117E+02  0.51100000000E-03 0.  1.
        -12    1    3    3    0    0 -0.18423441395E+02  0.14444888842E+02 -0.14795812538E+02  0.27694657881E+02  0.00000000000E+00 0.  1.
</event>
<event>
 7    1  0.5373252E-013  0.5052886E+02  0.7816164E-02  0.1300439E+00
        -11   -1    0    0    0    0  0.00000000000E+00  0.00000000000E+00  0.45593999997E+02  0.45594000000E+02  0.51100000000E-03 0.  1.
         11   -1    0    0    0    0 -0.00000000000E+00 -0.00000000000E+00 -0.45593999997E+02  0.45594000000E+02  0.51100000000E-03 0. -1.
    9900012    2    1    2    0    0 -0.18100484480E+02  0.31500377067E+02 -0.18255540984E+02  0.50528855021E+02  0.29999985323E+02 0.  0.
        -12    1    1    2    0    0  0.18100484480E+02 -0.31500377067E+02  0.18255540984E+02  0.40659144979E+02  0.00000000000E+00 0.  1.
         11    1    3    3    0    0 -0.12777621573E+02  0.20766730704E+02 -0.12696105397E+02  0.27490285733E+02  0.51100000000E-03 0. -1.
        -11    1    3    3    0    0 -0.12200897261E+02  0.66464531906E+01 -0.12471187176E+01  0.13949642983E+02  0.51100000000E-03 0.  1.
         12    1    3    3    0    0  0.68780343537E+01  0.40871931726E+01 -0.43123168692E+01  0.90889263052E+01  0.00000000000E+00 0. -1.
</event>
<event>
 7    1  0.5373252E-013  0.5052888E+02  0.7816164E-02  0.1300439E+00
        -11   -1    0    0    0    0  0.00000000000E+00  0.00000000000E+00  0.45593999997E+02  0.45594000000E+02  0.51100000000E-03 0.  1.
         11   -1    0    0    0    0 -0.00000000000E+00 -0.00000000000E+00 -0.45593999997E+02  0.45594000000E+02  0.51100000000E-03 0. -1.
    9900012    2    1    2    0    0 -0.87141840016E+00 -0.11986817968E+02 -0.38842259146E+02  0.50528877154E+02  0.30000052598E+02 0.  0.
        -12    1    1    2    0    0  0.87141840016E+00  0.11986817968E+02  0.38842259146E+02  0.40659122846E+02  0.00000000000E+00 0.  1.
         11    1    3    3    0    0  0.26902244407E+01 -0.17007809135E+01 -0.77031275362E+01  0.83347547869E+01  0.51100000000E-03 0. -1.
        -11    1    3    3    0    0  0.10323794757E+02 -0.14126968130E+01 -0.56803751156E+01  0.11867734080E+02  0.51100000000E-03 0.  1.
        -12    1    3    3    0    0 -0.13885437598E+02 -0.88733402414E+01 -0.25458756494E+02  0.30326388287E+02  0.00000000000E+00 0.  1.
</event>
<event>
 7    1  0.5373252E-013  0.5052888E+02  0.7816164E-02  0.1300439E+00
        -11   -1    0    0    0    0  0.00000000000E+00  0.00000000000E+00  0.45593999997E+02  0.45594000000E+02  0.51100000000E-03 0. -1.
         11   -1    0    0    0    0 -0.00000000000E+00 -0.00000000000E+00 -0.45593999997E+02  0.45594000000E+02  0.51100000000E-03 0.  1.
    9900012    2    1    2    0    0  0.47742994138E+01 -0.35602226584E+02  0.19048659366E+02  0.50528881758E+02  0.30000066591E+02 0.  0.
        -12    1    1    2    0    0 -0.47742994138E+01  0.35602226584E+02 -0.19048659366E+02  0.40659118242E+02  0.00000000000E+00 0.  1.
         11    1    3    3    0    0  0.49446143255E+01 -0.37429044674E+02  0.11903441272E+02  0.39586291951E+02  0.51100000000E-03 0. -1.
        -11    1    3    3    0    0 -0.39025072921E+00 -0.78555986130E+00 -0.15935717626E+01  0.18190302777E+01  0.51100000000E-03 0.  1.
         12    1    3    3    0    0  0.21993581756E+00  0.26123779518E+01  0.87387898564E+01  0.91235595291E+01  0.00000000000E+00 0. -1.
</event>
<event>
 7    1  0.5373252E-013  0.5052886E+02  0.7816164E-02  0.1300439E+00
        -11   -1    0    0    0    0  0.00000000000E+00  0.00000000000E+00  0.45593999997E+02  0.45594000000E+02  0.51100000000E-03 0.  1.
         11   -1    0    0    0    0 -0.00000000000E+00 -0.00000000000E+00 -0.45593999997E+02  0.45594000000E+02  0.51100000000E-03 0. -1.
    9900012    2    1    2    0    0 -0.13841921005E+02  0.24719587919E+02 -0.29163489588E+02  0.50528856761E+02  0.29999990612E+02 0.  0.
        -12    1    1    2    0    0  0.13841921005E+02 -0.24719587919E+02  0.29163489588E+02  0.40659143239E+02  0.00000000000E+00 0.  1.
         11    1    3    3    0    0 -0.79483965891E+01  0.17805886562E+02 -0.28477875539E+02  0.34513997162E+02  0.51100000000E-03 0. -1.
        -11    1    3    3    0    0 -0.77786572054E+01  0.93206638914E+01  0.15341926039E+01  0.12236667459E+02  0.51100000000E-03 0.  1.
        -12    1    3    3    0    0  0.18851327899E+01 -0.24069625344E+01 -0.22198066523E+01  0.37781921406E+01  0.00000000000E+00 0.  1.
</event>
<event>
 7    1  0.5373252E-013  0.5052887E+02  0.7816164E-02  0.1300439E+00
        -11   -1    0    0    0    0  0.00000000000E+00  0.00000000000E+00  0.45593999997E+02  0.45594000000E+02  0.51100000000E-03 0.  1.
         11   -1    0    0    0    0 -0.00000000000E+00 -0.00000000000E+00 -0.45593999997E+02  0.45594000000E+02  0.51100000000E-03 0. -1.
    9900012    2    1    2    0    0 -0.41748273460E+01 -0.38604997150E+02  0.12057774541E+02  0.50528869227E+02  0.30000028502E+02 0.  0.
        -12    1    1    2    0    0  0.41748273460E+01  0.38604997150E+02 -0.12057774541E+02  0.40659130773E+02  0.00000000000E+00 0.  1.
         11    1    3    3    0    0 -0.52731395348E+01 -0.23558151466E+01 -0.46100678174E+01  0.73897625875E+01  0.51100000000E-03 0. -1.
        -11    1    3    3    0    0  0.48326334928E+01 -0.77340376423E+01  0.10161281544E+02  0.13653619579E+02  0.51100000000E-03 0.  1.
         12    1    3    3    0    0 -0.37343213040E+01 -0.28515144362E+02  0.65065608152E+01  0.29485487061E+02  0.00000000000E+00 0. -1.
</event>
<event>
 7    1  0.5373252E-013  0.5052887E+02  0.7816164E-02  0.1300439E+00
        -11   -1    0    0    0    0  0.00000000000E+00  0.00000000000E+00  0.45593999997E+02  0.45594000000E+02  0.51100000000E-03 0. -1.
         11   -1    0    0    0    0 -0.00000000000E+00 -0.00000000000E+00 -0.45593999997E+02  0.45594000000E+02  0.51100000000E-03 0.  1.
    9900012    2    1    2    0    0  0.39695676297E+02  0.76548744563E+01  0.43383633566E+01  0.50528865526E+02  0.30000017251E+02 0.  0.
        -12    1    1    2    0    0 -0.39695676297E+02 -0.76548744563E+01 -0.43383633566E+01  0.40659134474E+02  0.00000000000E+00 0.  1.
         11    1    3    3    0    0  0.18103682126E+02 -0.10869982975E+01 -0.67731836021E+01  0.19359775003E+02  0.51100000000E-03 0. -1.
        -11    1    3    3    0    0 -0.36928086085E+00  0.36374890181E+01 -0.28622268762E+01  0.46432787621E+01  0.51100000000E-03 0.  1.
        -12    1    3    3    0    0  0.21961275032E+02  0.51043837356E+01  0.13973773835E+02  0.26525811760E+02  0.00000000000E+00 0.  1.
</event>
<event>
 7    1  0.5373252E-013  0.5052884E+02  0.7816164E-02  0.1300439E+00
        -11   -1    0    0    0    0  0.00000000000E+00  0.00000000000E+00  0.45593999997E+02  0.45594000000E+02  0.51100000000E-03 0.  1.
         11   -1    0    0    0    0 -0.00000000000E+00 -0.00000000000E+00 -0.45593999997E+02  0.45594000000E+02  0.51100000000E-03 0. -1.
    9900012    2    1    2    0    0 -0.29093411589E+02  0.18053812890E+02 -0.21927169598E+02  0.50528837141E+02  0.29999930975E+02 0.  0.
        -12    1    1    2    0    0  0.29093411589E+02 -0.18053812890E+02  0.21927169598E+02  0.40659162859E+02  0.00000000000E+00 0.  1.
         11    1    3    3    0    0 -0.19231033532E+01 -0.33417571768E+01 -0.50530928584E+00  0.38885736808E+01  0.51100000000E-03 0. -1.
        -11    1    3    3    0    0  0.33837304138E+00  0.11856734453E+02 -0.31738264073E+01  0.12278836367E+02  0.51100000000E-03 0.  1.
         12    1    3    3    0    0 -0.27508681278E+02  0.95388356133E+01 -0.18248033905E+02  0.34361427093E+02  0.00000000000E+00 0. -1.
</event>
<event>
 7    1  0.5373252E-013  0.5052885E+02  0.7816164E-02  0.1300439E+00
        -11   -1    0    0    0    0  0.00000000000E+00  0.00000000000E+00  0.45593999997E+02  0.45594000000E+02  0.51100000000E-03 0.  1.
         11   -1    0    0    0    0 -0.00000000000E+00 -0.00000000000E+00 -0.45593999997E+02  0.45594000000E+02  0.51100000000E-03 0. -1.
    9900012    2    1    2    0    0 -0.32123653644E+02  0.17212076106E+02 -0.18027254414E+02  0.50528848643E+02  0.29999965935E+02 0.  0.
        -12    1    1    2    0    0  0.32123653644E+02 -0.17212076106E+02  0.18027254414E+02  0.40659151357E+02  0.00000000000E+00 0.  1.
         11    1    3    3    0    0 -0.91279518579E+01  0.14734228371E+02 -0.88040911829E+01  0.19440396411E+02  0.51100000000E-03 0. -1.
        -11    1    3    3    0    0 -0.21651813080E+02  0.86302135303E+01 -0.62947442003E+01  0.24143433891E+02  0.51100000000E-03 0.  1.
        -12    1    3    3    0    0 -0.13438887062E+01 -0.61523657949E+01 -0.29284190312E+01  0.69450183406E+01  0.00000000000E+00 0.  1.
</event>
<event>
 7    1  0.5373252E-013  0.5052885E+02  0.7816164E-02  0.1300439E+00
        -11   -1    0    0    0    0  0.00000000000E+00  0.00000000000E+00  0.45593999997E+02  0.45594000000E+02  0.51100000000E-03 0.  1.
         11   -1    0    0    0    0 -0.00000000000E+00 -0.00000000000E+00 -0.45593999997E+02  0.45594000000E+02  0.51100000000E-03 0. -1.
    9900012    2    1    2    0    0  0.39619216205E+02  0.50380224608E+01 -0.76225044860E+01  0.50528849275E+02  0.29999967858E+02 0.  0.
        -12    1    1    2    0    0 -0.39619216205E+02 -0.50380224608E+01  0.76225044860E+01  0.40659150725E+02  0.00000000000E+00 0.  1.
         11    1    3    3    0    0  0.15148665857E+02  0.17662851357E+01 -0.66484162928E+01  0.16637406045E+02  0.51100000000E-03 0. -1.
        -11    1    3    3    0    0  0.19980152022E+02  0.12341893714E+02  0.12914495684E+01  0.23520133025E+02  0.51100000000E-03 0.  1.
        -12    1    3    3    0    0  0.44903983254E+01 -0.90701563885E+01 -0.22655377616E+01  0.10371310206E+02  0.00000000000E+00 0.  1.
</event>
<event>
 7    1  0.5373252E-013  0.5052883E+02  0.7816164E-02  0.1300439E+00
        -11   -1    0    0    0    0  0.00000000000E+00  0.00000000000E+00  0.45593999997E+02  0.45594000000E+02  0.51100000000E-03 0. -1.
         11   -1    0    0    0    0 -0.00000000000E+00 -0.00000000000E+00 -0.45593999997E+02  0.45594000000E+02  0.51100000000E-03 0.  1.
    9900012    2    1    2    0    0  0.23314595368E+02  0.33231426292E+02  0.22956980031E+01  0.50528827850E+02  0.29999902734E+02 0.  0.
        -12    1    1    2    0    0 -0.23314595368E+02 -0.33231426292E+02 -0.22956980031E+01  0.40659172150E+02  0.00000000000E+00 0.  1.
         11    1    3    3    0    0  0.15004179979E+02  0.70251400938E+01 -0.80156278797E-02  0.16567379838E+02  0.51100000000E-03 0. -1.
        -11    1    3    3    0    0  0.60582206670E+01  0.11820411187E+02 -0.85533744255E+01  0.15798239541E+02  0.51100000000E-03 0.  1.
         12    1    3    3    0    0  0.22521947217E+01  0.14385875011E+02  0.10857088057E+02  0.18163208471E+02  0.00000000000E+00 0. -1.
</event>
<event>
 7    1  0.5373252E-013  0.5052886E+02  0.7816164E-02  0.1300439E+00
        -11   -1    0    0    0    0  0.00000000000E+00  0.00000000000E+00  0.45593999997E+02  0.45594000000E+02  0.51100000000E-03 0.  1.
         11   -1    0    0    0    0 -0.00000000000E+00 -0.00000000000E+00 -0.45593999997E+02  0.45594000000E+02  0.51100000000E-03 0. -1.
    9900012    2    1    2    0    0 -0.37444996574E+02 -0.12443593225E+02 -0.98078787933E+01  0.50528864898E+02  0.30000015344E+02 0.  0.
        -12    1    1    2    0    0  0.37444996574E+02  0.12443593225E+02  0.98078787933E+01  0.40659135102E+02  0.00000000000E+00 0.  1.
         11    1    3    3    0    0 -0.98705289520E+01  0.58581972443E+01 -0.27788676150E+01  0.11809653773E+02  0.51100000000E-03 0. -1.
        -11    1    3    3    0    0 -0.30338305225E+01 -0.20622962530E+01  0.56015478212E+01  0.66958592973E+01  0.51100000000E-03 0.  1.
         12    1    3    3    0    0 -0.24540637100E+02 -0.16239494217E+02 -0.12630559000E+02  0.32023351828E+02  0.00000000000E+00 0. -1.
</event>
<event>
 7    1  0.5373252E-013  0.5052884E+02  0.7816164E-02  0.1300439E+00
        -11   -1    0    0    0    0  0.00000000000E+00  0.00000000000E+00  0.45593999997E+02  0.45594000000E+02  0.51100000000E-03 0.  1.
         11   -1    0    0    0    0 -0.00000000000E+00 -0.00000000000E+00 -0.45593999997E+02  0.45594000000E+02  0.51100000000E-03 0. -1.
    9900012    2    1    2    0    0 -0.48879460937E+01  0.23814889045E+02 -0.32590280566E+02  0.50528839352E+02  0.29999937694E+02 0.  0.
        -12    1    1    2    0    0  0.48879460937E+01 -0.23814889045E+02  0.32590280566E+02  0.40659160648E+02  0.00000000000E+00 0.  1.
         11    1    3    3    0    0 -0.15790919025E+01  0.13984404225E+02 -0.80219034615E+01  0.16199013185E+02  0.51100000000E-03 0. -1.
        -11    1    3    3    0    0 -0.59032361074E+01  0.76608408611E+01 -0.27932561550E+02  0.29559510724E+02  0.51100000000E-03 0.  1.
         12    1    3    3    0    0  0.25943819162E+01  0.21696439590E+01  0.33641844458E+01  0.47703154425E+01  0.00000000000E+00 0. -1.
</event>
<event>
 7    1  0.5373252E-013  0.5052885E+02  0.7816164E-02  0.1300439E+00
        -11   -1    0    0    0    0  0.00000000000E+00  0.00000000000E+00  0.45593999997E+02  0.45594000000E+02  0.51100000000E-03 0.  1.
         11   -1    0    0    0    0 -0.00000000000E+00 -0.00000000000E+00 -0.45593999997E+02  0.45594000000E+02  0.51100000000E-03 0. -1.
    9900012    2    1    2    0    0 -0.37426826061E+02  0.55453334653E+01 -0.14887849740E+02  0.50528854631E+02  0.29999984136E+02 0.  0.
        -12    1    1    2    0    0  0.37426826061E+02 -0.55453334653E+01  0.14887849740E+02  0.40659145369E+02  0.00000000000E+00 0.  1.
         11    1    3    3    0    0 -0.16206122721E+02  0.45730817626E+01 -0.12478110313E+02  0.20958404703E+02  0.51100000000E-03 0. -1.
        -11    1    3    3    0    0 -0.79016866283E+01  0.10459393734E+02 -0.66975034298E+00  0.13125705110E+02  0.51100000000E-03 0.  1.
        -12    1    3    3    0    0 -0.13319016712E+02 -0.94871420312E+01 -0.17399890841E+01  0.16444744818E+02  0.00000000000E+00 0.  1.
</event>
<event>
 7    1  0.5373252E-013  0.5052886E+02  0.7816164E-02  0.1300439E+00
        -11   -1    0    0    0    0  0.00000000000E+00  0.00000000000E+00  0.45593999997E+02  0.45594000000E+02  0.51100000000E-03 0.  1.
         11   -1    0    0    0    0 -0.00000000000E+00 -0.00000000000E+00 -0.45593999997E+02  0.45594000000E+02  0.51100000000E-03 0. -1.
    9900012    2    1    2    0    0 -0.16979771138E+02 -0.22358937838E+02 -0.29409710607E+02  0.50528858259E+02  0.29999995163E+02 0.  0.
        -12    1    1    2    0    0  0.16979771138E+02  0.22358937838E+02  0.29409710607E+02  0.40659141741E+02  0.00000000000E+00 0.  1.
         11    1    3    3    0    0  0.45406729817E+00  0.10135382963E+01  0.37721888345E+01  0.39322825246E+01  0.51100000000E-03 0. -1.
        -11    1    3    3    0    0 -0.99796632829E+01 -0.21829282060E+01 -0.93751937206E+01  0.13865536858E+02  0.51100000000E-03 0.  1.
         12    1    3    3    0    0 -0.74541751535E+01 -0.21189547928E+02 -0.23806705721E+02  0.32731038876E+02  0.00000000000E+00 0. -1.
</event>
<event>
 7    1  0.5373252E-013  0.5052886E+02  0.7816164E-02  0.1300439E+00
        -11   -1    0    0    0    0  0.00000000000E+00  0.00000000000E+00  0.45593999997E+02  0.45594000000E+02  0.51100000000E-03 0.  1.
         11   -1    0    0    0    0 -0.00000000000E+00 -0.00000000000E+00 -0.45593999997E+02  0.45594000000E+02  0.51100000000E-03 0. -1.
    9900012    2    1    2    0    0  0.23569693218E+01 -0.19097738721E+02 -0.35817405458E+02  0.50528862498E+02  0.30000008050E+02 0.  0.
        -12    1    1    2    0    0 -0.23569693218E+01  0.19097738721E+02  0.35817405458E+02  0.40659137502E+02  0.00000000000E+00 0.  1.
         11    1    3    3    0    0  0.27349365244E+01  0.55277793124E+01 -0.57723597184E+01  0.84472693161E+01  0.51100000000E-03 0. -1.
        -11    1    3    3    0    0 -0.45585756633E+01 -0.19497977524E+01 -0.11389709990E+02  0.12422069766E+02  0.51100000000E-03 0.  1.
         12    1    3    3    0    0  0.41806084607E+01 -0.22675720281E+02 -0.18655335749E+02  0.29659523416E+02  0.00000000000E+00 0. -1.
</event>
<event>
 7    1  0.5373252E-013  0.5052887E+02  0.7816164E-02  0.1300439E+00
        -11   -1    0    0    0    0  0.00000000000E+00  0.00000000000E+00  0.45593999997E+02  0.45594000000E+02  0.51100000000E-03 0. -1.
         11   -1    0    0    0    0 -0.00000000000E+00 -0.00000000000E+00 -0.45593999997E+02  0.45594000000E+02  0.51100000000E-03 0.  1.
    9900012    2    1    2    0    0 -0.40299125446E+02  0.40060390890E+01 -0.36190323054E+01  0.50528865040E+02  0.30000015776E+02 0.  0.
        -12    1    1    2    0    0  0.40299125446E+02 -0.40060390890E+01  0.36190323054E+01  0.40659134960E+02  0.00000000000E+00 0.  1.
         11    1    3    3    0    0 -0.91475801950E+01 -0.34509914367E+01  0.50348779833E+01  0.10997161538E+02  0.51100000000E-03 0. -1.
        -11    1    3    3    0    0 -0.62555887679E+00  0.24080717309E+01 -0.82196474259E+01  0.85879413969E+01  0.51100000000E-03 0.  1.
         12    1    3    3    0    0 -0.30525986374E+02  0.50489587948E+01 -0.43426286280E+00  0.30943762105E+02  0.00000000000E+00 0. -1.
</event>
<event>
 7    1  0.5373252E-013  0.5052886E+02  0.7816164E-02  0.1300439E+00
        -11   -1    0    0    0    0  0.00000000000E+00  0.00000000000E+00  0.45593999997E+02  0.45594000000E+02  0.51100000000E-03 0. -1.
         11   -1    0    0    0    0 -0.00000000000E+00 -0.00000000000E+00 -0.45593999997E+02  0.45594000000E+02  0.51100000000E-03 0.  1.
    9900012    2    1    2    0    0 -0.29580167518E+02 -0.27863462813E+02 -0.13441695131E+01  0.50528860043E+02  0.30000000588E+02 0.  0.
        -12    1    1    2    0    0  0.29580167518E+02  0.27863462813E+02  0.13441695131E+01  0.40659139957E+02  0.00000000000E+00 0.  1.
         11    1    3    3    0    0 -0.11505596028E+01 -0.87898678867E+01  0.30773922937E+01  0.93838109772E+01  0.51100000000E-03 0. -1.
        -11    1    3    3    0    0  0.82860650225E+00 -0.10337894502E+02 -0.98196510757E+00  0.10417432851E+02  0.51100000000E-03 0.  1.
         12    1    3    3    0    0 -0.29258214418E+02 -0.87357004243E+01 -0.34395966992E+01  0.30727616215E+02  0.00000000000E+00 0. -1.
</event>
<event>
 7    1  0.5373252E-013  0.5052887E+02  0.7816164E-02  0.1300439E+00
        -11   -1    0    0    0    0  0.00000000000E+00  0.00000000000E+00  0.45593999997E+02  0.45594000000E+02  0.51100000000E-03 0. -1.
         11   -1    0    0    0    0 -0.00000000000E+00 -0.00000000000E+00 -0.45593999997E+02  0.45594000000E+02  0.51100000000E-03 0.  1.
    9900012    2    1    2    0    0 -0.19966924168E+02 -0.34358284833E+02 -0.86020331097E+01  0.50528871000E+02  0.30000033893E+02 0.  0.
        -12    1    1    2    0    0  0.19966924168E+02  0.34358284833E+02  0.86020331097E+01  0.40659129000E+02  0.00000000000E+00 0.  1.
         11    1    3    3    0    0 -0.23060581088E+01  0.82438594149E+00 -0.28693395138E+01  0.37723501545E+01  0.51100000000E-03 0. -1.
        -11    1    3    3    0    0  0.43601658552E+01 -0.40619126097E+01  0.42835317898E+01  0.73388572127E+01  0.51100000000E-03 0.  1.
         12    1    3    3    0    0 -0.22021031914E+02 -0.31120758165E+02 -0.10016225386E+02  0.39417663633E+02  0.00000000000E+00 0. -1.
</event>
<event>
 7    1  0.5373252E-013  0.5052886E+02  0.7816164E-02  0.1300439E+00
        -11   -1    0    0    0    0  0.00000000000E+00  0.00000000000E+00  0.45593999997E+02  0.45594000000E+02  0.51100000000E-03 0.  1.
         11   -1    0    0    0    0 -0.00000000000E+00 -0.00000000000E+00 -0.45593999997E+02  0.45594000000E+02  0.51100000000E-03 0. -1.
    9900012    2    1    2    0    0  0.28622500940E+02 -0.16917662224E+02 -0.23403220625E+02  0.50528860919E+02  0.30000003251E+02 0.  0.
        -12    1    1    2    0    0 -0.28622500940E+02  0.16917662224E+02  0.23403220625E+02  0.40659139081E+02  0.00000000000E+00 0.  1.
         11    1    3    3    0    0  0.11941758566E+02 -0.13594396032E+02 -0.74164678758E+01  0.19555490204E+02  0.51100000000E-03 0. -1.
        -11    1    3    3    0    0  0.60020420682E+01 -0.93117929516E+00  0.46266126638E+01  0.76352569616E+01  0.51100000000E-03 0.  1.
        -12    1    3    3    0    0  0.10678700306E+02 -0.23920868968E+01 -0.20613365413E+02  0.23338113754E+02  0.00000000000E+00 0.  1.
</event>
<event>
 7    1  0.5373252E-013  0.5052886E+02  0.7816164E-02  0.1300439E+00
        -11   -1    0    0    0    0  0.00000000000E+00  0.00000000000E+00  0.45593999997E+02  0.45594000000E+02  0.51100000000E-03 0.  1.
         11   -1    0    0    0    0 -0.00000000000E+00 -0.00000000000E+00 -0.45593999997E+02  0.45594000000E+02  0.51100000000E-03 0. -1.
    9900012    2    1    2    0    0 -0.94336729312E+01  0.37711761953E+02 -0.11916128164E+02  0.50528864680E+02  0.30000014680E+02 0.  0.
        -12    1    1    2    0    0  0.94336729312E+01 -0.37711761953E+02  0.11916128164E+02  0.40659135320E+02  0.00000000000E+00 0.  1.
         11    1    3    3    0    0 -0.57760320272E+01  0.20238597527E+02 -0.12720915486E+02  0.24592378228E+02  0.51100000000E-03 0. -1.
        -11    1    3    3    0    0  0.96438579644E+00  0.19072173660E+02  0.47204538282E+01  0.19671312429E+02  0.51100000000E-03 0.  1.
        -12    1    3    3    0    0 -0.46220267005E+01 -0.15990092337E+01 -0.39156665054E+01  0.62651740224E+01  0.00000000000E+00 0.  1.
</event>
<event>
 7    1  0.5373252E-013  0.5052886E+02  0.7816164E-02  0.1300439E+00
        -11   -1    0    0    0    0  0.00000000000E+00  0.00000000000E+00  0.45593999997E+02  0.45594000000E+02  0.51100000000E-03 0.  1.
         11   -1    0    0    0    0 -0.00000000000E+00 -0.00000000000E+00 -0.45593999997E+02  0.45594000000E+02  0.51100000000E-03 0. -1.
    9900012    2    1    2    0    0  0.38188874076E+02  0.10525003572E+02  0.91651535509E+01  0.50528857818E+02  0.29999993824E+02 0.  0.
        -12    1    1    2    0    0 -0.38188874076E+02 -0.10525003572E+02 -0.91651535509E+01  0.40659142182E+02  0.00000000000E+00 0.  1.
         11    1    3    3    0    0  0.12862300740E+01 -0.24116429607E+01 -0.14698788715E+01  0.31033777938E+01  0.51100000000E-03 0.  1.
        -11    1    3    3    0    0 -0.19682514217E+01  0.35175524507E+01 -0.31553984269E+01  0.51189577451E+01  0.51100000000E-03 0. -1.
        -12    1    3    3    0    0  0.38870895423E+02  0.94190940824E+01  0.13790430849E+02  0.42306522279E+02  0.00000000000E+00 0.  1.
</event>
<event>
 7    1  0.5373252E-013  0.5052876E+02  0.7816164E-02  0.1300439E+00
        -11   -1    0    0    0    0  0.00000000000E+00  0.00000000000E+00  0.45593999997E+02  0.45594000000E+02  0.51100000000E-03 0.  1.
         11   -1    0    0    0    0 -0.00000000000E+00 -0.00000000000E+00 -0.45593999997E+02  0.45594000000E+02  0.51100000000E-03 0. -1.
    9900012    2    1    2    0    0 -0.36510440769E+02 -0.17469747500E+02 -0.38690022122E+01  0.50528763153E+02  0.29999706079E+02 0.  0.
        -12    1    1    2    0    0  0.36510440769E+02  0.17469747500E+02  0.38690022122E+01  0.40659236847E+02  0.00000000000E+00 0.  1.
         11    1    3    3    0    0 -0.85804397843E+01 -0.35190436339E+01 -0.59497456693E+01  0.11018488498E+02  0.51100000000E-03 0. -1.
        -11    1    3    3    0    0 -0.11951700179E+02  0.57615214538E+01  0.45243606700E+01  0.14018134910E+02  0.51100000000E-03 0.  1.
         12    1    3    3    0    0 -0.15978300806E+02 -0.19712225320E+02 -0.24436172129E+01  0.25492139745E+02  0.00000000000E+00 0. -1.
</event>
<event>
 7    1  0.5373252E-013  0.5052886E+02  0.7816164E-02  0.1300439E+00
        -11   -1    0    0    0    0  0.00000000000E+00  0.00000000000E+00  0.45593999997E+02  0.45594000000E+02  0.51100000000E-03 0.  1.
         11   -1    0    0    0    0 -0.00000000000E+00 -0.00000000000E+00 -0.45593999997E+02  0.45594000000E+02  0.51100000000E-03 0. -1.
    9900012    2    1    2    0    0  0.16410644103E+02 -0.23772359867E+02 -0.28613483552E+02  0.50528858660E+02  0.29999996382E+02 0.  0.
        -12    1    1    2    0    0 -0.16410644103E+02  0.23772359867E+02  0.28613483552E+02  0.40659141340E+02  0.00000000000E+00 0.  1.
         11    1    3    3    0    0  0.15213728713E+01  0.20074168858E+01 -0.13336427231E+01  0.28500703747E+01  0.51100000000E-03 0. -1.
        -11    1    3    3    0    0  0.81381091235E+01 -0.43804144662E+01  0.32436748784E+01  0.97948087261E+01  0.51100000000E-03 0.  1.
         12    1    3    3    0    0  0.67511621083E+01 -0.21399362287E+02 -0.30523515707E+02  0.37883979559E+02  0.00000000000E+00 0. -1.
</event>
<event>
 7    1  0.5373252E-013  0.5052886E+02  0.7816164E-02  0.1300439E+00
        -11   -1    0    0    0    0  0.00000000000E+00  0.00000000000E+00  0.45593999997E+02  0.45594000000E+02  0.51100000000E-03 0. -1.
         11   -1    0    0    0    0 -0.00000000000E+00 -0.00000000000E+00 -0.45593999997E+02  0.45594000000E+02  0.51100000000E-03 0.  1.
    9900012    2    1    2    0    0 -0.28379707277E+02 -0.27054456376E+02 -0.10761720960E+02  0.50528855482E+02  0.29999986722E+02 0.  0.
        -12    1    1    2    0    0  0.28379707277E+02  0.27054456376E+02  0.10761720960E+02  0.40659144518E+02  0.00000000000E+00 0.  1.
         11    1    3    3    0    0 -0.30247303313E+02 -0.15380904236E+02 -0.25712351165E+01  0.34030615968E+02  0.51100000000E-03 0.  1.
        -11    1    3    3    0    0 -0.20285839510E+01 -0.75073574771E+01 -0.18974718999E+01  0.80047466548E+01  0.51100000000E-03 0. -1.
        -12    1    3    3    0    0  0.38961799870E+01 -0.41661946625E+01 -0.62930139434E+01  0.84934928592E+01  0.00000000000E+00 0.  1.
</event>
<event>
 7    1  0.5373252E-013  0.5052885E+02  0.7816164E-02  0.1300439E+00
        -11   -1    0    0    0    0  0.00000000000E+00  0.00000000000E+00  0.45593999997E+02  0.45594000000E+02  0.51100000000E-03 0.  1.
         11   -1    0    0    0    0 -0.00000000000E+00 -0.00000000000E+00 -0.45593999997E+02  0.45594000000E+02  0.51100000000E-03 0. -1.
    9900012    2    1    2    0    0 -0.17610249233E+02 -0.26723026513E+02 -0.25078384208E+02  0.50528851232E+02  0.29999973803E+02 0.  0.
        -12    1    1    2    0    0  0.17610249233E+02  0.26723026513E+02  0.25078384208E+02  0.40659148768E+02  0.00000000000E+00 0.  1.
         11    1    3    3    0    0  0.24431371392E+01 -0.15372138308E+01 -0.43946357197E+01  0.52578292871E+01  0.51100000000E-03 0. -1.
        -11    1    3    3    0    0  0.17556076358E+01 -0.16756589088E+02 -0.76691446442E+01  0.18511650814E+02  0.51100000000E-03 0.  1.
        -12    1    3    3    0    0 -0.21808994008E+02 -0.84292235943E+01 -0.13014603844E+02  0.26759371130E+02  0.00000000000E+00 0.  1.
</event>
<event>
 7    1  0.5373252E-013  0.5052887E+02  0.7816164E-02  0.1300439E+00
        -11   -1    0    0    0    0  0.00000000000E+00  0.00000000000E+00  0.45593999997E+02  0.45594000000E+02  0.51100000000E-03 0.  1.
         11   -1    0    0    0    0 -0.00000000000E+00 -0.00000000000E+00 -0.45593999997E+02  0.45594000000E+02  0.51100000000E-03 0. -1.
    9900012    2    1    2    0    0  0.13422092501E+01  0.14481784152E+02 -0.37968949319E+02  0.50528871748E+02  0.30000036164E+02 0.  0.
        -12    1    1    2    0    0 -0.13422092501E+01 -0.14481784152E+02  0.37968949319E+02  0.40659128252E+02  0.00000000000E+00 0.  1.
         11    1    3    3    0    0  0.14414722865E+01  0.44003826572E+01 -0.27945541489E+02  0.28326568787E+02  0.51100000000E-03 0. -1.
        -11    1    3    3    0    0 -0.62536726552E+01 -0.15823173297E+01 -0.46962883477E+01  0.79791775464E+01  0.51100000000E-03 0.  1.
         12    1    3    3    0    0  0.61544096188E+01  0.11663718825E+02 -0.53271194823E+01  0.14223125414E+02  0.00000000000E+00 0. -1.
</event>
<event>
 7    1  0.5373252E-013  0.5052886E+02  0.7816164E-02  0.1300439E+00
        -11   -1    0    0    0    0  0.00000000000E+00  0.00000000000E+00  0.45593999997E+02  0.45594000000E+02  0.51100000000E-03 0.  1.
         11   -1    0    0    0    0 -0.00000000000E+00 -0.00000000000E+00 -0.45593999997E+02  0.45594000000E+02  0.51100000000E-03 0. -1.
    9900012    2    1    2    0    0 -0.29179099840E+02 -0.18493205893E+02 -0.21441708829E+02  0.50528863152E+02  0.30000010037E+02 0.  0.
        -12    1    1    2    0    0  0.29179099840E+02  0.18493205893E+02  0.21441708829E+02  0.40659136848E+02  0.00000000000E+00 0.  1.
         11    1    3    3    0    0 -0.88177608057E+01 -0.33468492614E+01  0.50816859824E+01  0.10713441944E+02  0.51100000000E-03 0. -1.
        -11    1    3    3    0    0 -0.11503368406E+02 -0.91635408498E+01 -0.45745136102E+01  0.15402082347E+02  0.51100000000E-03 0.  1.
        -12    1    3    3    0    0 -0.88579706290E+01 -0.59828157820E+01 -0.21948881202E+02  0.24413338861E+02  0.00000000000E+00 0.  1.
</event>
<event>
 7    1  0.5373252E-013  0.5052887E+02  0.7816164E-02  0.1300439E+00
        -11   -1    0    0    0    0  0.00000000000E+00  0.00000000000E+00  0.45593999997E+02  0.45594000000E+02  0.51100000000E-03 0.  1.
         11   -1    0    0    0    0 -0.00000000000E+00 -0.00000000000E+00 -0.45593999997E+02  0.45594000000E+02  0.51100000000E-03 0. -1.
    9900012    2    1    2    0    0  0.22655432062E+02  0.19721688185E+02 -0.27403491135E+02  0.50528869252E+02  0.30000028578E+02 0.  0.
        -12    1    1    2    0    0 -0.22655432062E+02 -0.19721688185E+02  0.27403491135E+02  0.40659130748E+02  0.00000000000E+00 0.  1.
         11    1    3    3    0    0  0.18458341619E+02  0.46829720479E+01 -0.19063001824E+02  0.26945104218E+02  0.51100000000E-03 0. -1.
        -11    1    3    3    0    0  0.53383460043E+01  0.10803872501E+02 -0.12624490852E+02  0.17452775384E+02  0.51100000000E-03 0.  1.
        -12    1    3    3    0    0 -0.11412555615E+01  0.42348436365E+01  0.42840015407E+01  0.61309896495E+01  0.00000000000E+00 0.  1.
</event>
<event>
 7    1  0.5373252E-013  0.5052887E+02  0.7816164E-02  0.1300439E+00
        -11   -1    0    0    0    0  0.00000000000E+00  0.00000000000E+00  0.45593999997E+02  0.45594000000E+02  0.51100000000E-03 0.  1.
         11   -1    0    0    0    0 -0.00000000000E+00 -0.00000000000E+00 -0.45593999997E+02  0.45594000000E+02  0.51100000000E-03 0. -1.
    9900012    2    1    2    0    0  0.28956995051E+02 -0.28520695451E+02  0.11078887032E+01  0.50528867585E+02  0.30000023511E+02 0.  0.
        -12    1    1    2    0    0 -0.28956995051E+02  0.28520695451E+02 -0.11078887032E+01  0.40659132415E+02  0.00000000000E+00 0.  1.
         11    1    3    3    0    0  0.17197526390E+02 -0.11253365593E+02 -0.93063517127E+01  0.22561057900E+02  0.51100000000E-03 0. -1.
        -11    1    3    3    0    0 -0.14990381336E+01 -0.98925359396E+01  0.86857534930E+00  0.10043097433E+02  0.51100000000E-03 0.  1.
        -12    1    3    3    0    0  0.13258506794E+02 -0.73747939185E+01  0.95456650666E+01  0.17924712252E+02  0.00000000000E+00 0.  1.
</event>
<event>
 7    1  0.5373252E-013  0.5052885E+02  0.7816164E-02  0.1300439E+00
        -11   -1    0    0    0    0  0.00000000000E+00  0.00000000000E+00  0.45593999997E+02  0.45594000000E+02  0.51100000000E-03 0. -1.
         11   -1    0    0    0    0 -0.00000000000E+00 -0.00000000000E+00 -0.45593999997E+02  0.45594000000E+02  0.51100000000E-03 0.  1.
    9900012    2    1    2    0    0  0.26099203008E+02  0.26864046084E+02  0.15821527231E+02  0.50528854736E+02  0.29999984457E+02 0.  0.
        -12    1    1    2    0    0 -0.26099203008E+02 -0.26864046084E+02 -0.15821527231E+02  0.40659145264E+02  0.00000000000E+00 0.  1.
         11    1    3    3    0    0  0.27085011773E+02  0.24969231592E+02  0.18298265361E+02  0.41132552857E+02  0.51100000000E-03 0. -1.
        -11    1    3    3    0    0 -0.14096088253E+01  0.30223583871E+01  0.25684280544E+01  0.42093313237E+01  0.51100000000E-03 0.  1.
        -12    1    3    3    0    0  0.42380005933E+00 -0.11275438950E+01 -0.50451661838E+01  0.51869705558E+01  0.00000000000E+00 0.  1.
</event>
<event>
 7    1  0.5373252E-013  0.5052884E+02  0.7816164E-02  0.1300439E+00
        -11   -1    0    0    0    0  0.00000000000E+00  0.00000000000E+00  0.45593999997E+02  0.45594000000E+02  0.51100000000E-03 0.  1.
         11   -1    0    0    0    0 -0.00000000000E+00 -0.00000000000E+00 -0.45593999997E+02  0.45594000000E+02  0.51100000000E-03 0. -1.
    9900012    2    1    2    0    0  0.23757291328E+02 -0.28502497380E+02  0.16624265360E+02  0.50528838094E+02  0.29999933870E+02 0.  0.
        -12    1    1    2    0    0 -0.23757291328E+02  0.28502497380E+02 -0.16624265360E+02  0.40659161906E+02  0.00000000000E+00 0.  1.
         11    1    3    3    0    0  0.11835596055E+02 -0.10189059448E+02  0.78152559942E+01  0.17463576178E+02  0.51100000000E-03 0. -1.
        -11    1    3    3    0    0  0.84259653381E+01  0.23385165002E+01 -0.27180901478E+01  0.91571592546E+01  0.51100000000E-03 0.  1.
         12    1    3    3    0    0  0.34957299345E+01 -0.20651954433E+02  0.11527099513E+02  0.23908102661E+02  0.00000000000E+00 0. -1.
</event>
<event>
 7    1  0.5373252E-013  0.5052879E+02  0.7816164E-02  0.1300439E+00
        -11   -1    0    0    0    0  0.00000000000E+00  0.00000000000E+00  0.45593999997E+02  0.45594000000E+02  0.51100000000E-03 0.  1.
         11   -1    0    0    0    0 -0.00000000000E+00 -0.00000000000E+00 -0.45593999997E+02  0.45594000000E+02  0.51100000000E-03 0. -1.
    9900012    2    1    2    0    0  0.60908588884E+01  0.36200712489E+02 -0.17480876711E+02  0.50528791974E+02  0.29999793683E+02 0.  0.
        -12    1    1    2    0    0 -0.60908588884E+01 -0.36200712489E+02  0.17480876711E+02  0.40659208026E+02  0.00000000000E+00 0.  1.
         11    1    3    3    0    0 -0.53373840699E+01  0.14945800010E+02 -0.13682054912E+02  0.20953835772E+02  0.51100000000E-03 0. -1.
        -11    1    3    3    0    0  0.97538022934E+01  0.57906998814E+01 -0.74841291476E+01  0.13589740750E+02  0.51100000000E-03 0.  1.
        -12    1    3    3    0    0  0.16744406649E+01  0.15464212598E+02  0.36853073488E+01  0.15985215452E+02  0.00000000000E+00 0.  1.
</event>
<event>
 7    1  0.5373252E-013  0.5052891E+02  0.7816164E-02  0.1300439E+00
        -11   -1    0    0    0    0  0.00000000000E+00  0.00000000000E+00  0.45593999997E+02  0.45594000000E+02  0.51100000000E-03 0.  1.
         11   -1    0    0    0    0 -0.00000000000E+00 -0.00000000000E+00 -0.45593999997E+02  0.45594000000E+02  0.51100000000E-03 0. -1.
    9900012    2    1    2    0    0  0.16860397560E+01 -0.37469935583E+02 -0.15694672649E+02  0.50528910583E+02  0.30000154209E+02 0.  0.
        -12    1    1    2    0    0 -0.16860397560E+01  0.37469935583E+02  0.15694672649E+02  0.40659089417E+02  0.00000000000E+00 0.  1.
         11    1    3    3    0    0  0.38839992831E+01 -0.20384259060E+02 -0.15796514305E+02  0.26079366026E+02  0.51100000000E-03 0. -1.
        -11    1    3    3    0    0  0.46909012494E+01 -0.16881610422E+02  0.67208975573E+00  0.17534110467E+02  0.51100000000E-03 0.  1.
        -12    1    3    3    0    0 -0.68888607764E+01 -0.20406610126E+00 -0.57024809916E+00  0.69154340909E+01  0.00000000000E+00 0.  1.
</event>
<event>
 7    1  0.5373252E-013  0.5052885E+02  0.7816164E-02  0.1300439E+00
        -11   -1    0    0    0    0  0.00000000000E+00  0.00000000000E+00  0.45593999997E+02  0.45594000000E+02  0.51100000000E-03 0.  1.
         11   -1    0    0    0    0 -0.00000000000E+00 -0.00000000000E+00 -0.45593999997E+02  0.45594000000E+02  0.51100000000E-03 0. -1.
    9900012    2    1    2    0    0 -0.20211196206E+02 -0.34303120594E+02  0.82443688095E+01  0.50528854022E+02  0.29999982286E+02 0.  0.
        -12    1    1    2    0    0  0.20211196206E+02  0.34303120594E+02 -0.82443688095E+01  0.40659145978E+02  0.00000000000E+00 0.  1.
         11    1    3    3    0    0 -0.26001528727E+02 -0.17147271010E+02  0.77049373673E+01  0.32085424406E+02  0.51100000000E-03 0. -1.
        -11    1    3    3    0    0  0.88879325600E+00 -0.25688652652E+01  0.13471251439E+01  0.30337713522E+01  0.51100000000E-03 0.  1.
        -12    1    3    3    0    0  0.49015392650E+01 -0.14586984319E+02 -0.80769370170E+00  0.15409658264E+02  0.00000000000E+00 0.  1.
</event>
<event>
 7    1  0.5373252E-013  0.5052885E+02  0.7816164E-02  0.1300439E+00
        -11   -1    0    0    0    0  0.00000000000E+00  0.00000000000E+00  0.45593999997E+02  0.45594000000E+02  0.51100000000E-03 0.  1.
         11   -1    0    0    0    0 -0.00000000000E+00 -0.00000000000E+00 -0.45593999997E+02  0.45594000000E+02  0.51100000000E-03 0. -1.
    9900012    2    1    2    0    0 -0.72821672542E+01 -0.18341170829E+01 -0.39959636798E+02  0.50528849512E+02  0.29999968577E+02 0.  0.
        -12    1    1    2    0    0  0.72821672542E+01  0.18341170829E+01  0.39959636798E+02  0.40659150488E+02  0.00000000000E+00 0.  1.
         11    1    3    3    0    0 -0.18547090952E+01 -0.27469489159E+01 -0.24496442781E+02  0.24719655810E+02  0.51100000000E-03 0. -1.
        -11    1    3    3    0    0  0.19795104179E+01 -0.82160149367E+01 -0.91871354866E+01  0.12482981280E+02  0.51100000000E-03 0.  1.
         12    1    3    3    0    0 -0.74069685769E+01  0.91288467696E+01 -0.62760585304E+01  0.13326212422E+02  0.00000000000E+00 0. -1.
</event>
<event>
 7    1  0.5373252E-013  0.5052886E+02  0.7816164E-02  0.1300439E+00
        -11   -1    0    0    0    0  0.00000000000E+00  0.00000000000E+00  0.45593999997E+02  0.45594000000E+02  0.51100000000E-03 0.  1.
         11   -1    0    0    0    0 -0.00000000000E+00 -0.00000000000E+00 -0.45593999997E+02  0.45594000000E+02  0.51100000000E-03 0. -1.
    9900012    2    1    2    0    0 -0.18796143502E+02 -0.27111945521E+02 -0.23765800322E+02  0.50528857542E+02  0.29999992984E+02 0.  0.
        -12    1    1    2    0    0  0.18796143502E+02  0.27111945521E+02  0.23765800322E+02  0.40659142458E+02  0.00000000000E+00 0.  1.
         11    1    3    3    0    0 -0.10777395537E+02 -0.29169633916E+02 -0.15636027992E+02  0.34806682821E+02  0.51100000000E-03 0. -1.
        -11    1    3    3    0    0 -0.28874117090E+01 -0.18956647914E+01 -0.85596598196E+01  0.92303016130E+01  0.51100000000E-03 0.  1.
        -12    1    3    3    0    0 -0.51313362566E+01  0.39533531864E+01  0.42988749021E+00  0.64918731079E+01  0.00000000000E+00 0.  1.
</event>
<event>
 7    1  0.5373252E-013  0.5052885E+02  0.7816164E-02  0.1300439E+00
        -11   -1    0    0    0    0  0.00000000000E+00  0.00000000000E+00  0.45593999997E+02  0.45594000000E+02  0.51100000000E-03 0. -1.
         11   -1    0    0    0    0 -0.00000000000E+00 -0.00000000000E+00 -0.45593999997E+02  0.45594000000E+02  0.51100000000E-03 0.  1.
    9900012    2    1    2    0    0 -0.19750589784E+02 -0.22119326270E+02  0.27817543077E+02  0.50528854728E+02  0.29999984431E+02 0.  0.
        -12    1    1    2    0    0  0.19750589784E+02  0.22119326270E+02 -0.27817543077E+02  0.40659145272E+02  0.00000000000E+00 0.  1.
         11    1    3    3    0    0 -0.77263824780E+01 -0.20654097407E+02  0.15752861363E+02  0.27100578726E+02  0.51100000000E-03 0. -1.
        -11    1    3    3    0    0 -0.23694717044E+01 -0.78467194797E+01  0.30025162997E+01  0.87292901855E+01  0.51100000000E-03 0.  1.
         12    1    3    3    0    0 -0.96547356015E+01  0.63814906175E+01  0.90621654139E+01  0.14698985816E+02  0.00000000000E+00 0. -1.
</event>
<event>
 7    1  0.5373252E-013  0.5052879E+02  0.7816164E-02  0.1300439E+00
        -11   -1    0    0    0    0  0.00000000000E+00  0.00000000000E+00  0.45593999997E+02  0.45594000000E+02  0.51100000000E-03 0.  1.
         11   -1    0    0    0    0 -0.00000000000E+00 -0.00000000000E+00 -0.45593999997E+02  0.45594000000E+02  0.51100000000E-03 0. -1.
    9900012    2    1    2    0    0 -0.25615800267E+02  0.28964226001E+01 -0.31442216657E+02  0.50528788553E+02  0.29999783284E+02 0.  0.
        -12    1    1    2    0    0  0.25615800267E+02 -0.28964226001E+01  0.31442216657E+02  0.40659211447E+02  0.00000000000E+00 0.  1.
         11    1    3    3    0    0 -0.83515107719E+01  0.22643821459E+01 -0.56313774491E+01  0.10324125673E+02  0.51100000000E-03 0. -1.
        -11    1    3    3    0    0  0.18409243360E+01  0.94498547340E+01 -0.10027907380E+02  0.13901355458E+02  0.51100000000E-03 0.  1.
         12    1    3    3    0    0 -0.19105213831E+02 -0.88178142798E+01 -0.15782931829E+02  0.26303307421E+02  0.00000000000E+00 0. -1.
</event>
<event>
 7    1  0.5373252E-013  0.5052886E+02  0.7816164E-02  0.1300439E+00
        -11   -1    0    0    0    0  0.00000000000E+00  0.00000000000E+00  0.45593999997E+02  0.45594000000E+02  0.51100000000E-03 0.  1.
         11   -1    0    0    0    0 -0.00000000000E+00 -0.00000000000E+00 -0.45593999997E+02  0.45594000000E+02  0.51100000000E-03 0. -1.
    9900012    2    1    2    0    0  0.19717216858E+02 -0.22467970010E+02 -0.27560608028E+02  0.50528862874E+02  0.30000009190E+02 0.  0.
        -12    1    1    2    0    0 -0.19717216858E+02  0.22467970010E+02  0.27560608028E+02  0.40659137126E+02  0.00000000000E+00 0.  1.
         11    1    3    3    0    0  0.11252818592E+02 -0.80931732992E+01 -0.11078537418E+02  0.17744277159E+02  0.51100000000E-03 0. -1.
        -11    1    3    3    0    0  0.20585784073E-01 -0.84333172457E+01 -0.20137348912E+02  0.21831951012E+02  0.51100000000E-03 0.  1.
         12    1    3    3    0    0  0.84438124815E+01 -0.59414794649E+01  0.36552783017E+01  0.10952634702E+02  0.00000000000E+00 0. -1.
</event>
<event>
 7    1  0.5373252E-013  0.5052886E+02  0.7816164E-02  0.1300439E+00
        -11   -1    0    0    0    0  0.00000000000E+00  0.00000000000E+00  0.45593999997E+02  0.45594000000E+02  0.51100000000E-03 0.  1.
         11   -1    0    0    0    0 -0.00000000000E+00 -0.00000000000E+00 -0.45593999997E+02  0.45594000000E+02  0.51100000000E-03 0. -1.
    9900012    2    1    2    0    0 -0.18319331659E+02  0.60323993382E+01 -0.35793548028E+02  0.50528857920E+02  0.29999994134E+02 0.  0.
        -12    1    1    2    0    0  0.18319331659E+02 -0.60323993382E+01  0.35793548028E+02  0.40659142080E+02  0.00000000000E+00 0.  1.
         11    1    3    3    0    0 -0.66261027039E+01  0.90237438066E-01  0.36295419740E+01  0.75555909789E+01  0.51100000000E-03 0. -1.
        -11    1    3    3    0    0  0.19229910145E+01  0.19568266005E+01 -0.89157268058E+01  0.93283036787E+01  0.51100000000E-03 0.  1.
        -12    1    3    3    0    0 -0.13616219970E+02  0.39853352997E+01 -0.30507363197E+02  0.33644963262E+02  0.00000000000E+00 0.  1.
</event>
<event>
 7    1  0.5373252E-013  0.5052885E+02  0.7816164E-02  0.1300439E+00
        -11   -1    0    0    0    0  0.00000000000E+00  0.00000000000E+00  0.45593999997E+02  0.45594000000E+02  0.51100000000E-03 0. -1.
         11   -1    0    0    0    0 -0.00000000000E+00 -0.00000000000E+00 -0.45593999997E+02  0.45594000000E+02  0.51100000000E-03 0.  1.
    9900012    2    1    2    0    0  0.33813103714E+02 -0.22142602260E+02  0.44210208151E+01  0.50528852902E+02  0.29999978882E+02 0.  0.
        -12    1    1    2    0    0 -0.33813103714E+02  0.22142602260E+02 -0.44210208151E+01  0.40659147098E+02  0.00000000000E+00 0.  1.
         11    1    3    3    0    0  0.51766172010E+01 -0.10066545975E+02  0.12918163862E+00  0.11320309257E+02  0.51100000000E-03 0. -1.
        -11    1    3    3    0    0  0.11958322403E+02 -0.11216244977E+02 -0.82206538809E+01  0.18340795418E+02  0.51100000000E-03 0.  1.
        -12    1    3    3    0    0  0.16678164110E+02 -0.85981130850E+00  0.12512493057E+02  0.20867748227E+02  0.00000000000E+00 0.  1.
</event>
<event>
 7    1  0.5373252E-013  0.5052886E+02  0.7816164E-02  0.1300439E+00
        -11   -1    0    0    0    0  0.00000000000E+00  0.00000000000E+00  0.45593999997E+02  0.45594000000E+02  0.51100000000E-03 0. -1.
         11   -1    0    0    0    0 -0.00000000000E+00 -0.00000000000E+00 -0.45593999997E+02  0.45594000000E+02  0.51100000000E-03 0.  1.
    9900012    2    1    2    0    0 -0.28698844704E+02 -0.36811931611E+01  0.28565556313E+02  0.50528857389E+02  0.29999992519E+02 0.  0.
        -12    1    1    2    0    0  0.28698844704E+02  0.36811931611E+01 -0.28565556313E+02  0.40659142611E+02  0.00000000000E+00 0.  1.
         11    1    3    3    0    0 -0.36520534709E+00 -0.34914150148E+01  0.15408170608E+01  0.38337281107E+01  0.51100000000E-03 0. -1.
        -11    1    3    3    0    0  0.80665436578E+00 -0.18555858276E+01 -0.37620088752E+01  0.42716040392E+01  0.51100000000E-03 0.  1.
         12    1    3    3    0    0 -0.29140293722E+02  0.16658076813E+01  0.30786748127E+02  0.42423525239E+02  0.00000000000E+00 0. -1.
</event>
<event>
 7    1  0.5373252E-013  0.5052886E+02  0.7816164E-02  0.1300439E+00
        -11   -1    0    0    0    0  0.00000000000E+00  0.00000000000E+00  0.45593999997E+02  0.45594000000E+02  0.51100000000E-03 0.  1.
         11   -1    0    0    0    0 -0.00000000000E+00 -0.00000000000E+00 -0.45593999997E+02  0.45594000000E+02  0.51100000000E-03 0. -1.
    9900012    2    1    2    0    0  0.30889294525E+02  0.22726857033E+02 -0.13509524174E+02  0.50528858467E+02  0.29999995795E+02 0.  0.
        -12    1    1    2    0    0 -0.30889294525E+02 -0.22726857033E+02  0.13509524174E+02  0.40659141533E+02  0.00000000000E+00 0.  1.
         11    1    3    3    0    0  0.25362786254E+02  0.10116704188E+02 -0.64039285723E+01  0.28046905919E+02  0.51100000000E-03 0. -1.
        -11    1    3    3    0    0  0.26898138846E+01 -0.13640126182E+01  0.35669640086E+01  0.46710664367E+01  0.51100000000E-03 0.  1.
        -12    1    3    3    0    0  0.28366943862E+01  0.13974165463E+02 -0.10672559610E+02  0.17810886111E+02  0.00000000000E+00 0.  1.
</event>
<event>
 7    1  0.5373252E-013  0.5052886E+02  0.7816164E-02  0.1300439E+00
        -11   -1    0    0    0    0  0.00000000000E+00  0.00000000000E+00  0.45593999997E+02  0.45594000000E+02  0.51100000000E-03 0.  1.
         11   -1    0    0    0    0 -0.00000000000E+00 -0.00000000000E+00 -0.45593999997E+02  0.45594000000E+02  0.51100000000E-03 0. -1.
    9900012    2    1    2    0    0 -0.36161610203E+02  0.96816870750E+01 -0.15867223825E+02  0.50528857007E+02  0.29999991357E+02 0.  0.
        -12    1    1    2    0    0  0.36161610203E+02 -0.96816870750E+01  0.15867223825E+02  0.40659142993E+02  0.00000000000E+00 0.  1.
         11    1    3    3    0    0 -0.22959574940E+02  0.13551185792E+01 -0.14968510131E+02  0.27441478160E+02  0.51100000000E-03 0. -1.
        -11    1    3    3    0    0 -0.16461687665E+02  0.92809269859E+01 -0.29394922359E+01  0.19124941343E+02  0.51100000000E-03 0.  1.
        -12    1    3    3    0    0  0.32596524023E+01 -0.95435849008E+00  0.20407785428E+01  0.39624375039E+01  0.00000000000E+00 0.  1.
</event>
<event>
 7    1  0.5373252E-013  0.5052895E+02  0.7816164E-02  0.1300438E+00
        -11   -1    0    0    0    0  0.00000000000E+00  0.00000000000E+00  0.45593999997E+02  0.45594000000E+02  0.51100000000E-03 0.  1.
         11   -1    0    0    0    0 -0.00000000000E+00 -0.00000000000E+00 -0.45593999997E+02  0.45594000000E+02  0.51100000000E-03 0. -1.
    9900012    2    1    2    0    0  0.53120816956E+01  0.37382975933E+02  0.15081557725E+02  0.50528948302E+02  0.30000268858E+02 0.  0.
        -12    1    1    2    0    0 -0.53120816956E+01 -0.37382975933E+02 -0.15081557725E+02  0.40659051698E+02  0.00000000000E+00 0.  1.
         11    1    3    3    0    0 -0.24494239051E+01  0.12780034178E+02  0.11918583414E+02  0.17646007534E+02  0.51100000000E-03 0. -1.
        -11    1    3    3    0    0  0.12263820856E+02  0.78575201027E+01 -0.22047439099E+01  0.14731015584E+02  0.51100000000E-03 0.  1.
         12    1    3    3    0    0 -0.45023152555E+01  0.16745421653E+02  0.53677182215E+01  0.18151925184E+02  0.00000000000E+00 0. -1.
</event>
<event>
 7    1  0.7467128E-013  0.5052886E+02  0.7816164E-02  0.1300439E+00
        -11   -1    0    0    0    0  0.00000000000E+00  0.00000000000E+00  0.45593999997E+02  0.45594000000E+02  0.51100000000E-03 0.  1.
         11   -1    0    0    0    0 -0.00000000000E+00 -0.00000000000E+00 -0.45593999997E+02  0.45594000000E+02  0.51100000000E-03 0. -1.
    9900012    2    1    2    0    0  0.38453780425E+02 -0.47054232462E+00 -0.13200427011E+02  0.50528856965E+02  0.29999991231E+02 0.  0.
        -12    1    1    2    0    0 -0.38453780425E+02  0.47054232462E+00  0.13200427011E+02  0.40659143035E+02  0.00000000000E+00 0.  1.
         11    1    3    3    0    0  0.11071501552E+02  0.57333071006E+01 -0.78269130868E+01  0.14721057219E+02  0.51100000000E-03 0. -1.
        -11    1    3    3    0    0  0.99646049584E+01 -0.63353618802E+01 -0.12311404494E+02  0.17058746818E+02  0.51100000000E-03 0.  1.
        -12    1    3    3    0    0  0.17417673915E+02  0.13151245492E+00  0.69378905700E+01  0.18749052928E+02  0.00000000000E+00 0.  1.
</event>
<event>
 7    1  0.5373252E-013  0.5052886E+02  0.7816164E-02  0.1300439E+00
        -11   -1    0    0    0    0  0.00000000000E+00  0.00000000000E+00  0.45593999997E+02  0.45594000000E+02  0.51100000000E-03 0.  1.
         11   -1    0    0    0    0 -0.00000000000E+00 -0.00000000000E+00 -0.45593999997E+02  0.45594000000E+02  0.51100000000E-03 0. -1.
    9900012    2    1    2    0    0 -0.16546024164E+02  0.12708550152E+02 -0.34898244955E+02  0.50528860024E+02  0.30000000530E+02 0.  0.
        -12    1    1    2    0    0  0.16546024164E+02 -0.12708550152E+02  0.34898244955E+02  0.40659139976E+02  0.00000000000E+00 0.  1.
         11    1    3    3    0    0 -0.26964815025E+01  0.61769980380E+01 -0.28212265220E+02  0.29006175659E+02  0.51100000000E-03 0. -1.
        -11    1    3    3    0    0 -0.14823856334E+02  0.36119904558E+01 -0.89617969842E+01  0.17694829672E+02  0.51100000000E-03 0.  1.
        -12    1    3    3    0    0  0.97431367271E+00  0.29195616580E+01  0.22758172486E+01  0.38278546937E+01  0.00000000000E+00 0.  1.
</event>
<event>
 7    1  0.5373252E-013  0.5052887E+02  0.7816164E-02  0.1300439E+00
        -11   -1    0    0    0    0  0.00000000000E+00  0.00000000000E+00  0.45593999997E+02  0.45594000000E+02  0.51100000000E-03 0.  1.
         11   -1    0    0    0    0 -0.00000000000E+00 -0.00000000000E+00 -0.45593999997E+02  0.45594000000E+02  0.51100000000E-03 0. -1.
    9900012    2    1    2    0    0 -0.10227269781E+02  0.21177234940E+02 -0.33167644084E+02  0.50528868910E+02  0.30000027538E+02 0.  0.
        -12    1    1    2    0    0  0.10227269781E+02 -0.21177234940E+02  0.33167644084E+02  0.40659131090E+02  0.00000000000E+00 0.  1.
         11    1    3    3    0    0 -0.22250858216E+00  0.24580265070E+02 -0.23669036471E+02  0.34124217627E+02  0.51100000000E-03 0. -1.
        -11    1    3    3    0    0 -0.44258826403E+01  0.26349883908E+01 -0.34833006741E+01  0.62181174653E+01  0.51100000000E-03 0.  1.
         12    1    3    3    0    0 -0.55788785589E+01 -0.60380185202E+01 -0.60153069397E+01  0.10186533817E+02  0.00000000000E+00 0. -1.
</event>
<event>
 7    1  0.5373252E-013  0.5052886E+02  0.7816164E-02  0.1300439E+00
        -11   -1    0    0    0    0  0.00000000000E+00  0.00000000000E+00  0.45593999997E+02  0.45594000000E+02  0.51100000000E-03 0.  1.
         11   -1    0    0    0    0 -0.00000000000E+00 -0.00000000000E+00 -0.45593999997E+02  0.45594000000E+02  0.51100000000E-03 0. -1.
    9900012    2    1    2    0    0  0.33058721638E+02 -0.65085012027E+01 -0.22757996204E+02  0.50528855205E+02  0.29999985882E+02 0.  0.
        -12    1    1    2    0    0 -0.33058721638E+02  0.65085012027E+01  0.22757996204E+02  0.40659144795E+02  0.00000000000E+00 0.  1.
         11    1    3    3    0    0  0.86783690883E+01 -0.30040666228E+01 -0.99047788432E+01  0.13507151828E+02  0.51100000000E-03 0. -1.
        -11    1    3    3    0    0  0.12411250993E+02 -0.57680642730E+01  0.57011032639E+01  0.14826068102E+02  0.51100000000E-03 0.  1.
         12    1    3    3    0    0  0.11969101556E+02  0.22636296930E+01 -0.18554320624E+02  0.22195635276E+02  0.00000000000E+00 0. -1.
</event>
<event>
 7    1  0.5373252E-013  0.5052886E+02  0.7816164E-02  0.1300439E+00
        -11   -1    0    0    0    0  0.00000000000E+00  0.00000000000E+00  0.45593999997E+02  0.45594000000E+02  0.51100000000E-03 0. -1.
         11   -1    0    0    0    0 -0.00000000000E+00 -0.00000000000E+00 -0.45593999997E+02  0.45594000000E+02  0.51100000000E-03 0.  1.
    9900012    2    1    2    0    0  0.94949811611E+01  0.39050962609E+02  0.61671040803E+01  0.50528861781E+02  0.30000005870E+02 0.  0.
        -12    1    1    2    0    0 -0.94949811611E+01 -0.39050962609E+02 -0.61671040803E+01  0.40659138219E+02  0.00000000000E+00 0.  1.
         11    1    3    3    0    0  0.67938844614E+01  0.14792330121E+02 -0.67916357143E+01  0.17637919731E+02  0.51100000000E-03 0. -1.
        -11    1    3    3    0    0  0.71939352540E+01  0.21240885344E+02  0.45375407757E+01  0.22880498053E+02  0.51100000000E-03 0.  1.
        -12    1    3    3    0    0 -0.44928385543E+01  0.30177471443E+01  0.84211990189E+01  0.10010443997E+02  0.00000000000E+00 0.  1.
</event>
<event>
 7    1  0.5373252E-013  0.5052882E+02  0.7816164E-02  0.1300439E+00
        -11   -1    0    0    0    0  0.00000000000E+00  0.00000000000E+00  0.45593999997E+02  0.45594000000E+02  0.51100000000E-03 0.  1.
         11   -1    0    0    0    0 -0.00000000000E+00 -0.00000000000E+00 -0.45593999997E+02  0.45594000000E+02  0.51100000000E-03 0. -1.
    9900012    2    1    2    0    0  0.76843514348E+01 -0.83519018544E+01 -0.39043117927E+02  0.50528824171E+02  0.29999891551E+02 0.  0.
        -12    1    1    2    0    0 -0.76843514348E+01  0.83519018544E+01  0.39043117927E+02  0.40659175829E+02  0.00000000000E+00 0.  1.
         11    1    3    3    0    0 -0.50506988229E+01 -0.26844864623E+01 -0.29515503134E+02  0.30064612947E+02  0.51100000000E-03 0. -1.
        -11    1    3    3    0    0  0.98817713877E+01  0.18394854606E+01 -0.58658743176E+01  0.11637937716E+02  0.51100000000E-03 0.  1.
        -12    1    3    3    0    0  0.28532788700E+01 -0.75069008527E+01 -0.36617404761E+01  0.88262735079E+01  0.00000000000E+00 0.  1.
</event>
<event>
 7    1  0.5373252E-013  0.5052886E+02  0.7816164E-02  0.1300439E+00
        -11   -1    0    0    0    0  0.00000000000E+00  0.00000000000E+00  0.45593999997E+02  0.45594000000E+02  0.51100000000E-03 0. -1.
         11   -1    0    0    0    0 -0.00000000000E+00 -0.00000000000E+00 -0.45593999997E+02  0.45594000000E+02  0.51100000000E-03 0.  1.
    9900012    2    1    2    0    0  0.24275898692E+01 -0.40586185076E+02 -0.18385992715E+00  0.50528863067E+02  0.30000009780E+02 0.  0.
        -12    1    1    2    0    0 -0.24275898692E+01  0.40586185076E+02  0.18385992715E+00  0.40659136933E+02  0.00000000000E+00 0.  1.
         11    1    3    3    0    0  0.68630981155E+01 -0.17096441730E+01  0.46051135368E+01  0.84399093531E+01  0.51100000000E-03 0. -1.
        -11    1    3    3    0    0 -0.88457417897E+01 -0.17901508173E+02  0.64147232298E+00  0.19978053701E+02  0.51100000000E-03 0.  1.
        -12    1    3    3    0    0  0.44102335435E+01 -0.20975032731E+02 -0.54304457870E+01  0.22110900013E+02  0.00000000000E+00 0.  1.
</event>
<event>
 7    1  0.5373252E-013  0.5052886E+02  0.7816164E-02  0.1300439E+00
        -11   -1    0    0    0    0  0.00000000000E+00  0.00000000000E+00  0.45593999997E+02  0.45594000000E+02  0.51100000000E-03 0. -1.
         11   -1    0    0    0    0 -0.00000000000E+00 -0.00000000000E+00 -0.45593999997E+02  0.45594000000E+02  0.51100000000E-03 0.  1.
    9900012    2    1    2    0    0 -0.28419211039E+02  0.28270317096E+02 -0.68046518523E+01  0.50528859925E+02  0.30000000229E+02 0.  0.
        -12    1    1    2    0    0  0.28419211039E+02 -0.28270317096E+02  0.68046518523E+01  0.40659140075E+02  0.00000000000E+00 0.  1.
         11    1    3    3    0    0 -0.18479684092E+02  0.14985365693E+02 -0.64160363890E+01  0.24641944573E+02  0.51100000000E-03 0.  1.
        -11    1    3    3    0    0 -0.30563106098E+01  0.13559658053E+01 -0.90292037943E+01  0.96284058509E+01  0.51100000000E-03 0. -1.
         12    1    3    3    0    0 -0.68832163367E+01  0.11928985597E+02  0.86405883311E+01  0.16258509502E+02  0.00000000000E+00 0. -1.
</event>
<event>
 7    1  0.5373252E-013  0.5052887E+02  0.7816164E-02  0.1300439E+00
        -11   -1    0    0    0    0  0.00000000000E+00  0.00000000000E+00  0.45593999997E+02  0.45594000000E+02  0.51100000000E-03 0.  1.
         11   -1    0    0    0    0 -0.00000000000E+00 -0.00000000000E+00 -0.45593999997E+02  0.45594000000E+02  0.51100000000E-03 0. -1.
    9900012    2    1    2    0    0  0.20501468764E+02 -0.27358289310E+02 -0.22008612435E+02  0.50528865273E+02  0.30000016484E+02 0.  0.
        -12    1    1    2    0    0 -0.20501468764E+02  0.27358289310E+02  0.22008612435E+02  0.40659134727E+02  0.00000000000E+00 0.  1.
         11    1    3    3    0    0  0.92318549899E+01 -0.15080630877E+02 -0.18697858288E+01  0.17780570112E+02  0.51100000000E-03 0. -1.
        -11    1    3    3    0    0 -0.30343435151E+01  0.26090545544E+00 -0.11428407843E+02  0.11827248975E+02  0.51100000000E-03 0.  1.
         12    1    3    3    0    0  0.14303957289E+02 -0.12538563889E+02 -0.87104187624E+01  0.20921046186E+02  0.00000000000E+00 0. -1.
</event>
<event>
 7    1  0.5373252E-013  0.5052887E+02  0.7816164E-02  0.1300439E+00
        -11   -1    0    0    0    0  0.00000000000E+00  0.00000000000E+00  0.45593999997E+02  0.45594000000E+02  0.51100000000E-03 0.  1.
         11   -1    0    0    0    0 -0.00000000000E+00 -0.00000000000E+00 -0.45593999997E+02  0.45594000000E+02  0.51100000000E-03 0. -1.
    9900012    2    1    2    0    0 -0.80686659415E+01  0.34732746190E+02  0.19537088677E+02  0.50528869882E+02  0.30000030495E+02 0.  0.
        -12    1    1    2    0    0  0.80686659415E+01 -0.34732746190E+02 -0.19537088677E+02  0.40659130118E+02  0.00000000000E+00 0.  1.
         11    1    3    3    0    0 -0.38926459479E+01  0.27129737683E+02  0.16575937418E+01  0.27457657884E+02  0.51100000000E-03 0. -1.
        -11    1    3    3    0    0 -0.15880856355E+01 -0.27554309505E+01  0.14930627706E+01  0.35133534418E+01  0.51100000000E-03 0.  1.
        -12    1    3    3    0    0 -0.25879343581E+01  0.10358439457E+02  0.16386432164E+02  0.19557858556E+02  0.00000000000E+00 0.  1.
</event>
<event>
 7    1  0.5373252E-013  0.5052886E+02  0.7816164E-02  0.1300439E+00
        -11   -1    0    0    0    0  0.00000000000E+00  0.00000000000E+00  0.45593999997E+02  0.45594000000E+02  0.51100000000E-03 0.  1.
         11   -1    0    0    0    0 -0.00000000000E+00 -0.00000000000E+00 -0.45593999997E+02  0.45594000000E+02  0.51100000000E-03 0. -1.
    9900012    2    1    2    0    0  0.28121207230E+02 -0.19798495334E+02 -0.21688314327E+02  0.50528859676E+02  0.29999999470E+02 0.  0.
        -12    1    1    2    0    0 -0.28121207230E+02  0.19798495334E+02  0.21688314327E+02  0.40659140324E+02  0.00000000000E+00 0.  1.
         11    1    3    3    0    0 -0.73412499212E+00 -0.69867360540E+00 -0.57391019200E+01  0.58278963117E+01  0.51100000000E-03 0. -1.
        -11    1    3    3    0    0  0.20575386795E+02 -0.46009426182E+01 -0.18201268312E+02  0.27853211362E+02  0.51100000000E-03 0.  1.
        -12    1    3    3    0    0  0.82799454269E+01 -0.14498879110E+02  0.22520559046E+01  0.16847752002E+02  0.00000000000E+00 0.  1.
</event>
<event>
 7    1  0.5373252E-013  0.5052885E+02  0.7816164E-02  0.1300439E+00
        -11   -1    0    0    0    0  0.00000000000E+00  0.00000000000E+00  0.45593999997E+02  0.45594000000E+02  0.51100000000E-03 0.  1.
         11   -1    0    0    0    0 -0.00000000000E+00 -0.00000000000E+00 -0.45593999997E+02  0.45594000000E+02  0.51100000000E-03 0. -1.
    9900012    2    1    2    0    0 -0.11480155292E+02  0.23279140411E+02 -0.31296237395E+02  0.50528845817E+02  0.29999957346E+02 0.  0.
        -12    1    1    2    0    0  0.11480155292E+02 -0.23279140411E+02  0.31296237395E+02  0.40659154183E+02  0.00000000000E+00 0.  1.
         11    1    3    3    0    0  0.81636281759E+01  0.36320923960E+01 -0.14952954589E+02  0.17419178263E+02  0.51100000000E-03 0. -1.
        -11    1    3    3    0    0 -0.15299311543E+01  0.55182090774E+01 -0.22118362314E+01  0.61386920866E+01  0.51100000000E-03 0.  1.
         12    1    3    3    0    0 -0.18113852314E+02  0.14128838937E+02 -0.14131446574E+02  0.26970975467E+02  0.00000000000E+00 0. -1.
</event>
<event>
 7    1  0.5373252E-013  0.5052886E+02  0.7816164E-02  0.1300439E+00
        -11   -1    0    0    0    0  0.00000000000E+00  0.00000000000E+00  0.45593999997E+02  0.45594000000E+02  0.51100000000E-03 0.  1.
         11   -1    0    0    0    0 -0.00000000000E+00 -0.00000000000E+00 -0.45593999997E+02  0.45594000000E+02  0.51100000000E-03 0. -1.
    9900012    2    1    2    0    0  0.16706625520E+02  0.28442940664E+02 -0.23770853198E+02  0.50528859925E+02  0.30000000228E+02 0.  0.
        -12    1    1    2    0    0 -0.16706625520E+02 -0.28442940664E+02  0.23770853198E+02  0.40659140075E+02  0.00000000000E+00 0.  1.
         11    1    3    3    0    0  0.41188320608E+01 -0.22633328899E+01  0.17537891691E+01  0.50162964452E+01  0.51100000000E-03 0. -1.
        -11    1    3    3    0    0 -0.66122571651E+00  0.17614558804E+02 -0.62328674385E+01  0.18696484645E+02  0.51100000000E-03 0.  1.
         12    1    3    3    0    0  0.13249019175E+02  0.13091714750E+02 -0.19291774929E+02  0.26816078835E+02  0.00000000000E+00 0. -1.
</event>
<event>
 7    1  0.5373252E-013  0.5052887E+02  0.7816164E-02  0.1300439E+00
        -11   -1    0    0    0    0  0.00000000000E+00  0.00000000000E+00  0.45593999997E+02  0.45594000000E+02  0.51100000000E-03 0.  1.
         11   -1    0    0    0    0 -0.00000000000E+00 -0.00000000000E+00 -0.45593999997E+02  0.45594000000E+02  0.51100000000E-03 0. -1.
    9900012    2    1    2    0    0  0.42357176431E+01  0.29707329785E+02 -0.27435348958E+02  0.50528866716E+02  0.30000020871E+02 0.  0.
        -12    1    1    2    0    0 -0.42357176431E+01 -0.29707329785E+02  0.27435348958E+02  0.40659133284E+02  0.00000000000E+00 0.  1.
         11    1    3    3    0    0  0.48176634636E+01  0.15130685736E+02 -0.14633577759E+02  0.21593728960E+02  0.51100000000E-03 0. -1.
        -11    1    3    3    0    0  0.71109423501E+01  0.29370997201E+01 -0.12856819210E+02  0.14982985561E+02  0.51100000000E-03 0.  1.
         12    1    3    3    0    0 -0.76928881706E+01  0.11639544329E+02  0.55048011125E-01  0.13952152195E+02  0.00000000000E+00 0. -1.
</event>
<event>
 7    1  0.5373252E-013  0.5052885E+02  0.7816164E-02  0.1300439E+00
        -11   -1    0    0    0    0  0.00000000000E+00  0.00000000000E+00  0.45593999997E+02  0.45594000000E+02  0.51100000000E-03 0.  1.
         11   -1    0    0    0    0 -0.00000000000E+00 -0.00000000000E+00 -0.45593999997E+02  0.45594000000E+02  0.51100000000E-03 0. -1.
    9900012    2    1    2    0    0  0.87156512408E+01 -0.10622113895E+02 -0.38267149017E+02  0.50528848828E+02  0.29999966496E+02 0.  0.
        -12    1    1    2    0    0 -0.87156512408E+01  0.10622113895E+02  0.38267149017E+02  0.40659151172E+02  0.00000000000E+00 0.  1.
         11    1    3    3    0    0  0.83599389078E+00 -0.63856007792E+01 -0.94527541410E+00  0.65090958640E+01  0.51100000000E-03 0. -1.
        -11    1    3    3    0    0 -0.65174208991E-02  0.61706482755E+01 -0.22032622372E+01  0.65521986664E+01  0.51100000000E-03 0.  1.
         12    1    3    3    0    0  0.78861747709E+01 -0.10407161391E+02 -0.35118611366E+02  0.37467554297E+02  0.00000000000E+00 0. -1.
</event>
<event>
 7    1  0.5373252E-013  0.5052887E+02  0.7816164E-02  0.1300439E+00
        -11   -1    0    0    0    0  0.00000000000E+00  0.00000000000E+00  0.45593999997E+02  0.45594000000E+02  0.51100000000E-03 0. -1.
         11   -1    0    0    0    0 -0.00000000000E+00 -0.00000000000E+00 -0.45593999997E+02  0.45594000000E+02  0.51100000000E-03 0.  1.
    9900012    2    1    2    0    0 -0.35634438660E+02  0.15939377409E+02 -0.11370477974E+02  0.50528871380E+02  0.30000035046E+02 0.  0.
        -12    1    1    2    0    0  0.35634438660E+02 -0.15939377409E+02  0.11370477974E+02  0.40659128620E+02  0.00000000000E+00 0.  1.
         11    1    3    3    0    0 -0.12199679865E+01 -0.27279072572E+01 -0.66799320303E+01  0.73178748337E+01  0.51100000000E-03 0. -1.
        -11    1    3    3    0    0 -0.23119015686E+02  0.16477628047E+02 -0.10565141292E+02  0.30292298082E+02  0.51100000000E-03 0.  1.
         12    1    3    3    0    0 -0.11295454988E+02  0.21896566193E+01  0.58745953480E+01  0.12918698463E+02  0.00000000000E+00 0. -1.
</event>
<event>
 7    1  0.5373252E-013  0.5052885E+02  0.7816164E-02  0.1300439E+00
        -11   -1    0    0    0    0  0.00000000000E+00  0.00000000000E+00  0.45593999997E+02  0.45594000000E+02  0.51100000000E-03 0. -1.
         11   -1    0    0    0    0 -0.00000000000E+00 -0.00000000000E+00 -0.45593999997E+02  0.45594000000E+02  0.51100000000E-03 0.  1.
    9900012    2    1    2    0    0 -0.34723046591E+01 -0.40509880867E+02 -0.24358310691E+00  0.50528847522E+02  0.29999962527E+02 0.  0.
        -12    1    1    2    0    0  0.34723046591E+01  0.40509880867E+02  0.24358310691E+00  0.40659152478E+02  0.00000000000E+00 0.  1.
         11    1    3    3    0    0 -0.12129147097E+02 -0.32989161655E+02 -0.53260651694E+01  0.35549514293E+02  0.51100000000E-03 0.  1.
        -11    1    3    3    0    0  0.16001393252E+01 -0.15883472851E+01  0.52980226227E+01  0.57578066075E+01  0.51100000000E-03 0. -1.
        -12    1    3    3    0    0  0.70567031127E+01 -0.59323719268E+01 -0.21554056019E+00  0.92215266215E+01  0.00000000000E+00 0.  1.
</event>
<event>
 7    1  0.5373252E-013  0.5052885E+02  0.7816164E-02  0.1300439E+00
        -11   -1    0    0    0    0  0.00000000000E+00  0.00000000000E+00  0.45593999997E+02  0.45594000000E+02  0.51100000000E-03 0.  1.
         11   -1    0    0    0    0 -0.00000000000E+00 -0.00000000000E+00 -0.45593999997E+02  0.45594000000E+02  0.51100000000E-03 0. -1.
    9900012    2    1    2    0    0 -0.11033947107E+01 -0.13456584071E+02 -0.38351912553E+02  0.50528851814E+02  0.29999975573E+02 0.  0.
        -12    1    1    2    0    0  0.11033947107E+01  0.13456584071E+02  0.38351912553E+02  0.40659148186E+02  0.00000000000E+00 0.  1.
         11    1    3    3    0    0 -0.61568869736E+01  0.18884075627E+01 -0.16232565964E+01  0.66414081765E+01  0.51100000000E-03 0. -1.
        -11    1    3    3    0    0  0.34620588000E+01  0.21098923486E+01 -0.17092009229E+02  0.17566282378E+02  0.51100000000E-03 0.  1.
         12    1    3    3    0    0  0.15914334629E+01 -0.17454883982E+02 -0.19636646728E+02  0.26321161259E+02  0.00000000000E+00 0. -1.
</event>
<event>
 7    1  0.5373252E-013  0.5052885E+02  0.7816164E-02  0.1300439E+00
        -11   -1    0    0    0    0  0.00000000000E+00  0.00000000000E+00  0.45593999997E+02  0.45594000000E+02  0.51100000000E-03 0.  1.
         11   -1    0    0    0    0 -0.00000000000E+00 -0.00000000000E+00 -0.45593999997E+02  0.45594000000E+02  0.51100000000E-03 0. -1.
    9900012    2    1    2    0    0 -0.35480182150E+02 -0.12732962069E+02 -0.15237934681E+02  0.50528852176E+02  0.29999976675E+02 0.  0.
        -12    1    1    2    0    0  0.35480182150E+02  0.12732962069E+02  0.15237934681E+02  0.40659147824E+02  0.00000000000E+00 0.  1.
         11    1    3    3    0    0 -0.98676938553E+00  0.12753780166E+01  0.19797923849E+01  0.25534057754E+01  0.51100000000E-03 0. -1.
        -11    1    3    3    0    0 -0.17814799989E+00  0.15178504881E+00  0.48061405933E+01  0.48118357282E+01  0.51100000000E-03 0.  1.
         12    1    3    3    0    0 -0.34315264764E+02 -0.14160125134E+02 -0.22023867659E+02  0.43163610673E+02  0.00000000000E+00 0. -1.
</event>
<event>
 7    1  0.5373252E-013  0.5052886E+02  0.7816164E-02  0.1300439E+00
        -11   -1    0    0    0    0  0.00000000000E+00  0.00000000000E+00  0.45593999997E+02  0.45594000000E+02  0.51100000000E-03 0.  1.
         11   -1    0    0    0    0 -0.00000000000E+00 -0.00000000000E+00 -0.45593999997E+02  0.45594000000E+02  0.51100000000E-03 0. -1.
    9900012    2    1    2    0    0  0.32153339521E+02  0.22365690646E+02  0.10913494961E+02  0.50528859174E+02  0.29999997946E+02 0.  0.
        -12    1    1    2    0    0 -0.32153339521E+02 -0.22365690646E+02 -0.10913494961E+02  0.40659140826E+02  0.00000000000E+00 0.  1.
         11    1    3    3    0    0  0.55104849483E+01  0.11951852732E+02  0.79880670330E+00  0.13185231151E+02  0.51100000000E-03 0. -1.
        -11    1    3    3    0    0  0.24790939290E+02  0.25071697144E+01  0.72289209101E+00  0.24927878853E+02  0.51100000000E-03 0.  1.
         12    1    3    3    0    0  0.18519152824E+01  0.79066682003E+01  0.93917961666E+01  0.12415749171E+02  0.00000000000E+00 0. -1.
</event>
<event>
 7    1  0.5373252E-013  0.5052888E+02  0.7816164E-02  0.1300439E+00
        -11   -1    0    0    0    0  0.00000000000E+00  0.00000000000E+00  0.45593999997E+02  0.45594000000E+02  0.51100000000E-03 0. -1.
         11   -1    0    0    0    0 -0.00000000000E+00 -0.00000000000E+00 -0.45593999997E+02  0.45594000000E+02  0.51100000000E-03 0.  1.
    9900012    2    1    2    0    0 -0.33130766469E+02  0.23337432525E+02 -0.32985991215E+01  0.50528878024E+02  0.30000055241E+02 0.  0.
        -12    1    1    2    0    0  0.33130766469E+02 -0.23337432525E+02  0.32985991215E+01  0.40659121976E+02  0.00000000000E+00 0.  1.
         11    1    3    3    0    0 -0.12263433103E+02 -0.33284263145E+01 -0.17313890807E+01  0.12824504731E+02  0.51100000000E-03 0. -1.
        -11    1    3    3    0    0 -0.52502698432E+01  0.23608546789E+01  0.55009800852E+01  0.79623960213E+01  0.51100000000E-03 0.  1.
        -12    1    3    3    0    0 -0.15617063524E+02  0.24305004161E+02 -0.70681901260E+01  0.29741977271E+02  0.00000000000E+00 0.  1.
</event>
<event>
 7    1  0.5373252E-013  0.5052886E+02  0.7816164E-02  0.1300439E+00
        -11   -1    0    0    0    0  0.00000000000E+00  0.00000000000E+00  0.45593999997E+02  0.45594000000E+02  0.51100000000E-03 0.  1.
         11   -1    0    0    0    0 -0.00000000000E+00 -0.00000000000E+00 -0.45593999997E+02  0.45594000000E+02  0.51100000000E-03 0. -1.
    9900012    2    1    2    0    0 -0.25903989187E+02  0.24012866951E+02 -0.20137812156E+02  0.50528856952E+02  0.29999991190E+02 0.  0.
        -12    1    1    2    0    0  0.25903989187E+02 -0.24012866951E+02  0.20137812156E+02  0.40659143048E+02  0.00000000000E+00 0.  1.
         11    1    3    3    0    0 -0.53562679238E+01  0.97818841482E+01 -0.10013720056E+02  0.14988310551E+02  0.51100000000E-03 0. -1.
        -11    1    3    3    0    0  0.45247974150E+01  0.22318944324E+01 -0.53211518627E+01  0.73327894973E+01  0.51100000000E-03 0.  1.
         12    1    3    3    0    0 -0.25072518678E+02  0.11999088370E+02 -0.48029402375E+01  0.28207756903E+02  0.00000000000E+00 0. -1.
</event>
<event>
 7    1  0.5373252E-013  0.5052886E+02  0.7816164E-02  0.1300439E+00
        -11   -1    0    0    0    0  0.00000000000E+00  0.00000000000E+00  0.45593999997E+02  0.45594000000E+02  0.51100000000E-03 0.  1.
         11   -1    0    0    0    0 -0.00000000000E+00 -0.00000000000E+00 -0.45593999997E+02  0.45594000000E+02  0.51100000000E-03 0. -1.
    9900012    2    1    2    0    0  0.85410909698E+01 -0.25011183730E+01 -0.39673161294E+02  0.50528861357E+02  0.30000004582E+02 0.  0.
        -12    1    1    2    0    0 -0.85410909698E+01  0.25011183730E+01  0.39673161294E+02  0.40659138643E+02  0.00000000000E+00 0.  1.
         11    1    3    3    0    0  0.58462476804E+01 -0.39588282394E+01 -0.18080493196E+02  0.19410182056E+02  0.51100000000E-03 0.  1.
        -11    1    3    3    0    0  0.11139569014E+02  0.59629869197E+01 -0.10195736173E+02  0.16235770607E+02  0.51100000000E-03 0. -1.
        -12    1    3    3    0    0 -0.84447257251E+01 -0.45052770532E+01 -0.11396931925E+02  0.14882908695E+02  0.00000000000E+00 0.  1.
</event>
<event>
 7    1  0.5373252E-013  0.5052886E+02  0.7816164E-02  0.1300439E+00
        -11   -1    0    0    0    0  0.00000000000E+00  0.00000000000E+00  0.45593999997E+02  0.45594000000E+02  0.51100000000E-03 0.  1.
         11   -1    0    0    0    0 -0.00000000000E+00 -0.00000000000E+00 -0.45593999997E+02  0.45594000000E+02  0.51100000000E-03 0. -1.
    9900012    2    1    2    0    0 -0.16826434563E+02  0.33858527257E+02 -0.14954483670E+02  0.50528863881E+02  0.30000012254E+02 0.  0.
        -12    1    1    2    0    0  0.16826434563E+02 -0.33858527257E+02  0.14954483670E+02  0.40659136119E+02  0.00000000000E+00 0.  1.
         11    1    3    3    0    0 -0.52263657052E+00  0.10567345387E+02 -0.16537868472E+02  0.19632703109E+02  0.51100000000E-03 0. -1.
        -11    1    3    3    0    0 -0.24999172188E+01  0.12525594471E+02  0.36117636829E+01  0.13273467524E+02  0.51100000000E-03 0.  1.
        -12    1    3    3    0    0 -0.13803880773E+02  0.10765587399E+02 -0.20283788807E+01  0.17622693249E+02  0.00000000000E+00 0.  1.
</event>
<event>
 7    1  0.5373252E-013  0.5052882E+02  0.7816164E-02  0.1300439E+00
        -11   -1    0    0    0    0  0.00000000000E+00  0.00000000000E+00  0.45593999997E+02  0.45594000000E+02  0.51100000000E-03 0. -1.
         11   -1    0    0    0    0 -0.00000000000E+00 -0.00000000000E+00 -0.45593999997E+02  0.45594000000E+02  0.51100000000E-03 0.  1.
    9900012    2    1    2    0    0  0.23687419593E+02 -0.31611067638E+02  0.96340783939E+01  0.50528820093E+02  0.29999879156E+02 0.  0.
        -12    1    1    2    0    0 -0.23687419593E+02  0.31611067638E+02 -0.96340783939E+01  0.40659179907E+02  0.00000000000E+00 0.  1.
         11    1    3    3    0    0  0.27746791410E+02 -0.19512999045E+02  0.49396658261E+01  0.34278883646E+02  0.51100000000E-03 0. -1.
        -11    1    3    3    0    0  0.23173426106E+01 -0.17526617447E+01 -0.64452006142E+00  0.29761227019E+01  0.51100000000E-03 0.  1.
        -12    1    3    3    0    0 -0.63767144271E+01 -0.10345406848E+02  0.53389326293E+01  0.13273813746E+02  0.00000000000E+00 0.  1.
</event>
<event>
 7    1  0.5373252E-013  0.5052890E+02  0.7816164E-02  0.1300439E+00
        -11   -1    0    0    0    0  0.00000000000E+00  0.00000000000E+00  0.45593999997E+02  0.45594000000E+02  0.51100000000E-03 0.  1.
         11   -1    0    0    0    0 -0.00000000000E+00 -0.00000000000E+00 -0.45593999997E+02  0.45594000000E+02  0.51100000000E-03 0. -1.
    9900012    2    1    2    0    0  0.39557849840E+00 -0.89350649038E+01 -0.39663216755E+02  0.50528897323E+02  0.30000113902E+02 0.  0.
        -12    1    1    2    0    0 -0.39557849840E+00  0.89350649038E+01  0.39663216755E+02  0.40659102677E+02  0.00000000000E+00 0.  1.
         11    1    3    3    0    0 -0.63857432921E+01 -0.51748468601E+01 -0.20847532455E+01  0.84795609422E+01  0.51100000000E-03 0.  1.
        -11    1    3    3    0    0  0.76130513584E+01 -0.34000459956E+01 -0.55679927156E+01  0.10026036450E+02  0.51100000000E-03 0. -1.
        -12    1    3    3    0    0 -0.83172956791E+00 -0.36017204809E+00 -0.32010470794E+02  0.32023299930E+02  0.00000000000E+00 0.  1.
</event>
<event>
 7    1  0.5373252E-013  0.5052886E+02  0.7816164E-02  0.1300439E+00
        -11   -1    0    0    0    0  0.00000000000E+00  0.00000000000E+00  0.45593999997E+02  0.45594000000E+02  0.51100000000E-03 0. -1.
         11   -1    0    0    0    0 -0.00000000000E+00 -0.00000000000E+00 -0.45593999997E+02  0.45594000000E+02  0.51100000000E-03 0.  1.
    9900012    2    1    2    0    0  0.20243515970E+02  0.32625062380E+02  0.13378012385E+02  0.50528857738E+02  0.29999993580E+02 0.  0.
        -12    1    1    2    0    0 -0.20243515970E+02 -0.32625062380E+02 -0.13378012385E+02  0.40659142262E+02  0.00000000000E+00 0.  1.
         11    1    3    3    0    0  0.45269455120E+01  0.11497469130E+02 -0.95197664876E+01  0.15598428969E+02  0.51100000000E-03 0.  1.
        -11    1    3    3    0    0  0.43171521891E+01  0.48449991157E+01  0.51725974020E+01  0.82986495046E+01  0.51100000000E-03 0. -1.
        -12    1    3    3    0    0  0.11399418269E+02  0.16282594134E+02  0.17725181471E+02  0.26631779264E+02  0.00000000000E+00 0.  1.
</event>
<event>
 7    1  0.5373252E-013  0.5052886E+02  0.7816164E-02  0.1300439E+00
        -11   -1    0    0    0    0  0.00000000000E+00  0.00000000000E+00  0.45593999997E+02  0.45594000000E+02  0.51100000000E-03 0.  1.
         11   -1    0    0    0    0 -0.00000000000E+00 -0.00000000000E+00 -0.45593999997E+02  0.45594000000E+02  0.51100000000E-03 0. -1.
    9900012    2    1    2    0    0 -0.16599337940E+02 -0.20637476939E+02 -0.30849994531E+02  0.50528860351E+02  0.30000001522E+02 0.  0.
        -12    1    1    2    0    0  0.16599337940E+02  0.20637476939E+02  0.30849994531E+02  0.40659139649E+02  0.00000000000E+00 0.  1.
         11    1    3    3    0    0 -0.15622852074E+02 -0.17446387274E+02 -0.21890462883E+02  0.32056860441E+02  0.51100000000E-03 0. -1.
        -11    1    3    3    0    0 -0.61910020281E+00 -0.83886174031E+01 -0.36207010622E+00  0.84192209865E+01  0.51100000000E-03 0.  1.
         12    1    3    3    0    0 -0.35738566281E+00  0.51975277384E+01 -0.85974615424E+01  0.10052778923E+02  0.00000000000E+00 0. -1.
</event>
<event>
 7    1  0.5373252E-013  0.5052886E+02  0.7816164E-02  0.1300439E+00
        -11   -1    0    0    0    0  0.00000000000E+00  0.00000000000E+00  0.45593999997E+02  0.45594000000E+02  0.51100000000E-03 0.  1.
         11   -1    0    0    0    0 -0.00000000000E+00 -0.00000000000E+00 -0.45593999997E+02  0.45594000000E+02  0.51100000000E-03 0. -1.
    9900012    2    1    2    0    0 -0.29177546743E+02 -0.24394758446E+02  0.14378176351E+02  0.50528862912E+02  0.30000009307E+02 0.  0.
        -12    1    1    2    0    0  0.29177546743E+02  0.24394758446E+02 -0.14378176351E+02  0.40659137088E+02  0.00000000000E+00 0.  1.
         11    1    3    3    0    0 -0.23692432488E+02 -0.21225527838E+02  0.85852650800E+01  0.32947855256E+02  0.51100000000E-03 0. -1.
        -11    1    3    3    0    0 -0.47977417588E+01 -0.31804263266E+01 -0.44744304599E+01  0.72906766356E+01  0.51100000000E-03 0.  1.
         12    1    3    3    0    0 -0.68737249546E+00  0.11195718169E-01  0.10267341731E+02  0.10290331020E+02  0.00000000000E+00 0. -1.
</event>
<event>
 7    1  0.5373252E-013  0.5052886E+02  0.7816164E-02  0.1300439E+00
        -11   -1    0    0    0    0  0.00000000000E+00  0.00000000000E+00  0.45593999997E+02  0.45594000000E+02  0.51100000000E-03 0.  1.
         11   -1    0    0    0    0 -0.00000000000E+00 -0.00000000000E+00 -0.45593999997E+02  0.45594000000E+02  0.51100000000E-03 0. -1.
    9900012    2    1    2    0    0  0.19652845128E+02 -0.34005098898E+02  0.10515901832E+02  0.50528864937E+02  0.30000015463E+02 0.  0.
        -12    1    1    2    0    0 -0.19652845128E+02  0.34005098898E+02 -0.10515901832E+02  0.40659135063E+02  0.00000000000E+00 0.  1.
         11    1    3    3    0    0 -0.49276120495E+01 -0.56138918975E+01  0.20944411361E+01  0.77578235788E+01  0.51100000000E-03 0. -1.
        -11    1    3    3    0    0  0.11896787680E+02 -0.14399169509E+02  0.13697926861E+02  0.23162530954E+02  0.51100000000E-03 0.  1.
        -12    1    3    3    0    0  0.12683669497E+02 -0.13992037492E+02 -0.52764661648E+01  0.19608510404E+02  0.00000000000E+00 0.  1.
</event>
<event>
 7    1  0.5373252E-013  0.5052885E+02  0.7816164E-02  0.1300439E+00
        -11   -1    0    0    0    0  0.00000000000E+00  0.00000000000E+00  0.45593999997E+02  0.45594000000E+02  0.51100000000E-03 0. -1.
         11   -1    0    0    0    0 -0.00000000000E+00 -0.00000000000E+00 -0.45593999997E+02  0.45594000000E+02  0.51100000000E-03 0.  1.
    9900012    2    1    2    0    0 -0.19567438710E+02  0.14945424939E+02  0.32356083986E+02  0.50528849060E+02  0.29999967203E+02 0.  0.
        -12    1    1    2    0    0  0.19567438710E+02 -0.14945424939E+02 -0.32356083986E+02  0.40659150940E+02  0.00000000000E+00 0.  1.
         11    1    3    3    0    0 -0.60381563559E+01  0.19422678193E+01  0.18114405089E+02  0.19192795743E+02  0.51100000000E-03 0. -1.
        -11    1    3    3    0    0  0.55455584910E+01  0.27965718297E+01  0.41075905695E+01  0.74462294837E+01  0.51100000000E-03 0.  1.
         12    1    3    3    0    0 -0.19074840845E+02  0.10206585290E+02  0.10134088327E+02  0.23889823833E+02  0.00000000000E+00 0. -1.
</event>
<event>
 7    1  0.5373252E-013  0.5052886E+02  0.7816164E-02  0.1300439E+00
        -11   -1    0    0    0    0  0.00000000000E+00  0.00000000000E+00  0.45593999997E+02  0.45594000000E+02  0.51100000000E-03 0.  1.
         11   -1    0    0    0    0 -0.00000000000E+00 -0.00000000000E+00 -0.45593999997E+02  0.45594000000E+02  0.51100000000E-03 0. -1.
    9900012    2    1    2    0    0  0.42422501840E+01 -0.12923503908E+02 -0.38316469307E+02  0.50528862528E+02  0.30000008139E+02 0.  0.
        -12    1    1    2    0    0 -0.42422501840E+01  0.12923503908E+02  0.38316469307E+02  0.40659137472E+02  0.00000000000E+00 0.  1.
         11    1    3    3    0    0  0.85238482625E+01 -0.92006090783E+01 -0.23186085707E+02  0.26360989498E+02  0.51100000000E-03 0. -1.
        -11    1    3    3    0    0 -0.63291110311E+01  0.24804131472E+01 -0.16181483085E+02  0.17551367210E+02  0.51100000000E-03 0.  1.
        -12    1    3    3    0    0  0.20475129526E+01 -0.62033079764E+01  0.10510994857E+01  0.66165058203E+01  0.00000000000E+00 0.  1.
</event>
<event>
 7    1  0.5373252E-013  0.5052888E+02  0.7816164E-02  0.1300439E+00
        -11   -1    0    0    0    0  0.00000000000E+00  0.00000000000E+00  0.45593999997E+02  0.45594000000E+02  0.51100000000E-03 0.  1.
         11   -1    0    0    0    0 -0.00000000000E+00 -0.00000000000E+00 -0.45593999997E+02  0.45594000000E+02  0.51100000000E-03 0. -1.
    9900012    2    1    2    0    0 -0.18517244730E+00  0.97948528028E+01 -0.39461254460E+02  0.50528880066E+02  0.30000061449E+02 0.  0.
        -12    1    1    2    0    0  0.18517244730E+00 -0.97948528028E+01  0.39461254460E+02  0.40659119934E+02  0.00000000000E+00 0.  1.
         11    1    3    3    0    0  0.66054132027E+01  0.91936991331E+01 -0.32515779486E+02  0.34430095892E+02  0.51100000000E-03 0. -1.
        -11    1    3    3    0    0 -0.18209680172E+01 -0.30902643556E+01 -0.89092326608E+01  0.96041701970E+01  0.51100000000E-03 0.  1.
        -12    1    3    3    0    0 -0.49696176328E+01  0.36914180253E+01  0.19637576868E+01  0.64946139767E+01  0.00000000000E+00 0.  1.
</event>
<event>
 7    1  0.5373252E-013  0.5052892E+02  0.7816164E-02  0.1300439E+00
        -11   -1    0    0    0    0  0.00000000000E+00  0.00000000000E+00  0.45593999997E+02  0.45594000000E+02  0.51100000000E-03 0.  1.
         11   -1    0    0    0    0 -0.00000000000E+00 -0.00000000000E+00 -0.45593999997E+02  0.45594000000E+02  0.51100000000E-03 0. -1.
    9900012    2    1    2    0    0 -0.32475739971E+02  0.18383389795E+02 -0.16141179806E+02  0.50528924843E+02  0.30000197553E+02 0.  0.
        -12    1    1    2    0    0  0.32475739971E+02 -0.18383389795E+02  0.16141179806E+02  0.40659075157E+02  0.00000000000E+00 0.  1.
         11    1    3    3    0    0 -0.89499450972E+01  0.12978633908E+02 -0.18267405077E+02  0.24129743966E+02  0.51100000000E-03 0. -1.
        -11    1    3    3    0    0  0.75477232794E+00  0.52774398910E+00  0.13339426697E+01  0.16209868267E+01  0.51100000000E-03 0.  1.
         12    1    3    3    0    0 -0.24280567202E+02  0.48770118983E+01  0.79228260051E+00  0.24778194051E+02  0.00000000000E+00 0. -1.
</event>
<event>
 7    1  0.5373252E-013  0.5052887E+02  0.7816164E-02  0.1300439E+00
        -11   -1    0    0    0    0  0.00000000000E+00  0.00000000000E+00  0.45593999997E+02  0.45594000000E+02  0.51100000000E-03 0.  1.
         11   -1    0    0    0    0 -0.00000000000E+00 -0.00000000000E+00 -0.45593999997E+02  0.45594000000E+02  0.51100000000E-03 0. -1.
    9900012    2    1    2    0    0 -0.20369060422E+02 -0.24374710101E+02 -0.25379903508E+02  0.50528872894E+02  0.30000039648E+02 0.  0.
        -12    1    1    2    0    0  0.20369060422E+02  0.24374710101E+02  0.25379903508E+02  0.40659127106E+02  0.00000000000E+00 0.  1.
         11    1    3    3    0    0 -0.70334764289E+01  0.32829347246E+01 -0.51044878137E+01  0.92899541002E+01  0.51100000000E-03 0. -1.
        -11    1    3    3    0    0  0.42422276814E+01 -0.60054621622E+01 -0.11990827396E+01  0.74498235657E+01  0.51100000000E-03 0.  1.
        -12    1    3    3    0    0 -0.17577811674E+02 -0.21652182663E+02 -0.19076332954E+02  0.33789095228E+02  0.00000000000E+00 0.  1.
</event>
<event>
 7    1  0.5373252E-013  0.5052885E+02  0.7816164E-02  0.1300439E+00
        -11   -1    0    0    0    0  0.00000000000E+00  0.00000000000E+00  0.45593999997E+02  0.45594000000E+02  0.51100000000E-03 0.  1.
         11   -1    0    0    0    0 -0.00000000000E+00 -0.00000000000E+00 -0.45593999997E+02  0.45594000000E+02  0.51100000000E-03 0. -1.
    9900012    2    1    2    0    0 -0.20897503022E+02 -0.12849255635E+02 -0.32424644129E+02  0.50528849126E+02  0.29999967403E+02 0.  0.
        -12    1    1    2    0    0  0.20897503022E+02  0.12849255635E+02  0.32424644129E+02  0.40659150874E+02  0.00000000000E+00 0.  1.
         11    1    3    3    0    0  0.19715367981E+00 -0.62265521497E+01 -0.14912978105E+02  0.16161860582E+02  0.51100000000E-03 0. -1.
        -11    1    3    3    0    0 -0.17979332800E+02 -0.13127731932E+02 -0.14390304927E+02  0.26508010671E+02  0.51100000000E-03 0.  1.
         12    1    3    3    0    0 -0.31153239017E+01  0.65050284467E+01 -0.31213610972E+01  0.78589778727E+01  0.00000000000E+00 0. -1.
</event>
<event>
 7    1  0.5373252E-013  0.5052886E+02  0.7816164E-02  0.1300439E+00
        -11   -1    0    0    0    0  0.00000000000E+00  0.00000000000E+00  0.45593999997E+02  0.45594000000E+02  0.51100000000E-03 0.  1.
         11   -1    0    0    0    0 -0.00000000000E+00 -0.00000000000E+00 -0.45593999997E+02  0.45594000000E+02  0.51100000000E-03 0. -1.
    9900012    2    1    2    0    0  0.60462086839E+00 -0.29914919792E+02 -0.27529936253E+02  0.50528863479E+02  0.30000011030E+02 0.  0.
        -12    1    1    2    0    0 -0.60462086839E+00  0.29914919792E+02  0.27529936253E+02  0.40659136521E+02  0.00000000000E+00 0.  1.
         11    1    3    3    0    0 -0.69546645323E+01 -0.23086268425E+02 -0.98671449555E+01  0.26051942315E+02  0.51100000000E-03 0. -1.
        -11    1    3    3    0    0  0.23928806972E+01 -0.40618737834E+01  0.10823709830E+01  0.48369643238E+01  0.51100000000E-03 0.  1.
        -12    1    3    3    0    0  0.51664047034E+01 -0.27667775835E+01 -0.18745162280E+02  0.19639956840E+02  0.00000000000E+00 0.  1.
</event>
<event>
 7    1  0.5373252E-013  0.5052885E+02  0.7816164E-02  0.1300439E+00
        -11   -1    0    0    0    0  0.00000000000E+00  0.00000000000E+00  0.45593999997E+02  0.45594000000E+02  0.51100000000E-03 0. -1.
         11   -1    0    0    0    0 -0.00000000000E+00 -0.00000000000E+00 -0.45593999997E+02  0.45594000000E+02  0.51100000000E-03 0.  1.
    9900012    2    1    2    0    0  0.30887985264E+02  0.25413278246E+02  0.72982432201E+01  0.50528847292E+02  0.29999961827E+02 0.  0.
        -12    1    1    2    0    0 -0.30887985264E+02 -0.25413278246E+02 -0.72982432201E+01  0.40659152708E+02  0.00000000000E+00 0.  1.
         11    1    3    3    0    0  0.15052433340E+02  0.44156354360E+01  0.23374580383E+01  0.15859927367E+02  0.51100000000E-03 0. -1.
        -11    1    3    3    0    0  0.37300870723E+01 -0.22302490186E+01  0.71684496952E+01  0.83829727153E+01  0.51100000000E-03 0.  1.
        -12    1    3    3    0    0  0.12105464852E+02  0.23227891828E+02 -0.22076645134E+01  0.26285947209E+02  0.00000000000E+00 0.  1.
</event>
<event>
 7    1  0.5373252E-013  0.5052886E+02  0.7816164E-02  0.1300439E+00
        -11   -1    0    0    0    0  0.00000000000E+00  0.00000000000E+00  0.45593999997E+02  0.45594000000E+02  0.51100000000E-03 0.  1.
         11   -1    0    0    0    0 -0.00000000000E+00 -0.00000000000E+00 -0.45593999997E+02  0.45594000000E+02  0.51100000000E-03 0. -1.
    9900012    2    1    2    0    0  0.77171753736E+01  0.28044872080E+02 -0.28409441463E+02  0.50528855765E+02  0.29999987582E+02 0.  0.
        -12    1    1    2    0    0 -0.77171753736E+01 -0.28044872080E+02  0.28409441463E+02  0.40659144235E+02  0.00000000000E+00 0.  1.
         11    1    3    3    0    0  0.20719526179E+01  0.49840661285E+01  0.22958160122E+01  0.58655497821E+01  0.51100000000E-03 0. -1.
        -11    1    3    3    0    0 -0.51592595587E+01  0.17419285792E+02 -0.10270147040E+02  0.20869245247E+02  0.51100000000E-03 0.  1.
         12    1    3    3    0    0  0.10804482314E+02  0.56415201595E+01 -0.20435110435E+02  0.23794060736E+02  0.00000000000E+00 0. -1.
</event>
<event>
 7    1  0.5373252E-013  0.5052885E+02  0.7816164E-02  0.1300439E+00
        -11   -1    0    0    0    0  0.00000000000E+00  0.00000000000E+00  0.45593999997E+02  0.45594000000E+02  0.51100000000E-03 0. -1.
         11   -1    0    0    0    0 -0.00000000000E+00 -0.00000000000E+00 -0.45593999997E+02  0.45594000000E+02  0.51100000000E-03 0.  1.
    9900012    2    1    2    0    0 -0.84486643916E+01 -0.35088767447E+02  0.18723371133E+02  0.50528853950E+02  0.29999982065E+02 0.  0.
        -12    1    1    2    0    0  0.84486643916E+01  0.35088767447E+02 -0.18723371133E+02  0.40659146050E+02  0.00000000000E+00 0.  1.
         11    1    3    3    0    0  0.80798444448E+01 -0.16147572825E+02  0.97672176186E+01  0.20528675911E+02  0.51100000000E-03 0. -1.
        -11    1    3    3    0    0 -0.28367597667E+01 -0.11784775481E+01 -0.32454654718E+01  0.44686756086E+01  0.51100000000E-03 0.  1.
        -12    1    3    3    0    0 -0.13691749070E+02 -0.17762717074E+02  0.12201618986E+02  0.25531502430E+02  0.00000000000E+00 0.  1.
</event>
<event>
 7    1  0.5373252E-013  0.5052887E+02  0.7816164E-02  0.1300439E+00
        -11   -1    0    0    0    0  0.00000000000E+00  0.00000000000E+00  0.45593999997E+02  0.45594000000E+02  0.51100000000E-03 0. -1.
         11   -1    0    0    0    0 -0.00000000000E+00 -0.00000000000E+00 -0.45593999997E+02  0.45594000000E+02  0.51100000000E-03 0.  1.
    9900012    2    1    2    0    0 -0.68471072424E+01 -0.22685456454E+02  0.33040158771E+02  0.50528869368E+02  0.30000028931E+02 0.  0.
        -12    1    1    2    0    0  0.68471072424E+01  0.22685456454E+02 -0.33040158771E+02  0.40659130632E+02  0.00000000000E+00 0.  1.
         11    1    3    3    0    0 -0.14411274245E+01 -0.44249120753E+01 -0.16693979350E+01  0.49440453936E+01  0.51100000000E-03 0. -1.
        -11    1    3    3    0    0  0.29095233804E+01  0.35974026442E+01  0.12516776148E+02  0.13344523876E+02  0.51100000000E-03 0.  1.
         12    1    3    3    0    0 -0.83155031984E+01 -0.21857947023E+02  0.22192780558E+02  0.32240300098E+02  0.00000000000E+00 0. -1.
</event>
<event>
 7    1  0.5373252E-013  0.5052900E+02  0.7816164E-02  0.1300438E+00
        -11   -1    0    0    0    0  0.00000000000E+00  0.00000000000E+00  0.45593999997E+02  0.45594000000E+02  0.51100000000E-03 0.  1.
         11   -1    0    0    0    0 -0.00000000000E+00 -0.00000000000E+00 -0.45593999997E+02  0.45594000000E+02  0.51100000000E-03 0. -1.
    9900012    2    1    2    0    0 -0.16267129576E+02 -0.29397565681E+02 -0.22897980719E+02  0.50529004763E+02  0.30000440476E+02 0.  0.
        -12    1    1    2    0    0  0.16267129576E+02  0.29397565681E+02  0.22897980719E+02  0.40658995237E+02  0.00000000000E+00 0.  1.
         11    1    3    3    0    0 -0.82500959753E+01 -0.14020900393E+02 -0.61161674010E+01  0.17379793881E+02  0.51100000000E-03 0. -1.
        -11    1    3    3    0    0 -0.90569288556E+01  0.33945823047E+01 -0.71312654241E+01  0.12016908759E+02  0.51100000000E-03 0.  1.
         12    1    3    3    0    0  0.10398952549E+01 -0.18771247593E+02 -0.96505478940E+01  0.21132302123E+02  0.00000000000E+00 0. -1.
</event>
<event>
 7    1  0.5373252E-013  0.5052886E+02  0.7816164E-02  0.1300439E+00
        -11   -1    0    0    0    0  0.00000000000E+00  0.00000000000E+00  0.45593999997E+02  0.45594000000E+02  0.51100000000E-03 0.  1.
         11   -1    0    0    0    0 -0.00000000000E+00 -0.00000000000E+00 -0.45593999997E+02  0.45594000000E+02  0.51100000000E-03 0. -1.
    9900012    2    1    2    0    0  0.27164890248E+02 -0.15935314579E+02 -0.25715751848E+02  0.50528863192E+02  0.30000010157E+02 0.  0.
        -12    1    1    2    0    0 -0.27164890248E+02  0.15935314579E+02  0.25715751848E+02  0.40659136808E+02  0.00000000000E+00 0.  1.
         11    1    3    3    0    0  0.12080861417E+02 -0.31107987852E+01 -0.24815950540E+02  0.27775091055E+02  0.51100000000E-03 0. -1.
        -11    1    3    3    0    0  0.89717787728E+01 -0.16026079483E+01 -0.34103407500E+01  0.97309604293E+01  0.51100000000E-03 0.  1.
         12    1    3    3    0    0  0.61122500580E+01 -0.11221907846E+02  0.25105394422E+01  0.13022811707E+02  0.00000000000E+00 0. -1.
</event>
<event>
 7    1  0.5373252E-013  0.5052886E+02  0.7816164E-02  0.1300439E+00
        -11   -1    0    0    0    0  0.00000000000E+00  0.00000000000E+00  0.45593999997E+02  0.45594000000E+02  0.51100000000E-03 0.  1.
         11   -1    0    0    0    0 -0.00000000000E+00 -0.00000000000E+00 -0.45593999997E+02  0.45594000000E+02  0.51100000000E-03 0. -1.
    9900012    2    1    2    0    0 -0.63629121685E+01 -0.26916794241E+02 -0.29802100230E+02  0.50528860294E+02  0.30000001351E+02 0.  0.
        -12    1    1    2    0    0  0.63629121685E+01  0.26916794241E+02  0.29802100230E+02  0.40659139706E+02  0.00000000000E+00 0.  1.
         11    1    3    3    0    0 -0.23500096135E+01  0.56187233701E+01 -0.93270307618E+01  0.11139394085E+02  0.51100000000E-03 0. -1.
        -11    1    3    3    0    0  0.20728826675E+01 -0.52428667251E+01 -0.42500600886E+01  0.70602765575E+01  0.51100000000E-03 0.  1.
        -12    1    3    3    0    0 -0.60857852226E+01 -0.27292650886E+02 -0.16225009379E+02  0.32329189652E+02  0.00000000000E+00 0.  1.
</event>
<event>
 7    1  0.5373252E-013  0.5052886E+02  0.7816164E-02  0.1300439E+00
        -11   -1    0    0    0    0  0.00000000000E+00  0.00000000000E+00  0.45593999997E+02  0.45594000000E+02  0.51100000000E-03 0.  1.
         11   -1    0    0    0    0 -0.00000000000E+00 -0.00000000000E+00 -0.45593999997E+02  0.45594000000E+02  0.51100000000E-03 0. -1.
    9900012    2    1    2    0    0 -0.45912894449E+01  0.38733443308E+02  0.11480680041E+02  0.50528861010E+02  0.30000003525E+02 0.  0.
        -12    1    1    2    0    0  0.45912894449E+01 -0.38733443308E+02 -0.11480680041E+02  0.40659138990E+02  0.00000000000E+00 0.  1.
         11    1    3    3    0    0 -0.15340578223E+00  0.24088675492E+01 -0.67740328781E+01  0.71912236719E+01  0.51100000000E-03 0. -1.
        -11    1    3    3    0    0 -0.65427261963E+01  0.15544192455E+02  0.22299029593E+01  0.17011809211E+02  0.51100000000E-03 0.  1.
         12    1    3    3    0    0  0.21048425337E+01  0.20780383303E+02  0.16024809960E+02  0.26325828127E+02  0.00000000000E+00 0. -1.
</event>
<event>
 7    1  0.5373252E-013  0.5052885E+02  0.7816164E-02  0.1300439E+00
        -11   -1    0    0    0    0  0.00000000000E+00  0.00000000000E+00  0.45593999997E+02  0.45594000000E+02  0.51100000000E-03 0.  1.
         11   -1    0    0    0    0 -0.00000000000E+00 -0.00000000000E+00 -0.45593999997E+02  0.45594000000E+02  0.51100000000E-03 0. -1.
    9900012    2    1    2    0    0 -0.13350512806E+01  0.34603243050E+02 -0.21307268407E+02  0.50528850003E+02  0.29999970069E+02 0.  0.
        -12    1    1    2    0    0  0.13350512806E+01 -0.34603243050E+02  0.21307268407E+02  0.40659149997E+02  0.00000000000E+00 0.  1.
         11    1    3    3    0    0  0.26858140042E+01  0.22884122262E+02 -0.16629727583E+02  0.28415567710E+02  0.51100000000E-03 0. -1.
        -11    1    3    3    0    0  0.60077338054E+01  0.86275950712E+01  0.25777116397E+00  0.10516401876E+02  0.51100000000E-03 0.  1.
        -12    1    3    3    0    0 -0.10028599090E+02  0.30915257174E+01 -0.49353119882E+01  0.11596880417E+02  0.00000000000E+00 0.  1.
</event>
<event>
 7    1  0.5373252E-013  0.5052885E+02  0.7816164E-02  0.1300439E+00
        -11   -1    0    0    0    0  0.00000000000E+00  0.00000000000E+00  0.45593999997E+02  0.45594000000E+02  0.51100000000E-03 0. -1.
         11   -1    0    0    0    0 -0.00000000000E+00 -0.00000000000E+00 -0.45593999997E+02  0.45594000000E+02  0.51100000000E-03 0.  1.
    9900012    2    1    2    0    0 -0.32709404236E+02  0.13439554316E+02  0.20065880887E+02  0.50528851934E+02  0.29999975940E+02 0.  0.
        -12    1    1    2    0    0  0.32709404236E+02 -0.13439554316E+02 -0.20065880887E+02  0.40659148066E+02  0.00000000000E+00 0.  1.
         11    1    3    3    0    0 -0.55542110119E+01  0.70954246734E+01  0.15242007734E+02  0.17706301457E+02  0.51100000000E-03 0. -1.
        -11    1    3    3    0    0 -0.30492747971E+01  0.72171329590E+01 -0.12844274735E+01  0.79394482888E+01  0.51100000000E-03 0.  1.
         12    1    3    3    0    0 -0.24105918427E+02 -0.87300331648E+00  0.61083006259E+01  0.24883102188E+02  0.00000000000E+00 0. -1.
</event>
<event>
 7    1  0.5373252E-013  0.5052890E+02  0.7816164E-02  0.1300439E+00
        -11   -1    0    0    0    0  0.00000000000E+00  0.00000000000E+00  0.45593999997E+02  0.45594000000E+02  0.51100000000E-03 0. -1.
         11   -1    0    0    0    0 -0.00000000000E+00 -0.00000000000E+00 -0.45593999997E+02  0.45594000000E+02  0.51100000000E-03 0.  1.
    9900012    2    1    2    0    0  0.32209864553E+02 -0.14024622271E+02  0.20469420500E+02  0.50528897944E+02  0.30000115792E+02 0.  0.
        -12    1    1    2    0    0 -0.32209864553E+02  0.14024622271E+02 -0.20469420500E+02  0.40659102056E+02  0.00000000000E+00 0.  1.
         11    1    3    3    0    0  0.12191576999E+01  0.13771132614E+00  0.11029576594E+02  0.11097606499E+02  0.51100000000E-03 0. -1.
        -11    1    3    3    0    0  0.12615209329E+01 -0.18786561473E+01  0.67879424549E+01  0.71552041910E+01  0.51100000000E-03 0.  1.
         12    1    3    3    0    0  0.29729185920E+02 -0.12283677450E+02  0.26519014515E+01  0.32276087255E+02  0.00000000000E+00 0. -1.
</event>
<event>
 7    1  0.5373252E-013  0.5052886E+02  0.7816164E-02  0.1300439E+00
        -11   -1    0    0    0    0  0.00000000000E+00  0.00000000000E+00  0.45593999997E+02  0.45594000000E+02  0.51100000000E-03 0.  1.
         11   -1    0    0    0    0 -0.00000000000E+00 -0.00000000000E+00 -0.45593999997E+02  0.45594000000E+02  0.51100000000E-03 0. -1.
    9900012    2    1    2    0    0  0.19605635023E+02  0.23668901597E+01 -0.35541274414E+02  0.50528864733E+02  0.30000014843E+02 0.  0.
        -12    1    1    2    0    0 -0.19605635023E+02 -0.23668901597E+01  0.35541274414E+02  0.40659135267E+02  0.00000000000E+00 0.  1.
         11    1    3    3    0    0  0.15504328807E+02  0.17813111086E+01 -0.79878767463E+01  0.17531784170E+02  0.51100000000E-03 0. -1.
        -11    1    3    3    0    0  0.50833153246E+01 -0.65396056486E+01 -0.58703172535E+01  0.10152199843E+02  0.51100000000E-03 0.  1.
        -12    1    3    3    0    0 -0.98200910790E+00  0.71251846997E+01 -0.21683080414E+02  0.22844880720E+02  0.00000000000E+00 0.  1.
</event>
<event>
 7    1  0.5373252E-013  0.5052886E+02  0.7816164E-02  0.1300439E+00
        -11   -1    0    0    0    0  0.00000000000E+00  0.00000000000E+00  0.45593999997E+02  0.45594000000E+02  0.51100000000E-03 0. -1.
         11   -1    0    0    0    0 -0.00000000000E+00 -0.00000000000E+00 -0.45593999997E+02  0.45594000000E+02  0.51100000000E-03 0.  1.
    9900012    2    1    2    0    0 -0.15617747984E+02 -0.14685808687E+02  0.34548211461E+02  0.50528856576E+02  0.29999990048E+02 0.  0.
        -12    1    1    2    0    0  0.15617747984E+02  0.14685808687E+02 -0.34548211461E+02  0.40659143424E+02  0.00000000000E+00 0.  1.
         11    1    3    3    0    0 -0.14593511106E+01 -0.14019581349E+01 -0.30358225300E+01  0.36484806387E+01  0.51100000000E-03 0. -1.
        -11    1    3    3    0    0 -0.10550066873E+02  0.23419219895E+01  0.88259121788E+01  0.13952965121E+02  0.51100000000E-03 0.  1.
         12    1    3    3    0    0 -0.36083300004E+01 -0.15625772541E+02  0.28758121812E+02  0.32927410816E+02  0.00000000000E+00 0. -1.
</event>
<event>
 7    1  0.5373252E-013  0.5052885E+02  0.7816164E-02  0.1300439E+00
        -11   -1    0    0    0    0  0.00000000000E+00  0.00000000000E+00  0.45593999997E+02  0.45594000000E+02  0.51100000000E-03 0.  1.
         11   -1    0    0    0    0 -0.00000000000E+00 -0.00000000000E+00 -0.45593999997E+02  0.45594000000E+02  0.51100000000E-03 0. -1.
    9900012    2    1    2    0    0  0.14204438249E+02 -0.12881864566E+02 -0.35853280406E+02  0.50528853224E+02  0.29999979861E+02 0.  0.
        -12    1    1    2    0    0 -0.14204438249E+02  0.12881864566E+02  0.35853280406E+02  0.40659146776E+02  0.00000000000E+00 0.  1.
         11    1    3    3    0    0 -0.45580622259E+01 -0.22351582800E+01 -0.91616763344E+01  0.10474167142E+02  0.51100000000E-03 0. -1.
        -11    1    3    3    0    0 -0.20296915258E+01 -0.18380696558E+01 -0.13766357884E+02  0.14036052059E+02  0.51100000000E-03 0.  1.
         12    1    3    3    0    0  0.20792192001E+02 -0.88086366300E+01 -0.12925246188E+02  0.26018634024E+02  0.00000000000E+00 0. -1.
</event>
<event>
 7    1  0.5373252E-013  0.5052886E+02  0.7816164E-02  0.1300439E+00
        -11   -1    0    0    0    0  0.00000000000E+00  0.00000000000E+00  0.45593999997E+02  0.45594000000E+02  0.51100000000E-03 0. -1.
         11   -1    0    0    0    0 -0.00000000000E+00 -0.00000000000E+00 -0.45593999997E+02  0.45594000000E+02  0.51100000000E-03 0.  1.
    9900012    2    1    2    0    0  0.30109639893E+02 -0.25187119013E+02  0.10591699149E+02  0.50528862410E+02  0.30000007782E+02 0.  0.
        -12    1    1    2    0    0 -0.30109639893E+02  0.25187119013E+02 -0.10591699149E+02  0.40659137590E+02  0.00000000000E+00 0.  1.
         11    1    3    3    0    0  0.16677959231E+02 -0.23777992334E+00 -0.11318529552E+01  0.16718012884E+02  0.51100000000E-03 0. -1.
        -11    1    3    3    0    0  0.41347559729E+01 -0.94934823161E+00  0.61585721313E+01  0.74783340376E+01  0.51100000000E-03 0.  1.
        -12    1    3    3    0    0  0.92969246892E+01 -0.23999990858E+02  0.55649799730E+01  0.26332515489E+02  0.00000000000E+00 0.  1.
</event>
<event>
 7    1  0.5373252E-013  0.5052885E+02  0.7816164E-02  0.1300439E+00
        -11   -1    0    0    0    0  0.00000000000E+00  0.00000000000E+00  0.45593999997E+02  0.45594000000E+02  0.51100000000E-03 0. -1.
         11   -1    0    0    0    0 -0.00000000000E+00 -0.00000000000E+00 -0.45593999997E+02  0.45594000000E+02  0.51100000000E-03 0.  1.
    9900012    2    1    2    0    0 -0.16631597369E+02 -0.30912650879E+02  0.20517416225E+02  0.50528851166E+02  0.29999973603E+02 0.  0.
        -12    1    1    2    0    0  0.16631597369E+02  0.30912650879E+02 -0.20517416225E+02  0.40659148834E+02  0.00000000000E+00 0.  1.
         11    1    3    3    0    0 -0.15185406089E+02 -0.20261791927E+02  0.23009931818E+01  0.25425014063E+02  0.51100000000E-03 0. -1.
        -11    1    3    3    0    0 -0.50749940740E+01  0.86892392515E+00  0.46206377836E+01  0.69181563604E+01  0.51100000000E-03 0.  1.
         12    1    3    3    0    0  0.36288027942E+01 -0.11519782876E+02  0.13595785259E+02  0.18185680742E+02  0.00000000000E+00 0. -1.
</event>
<event>
 7    1  0.5373252E-013  0.5052887E+02  0.7816164E-02  0.1300439E+00
        -11   -1    0    0    0    0  0.00000000000E+00  0.00000000000E+00  0.45593999997E+02  0.45594000000E+02  0.51100000000E-03 0. -1.
         11   -1    0    0    0    0 -0.00000000000E+00 -0.00000000000E+00 -0.45593999997E+02  0.45594000000E+02  0.51100000000E-03 0.  1.
    9900012    2    1    2    0    0  0.17752843773E+02  0.34555280334E+02  0.11997265571E+02  0.50528865206E+02  0.30000016280E+02 0.  0.
        -12    1    1    2    0    0 -0.17752843773E+02 -0.34555280334E+02 -0.11997265571E+02  0.40659134794E+02  0.00000000000E+00 0.  1.
         11    1    3    3    0    0  0.14526431620E+02  0.19468796694E+02  0.80289575913E+01  0.25583498990E+02  0.51100000000E-03 0. -1.
        -11    1    3    3    0    0 -0.23498561625E+00 -0.45952597053E+01  0.17406234797E+00  0.46045551317E+01  0.51100000000E-03 0.  1.
         12    1    3    3    0    0  0.34613977694E+01  0.19681743346E+02  0.37942456321E+01  0.20340811084E+02  0.00000000000E+00 0. -1.
</event>
<event>
 7    1  0.5373252E-013  0.5052884E+02  0.7816164E-02  0.1300439E+00
        -11   -1    0    0    0    0  0.00000000000E+00  0.00000000000E+00  0.45593999997E+02  0.45594000000E+02  0.51100000000E-03 0.  1.
         11   -1    0    0    0    0 -0.00000000000E+00 -0.00000000000E+00 -0.45593999997E+02  0.45594000000E+02  0.51100000000E-03 0. -1.
    9900012    2    1    2    0    0 -0.34491601940E+02  0.20905001319E+02 -0.51456238902E+01  0.50528841994E+02  0.29999945725E+02 0.  0.
        -12    1    1    2    0    0  0.34491601940E+02 -0.20905001319E+02  0.51456238902E+01  0.40659158006E+02  0.00000000000E+00 0.  1.
         11    1    3    3    0    0 -0.28293245615E+02  0.15523885774E+02  0.13888166552E+01  0.32302129790E+02  0.51100000000E-03 0.  1.
        -11    1    3    3    0    0  0.23143200703E+01 -0.36702610608E+01 -0.36618509882E+00  0.43544213657E+01  0.51100000000E-03 0. -1.
         12    1    3    3    0    0 -0.85126763950E+01  0.90513766053E+01 -0.61682554466E+01  0.13872290839E+02  0.00000000000E+00 0. -1.
</event>
<event>
 7    1  0.5373252E-013  0.5052888E+02  0.7816164E-02  0.1300439E+00
        -11   -1    0    0    0    0  0.00000000000E+00  0.00000000000E+00  0.45593999997E+02  0.45594000000E+02  0.51100000000E-03 0. -1.
         11   -1    0    0    0    0 -0.00000000000E+00 -0.00000000000E+00 -0.45593999997E+02  0.45594000000E+02  0.51100000000E-03 0.  1.
    9900012    2    1    2    0    0  0.17298707274E+02 -0.34187824643E+02  0.13605570316E+02  0.50528878381E+02  0.30000056327E+02 0.  0.
        -12    1    1    2    0    0 -0.17298707274E+02  0.34187824643E+02 -0.13605570316E+02  0.40659121619E+02  0.00000000000E+00 0.  1.
         11    1    3    3    0    0  0.67585823815E+01 -0.93871755888E+01 -0.14574078686E+01  0.11658539330E+02  0.51100000000E-03 0. -1.
        -11    1    3    3    0    0 -0.65999276109E+01 -0.11880392324E+02  0.19823245982E+01  0.13734350269E+02  0.51100000000E-03 0.  1.
        -12    1    3    3    0    0  0.17140052504E+02 -0.12920256731E+02  0.13080653586E+02  0.25135988782E+02  0.00000000000E+00 0.  1.
</event>
<event>
 7    1  0.5373252E-013  0.5052886E+02  0.7816164E-02  0.1300439E+00
        -11   -1    0    0    0    0  0.00000000000E+00  0.00000000000E+00  0.45593999997E+02  0.45594000000E+02  0.51100000000E-03 0.  1.
         11   -1    0    0    0    0 -0.00000000000E+00 -0.00000000000E+00 -0.45593999997E+02  0.45594000000E+02  0.51100000000E-03 0. -1.
    9900012    2    1    2    0    0 -0.37053714891E+02  0.49781692629E+01 -0.15981421532E+02  0.50528858461E+02  0.29999995779E+02 0.  0.
        -12    1    1    2    0    0  0.37053714891E+02 -0.49781692629E+01  0.15981421532E+02  0.40659141539E+02  0.00000000000E+00 0.  1.
         11    1    3    3    0    0  0.10389089815E+01  0.15407016592E+01 -0.42533032024E+01  0.46415171946E+01  0.51100000000E-03 0. -1.
        -11    1    3    3    0    0 -0.15878831590E+02 -0.80622495490E+01 -0.10859733510E+02  0.20858354984E+02  0.51100000000E-03 0.  1.
        -12    1    3    3    0    0 -0.22213792282E+02  0.11499717153E+02 -0.86838482011E+00  0.25028986283E+02  0.00000000000E+00 0.  1.
</event>
<event>
 7    1  0.5373252E-013  0.5052886E+02  0.7816164E-02  0.1300439E+00
        -11   -1    0    0    0    0  0.00000000000E+00  0.00000000000E+00  0.45593999997E+02  0.45594000000E+02  0.51100000000E-03 0. -1.
         11   -1    0    0    0    0 -0.00000000000E+00 -0.00000000000E+00 -0.45593999997E+02  0.45594000000E+02  0.51100000000E-03 0.  1.
    9900012    2    1    2    0    0 -0.40469700810E+02  0.35432980313E-01  0.39201889780E+01  0.50528858091E+02  0.29999994653E+02 0.  0.
        -12    1    1    2    0    0  0.40469700810E+02 -0.35432980313E-01 -0.39201889780E+01  0.40659141909E+02  0.00000000000E+00 0.  1.
         11    1    3    3    0    0 -0.29977796295E+02 -0.91690801449E+00  0.17960833076E+01  0.30045547200E+02  0.51100000000E-03 0. -1.
        -11    1    3    3    0    0 -0.78343135147E+01 -0.65939634935E+01 -0.33673462163E+01  0.10779417591E+02  0.51100000000E-03 0.  1.
         12    1    3    3    0    0 -0.26575910001E+01  0.75463044883E+01  0.54914518866E+01  0.97038933000E+01  0.00000000000E+00 0. -1.
</event>
<event>
 7    1  0.5373252E-013  0.5052886E+02  0.7816164E-02  0.1300439E+00
        -11   -1    0    0    0    0  0.00000000000E+00  0.00000000000E+00  0.45593999997E+02  0.45594000000E+02  0.51100000000E-03 0.  1.
         11   -1    0    0    0    0 -0.00000000000E+00 -0.00000000000E+00 -0.45593999997E+02  0.45594000000E+02  0.51100000000E-03 0. -1.
    9900012    2    1    2    0    0  0.15416185520E+02  0.14638979041E+02 -0.34658434905E+02  0.50528860887E+02  0.30000003153E+02 0.  0.
        -12    1    1    2    0    0 -0.15416185520E+02 -0.14638979041E+02  0.34658434905E+02  0.40659139113E+02  0.00000000000E+00 0.  1.
         11    1    3    3    0    0  0.12764911943E+01  0.34804151190E+01 -0.13143781316E+02  0.13656562771E+02  0.51100000000E-03 0.  1.
        -11    1    3    3    0    0  0.13668688952E+02 -0.28676709155E+01 -0.17269442959E+02  0.22210138553E+02  0.51100000000E-03 0. -1.
        -12    1    3    3    0    0  0.47100537372E+00  0.14026234838E+02 -0.42452106288E+01  0.14662159563E+02  0.00000000000E+00 0.  1.
</event>
<event>
 7    1  0.5373252E-013  0.5052886E+02  0.7816164E-02  0.1300439E+00
        -11   -1    0    0    0    0  0.00000000000E+00  0.00000000000E+00  0.45593999997E+02  0.45594000000E+02  0.51100000000E-03 0.  1.
         11   -1    0    0    0    0 -0.00000000000E+00 -0.00000000000E+00 -0.45593999997E+02  0.45594000000E+02  0.51100000000E-03 0. -1.
    9900012    2    1    2    0    0 -0.83026041393E+01 -0.38293695331E+02  0.10854734063E+02  0.50528860939E+02  0.30000003311E+02 0.  0.
        -12    1    1    2    0    0  0.83026041393E+01  0.38293695331E+02 -0.10854734063E+02  0.40659139061E+02  0.00000000000E+00 0.  1.
         11    1    3    3    0    0  0.30995719798E+01 -0.75633247787E+01  0.88097045722E+00  0.82211518277E+01  0.51100000000E-03 0. -1.
        -11    1    3    3    0    0 -0.15795385824E+01 -0.24804875899E+01  0.11976134995E+02  0.12331892413E+02  0.51100000000E-03 0.  1.
         12    1    3    3    0    0 -0.98226375367E+01 -0.28249882962E+02 -0.20023713889E+01  0.29975816698E+02  0.00000000000E+00 0. -1.
</event>
<event>
 7    1  0.5373252E-013  0.5052895E+02  0.7816164E-02  0.1300438E+00
        -11   -1    0    0    0    0  0.00000000000E+00  0.00000000000E+00  0.45593999997E+02  0.45594000000E+02  0.51100000000E-03 0. -1.
         11   -1    0    0    0    0 -0.00000000000E+00 -0.00000000000E+00 -0.45593999997E+02  0.45594000000E+02  0.51100000000E-03 0.  1.
    9900012    2    1    2    0    0  0.30473002122E+02  0.11235120844E+02  0.24460711297E+02  0.50528951857E+02  0.30000279665E+02 0.  0.
        -12    1    1    2    0    0 -0.30473002122E+02 -0.11235120844E+02 -0.24460711297E+02  0.40659048143E+02  0.00000000000E+00 0.  1.
         11    1    3    3    0    0  0.10144612681E+02 -0.86490652259E+01  0.80420981789E+01  0.15569034623E+02  0.51100000000E-03 0. -1.
        -11    1    3    3    0    0 -0.17632137169E+00 -0.34392807324E+00  0.32782780312E+01  0.33009821049E+01  0.51100000000E-03 0.  1.
         12    1    3    3    0    0  0.20504710813E+02  0.20228114143E+02  0.13140335086E+02  0.31658935129E+02  0.00000000000E+00 0. -1.
</event>
<event>
 7    1  0.5373252E-013  0.5052886E+02  0.7816164E-02  0.1300439E+00
        -11   -1    0    0    0    0  0.00000000000E+00  0.00000000000E+00  0.45593999997E+02  0.45594000000E+02  0.51100000000E-03 0.  1.
         11   -1    0    0    0    0 -0.00000000000E+00 -0.00000000000E+00 -0.45593999997E+02  0.45594000000E+02  0.51100000000E-03 0. -1.
    9900012    2    1    2    0    0 -0.29996810192E+01  0.27378281803E+02 -0.29909818393E+02  0.50528860350E+02  0.30000001521E+02 0.  0.
        -12    1    1    2    0    0  0.29996810192E+01 -0.27378281803E+02  0.29909818393E+02  0.40659139650E+02  0.00000000000E+00 0.  1.
         11    1    3    3    0    0  0.60823545123E+01  0.12954442063E+02 -0.21589620268E+02  0.25902206646E+02  0.51100000000E-03 0. -1.
        -11    1    3    3    0    0  0.37688551303E+01  0.20506014514E-01 -0.50869571708E+00  0.38030857318E+01  0.51100000000E-03 0.  1.
         12    1    3    3    0    0 -0.12850890662E+02  0.14403333726E+02 -0.78115024088E+01  0.20823567973E+02  0.00000000000E+00 0. -1.
</event>
<event>
 7    1  0.5373252E-013  0.5052886E+02  0.7816164E-02  0.1300439E+00
        -11   -1    0    0    0    0  0.00000000000E+00  0.00000000000E+00  0.45593999997E+02  0.45594000000E+02  0.51100000000E-03 0. -1.
         11   -1    0    0    0    0 -0.00000000000E+00 -0.00000000000E+00 -0.45593999997E+02  0.45594000000E+02  0.51100000000E-03 0.  1.
    9900012    2    1    2    0    0 -0.11283851420E+01  0.23406825416E+02  0.33226692586E+02  0.50528857986E+02  0.29999994335E+02 0.  0.
        -12    1    1    2    0    0  0.11283851420E+01 -0.23406825416E+02 -0.33226692586E+02  0.40659142014E+02  0.00000000000E+00 0.  1.
         11    1    3    3    0    0  0.65586341433E+01 -0.36473985552E+01  0.72408049656E+00  0.75394622403E+01  0.51100000000E-03 0. -1.
        -11    1    3    3    0    0 -0.17907684220E+01  0.61613179289E+01  0.79344648029E+01  0.10204137501E+02  0.51100000000E-03 0.  1.
         12    1    3    3    0    0 -0.58962508633E+01  0.20892906042E+02  0.24568147286E+02  0.32785258245E+02  0.00000000000E+00 0. -1.
</event>
<event>
 7    1  0.5373252E-013  0.5052886E+02  0.7816164E-02  0.1300439E+00
        -11   -1    0    0    0    0  0.00000000000E+00  0.00000000000E+00  0.45593999997E+02  0.45594000000E+02  0.51100000000E-03 0.  1.
         11   -1    0    0    0    0 -0.00000000000E+00 -0.00000000000E+00 -0.45593999997E+02  0.45594000000E+02  0.51100000000E-03 0. -1.
    9900012    2    1    2    0    0  0.37726524692E+01  0.22307456511E+02 -0.33783280446E+02  0.50528861294E+02  0.30000004388E+02 0.  0.
        -12    1    1    2    0    0 -0.37726524692E+01 -0.22307456511E+02  0.33783280446E+02  0.40659138706E+02  0.00000000000E+00 0.  1.
         11    1    3    3    0    0  0.38625915751E+01  0.29468134827E+01 -0.22696832075E+02  0.23210978219E+02  0.51100000000E-03 0. -1.
        -11    1    3    3    0    0  0.25694973486E+01  0.52244859865E+01  0.35316288530E+01  0.68095501367E+01  0.51100000000E-03 0.  1.
         12    1    3    3    0    0 -0.26594364545E+01  0.14136157041E+02 -0.14618077224E+02  0.20508332938E+02  0.00000000000E+00 0. -1.
</event>
<event>
 7    1  0.5373252E-013  0.5052885E+02  0.7816164E-02  0.1300439E+00
        -11   -1    0    0    0    0  0.00000000000E+00  0.00000000000E+00  0.45593999997E+02  0.45594000000E+02  0.51100000000E-03 0.  1.
         11   -1    0    0    0    0 -0.00000000000E+00 -0.00000000000E+00 -0.45593999997E+02  0.45594000000E+02  0.51100000000E-03 0. -1.
    9900012    2    1    2    0    0 -0.27786281249E+01  0.11783805416E+02 -0.38814782912E+02  0.50528853221E+02  0.29999979850E+02 0.  0.
        -12    1    1    2    0    0  0.27786281249E+01 -0.11783805416E+02  0.38814782912E+02  0.40659146779E+02  0.00000000000E+00 0.  1.
         11    1    3    3    0    0 -0.57416504469E+01  0.73900901771E+01 -0.18817942533E+02  0.21016539775E+02  0.51100000000E-03 0. -1.
        -11    1    3    3    0    0  0.97628019662E+01  0.82059460470E+01 -0.16786429549E+02  0.21081605015E+02  0.51100000000E-03 0.  1.
        -12    1    3    3    0    0 -0.67997796443E+01 -0.38122308083E+01 -0.32104108299E+01  0.84307084307E+01  0.00000000000E+00 0.  1.
</event>
<event>
 7    1  0.5373252E-013  0.5052886E+02  0.7816164E-02  0.1300439E+00
        -11   -1    0    0    0    0  0.00000000000E+00  0.00000000000E+00  0.45593999997E+02  0.45594000000E+02  0.51100000000E-03 0. -1.
         11   -1    0    0    0    0 -0.00000000000E+00 -0.00000000000E+00 -0.45593999997E+02  0.45594000000E+02  0.51100000000E-03 0.  1.
    9900012    2    1    2    0    0 -0.39024022104E+02  0.50399270130E+01 -0.10241620462E+02  0.50528856439E+02  0.29999989631E+02 0.  0.
        -12    1    1    2    0    0  0.39024022104E+02 -0.50399270130E+01  0.10241620462E+02  0.40659143561E+02  0.00000000000E+00 0.  1.
         11    1    3    3    0    0 -0.16984280854E+02  0.55691253753E+01 -0.10933557685E+02  0.20952890910E+02  0.51100000000E-03 0. -1.
        -11    1    3    3    0    0 -0.13172801411E+01  0.72108830813E+01 -0.96376330308E+00  0.73933011400E+01  0.51100000000E-03 0.  1.
         12    1    3    3    0    0 -0.20722461108E+02 -0.77400814436E+01  0.16557005261E+01  0.22182664389E+02  0.00000000000E+00 0. -1.
</event>
<event>
 7    1  0.5373252E-013  0.5052887E+02  0.7816164E-02  0.1300439E+00
        -11   -1    0    0    0    0  0.00000000000E+00  0.00000000000E+00  0.45593999997E+02  0.45594000000E+02  0.51100000000E-03 0.  1.
         11   -1    0    0    0    0 -0.00000000000E+00 -0.00000000000E+00 -0.45593999997E+02  0.45594000000E+02  0.51100000000E-03 0. -1.
    9900012    2    1    2    0    0 -0.24101472986E+02 -0.23482650156E+02 -0.22822118783E+02  0.50528868625E+02  0.30000026672E+02 0.  0.
        -12    1    1    2    0    0  0.24101472986E+02  0.23482650156E+02  0.22822118783E+02  0.40659131375E+02  0.00000000000E+00 0.  1.
         11    1    3    3    0    0 -0.13471715753E+02 -0.23763029645E+02 -0.16520719909E+02  0.31923390951E+02  0.51100000000E-03 0. -1.
        -11    1    3    3    0    0 -0.35624954645E+00  0.11915959352E+01  0.39031926045E+01  0.40965506687E+01  0.51100000000E-03 0.  1.
        -12    1    3    3    0    0 -0.10273507686E+02 -0.91121644638E+00 -0.10204591478E+02  0.14508927005E+02  0.00000000000E+00 0.  1.
</event>
<event>
 7    1  0.5373252E-013  0.5052886E+02  0.7816164E-02  0.1300439E+00
        -11   -1    0    0    0    0  0.00000000000E+00  0.00000000000E+00  0.45593999997E+02  0.45594000000E+02  0.51100000000E-03 0.  1.
         11   -1    0    0    0    0 -0.00000000000E+00 -0.00000000000E+00 -0.45593999997E+02  0.45594000000E+02  0.51100000000E-03 0. -1.
    9900012    2    1    2    0    0  0.51320482201E+01 -0.33139322861E+02 -0.22991577465E+02  0.50528864828E+02  0.30000015131E+02 0.  0.
        -12    1    1    2    0    0 -0.51320482201E+01  0.33139322861E+02  0.22991577465E+02  0.40659135172E+02  0.00000000000E+00 0.  1.
         11    1    3    3    0    0  0.12057876967E+01  0.28820131160E+00  0.12972771265E+01  0.17944113714E+01  0.51100000000E-03 0.  1.
        -11    1    3    3    0    0  0.94483500585E+01 -0.34743384422E+02 -0.17970996999E+02  0.40240909698E+02  0.51100000000E-03 0. -1.
         12    1    3    3    0    0 -0.55220895352E+01  0.13158602492E+01 -0.63178575919E+01  0.84935437587E+01  0.00000000000E+00 0. -1.
</event>
<event>
 7    1  0.5373252E-013  0.5052894E+02  0.7816164E-02  0.1300439E+00
        -11   -1    0    0    0    0  0.00000000000E+00  0.00000000000E+00  0.45593999997E+02  0.45594000000E+02  0.51100000000E-03 0.  1.
         11   -1    0    0    0    0 -0.00000000000E+00 -0.00000000000E+00 -0.45593999997E+02  0.45594000000E+02  0.51100000000E-03 0. -1.
    9900012    2    1    2    0    0  0.29003759421E+02 -0.11217025726E+02 -0.26193881899E+02  0.50528939809E+02  0.30000243042E+02 0.  0.
        -12    1    1    2    0    0 -0.29003759421E+02  0.11217025726E+02  0.26193881899E+02  0.40659060191E+02  0.00000000000E+00 0.  1.
         11    1    3    3    0    0  0.63612527463E+01 -0.10921484427E+02 -0.28323087203E+01  0.12952464304E+02  0.51100000000E-03 0. -1.
        -11    1    3    3    0    0 -0.23919706111E+01  0.31559385804E+01 -0.47903878947E+01  0.62152464288E+01  0.51100000000E-03 0.  1.
         12    1    3    3    0    0  0.25034477285E+02 -0.34514798794E+01 -0.18571185284E+02  0.31361229076E+02  0.00000000000E+00 0. -1.
</event>
<event>
 7    1  0.5373252E-013  0.5052886E+02  0.7816164E-02  0.1300439E+00
        -11   -1    0    0    0    0  0.00000000000E+00  0.00000000000E+00  0.45593999997E+02  0.45594000000E+02  0.51100000000E-03 0.  1.
         11   -1    0    0    0    0 -0.00000000000E+00 -0.00000000000E+00 -0.45593999997E+02  0.45594000000E+02  0.51100000000E-03 0. -1.
    9900012    2    1    2    0    0  0.15568190320E+02  0.35478196908E+02 -0.12332651642E+02  0.50528864468E+02  0.30000014036E+02 0.  0.
        -12    1    1    2    0    0 -0.15568190320E+02 -0.35478196908E+02  0.12332651642E+02  0.40659135532E+02  0.00000000000E+00 0.  1.
         11    1    3    3    0    0  0.12801107189E+02  0.20203539666E+02 -0.87667253523E+00  0.23933656538E+02  0.51100000000E-03 0. -1.
        -11    1    3    3    0    0 -0.54937093811E+01  0.13856837058E+02 -0.41414360835E+01  0.15470755285E+02  0.51100000000E-03 0.  1.
         12    1    3    3    0    0  0.82607925115E+01  0.14178201852E+01 -0.73145430230E+01  0.11124452644E+02  0.00000000000E+00 0. -1.
</event>
<event>
 7    1  0.5373252E-013  0.5052884E+02  0.7816164E-02  0.1300439E+00
        -11   -1    0    0    0    0  0.00000000000E+00  0.00000000000E+00  0.45593999997E+02  0.45594000000E+02  0.51100000000E-03 0. -1.
         11   -1    0    0    0    0 -0.00000000000E+00 -0.00000000000E+00 -0.45593999997E+02  0.45594000000E+02  0.51100000000E-03 0.  1.
    9900012    2    1    2    0    0 -0.12907539631E+02 -0.34040004199E+02  0.18106373473E+02  0.50528840816E+02  0.29999942144E+02 0.  0.
        -12    1    1    2    0    0  0.12907539631E+02  0.34040004199E+02 -0.18106373473E+02  0.40659159184E+02  0.00000000000E+00 0.  1.
         11    1    3    3    0    0 -0.68611998228E+01 -0.13726710681E+02  0.44350711728E+01  0.15973994670E+02  0.51100000000E-03 0. -1.
        -11    1    3    3    0    0  0.30339266189E+01 -0.22103465371E+02  0.80068902130E+01  0.23703969779E+02  0.51100000000E-03 0.  1.
         12    1    3    3    0    0 -0.90802664268E+01  0.17901718530E+01  0.56644120875E+01  0.10850876367E+02  0.00000000000E+00 0. -1.
</event>
<event>
 7    1  0.5373252E-013  0.5052877E+02  0.7816164E-02  0.1300439E+00
        -11   -1    0    0    0    0  0.00000000000E+00  0.00000000000E+00  0.45593999997E+02  0.45594000000E+02  0.51100000000E-03 0.  1.
         11   -1    0    0    0    0 -0.00000000000E+00 -0.00000000000E+00 -0.45593999997E+02  0.45594000000E+02  0.51100000000E-03 0. -1.
    9900012    2    1    2    0    0 -0.39283394682E+02 -0.55540629489E+01 -0.88960857889E+01  0.50528769125E+02  0.29999724231E+02 0.  0.
        -12    1    1    2    0    0  0.39283394682E+02  0.55540629489E+01  0.88960857889E+01  0.40659230875E+02  0.00000000000E+00 0.  1.
         11    1    3    3    0    0 -0.18230656702E+02  0.55921481955E+01 -0.10570936349E+02  0.21803065398E+02  0.51100000000E-03 0. -1.
        -11    1    3    3    0    0  0.37438602424E+00  0.24182267981E+01  0.23000054782E+01  0.33582750339E+01  0.51100000000E-03 0.  1.
         12    1    3    3    0    0 -0.21427124005E+02 -0.13564437942E+02 -0.62515491818E+00  0.25367428693E+02  0.00000000000E+00 0. -1.
</event>
<event>
 7    1  0.5373252E-013  0.5052887E+02  0.7816164E-02  0.1300439E+00
        -11   -1    0    0    0    0  0.00000000000E+00  0.00000000000E+00  0.45593999997E+02  0.45594000000E+02  0.51100000000E-03 0. -1.
         11   -1    0    0    0    0 -0.00000000000E+00 -0.00000000000E+00 -0.45593999997E+02  0.45594000000E+02  0.51100000000E-03 0.  1.
    9900012    2    1    2    0    0  0.82601376934E+01  0.17441672792E+02  0.35787194638E+02  0.50528866652E+02  0.30000020676E+02 0.  0.
        -12    1    1    2    0    0 -0.82601376934E+01 -0.17441672792E+02 -0.35787194638E+02  0.40659133348E+02  0.00000000000E+00 0.  1.
         11    1    3    3    0    0  0.35417799518E+01  0.15434412490E+02  0.18340838791E+02  0.24231212556E+02  0.51100000000E-03 0. -1.
        -11    1    3    3    0    0  0.31548475500E+01  0.28473878275E+01  0.21477043874E+02  0.21893471500E+02  0.51100000000E-03 0.  1.
         12    1    3    3    0    0  0.15635101916E+01 -0.84012752473E+00 -0.40306880262E+01  0.44041825964E+01  0.00000000000E+00 0. -1.
</event>
<event>
 7    1  0.5373252E-013  0.5052886E+02  0.7816164E-02  0.1300439E+00
        -11   -1    0    0    0    0  0.00000000000E+00  0.00000000000E+00  0.45593999997E+02  0.45594000000E+02  0.51100000000E-03 0. -1.
         11   -1    0    0    0    0 -0.00000000000E+00 -0.00000000000E+00 -0.45593999997E+02  0.45594000000E+02  0.51100000000E-03 0.  1.
    9900012    2    1    2    0    0  0.25554875826E+02 -0.30838949834E+02  0.70052420651E+01  0.50528856849E+02  0.29999990879E+02 0.  0.
        -12    1    1    2    0    0 -0.25554875826E+02  0.30838949834E+02 -0.70052420651E+01  0.40659143151E+02  0.00000000000E+00 0.  1.
         11    1    3    3    0    0  0.18499214642E+02 -0.14108531445E+02 -0.59934608219E+00  0.23272963239E+02  0.51100000000E-03 0. -1.
        -11    1    3    3    0    0  0.75902300122E+01 -0.68890433325E+01 -0.48775836373E+01  0.11351710535E+02  0.51100000000E-03 0.  1.
        -12    1    3    3    0    0 -0.53456882831E+00 -0.98413750564E+01  0.12482171785E+02  0.15904183075E+02  0.00000000000E+00 0.  1.
</event>
<event>
 7    1  0.5373252E-013  0.5052886E+02  0.7816164E-02  0.1300439E+00
        -11   -1    0    0    0    0  0.00000000000E+00  0.00000000000E+00  0.45593999997E+02  0.45594000000E+02  0.51100000000E-03 0.  1.
         11   -1    0    0    0    0 -0.00000000000E+00 -0.00000000000E+00 -0.45593999997E+02  0.45594000000E+02  0.51100000000E-03 0. -1.
    9900012    2    1    2    0    0 -0.13393230437E+02  0.10114817584E+02 -0.37033466402E+02  0.50528858469E+02  0.29999995803E+02 0.  0.
        -12    1    1    2    0    0  0.13393230437E+02 -0.10114817584E+02  0.37033466402E+02  0.40659141531E+02  0.00000000000E+00 0.  1.
         11    1    3    3    0    0 -0.52987056583E+00 -0.74108736892E+01 -0.15685048445E+02  0.17355764363E+02  0.51100000000E-03 0. -1.
        -11    1    3    3    0    0 -0.78563295749E+01  0.34105130474E+01 -0.14187604354E+02  0.16572315203E+02  0.51100000000E-03 0.  1.
        -12    1    3    3    0    0 -0.50070302962E+01  0.14115178225E+02 -0.71608136033E+01  0.16600778903E+02  0.00000000000E+00 0.  1.
</event>
<event>
 7    1  0.5373252E-013  0.5052885E+02  0.7816164E-02  0.1300439E+00
        -11   -1    0    0    0    0  0.00000000000E+00  0.00000000000E+00  0.45593999997E+02  0.45594000000E+02  0.51100000000E-03 0.  1.
         11   -1    0    0    0    0 -0.00000000000E+00 -0.00000000000E+00 -0.45593999997E+02  0.45594000000E+02  0.51100000000E-03 0. -1.
    9900012    2    1    2    0    0 -0.17687148564E+02  0.10011623955E+02 -0.35215029839E+02  0.50528853857E+02  0.29999981783E+02 0.  0.
        -12    1    1    2    0    0  0.17687148564E+02 -0.10011623955E+02  0.35215029839E+02  0.40659146143E+02  0.00000000000E+00 0.  1.
         11    1    3    3    0    0 -0.68741114183E+01  0.37945797520E+00 -0.29006886196E+02  0.29812696007E+02  0.51100000000E-03 0. -1.
        -11    1    3    3    0    0  0.29009015064E+01  0.34165865949E+00 -0.22451289984E+01  0.36840961809E+01  0.51100000000E-03 0.  1.
         12    1    3    3    0    0 -0.13713938652E+02  0.92905073201E+01 -0.39630146445E+01  0.17032061669E+02  0.00000000000E+00 0. -1.
</event>
<event>
 7    1  0.5373252E-013  0.5052886E+02  0.7816164E-02  0.1300439E+00
        -11   -1    0    0    0    0  0.00000000000E+00  0.00000000000E+00  0.45593999997E+02  0.45594000000E+02  0.51100000000E-03 0.  1.
         11   -1    0    0    0    0 -0.00000000000E+00 -0.00000000000E+00 -0.45593999997E+02  0.45594000000E+02  0.51100000000E-03 0. -1.
    9900012    2    1    2    0    0 -0.64696826750E+01  0.38169684878E+02 -0.12425135666E+02  0.50528860388E+02  0.30000001637E+02 0.  0.
        -12    1    1    2    0    0  0.64696826750E+01 -0.38169684878E+02  0.12425135666E+02  0.40659139612E+02  0.00000000000E+00 0.  1.
         11    1    3    3    0    0 -0.42584303057E+01  0.19085473589E+02  0.15277067255E+01  0.19614367664E+02  0.51100000000E-03 0. -1.
        -11    1    3    3    0    0 -0.82961220351E+01  0.42143931881E+01  0.47945025488E+00  0.93175438595E+01  0.51100000000E-03 0.  1.
        -12    1    3    3    0    0  0.60848696658E+01  0.14869818102E+02 -0.14432292646E+02  0.21596948865E+02  0.00000000000E+00 0.  1.
</event>
<event>
 7    1  0.5373252E-013  0.5052886E+02  0.7816164E-02  0.1300439E+00
        -11   -1    0    0    0    0  0.00000000000E+00  0.00000000000E+00  0.45593999997E+02  0.45594000000E+02  0.51100000000E-03 0.  1.
         11   -1    0    0    0    0 -0.00000000000E+00 -0.00000000000E+00 -0.45593999997E+02  0.45594000000E+02  0.51100000000E-03 0. -1.
    9900012    2    1    2    0    0  0.23634501213E+02 -0.24906570610E+02 -0.21777021608E+02  0.50528861086E+02  0.30000003756E+02 0.  0.
        -12    1    1    2    0    0 -0.23634501213E+02  0.24906570610E+02  0.21777021608E+02  0.40659138914E+02  0.00000000000E+00 0.  1.
         11    1    3    3    0    0  0.16806010959E+02 -0.80614111136E+01 -0.99865751902E+01  0.21146158937E+02  0.51100000000E-03 0. -1.
        -11    1    3    3    0    0  0.58991741535E+01 -0.51139574731E+00 -0.11597180286E+02  0.13021381346E+02  0.51100000000E-03 0.  1.
        -12    1    3    3    0    0  0.92931610062E+00 -0.16333763749E+02 -0.19326613174E+00  0.16361320803E+02  0.00000000000E+00 0.  1.
</event>
<event>
 7    1  0.5373252E-013  0.5052886E+02  0.7816164E-02  0.1300439E+00
        -11   -1    0    0    0    0  0.00000000000E+00  0.00000000000E+00  0.45593999997E+02  0.45594000000E+02  0.51100000000E-03 0. -1.
         11   -1    0    0    0    0 -0.00000000000E+00 -0.00000000000E+00 -0.45593999997E+02  0.45594000000E+02  0.51100000000E-03 0.  1.
    9900012    2    1    2    0    0 -0.27780797812E+02 -0.13547866668E+02  0.26416817224E+02  0.50528860184E+02  0.30000001015E+02 0.  0.
        -12    1    1    2    0    0  0.27780797812E+02  0.13547866668E+02 -0.26416817224E+02  0.40659139816E+02  0.00000000000E+00 0.  1.
         11    1    3    3    0    0 -0.83905516466E+01 -0.53144675933E+01  0.22700457081E+02  0.24778128958E+02  0.51100000000E-03 0. -1.
        -11    1    3    3    0    0 -0.78811133409E+00  0.29371567059E+01 -0.15631479396E+01  0.34192748840E+01  0.51100000000E-03 0.  1.
        -12    1    3    3    0    0 -0.18602134831E+02 -0.11170555781E+02  0.52795080832E+01  0.22331456342E+02  0.00000000000E+00 0.  1.
</event>
<event>
 7    1  0.5373252E-013  0.5052886E+02  0.7816164E-02  0.1300439E+00
        -11   -1    0    0    0    0  0.00000000000E+00  0.00000000000E+00  0.45593999997E+02  0.45594000000E+02  0.51100000000E-03 0. -1.
         11   -1    0    0    0    0 -0.00000000000E+00 -0.00000000000E+00 -0.45593999997E+02  0.45594000000E+02  0.51100000000E-03 0.  1.
    9900012    2    1    2    0    0  0.11353538418E+02  0.38069543665E+02  0.86586749048E+01  0.50528860307E+02  0.30000001390E+02 0.  0.
        -12    1    1    2    0    0 -0.11353538418E+02 -0.38069543665E+02 -0.86586749048E+01  0.40659139693E+02  0.00000000000E+00 0.  1.
         11    1    3    3    0    0 -0.10663421806E+01 -0.15382929845E+01 -0.20488710103E+01  0.27751222731E+01  0.51100000000E-03 0. -1.
        -11    1    3    3    0    0  0.11205360636E+02  0.15411408732E+02 -0.39199290629E+01  0.19453469362E+02  0.51100000000E-03 0.  1.
         12    1    3    3    0    0  0.12145199620E+01  0.24196427917E+02  0.14627474978E+02  0.28300268672E+02  0.00000000000E+00 0. -1.
</event>
<event>
 7    1  0.5373252E-013  0.5052887E+02  0.7816164E-02  0.1300439E+00
        -11   -1    0    0    0    0  0.00000000000E+00  0.00000000000E+00  0.45593999997E+02  0.45594000000E+02  0.51100000000E-03 0.  1.
         11   -1    0    0    0    0 -0.00000000000E+00 -0.00000000000E+00 -0.45593999997E+02  0.45594000000E+02  0.51100000000E-03 0. -1.
    9900012    2    1    2    0    0  0.20180288859E+02  0.34817572987E+02 -0.58015328190E+01  0.50528865354E+02  0.30000016730E+02 0.  0.
        -12    1    1    2    0    0 -0.20180288859E+02 -0.34817572987E+02  0.58015328190E+01  0.40659134646E+02  0.00000000000E+00 0.  1.
         11    1    3    3    0    0  0.61420453717E+00  0.15425857545E+02 -0.99806163543E+01  0.18383335695E+02  0.51100000000E-03 0. -1.
        -11    1    3    3    0    0  0.12562009330E+02  0.46629395627E+01 -0.38851766592E+01  0.13951404292E+02  0.51100000000E-03 0.  1.
         12    1    3    3    0    0  0.70040749917E+01  0.14728775879E+02  0.80642601945E+01  0.18194125367E+02  0.00000000000E+00 0. -1.
</event>
<event>
 7    1  0.5373252E-013  0.5052886E+02  0.7816164E-02  0.1300439E+00
        -11   -1    0    0    0    0  0.00000000000E+00  0.00000000000E+00  0.45593999997E+02  0.45594000000E+02  0.51100000000E-03 0.  1.
         11   -1    0    0    0    0 -0.00000000000E+00 -0.00000000000E+00 -0.45593999997E+02  0.45594000000E+02  0.51100000000E-03 0. -1.
    9900012    2    1    2    0    0  0.88487616706E+01  0.32130131604E+02 -0.23292050381E+02  0.50528861409E+02  0.30000004740E+02 0.  0.
        -12    1    1    2    0    0 -0.88487616706E+01 -0.32130131604E+02  0.23292050381E+02  0.40659138591E+02  0.00000000000E+00 0.  1.
         11    1    3    3    0    0 -0.13708164869E+01  0.91873741413E+01 -0.11347242500E+00  0.92897716713E+01  0.51100000000E-03 0.  1.
        -11    1    3    3    0    0  0.14122002212E+02  0.16970794849E+02 -0.25506845705E+02  0.33734818843E+02  0.51100000000E-03 0. -1.
         12    1    3    3    0    0 -0.39024240546E+01  0.59719626136E+01  0.23282677486E+01  0.75042708952E+01  0.00000000000E+00 0. -1.
</event>
<event>
 7    1  0.5373252E-013  0.5052886E+02  0.7816164E-02  0.1300439E+00
        -11   -1    0    0    0    0  0.00000000000E+00  0.00000000000E+00  0.45593999997E+02  0.45594000000E+02  0.51100000000E-03 0. -1.
         11   -1    0    0    0    0 -0.00000000000E+00 -0.00000000000E+00 -0.45593999997E+02  0.45594000000E+02  0.51100000000E-03 0.  1.
    9900012    2    1    2    0    0  0.28518999115E+01  0.32026704494E+02 -0.24886194242E+02  0.50528858375E+02  0.29999995517E+02 0.  0.
        -12    1    1    2    0    0 -0.28518999115E+01 -0.32026704494E+02  0.24886194242E+02  0.40659141625E+02  0.00000000000E+00 0.  1.
         11    1    3    3    0    0  0.69132776542E+01  0.25897112758E+02 -0.19227850567E+02  0.32987332338E+02  0.51100000000E-03 0. -1.
        -11    1    3    3    0    0  0.36766701257E+01  0.54328433540E+01 -0.70703884272E+01  0.96448993201E+01  0.51100000000E-03 0.  1.
         12    1    3    3    0    0 -0.77380478684E+01  0.69674838201E+00  0.14120447523E+01  0.78966267168E+01  0.00000000000E+00 0. -1.
</event>
<event>
 7    1  0.5373252E-013  0.5052886E+02  0.7816164E-02  0.1300439E+00
        -11   -1    0    0    0    0  0.00000000000E+00  0.00000000000E+00  0.45593999997E+02  0.45594000000E+02  0.51100000000E-03 0. -1.
         11   -1    0    0    0    0 -0.00000000000E+00 -0.00000000000E+00 -0.45593999997E+02  0.45594000000E+02  0.51100000000E-03 0.  1.
    9900012    2    1    2    0    0  0.24715556021E+02  0.20385134804E+02  0.25035048141E+02  0.50528855078E+02  0.29999985494E+02 0.  0.
        -12    1    1    2    0    0 -0.24715556021E+02 -0.20385134804E+02 -0.25035048141E+02  0.40659144922E+02  0.00000000000E+00 0.  1.
         11    1    3    3    0    0  0.10924985603E+02  0.84983508211E+01  0.15253115291E+02  0.20596961024E+02  0.51100000000E-03 0. -1.
        -11    1    3    3    0    0 -0.15487764120E+01  0.12212051000E+02  0.75151179290E+01  0.14422548171E+02  0.51100000000E-03 0.  1.
         12    1    3    3    0    0  0.15339346830E+02 -0.32526701689E+00  0.22668149209E+01  0.15509345882E+02  0.00000000000E+00 0. -1.
</event>
<event>
 7    1  0.5373252E-013  0.5052885E+02  0.7816164E-02  0.1300439E+00
        -11   -1    0    0    0    0  0.00000000000E+00  0.00000000000E+00  0.45593999997E+02  0.45594000000E+02  0.51100000000E-03 0.  1.
         11   -1    0    0    0    0 -0.00000000000E+00 -0.00000000000E+00 -0.45593999997E+02  0.45594000000E+02  0.51100000000E-03 0. -1.
    9900012    2    1    2    0    0  0.35795914170E+02 -0.19258377374E+02 -0.96624827578E+00  0.50528853353E+02  0.29999980251E+02 0.  0.
        -12    1    1    2    0    0 -0.35795914170E+02  0.19258377374E+02  0.96624827578E+00  0.40659146647E+02  0.00000000000E+00 0.  1.
         11    1    3    3    0    0  0.35852504257E+01 -0.14484032251E+02  0.23683329765E+00  0.14923045974E+02  0.51100000000E-03 0. -1.
        -11    1    3    3    0    0 -0.79792305525E+00 -0.26282409028E-01  0.19516181808E+01  0.21085980537E+01  0.51100000000E-03 0.  1.
         12    1    3    3    0    0  0.33008586799E+02 -0.47480627141E+01 -0.31546997542E+01  0.33497209325E+02  0.00000000000E+00 0. -1.
</event>
<event>
 7    1  0.5373252E-013  0.5052885E+02  0.7816164E-02  0.1300439E+00
        -11   -1    0    0    0    0  0.00000000000E+00  0.00000000000E+00  0.45593999997E+02  0.45594000000E+02  0.51100000000E-03 0. -1.
         11   -1    0    0    0    0 -0.00000000000E+00 -0.00000000000E+00 -0.45593999997E+02  0.45594000000E+02  0.51100000000E-03 0.  1.
    9900012    2    1    2    0    0 -0.33272174158E+02 -0.18322661795E+02  0.14505477722E+02  0.50528851062E+02  0.29999973287E+02 0.  0.
        -12    1    1    2    0    0  0.33272174158E+02  0.18322661795E+02 -0.14505477722E+02  0.40659148938E+02  0.00000000000E+00 0.  1.
         11    1    3    3    0    0 -0.67278623958E+00 -0.58614839465E+01 -0.59421962546E+01  0.83737286777E+01  0.51100000000E-03 0.  1.
        -11    1    3    3    0    0 -0.64252631260E+01  0.20256490913E+01  0.20806469209E+01  0.70509823677E+01  0.51100000000E-03 0. -1.
         12    1    3    3    0    0 -0.26174124792E+02 -0.14486826940E+02  0.18367027055E+02  0.35104140016E+02  0.00000000000E+00 0. -1.
</event>
<event>
 7    1  0.5373252E-013  0.5052885E+02  0.7816164E-02  0.1300439E+00
        -11   -1    0    0    0    0  0.00000000000E+00  0.00000000000E+00  0.45593999997E+02  0.45594000000E+02  0.51100000000E-03 0.  1.
         11   -1    0    0    0    0 -0.00000000000E+00 -0.00000000000E+00 -0.45593999997E+02  0.45594000000E+02  0.51100000000E-03 0. -1.
    9900012    2    1    2    0    0  0.13221519296E+02 -0.31387084126E+02 -0.22208301958E+02  0.50528852219E+02  0.29999976805E+02 0.  0.
        -12    1    1    2    0    0 -0.13221519296E+02  0.31387084126E+02  0.22208301958E+02  0.40659147781E+02  0.00000000000E+00 0.  1.
         11    1    3    3    0    0 -0.29940533448E+01 -0.77616097955E+01 -0.15448925490E+02  0.17546402512E+02  0.51100000000E-03 0. -1.
        -11    1    3    3    0    0  0.25982601422E+01 -0.16891544272E+02 -0.36970021229E+01  0.17485509676E+02  0.51100000000E-03 0.  1.
        -12    1    3    3    0    0  0.13617312498E+02 -0.67339300584E+01 -0.30623743444E+01  0.15496940031E+02  0.00000000000E+00 0.  1.
</event>
<event>
 7    1  0.5373252E-013  0.5052885E+02  0.7816164E-02  0.1300439E+00
        -11   -1    0    0    0    0  0.00000000000E+00  0.00000000000E+00  0.45593999997E+02  0.45594000000E+02  0.51100000000E-03 0. -1.
         11   -1    0    0    0    0 -0.00000000000E+00 -0.00000000000E+00 -0.45593999997E+02  0.45594000000E+02  0.51100000000E-03 0.  1.
    9900012    2    1    2    0    0  0.30910643065E+02 -0.11296566113E+02  0.23876470905E+02  0.50528854368E+02  0.29999983336E+02 0.  0.
        -12    1    1    2    0    0 -0.30910643065E+02  0.11296566113E+02 -0.23876470905E+02  0.40659145632E+02  0.00000000000E+00 0.  1.
         11    1    3    3    0    0 -0.23729995108E+00  0.20002919851E+01  0.81796355437E+01  0.84240083797E+01  0.51100000000E-03 0. -1.
        -11    1    3    3    0    0  0.10449323141E+02  0.25846732254E-01 -0.33582087369E+01  0.10975727235E+02  0.51100000000E-03 0.  1.
         12    1    3    3    0    0  0.20698619875E+02 -0.13322704830E+02  0.19055044099E+02  0.31129118753E+02  0.00000000000E+00 0. -1.
</event>
<event>
 7    1  0.5373252E-013  0.5052886E+02  0.7816164E-02  0.1300439E+00
        -11   -1    0    0    0    0  0.00000000000E+00  0.00000000000E+00  0.45593999997E+02  0.45594000000E+02  0.51100000000E-03 0. -1.
         11   -1    0    0    0    0 -0.00000000000E+00 -0.00000000000E+00 -0.45593999997E+02  0.45594000000E+02  0.51100000000E-03 0.  1.
    9900012    2    1    2    0    0 -0.60645125634E+01  0.51751408906E+01  0.39869851463E+02  0.50528862632E+02  0.30000008456E+02 0.  0.
        -12    1    1    2    0    0  0.60645125634E+01 -0.51751408906E+01 -0.39869851463E+02  0.40659137368E+02  0.00000000000E+00 0.  1.
         11    1    3    3    0    0 -0.11654212110E+02 -0.37202138013E-01  0.85369101722E+01  0.14446483291E+02  0.51100000000E-03 0. -1.
        -11    1    3    3    0    0 -0.16844168366E+01  0.89084371511E+01  0.11553237064E+02  0.14685870743E+02  0.51100000000E-03 0.  1.
         12    1    3    3    0    0  0.72741163837E+01 -0.36960941225E+01  0.19779704227E+02  0.21396508599E+02  0.00000000000E+00 0. -1.
</event>
<event>
 7    1  0.5373252E-013  0.5052886E+02  0.7816164E-02  0.1300439E+00
        -11   -1    0    0    0    0  0.00000000000E+00  0.00000000000E+00  0.45593999997E+02  0.45594000000E+02  0.51100000000E-03 0.  1.
         11   -1    0    0    0    0 -0.00000000000E+00 -0.00000000000E+00 -0.45593999997E+02  0.45594000000E+02  0.51100000000E-03 0. -1.
    9900012    2    1    2    0    0  0.83679578677E+01 -0.35795984864E+02 -0.17372123751E+02  0.50528856687E+02  0.29999990387E+02 0.  0.
        -12    1    1    2    0    0 -0.83679578677E+01  0.35795984864E+02  0.17372123751E+02  0.40659143313E+02  0.00000000000E+00 0.  1.
         11    1    3    3    0    0  0.28741970966E+01 -0.30095885418E+02 -0.24679158522E+02  0.39026711284E+02  0.51100000000E-03 0. -1.
        -11    1    3    3    0    0  0.22810152661E+01 -0.39405240294E+01  0.18169940195E+01  0.49022676180E+01  0.51100000000E-03 0.  1.
        -12    1    3    3    0    0  0.32127455050E+01 -0.17595754167E+01  0.54900407510E+01  0.65998777848E+01  0.00000000000E+00 0.  1.
</event>
<event>
 7    1  0.5373252E-013  0.5052886E+02  0.7816164E-02  0.1300439E+00
        -11   -1    0    0    0    0  0.00000000000E+00  0.00000000000E+00  0.45593999997E+02  0.45594000000E+02  0.51100000000E-03 0.  1.
         11   -1    0    0    0    0 -0.00000000000E+00 -0.00000000000E+00 -0.45593999997E+02  0.45594000000E+02  0.51100000000E-03 0. -1.
    9900012    2    1    2    0    0 -0.58626914398E+01  0.64986721828E+00 -0.40228991816E+02  0.50528864976E+02  0.30000015582E+02 0.  0.
        -12    1    1    2    0    0  0.58626914398E+01 -0.64986721828E+00  0.40228991816E+02  0.40659135024E+02  0.00000000000E+00 0.  1.
         11    1    3    3    0    0 -0.98431116740E+01 -0.73521044522E+01 -0.18651063036E+02  0.22333885464E+02  0.51100000000E-03 0. -1.
        -11    1    3    3    0    0 -0.68238673134E+00 -0.24381300749E+01  0.11286757373E+01  0.27720099376E+01  0.51100000000E-03 0.  1.
         12    1    3    3    0    0  0.46628069655E+01  0.10440101745E+02 -0.22706604518E+02  0.25422969575E+02  0.00000000000E+00 0. -1.
</event>
<event>
 7    1  0.5373252E-013  0.5052899E+02  0.7816164E-02  0.1300438E+00
        -11   -1    0    0    0    0  0.00000000000E+00  0.00000000000E+00  0.45593999997E+02  0.45594000000E+02  0.51100000000E-03 0.  1.
         11   -1    0    0    0    0 -0.00000000000E+00 -0.00000000000E+00 -0.45593999997E+02  0.45594000000E+02  0.51100000000E-03 0. -1.
    9900012    2    1    2    0    0  0.18254959176E+02  0.13900732970E+02 -0.33566072983E+02  0.50528989103E+02  0.30000392874E+02 0.  0.
        -12    1    1    2    0    0 -0.18254959176E+02 -0.13900732970E+02  0.33566072983E+02  0.40659010897E+02  0.00000000000E+00 0.  1.
         11    1    3    3    0    0 -0.14708918675E+01  0.44438927022E+01 -0.10420161274E+02  0.11423286150E+02  0.51100000000E-03 0. -1.
        -11    1    3    3    0    0  0.41106887372E+01 -0.39665008533E+01  0.24835110219E+01  0.62288617075E+01  0.51100000000E-03 0.  1.
         12    1    3    3    0    0  0.15615162306E+02  0.13423341121E+02 -0.25629422731E+02  0.32876841245E+02  0.00000000000E+00 0. -1.
</event>
<event>
 7    1  0.5373252E-013  0.5052886E+02  0.7816164E-02  0.1300439E+00
        -11   -1    0    0    0    0  0.00000000000E+00  0.00000000000E+00  0.45593999997E+02  0.45594000000E+02  0.51100000000E-03 0.  1.
         11   -1    0    0    0    0 -0.00000000000E+00 -0.00000000000E+00 -0.45593999997E+02  0.45594000000E+02  0.51100000000E-03 0. -1.
    9900012    2    1    2    0    0  0.86493717637E+01  0.20249359455E+02 -0.34180658251E+02  0.50528860945E+02  0.30000003329E+02 0.  0.
        -12    1    1    2    0    0 -0.86493717637E+01 -0.20249359455E+02  0.34180658251E+02  0.40659139055E+02  0.00000000000E+00 0.  1.
         11    1    3    3    0    0  0.40975954449E+01  0.40579751215E+01 -0.13689205265E+02  0.14854352613E+02  0.51100000000E-03 0. -1.
        -11    1    3    3    0    0  0.42977324760E+01 -0.12328371612E+01 -0.17413957805E+02  0.17978774113E+02  0.51100000000E-03 0.  1.
        -12    1    3    3    0    0  0.25404384276E+00  0.17424221494E+02 -0.30774951802E+01  0.17695734219E+02  0.00000000000E+00 0.  1.
</event>
<event>
 7    1  0.5373252E-013  0.5052891E+02  0.7816164E-02  0.1300439E+00
        -11   -1    0    0    0    0  0.00000000000E+00  0.00000000000E+00  0.45593999997E+02  0.45594000000E+02  0.51100000000E-03 0.  1.
         11   -1    0    0    0    0 -0.00000000000E+00 -0.00000000000E+00 -0.45593999997E+02  0.45594000000E+02  0.51100000000E-03 0. -1.
    9900012    2    1    2    0    0 -0.36416016176E+01 -0.40453182742E+02  0.18547307934E+01  0.50528913898E+02  0.30000164284E+02 0.  0.
        -12    1    1    2    0    0  0.36416016176E+01  0.40453182742E+02 -0.18547307934E+01  0.40659086102E+02  0.00000000000E+00 0.  1.
         11    1    3    3    0    0  0.84867124452E+01 -0.16069759151E+02  0.48039842683E+01  0.18797332588E+02  0.51100000000E-03 0. -1.
        -11    1    3    3    0    0  0.24181144590E+01 -0.30217133496E+00 -0.26446693196E+01  0.35962287363E+01  0.51100000000E-03 0.  1.
         12    1    3    3    0    0 -0.14546428522E+02 -0.24081252256E+02 -0.30458415527E+00  0.28135352574E+02  0.00000000000E+00 0. -1.
</event>
<event>
 7    1  0.5373252E-013  0.5052885E+02  0.7816164E-02  0.1300439E+00
        -11   -1    0    0    0    0  0.00000000000E+00  0.00000000000E+00  0.45593999997E+02  0.45594000000E+02  0.51100000000E-03 0. -1.
         11   -1    0    0    0    0 -0.00000000000E+00 -0.00000000000E+00 -0.45593999997E+02  0.45594000000E+02  0.51100000000E-03 0.  1.
    9900012    2    1    2    0    0  0.23612699411E+02 -0.64352668923E+01  0.32468351952E+02  0.50528854511E+02  0.29999983771E+02 0.  0.
        -12    1    1    2    0    0 -0.23612699411E+02  0.64352668923E+01 -0.32468351952E+02  0.40659145489E+02  0.00000000000E+00 0.  1.
         11    1    3    3    0    0  0.40956901011E+01 -0.89674905825E+01  0.10186603840E+02  0.14175946628E+02  0.51100000000E-03 0.  1.
        -11    1    3    3    0    0  0.38271842100E-01 -0.68857252767E+01  0.73061740066E+01  0.10039664148E+02  0.51100000000E-03 0. -1.
        -12    1    3    3    0    0  0.19478737468E+02  0.94179489669E+01  0.14975574105E+02  0.26313243735E+02  0.00000000000E+00 0.  1.
</event>
<event>
 7    1  0.5373252E-013  0.5052884E+02  0.7816164E-02  0.1300439E+00
        -11   -1    0    0    0    0  0.00000000000E+00  0.00000000000E+00  0.45593999997E+02  0.45594000000E+02  0.51100000000E-03 0. -1.
         11   -1    0    0    0    0 -0.00000000000E+00 -0.00000000000E+00 -0.45593999997E+02  0.45594000000E+02  0.51100000000E-03 0.  1.
    9900012    2    1    2    0    0 -0.23734123601E+02  0.25356183744E+02  0.21140552372E+02  0.50528835821E+02  0.29999926961E+02 0.  0.
        -12    1    1    2    0    0  0.23734123601E+02 -0.25356183744E+02 -0.21140552372E+02  0.40659164179E+02  0.00000000000E+00 0.  1.
         11    1    3    3    0    0 -0.47616812422E+01  0.13755928398E+02  0.85271311733E+01  0.16870422065E+02  0.51100000000E-03 0. -1.
        -11    1    3    3    0    0  0.13280261836E+01  0.10788940634E+02  0.49520456607E+01  0.11945193596E+02  0.51100000000E-03 0.  1.
        -12    1    3    3    0    0 -0.20300468542E+02  0.81131471227E+00  0.76613755382E+01  0.21713220160E+02  0.00000000000E+00 0.  1.
</event>
<event>
 7    1  0.5373252E-013  0.5052886E+02  0.7816164E-02  0.1300439E+00
        -11   -1    0    0    0    0  0.00000000000E+00  0.00000000000E+00  0.45593999997E+02  0.45594000000E+02  0.51100000000E-03 0.  1.
         11   -1    0    0    0    0 -0.00000000000E+00 -0.00000000000E+00 -0.45593999997E+02  0.45594000000E+02  0.51100000000E-03 0. -1.
    9900012    2    1    2    0    0 -0.31020655918E+01 -0.39150810810E+02 -0.10524104129E+02  0.50528861228E+02  0.30000004187E+02 0.  0.
        -12    1    1    2    0    0  0.31020655918E+01  0.39150810810E+02  0.10524104129E+02  0.40659138772E+02  0.00000000000E+00 0.  1.
         11    1    3    3    0    0  0.72574467188E+00 -0.20990544577E+01 -0.62851576657E+01  0.66660289595E+01  0.51100000000E-03 0. -1.
        -11    1    3    3    0    0  0.69301335330E+01 -0.13983065658E+02 -0.89297767130E+01  0.17980372309E+02  0.51100000000E-03 0.  1.
        -12    1    3    3    0    0 -0.10757943797E+02 -0.23068690694E+02  0.46908302501E+01  0.25882459959E+02  0.00000000000E+00 0.  1.
</event>
<event>
 7    1  0.5373252E-013  0.5052886E+02  0.7816164E-02  0.1300439E+00
        -11   -1    0    0    0    0  0.00000000000E+00  0.00000000000E+00  0.45593999997E+02  0.45594000000E+02  0.51100000000E-03 0.  1.
         11   -1    0    0    0    0 -0.00000000000E+00 -0.00000000000E+00 -0.45593999997E+02  0.45594000000E+02  0.51100000000E-03 0. -1.
    9900012    2    1    2    0    0 -0.24874981593E+02  0.44829354801E+01 -0.31848140340E+02  0.50528862492E+02  0.30000008031E+02 0.  0.
        -12    1    1    2    0    0  0.24874981593E+02 -0.44829354801E+01  0.31848140340E+02  0.40659137508E+02  0.00000000000E+00 0.  1.
         11    1    3    3    0    0 -0.56998891661E+01  0.62107028583E+01 -0.12912112113E+02  0.15420253110E+02  0.51100000000E-03 0. -1.
        -11    1    3    3    0    0 -0.16818362479E+02 -0.21454409107E+01 -0.24071298642E+02  0.29442955893E+02  0.51100000000E-03 0.  1.
        -12    1    3    3    0    0 -0.23567299479E+01  0.41767353249E+00  0.51352704146E+01  0.56656534891E+01  0.00000000000E+00 0.  1.
</event>
<event>
 7    1  0.5373252E-013  0.5052890E+02  0.7816164E-02  0.1300439E+00
        -11   -1    0    0    0    0  0.00000000000E+00  0.00000000000E+00  0.45593999997E+02  0.45594000000E+02  0.51100000000E-03 0.  1.
         11   -1    0    0    0    0 -0.00000000000E+00 -0.00000000000E+00 -0.45593999997E+02  0.45594000000E+02  0.51100000000E-03 0. -1.
    9900012    2    1    2    0    0  0.18095973465E+02 -0.24580994441E+02 -0.26860249653E+02  0.50528898254E+02  0.30000116732E+02 0.  0.
        -12    1    1    2    0    0 -0.18095973465E+02  0.24580994441E+02  0.26860249653E+02  0.40659101746E+02  0.00000000000E+00 0.  1.
         11    1    3    3    0    0  0.75579484856E+01 -0.97665027323E+01 -0.10626597749E+02  0.16292076016E+02  0.51100000000E-03 0. -1.
        -11    1    3    3    0    0  0.64402686455E+00 -0.19274477033E+02 -0.10074251511E+02  0.21758004946E+02  0.51100000000E-03 0.  1.
        -12    1    3    3    0    0  0.98939981150E+01  0.44599853238E+01 -0.61594003933E+01  0.12478817291E+02  0.00000000000E+00 0.  1.
</event>
<event>
 7    1  0.6359866E-013  0.5052886E+02  0.7816164E-02  0.1300439E+00
        -11   -1    0    0    0    0  0.00000000000E+00  0.00000000000E+00  0.45593999997E+02  0.45594000000E+02  0.51100000000E-03 0. -1.
         11   -1    0    0    0    0 -0.00000000000E+00 -0.00000000000E+00 -0.45593999997E+02  0.45594000000E+02  0.51100000000E-03 0.  1.
    9900012    2    1    2    0    0 -0.36408131591E+02 -0.72031658020E+01  0.16605060412E+02  0.50528859886E+02  0.30000000111E+02 0.  0.
        -12    1    1    2    0    0  0.36408131591E+02  0.72031658020E+01 -0.16605060412E+02  0.40659140114E+02  0.00000000000E+00 0.  1.
         11    1    3    3    0    0 -0.13171203922E+02 -0.99483054613E+01  0.25837099680E+01  0.16707033003E+02  0.51100000000E-03 0. -1.
        -11    1    3    3    0    0 -0.24542583294E+02 -0.31296508805E+01  0.11745197565E+02  0.27387639100E+02  0.51100000000E-03 0.  1.
        -12    1    3    3    0    0  0.13056556254E+01  0.58747905399E+01  0.22761528793E+01  0.64341877832E+01  0.00000000000E+00 0.  1.
</event>
<event>
 7    1  0.5373252E-013  0.5052886E+02  0.7816164E-02  0.1300439E+00
        -11   -1    0    0    0    0  0.00000000000E+00  0.00000000000E+00  0.45593999997E+02  0.45594000000E+02  0.51100000000E-03 0. -1.
         11   -1    0    0    0    0 -0.00000000000E+00 -0.00000000000E+00 -0.45593999997E+02  0.45594000000E+02  0.51100000000E-03 0.  1.
    9900012    2    1    2    0    0  0.25312267791E+02 -0.17786544660E+02  0.26383588743E+02  0.50528858019E+02  0.29999994435E+02 0.  0.
        -12    1    1    2    0    0 -0.25312267791E+02  0.17786544660E+02 -0.26383588743E+02  0.40659141981E+02  0.00000000000E+00 0.  1.
         11    1    3    3    0    0  0.14432465574E+01 -0.76149879604E+00 -0.26813233546E+01  0.31388431364E+01  0.51100000000E-03 0. -1.
        -11    1    3    3    0    0  0.31999275450E+01 -0.10873172233E+01  0.19188159610E+02  0.19483512633E+02  0.51100000000E-03 0.  1.
         12    1    3    3    0    0  0.20669093688E+02 -0.15937728641E+02  0.98767524874E+01  0.27906502250E+02  0.00000000000E+00 0. -1.
</event>
<event>
 7    1  0.5373252E-013  0.5052886E+02  0.7816164E-02  0.1300439E+00
        -11   -1    0    0    0    0  0.00000000000E+00  0.00000000000E+00  0.45593999997E+02  0.45594000000E+02  0.51100000000E-03 0.  1.
         11   -1    0    0    0    0 -0.00000000000E+00 -0.00000000000E+00 -0.45593999997E+02  0.45594000000E+02  0.51100000000E-03 0. -1.
    9900012    2    1    2    0    0  0.84151417991E+01  0.17564956642E+02 -0.35690667263E+02  0.50528855358E+02  0.29999986347E+02 0.  0.
        -12    1    1    2    0    0 -0.84151417991E+01 -0.17564956642E+02  0.35690667263E+02  0.40659144642E+02  0.00000000000E+00 0.  1.
         11    1    3    3    0    0  0.85817079152E+01  0.55621727723E+01 -0.23759684213E+02  0.25867084699E+02  0.51100000000E-03 0. -1.
        -11    1    3    3    0    0  0.88773112174E+01  0.61935276877E+01 -0.63691603767E+01  0.12559165730E+02  0.51100000000E-03 0.  1.
         12    1    3    3    0    0 -0.90438773335E+01  0.58092561822E+01 -0.55618226731E+01  0.12102604929E+02  0.00000000000E+00 0. -1.
</event>
<event>
 7    1  0.5373252E-013  0.5052890E+02  0.7816164E-02  0.1300439E+00
        -11   -1    0    0    0    0  0.00000000000E+00  0.00000000000E+00  0.45593999997E+02  0.45594000000E+02  0.51100000000E-03 0.  1.
         11   -1    0    0    0    0 -0.00000000000E+00 -0.00000000000E+00 -0.45593999997E+02  0.45594000000E+02  0.51100000000E-03 0. -1.
    9900012    2    1    2    0    0 -0.40073910399E+02  0.63758081474E+01  0.25677653218E+01  0.50528897170E+02  0.30000113436E+02 0.  0.
        -12    1    1    2    0    0  0.40073910399E+02 -0.63758081474E+01 -0.25677653218E+01  0.40659102830E+02  0.00000000000E+00 0.  1.
         11    1    3    3    0    0 -0.97543314263E+01 -0.67284837943E+01  0.10750969173E+02  0.16000087942E+02  0.51100000000E-03 0. -1.
        -11    1    3    3    0    0 -0.17762857602E+01  0.49071330513E+00  0.86735981797E+00  0.20367385607E+01  0.51100000000E-03 0.  1.
         12    1    3    3    0    0 -0.28543293213E+02  0.12613578637E+02 -0.90505636693E+01  0.32492070666E+02  0.00000000000E+00 0. -1.
</event>
<event>
 7    1  0.8215226E-013  0.5052886E+02  0.7816164E-02  0.1300439E+00
        -11   -1    0    0    0    0  0.00000000000E+00  0.00000000000E+00  0.45593999997E+02  0.45594000000E+02  0.51100000000E-03 0.  1.
         11   -1    0    0    0    0 -0.00000000000E+00 -0.00000000000E+00 -0.45593999997E+02  0.45594000000E+02  0.51100000000E-03 0. -1.
    9900012    2    1    2    0    0  0.16561407534E+02  0.33931116684E+02 -0.15085249197E+02  0.50528860286E+02  0.30000001326E+02 0.  0.
        -12    1    1    2    0    0 -0.16561407534E+02 -0.33931116684E+02  0.15085249197E+02  0.40659139714E+02  0.00000000000E+00 0.  1.
         11    1    3    3    0    0  0.11163284365E+02  0.20124888986E+02 -0.99805978977E+01  0.25084704686E+02  0.51100000000E-03 0. -1.
        -11    1    3    3    0    0  0.57574064144E+01  0.67620907880E+01 -0.12428937236E+02  0.15275865983E+02  0.51100000000E-03 0.  1.
        -12    1    3    3    0    0 -0.35928324507E+00  0.70441369097E+01  0.73242859370E+01  0.10168289617E+02  0.00000000000E+00 0.  1.
</event>
<event>
 7    1  0.7239382E-013  0.5052884E+02  0.7816164E-02  0.1300439E+00
        -11   -1    0    0    0    0  0.00000000000E+00  0.00000000000E+00  0.45593999997E+02  0.45594000000E+02  0.51100000000E-03 0.  1.
         11   -1    0    0    0    0 -0.00000000000E+00 -0.00000000000E+00 -0.45593999997E+02  0.45594000000E+02  0.51100000000E-03 0. -1.
    9900012    2    1    2    0    0 -0.19267036800E+02 -0.31321075496E+02 -0.17347598398E+02  0.50528835628E+02  0.29999926374E+02 0.  0.
        -12    1    1    2    0    0  0.19267036800E+02  0.31321075496E+02  0.17347598398E+02  0.40659164372E+02  0.00000000000E+00 0.  1.
         11    1    3    3    0    0 -0.13083545544E+02 -0.26749267859E+02 -0.59617479463E+01  0.30368485867E+02  0.51100000000E-03 0. -1.
        -11    1    3    3    0    0  0.43463945852E+01 -0.17417757568E+00 -0.48101221073E+00  0.43763976883E+01  0.51100000000E-03 0.  1.
        -12    1    3    3    0    0 -0.10529885841E+02 -0.43976300615E+01 -0.10904838241E+02  0.15783952073E+02  0.00000000000E+00 0.  1.
</event>
<event>
 7    1  0.5373252E-013  0.5052885E+02  0.7816164E-02  0.1300439E+00
        -11   -1    0    0    0    0  0.00000000000E+00  0.00000000000E+00  0.45593999997E+02  0.45594000000E+02  0.51100000000E-03 0. -1.
         11   -1    0    0    0    0 -0.00000000000E+00 -0.00000000000E+00 -0.45593999997E+02  0.45594000000E+02  0.51100000000E-03 0.  1.
    9900012    2    1    2    0    0 -0.37386113210E+02 -0.42245231938E+01  0.15414220222E+02  0.50528852908E+02  0.29999978900E+02 0.  0.
        -12    1    1    2    0    0  0.37386113210E+02  0.42245231938E+01 -0.15414220222E+02  0.40659147092E+02  0.00000000000E+00 0.  1.
         11    1    3    3    0    0 -0.44574760812E+01 -0.60785973564E+01 -0.39728837654E+01  0.85206950720E+01  0.51100000000E-03 0.  1.
        -11    1    3    3    0    0 -0.20478033740E+02 -0.39879873491E+01  0.37736943405E+01  0.21201289541E+02  0.51100000000E-03 0. -1.
        -12    1    3    3    0    0 -0.12450603389E+02  0.58420615116E+01  0.15613409647E+02  0.20806868296E+02  0.00000000000E+00 0.  1.
</event>
<event>
 7    1  0.5373252E-013  0.5052886E+02  0.7816164E-02  0.1300439E+00
        -11   -1    0    0    0    0  0.00000000000E+00  0.00000000000E+00  0.45593999997E+02  0.45594000000E+02  0.51100000000E-03 0. -1.
         11   -1    0    0    0    0 -0.00000000000E+00 -0.00000000000E+00 -0.45593999997E+02  0.45594000000E+02  0.51100000000E-03 0.  1.
    9900012    2    1    2    0    0 -0.22600404995E+02  0.18366253002E+02  0.28373722699E+02  0.50528859637E+02  0.29999999351E+02 0.  0.
        -12    1    1    2    0    0  0.22600404995E+02 -0.18366253002E+02 -0.28373722699E+02  0.40659140363E+02  0.00000000000E+00 0.  1.
         11    1    3    3    0    0 -0.14987035932E+02  0.66689409910E+01  0.14337298177E+02  0.21786329182E+02  0.51100000000E-03 0. -1.
        -11    1    3    3    0    0 -0.51385407826E+01 -0.39641701038E+01  0.10738619603E+02  0.12547398027E+02  0.51100000000E-03 0.  1.
        -12    1    3    3    0    0 -0.24748282802E+01  0.15661482115E+02  0.32978049188E+01  0.16195132428E+02  0.00000000000E+00 0.  1.
</event>
<event>
 7    1  0.5373252E-013  0.5052886E+02  0.7816164E-02  0.1300439E+00
        -11   -1    0    0    0    0  0.00000000000E+00  0.00000000000E+00  0.45593999997E+02  0.45594000000E+02  0.51100000000E-03 0.  1.
         11   -1    0    0    0    0 -0.00000000000E+00 -0.00000000000E+00 -0.45593999997E+02  0.45594000000E+02  0.51100000000E-03 0. -1.
    9900012    2    1    2    0    0 -0.89245298895E+00 -0.33709868266E+02 -0.22715944780E+02  0.50528857878E+02  0.29999994005E+02 0.  0.
        -12    1    1    2    0    0  0.89245298895E+00  0.33709868266E+02  0.22715944780E+02  0.40659142122E+02  0.00000000000E+00 0.  1.
         11    1    3    3    0    0 -0.98007329889E+01 -0.20019249141E+02 -0.20162409196E+02  0.30055739022E+02  0.51100000000E-03 0. -1.
        -11    1    3    3    0    0 -0.24680306879E+01 -0.49708534131E+01  0.11521512867E+01  0.56681577236E+01  0.51100000000E-03 0.  1.
         12    1    3    3    0    0  0.11376310688E+02 -0.87197657123E+01 -0.37056868703E+01  0.14804961132E+02  0.00000000000E+00 0. -1.
</event>
<event>
 7    1  0.5373252E-013  0.5052887E+02  0.7816164E-02  0.1300439E+00
        -11   -1    0    0    0    0  0.00000000000E+00  0.00000000000E+00  0.45593999997E+02  0.45594000000E+02  0.51100000000E-03 0. -1.
         11   -1    0    0    0    0 -0.00000000000E+00 -0.00000000000E+00 -0.45593999997E+02  0.45594000000E+02  0.51100000000E-03 0.  1.
    9900012    2    1    2    0    0  0.33639046356E+02  0.38153113381E+01 -0.22517170353E+02  0.50528868171E+02  0.30000025294E+02 0.  0.
        -12    1    1    2    0    0 -0.33639046356E+02 -0.38153113381E+01  0.22517170353E+02  0.40659131829E+02  0.00000000000E+00 0.  1.
         11    1    3    3    0    0  0.17546414719E+02  0.10760326521E+02 -0.12371638857E+02  0.24014969178E+02  0.51100000000E-03 0. -1.
        -11    1    3    3    0    0 -0.31261734732E+01 -0.15849424941E+01 -0.46417864644E+01  0.58164581264E+01  0.51100000000E-03 0.  1.
        -12    1    3    3    0    0  0.19218805110E+02 -0.53600726885E+01 -0.55037450313E+01  0.20697440867E+02  0.00000000000E+00 0.  1.
</event>
<event>
 7    1  0.5373252E-013  0.5052886E+02  0.7816164E-02  0.1300439E+00
        -11   -1    0    0    0    0  0.00000000000E+00  0.00000000000E+00  0.45593999997E+02  0.45594000000E+02  0.51100000000E-03 0. -1.
         11   -1    0    0    0    0 -0.00000000000E+00 -0.00000000000E+00 -0.45593999997E+02  0.45594000000E+02  0.51100000000E-03 0.  1.
    9900012    2    1    2    0    0  0.38159500967E+02  0.77446255537E+01 -0.11706354877E+02  0.50528862239E+02  0.30000007260E+02 0.  0.
        -12    1    1    2    0    0 -0.38159500967E+02 -0.77446255537E+01  0.11706354877E+02  0.40659137761E+02  0.00000000000E+00 0.  1.
         11    1    3    3    0    0  0.24877903139E+02  0.17559898173E+02 -0.38728122097E+01  0.30696233696E+02  0.51100000000E-03 0. -1.
        -11    1    3    3    0    0  0.55890446921E+01 -0.29244556245E+01 -0.70728481489E+01  0.94770798492E+01  0.51100000000E-03 0.  1.
        -12    1    3    3    0    0  0.76925531358E+01 -0.68908169944E+01 -0.76069451871E+00  0.10355548694E+02  0.00000000000E+00 0.  1.
</event>
<event>
 7    1  0.5373252E-013  0.5052886E+02  0.7816164E-02  0.1300439E+00
        -11   -1    0    0    0    0  0.00000000000E+00  0.00000000000E+00  0.45593999997E+02  0.45594000000E+02  0.51100000000E-03 0.  1.
         11   -1    0    0    0    0 -0.00000000000E+00 -0.00000000000E+00 -0.45593999997E+02  0.45594000000E+02  0.51100000000E-03 0. -1.
    9900012    2    1    2    0    0 -0.11024576369E+02 -0.32702125911E+02 -0.21498725654E+02  0.50528861691E+02  0.30000005597E+02 0.  0.
        -12    1    1    2    0    0  0.11024576369E+02  0.32702125911E+02  0.21498725654E+02  0.40659138309E+02  0.00000000000E+00 0.  1.
         11    1    3    3    0    0 -0.13482575042E+02 -0.16872886529E+02 -0.16583599445E+02  0.27230312161E+02  0.51100000000E-03 0. -1.
        -11    1    3    3    0    0 -0.46427236400E+01 -0.26135079484E+01  0.32271143891E+01  0.62289304167E+01  0.51100000000E-03 0.  1.
        -12    1    3    3    0    0  0.71007223134E+01 -0.13215731434E+02 -0.81422405979E+01  0.17069619113E+02  0.00000000000E+00 0.  1.
</event>
<event>
 7    1  0.5373252E-013  0.5052886E+02  0.7816164E-02  0.1300439E+00
        -11   -1    0    0    0    0  0.00000000000E+00  0.00000000000E+00  0.45593999997E+02  0.45594000000E+02  0.51100000000E-03 0.  1.
         11   -1    0    0    0    0 -0.00000000000E+00 -0.00000000000E+00 -0.45593999997E+02  0.45594000000E+02  0.51100000000E-03 0. -1.
    9900012    2    1    2    0    0  0.23191585734E+02  0.27039378095E+02 -0.19600721702E+02  0.50528857020E+02  0.29999991399E+02 0.  0.
        -12    1    1    2    0    0 -0.23191585734E+02 -0.27039378095E+02  0.19600721702E+02  0.40659142980E+02  0.00000000000E+00 0.  1.
         11    1    3    3    0    0  0.33328515488E+01  0.22922754360E+01 -0.16657528705E+02  0.17141636122E+02  0.51100000000E-03 0. -1.
        -11    1    3    3    0    0  0.11232940860E+02  0.11936275816E+02 -0.63397074450E+01  0.17574001578E+02  0.51100000000E-03 0.  1.
        -12    1    3    3    0    0  0.86257933246E+01  0.12810826843E+02  0.33965144478E+01  0.15813219320E+02  0.00000000000E+00 0.  1.
</event>
<event>
 7    1  0.5373252E-013  0.5052888E+02  0.7816164E-02  0.1300439E+00
        -11   -1    0    0    0    0  0.00000000000E+00  0.00000000000E+00  0.45593999997E+02  0.45594000000E+02  0.51100000000E-03 0.  1.
         11   -1    0    0    0    0 -0.00000000000E+00 -0.00000000000E+00 -0.45593999997E+02  0.45594000000E+02  0.51100000000E-03 0. -1.
    9900012    2    1    2    0    0 -0.81772571710E+01 -0.18075983602E+02 -0.35490218413E+02  0.50528876534E+02  0.30000050712E+02 0.  0.
        -12    1    1    2    0    0  0.81772571710E+01  0.18075983602E+02  0.35490218413E+02  0.40659123466E+02  0.00000000000E+00 0.  1.
         11    1    3    3    0    0  0.77489507423E+01 -0.66234581837E+01 -0.15347904773E+02  0.18424836963E+02  0.51100000000E-03 0. -1.
        -11    1    3    3    0    0 -0.46183884601E+01 -0.37128544936E+01  0.18362168217E+01  0.62037482973E+01  0.51100000000E-03 0.  1.
         12    1    3    3    0    0 -0.11307819453E+02 -0.77396709251E+01 -0.21978530461E+02  0.25900291274E+02  0.00000000000E+00 0. -1.
</event>
<event>
 7    1  0.5373252E-013  0.5052886E+02  0.7816164E-02  0.1300439E+00
        -11   -1    0    0    0    0  0.00000000000E+00  0.00000000000E+00  0.45593999997E+02  0.45594000000E+02  0.51100000000E-03 0.  1.
         11   -1    0    0    0    0 -0.00000000000E+00 -0.00000000000E+00 -0.45593999997E+02  0.45594000000E+02  0.51100000000E-03 0. -1.
    9900012    2    1    2    0    0 -0.23044263676E+02 -0.22272019886E+02 -0.25021680134E+02  0.50528862836E+02  0.30000009076E+02 0.  0.
        -12    1    1    2    0    0  0.23044263676E+02  0.22272019886E+02  0.25021680134E+02  0.40659137164E+02  0.00000000000E+00 0.  1.
         11    1    3    3    0    0 -0.16290887554E+02 -0.65717485751E+01 -0.11689085999E+02  0.21100133374E+02  0.51100000000E-03 0. -1.
        -11    1    3    3    0    0 -0.33168077151E+01 -0.18719348423E+01  0.49523202026E+01  0.62474658161E+01  0.51100000000E-03 0.  1.
         12    1    3    3    0    0 -0.34365684072E+01 -0.13828336469E+02 -0.18284914337E+02  0.23181263646E+02  0.00000000000E+00 0. -1.
</event>
<event>
 7    1  0.5373252E-013  0.5052886E+02  0.7816164E-02  0.1300439E+00
        -11   -1    0    0    0    0  0.00000000000E+00  0.00000000000E+00  0.45593999997E+02  0.45594000000E+02  0.51100000000E-03 0. -1.
         11   -1    0    0    0    0 -0.00000000000E+00 -0.00000000000E+00 -0.45593999997E+02  0.45594000000E+02  0.51100000000E-03 0.  1.
    9900012    2    1    2    0    0 -0.29782166154E+02 -0.32598646723E+01  0.27487486842E+02  0.50528855010E+02  0.29999985287E+02 0.  0.
        -12    1    1    2    0    0  0.29782166154E+02  0.32598646723E+01 -0.27487486842E+02  0.40659144990E+02  0.00000000000E+00 0.  1.
         11    1    3    3    0    0 -0.12531099125E+02  0.89175699809E+01  0.19169302137E+02  0.24576689043E+02  0.51100000000E-03 0. -1.
        -11    1    3    3    0    0 -0.84552258314E+01  0.10850475507E+01  0.15774254044E+01  0.86692815858E+01  0.51100000000E-03 0.  1.
         12    1    3    3    0    0 -0.87958411969E+01 -0.13262482204E+02  0.67407593003E+01  0.17282884381E+02  0.00000000000E+00 0. -1.
</event>
<event>
 7    1  0.5373252E-013  0.5052887E+02  0.7816164E-02  0.1300439E+00
        -11   -1    0    0    0    0  0.00000000000E+00  0.00000000000E+00  0.45593999997E+02  0.45594000000E+02  0.51100000000E-03 0.  1.
         11   -1    0    0    0    0 -0.00000000000E+00 -0.00000000000E+00 -0.45593999997E+02  0.45594000000E+02  0.51100000000E-03 0. -1.
    9900012    2    1    2    0    0 -0.30658310288E+01  0.34508939531E+02  0.21281422103E+02  0.50528866289E+02  0.30000019572E+02 0.  0.
        -12    1    1    2    0    0  0.30658310288E+01 -0.34508939531E+02 -0.21281422103E+02  0.40659133711E+02  0.00000000000E+00 0.  1.
         11    1    3    3    0    0  0.82499975502E+01  0.63829998698E+01  0.15579260432E+02  0.18748826704E+02  0.51100000000E-03 0.  1.
        -11    1    3    3    0    0 -0.51065479157E+01  0.12329966610E+02  0.63836932406E+01  0.14793797615E+02  0.51100000000E-03 0. -1.
        -12    1    3    3    0    0 -0.62092806633E+01  0.15795973051E+02 -0.68153156987E+00  0.16986241970E+02  0.00000000000E+00 0.  1.
</event>
<event>
 7    1  0.5373252E-013  0.5052886E+02  0.7816164E-02  0.1300439E+00
        -11   -1    0    0    0    0  0.00000000000E+00  0.00000000000E+00  0.45593999997E+02  0.45594000000E+02  0.51100000000E-03 0.  1.
         11   -1    0    0    0    0 -0.00000000000E+00 -0.00000000000E+00 -0.45593999997E+02  0.45594000000E+02  0.51100000000E-03 0. -1.
    9900012    2    1    2    0    0  0.90776397363E+01 -0.18167449718E+02 -0.35223657203E+02  0.50528858356E+02  0.29999995459E+02 0.  0.
        -12    1    1    2    0    0 -0.90776397363E+01  0.18167449718E+02  0.35223657203E+02  0.40659141644E+02  0.00000000000E+00 0.  1.
         11    1    3    3    0    0  0.69064249219E+01  0.17513451229E+01 -0.21760876979E+02  0.22897634859E+02  0.51100000000E-03 0. -1.
        -11    1    3    3    0    0  0.79636502390E+00 -0.72618394738E+01 -0.12975287147E+02  0.14890486446E+02  0.51100000000E-03 0.  1.
        -12    1    3    3    0    0  0.13748497905E+01 -0.12656955367E+02 -0.48749307724E+00  0.12740737051E+02  0.00000000000E+00 0.  1.
</event>
<event>
 7    1  0.5373252E-013  0.5052886E+02  0.7816164E-02  0.1300439E+00
        -11   -1    0    0    0    0  0.00000000000E+00  0.00000000000E+00  0.45593999997E+02  0.45594000000E+02  0.51100000000E-03 0.  1.
         11   -1    0    0    0    0 -0.00000000000E+00 -0.00000000000E+00 -0.45593999997E+02  0.45594000000E+02  0.51100000000E-03 0. -1.
    9900012    2    1    2    0    0 -0.68374704673E+01  0.35316237620E+02 -0.18951987416E+02  0.50528862416E+02  0.30000007801E+02 0.  0.
        -12    1    1    2    0    0  0.68374704673E+01 -0.35316237620E+02  0.18951987416E+02  0.40659137584E+02  0.00000000000E+00 0.  1.
         11    1    3    3    0    0 -0.38152003979E+01  0.16256625919E+02 -0.32848427521E+01  0.17018338124E+02  0.51100000000E-03 0. -1.
        -11    1    3    3    0    0 -0.95394422254E+01  0.18951099740E+02 -0.16582969689E+02  0.26928424077E+02  0.51100000000E-03 0.  1.
        -12    1    3    3    0    0  0.65171721560E+01  0.10851196127E+00  0.91582502543E+00  0.65821002145E+01  0.00000000000E+00 0.  1.
</event>
<event>
 7    1  0.5373252E-013  0.5052888E+02  0.7816164E-02  0.1300439E+00
        -11   -1    0    0    0    0  0.00000000000E+00  0.00000000000E+00  0.45593999997E+02  0.45594000000E+02  0.51100000000E-03 0.  1.
         11   -1    0    0    0    0 -0.00000000000E+00 -0.00000000000E+00 -0.45593999997E+02  0.45594000000E+02  0.51100000000E-03 0. -1.
    9900012    2    1    2    0    0 -0.18279254186E+02  0.10182740765E+02 -0.34861792627E+02  0.50528881364E+02  0.30000065394E+02 0.  0.
        -12    1    1    2    0    0  0.18279254186E+02 -0.10182740765E+02  0.34861792627E+02  0.40659118636E+02  0.00000000000E+00 0.  1.
         11    1    3    3    0    0 -0.71692794134E+01  0.10359619952E+02 -0.87916332366E+01  0.15362718122E+02  0.51100000000E-03 0.  1.
        -11    1    3    3    0    0 -0.93946977563E+01 -0.88673662072E+01 -0.84270954652E+01  0.15424216921E+02  0.51100000000E-03 0. -1.
         12    1    3    3    0    0 -0.17152770163E+01  0.86904870203E+01 -0.17643063925E+02  0.19741946321E+02  0.00000000000E+00 0. -1.
</event>
<event>
 7    1  0.5373252E-013  0.5052893E+02  0.7816164E-02  0.1300439E+00
        -11   -1    0    0    0    0  0.00000000000E+00  0.00000000000E+00  0.45593999997E+02  0.45594000000E+02  0.51100000000E-03 0.  1.
         11   -1    0    0    0    0 -0.00000000000E+00 -0.00000000000E+00 -0.45593999997E+02  0.45594000000E+02  0.51100000000E-03 0. -1.
    9900012    2    1    2    0    0 -0.10979023938E+02  0.66666075205E+01 -0.38576897294E+02  0.50528934255E+02  0.30000226160E+02 0.  0.
        -12    1    1    2    0    0  0.10979023938E+02 -0.66666075205E+01  0.38576897294E+02  0.40659065745E+02  0.00000000000E+00 0.  1.
         11    1    3    3    0    0 -0.11904753211E+02  0.30426802736E+01 -0.15002105333E+02  0.19391859554E+02  0.51100000000E-03 0. -1.
        -11    1    3    3    0    0 -0.91698045219E+01  0.43782259988E+01 -0.10658033228E+02  0.14725754664E+02  0.51100000000E-03 0.  1.
         12    1    3    3    0    0  0.10095533795E+02 -0.75429875196E+00 -0.12916758733E+02  0.16411320037E+02  0.00000000000E+00 0. -1.
</event>
<event>
 7    1  0.5373252E-013  0.5052886E+02  0.7816164E-02  0.1300439E+00
        -11   -1    0    0    0    0  0.00000000000E+00  0.00000000000E+00  0.45593999997E+02  0.45594000000E+02  0.51100000000E-03 0.  1.
         11   -1    0    0    0    0 -0.00000000000E+00 -0.00000000000E+00 -0.45593999997E+02  0.45594000000E+02  0.51100000000E-03 0. -1.
    9900012    2    1    2    0    0 -0.19028374057E+02  0.34921196448E+02  0.84615024333E+01  0.50528855838E+02  0.29999987804E+02 0.  0.
        -12    1    1    2    0    0  0.19028374057E+02 -0.34921196448E+02 -0.84615024333E+01  0.40659144162E+02  0.00000000000E+00 0.  1.
         11    1    3    3    0    0 -0.12812055176E+02  0.85182107121E+01  0.75100206937E+01  0.17120428810E+02  0.51100000000E-03 0. -1.
        -11    1    3    3    0    0 -0.24091005790E+01 -0.29004909952E+01 -0.60012656648E+00  0.38179530864E+01  0.51100000000E-03 0.  1.
         12    1    3    3    0    0 -0.38072183020E+01  0.29303476731E+02  0.15516083060E+01  0.29590473941E+02  0.00000000000E+00 0. -1.
</event>
<event>
 7    1  0.5373252E-013  0.5052886E+02  0.7816164E-02  0.1300439E+00
        -11   -1    0    0    0    0  0.00000000000E+00  0.00000000000E+00  0.45593999997E+02  0.45594000000E+02  0.51100000000E-03 0. -1.
         11   -1    0    0    0    0 -0.00000000000E+00 -0.00000000000E+00 -0.45593999997E+02  0.45594000000E+02  0.51100000000E-03 0.  1.
    9900012    2    1    2    0    0  0.37954672082E+02 -0.14011200166E+02 -0.40366476390E+01  0.50528863424E+02  0.30000010863E+02 0.  0.
        -12    1    1    2    0    0 -0.37954672082E+02  0.14011200166E+02  0.40366476390E+01  0.40659136576E+02  0.00000000000E+00 0.  1.
         11    1    3    3    0    0  0.24811220258E+02 -0.13761805286E+02 -0.44050791284E+01  0.28712169159E+02  0.51100000000E-03 0. -1.
        -11    1    3    3    0    0  0.35134030142E+00 -0.57211200320E+01 -0.42733823327E+01  0.71495769981E+01  0.51100000000E-03 0.  1.
         12    1    3    3    0    0  0.12792111523E+02  0.54717251521E+01  0.46418138222E+01  0.14667117267E+02  0.00000000000E+00 0. -1.
</event>
<event>
 7    1  0.5373252E-013  0.5052886E+02  0.7816164E-02  0.1300439E+00
        -11   -1    0    0    0    0  0.00000000000E+00  0.00000000000E+00  0.45593999997E+02  0.45594000000E+02  0.51100000000E-03 0.  1.
         11   -1    0    0    0    0 -0.00000000000E+00 -0.00000000000E+00 -0.45593999997E+02  0.45594000000E+02  0.51100000000E-03 0. -1.
    9900012    2    1    2    0    0 -0.13955546652E+02  0.26978611587E+02 -0.27028932925E+02  0.50528856126E+02  0.29999988679E+02 0.  0.
        -12    1    1    2    0    0  0.13955546652E+02 -0.26978611587E+02  0.27028932925E+02  0.40659143874E+02  0.00000000000E+00 0.  1.
         11    1    3    3    0    0 -0.10222599684E+02  0.42950070778E+00 -0.12164992800E+02  0.15895693292E+02  0.51100000000E-03 0. -1.
        -11    1    3    3    0    0 -0.87310865244E+01  0.13248202066E+02 -0.30558188378E+01  0.16158117431E+02  0.51100000000E-03 0.  1.
         12    1    3    3    0    0  0.49981395564E+01  0.13300908814E+02 -0.11808121287E+02  0.18475045403E+02  0.00000000000E+00 0. -1.
</event>
<event>
 7    1  0.5373252E-013  0.5052896E+02  0.7816164E-02  0.1300438E+00
        -11   -1    0    0    0    0  0.00000000000E+00  0.00000000000E+00  0.45593999997E+02  0.45594000000E+02  0.51100000000E-03 0. -1.
         11   -1    0    0    0    0 -0.00000000000E+00 -0.00000000000E+00 -0.45593999997E+02  0.45594000000E+02  0.51100000000E-03 0.  1.
    9900012    2    1    2    0    0  0.39798720317E+02  0.46728880960E+01  0.68835605149E+01  0.50528961307E+02  0.30000308388E+02 0.  0.
        -12    1    1    2    0    0 -0.39798720317E+02 -0.46728880960E+01 -0.68835605149E+01  0.40659038693E+02  0.00000000000E+00 0.  1.
         11    1    3    3    0    0 -0.11787749770E+01  0.31899492494E+00  0.53192846926E+01  0.54576604979E+01  0.51100000000E-03 0. -1.
        -11    1    3    3    0    0  0.28654970859E+02 -0.53304022375E+01 -0.11317994124E+01  0.29168502072E+02  0.51100000000E-03 0.  1.
         12    1    3    3    0    0  0.12322524435E+02  0.96842954085E+01  0.26960752347E+01  0.15902798737E+02  0.00000000000E+00 0. -1.
</event>
<event>
 7    1  0.5373252E-013  0.5052884E+02  0.7816164E-02  0.1300439E+00
        -11   -1    0    0    0    0  0.00000000000E+00  0.00000000000E+00  0.45593999997E+02  0.45594000000E+02  0.51100000000E-03 0. -1.
         11   -1    0    0    0    0 -0.00000000000E+00 -0.00000000000E+00 -0.45593999997E+02  0.45594000000E+02  0.51100000000E-03 0.  1.
    9900012    2    1    2    0    0  0.14796314049E+02  0.66107213551E+01  0.37289870024E+02  0.50528844172E+02  0.29999952345E+02 0.  0.
        -12    1    1    2    0    0 -0.14796314049E+02 -0.66107213551E+01 -0.37289870024E+02  0.40659155828E+02  0.00000000000E+00 0.  1.
         11    1    3    3    0    0  0.58236223925E+01  0.11333363750E+02  0.26118849914E+02  0.29061211825E+02  0.51100000000E-03 0. -1.
        -11    1    3    3    0    0 -0.32220015967E+00 -0.10713153841E+00  0.11084308206E+02  0.11089507598E+02  0.51100000000E-03 0.  1.
        -12    1    3    3    0    0  0.92948918164E+01 -0.46155108564E+01  0.86711903822E-01  0.10378124749E+02  0.00000000000E+00 0.  1.
</event>
<event>
 7    1  0.5373252E-013  0.5052886E+02  0.7816164E-02  0.1300439E+00
        -11   -1    0    0    0    0  0.00000000000E+00  0.00000000000E+00  0.45593999997E+02  0.45594000000E+02  0.51100000000E-03 0.  1.
         11   -1    0    0    0    0 -0.00000000000E+00 -0.00000000000E+00 -0.45593999997E+02  0.45594000000E+02  0.51100000000E-03 0. -1.
    9900012    2    1    2    0    0 -0.22361811913E+02 -0.24537940057E+02 -0.23473492655E+02  0.50528855989E+02  0.29999988266E+02 0.  0.
        -12    1    1    2    0    0  0.22361811913E+02  0.24537940057E+02  0.23473492655E+02  0.40659144011E+02  0.00000000000E+00 0.  1.
         11    1    3    3    0    0  0.69749673504E+00 -0.59907319591E+01 -0.12531245854E+02  0.13907102287E+02  0.51100000000E-03 0. -1.
        -11    1    3    3    0    0 -0.11513887007E+02 -0.29511596791E+00 -0.95810794791E+01  0.14981781326E+02  0.51100000000E-03 0.  1.
        -12    1    3    3    0    0 -0.11545421641E+02 -0.18252092130E+02 -0.13611673212E+01  0.21639972376E+02  0.00000000000E+00 0.  1.
</event>
<event>
 7    1  0.5373252E-013  0.5052885E+02  0.7816164E-02  0.1300439E+00
        -11   -1    0    0    0    0  0.00000000000E+00  0.00000000000E+00  0.45593999997E+02  0.45594000000E+02  0.51100000000E-03 0.  1.
         11   -1    0    0    0    0 -0.00000000000E+00 -0.00000000000E+00 -0.45593999997E+02  0.45594000000E+02  0.51100000000E-03 0. -1.
    9900012    2    1    2    0    0  0.10599350042E+02  0.22218860215E+02 -0.32359578443E+02  0.50528852350E+02  0.29999977204E+02 0.  0.
        -12    1    1    2    0    0 -0.10599350042E+02 -0.22218860215E+02  0.32359578443E+02  0.40659147650E+02  0.00000000000E+00 0.  1.
         11    1    3    3    0    0  0.11865951261E+02  0.10312924748E+02 -0.20472775538E+02  0.25812627814E+02  0.51100000000E-03 0. -1.
        -11    1    3    3    0    0 -0.44127033097E+01 -0.25166541776E+01 -0.79570745228E+01  0.94403672583E+01  0.51100000000E-03 0.  1.
         12    1    3    3    0    0  0.31461020901E+01  0.14422589644E+02 -0.39297283830E+01  0.15275857278E+02  0.00000000000E+00 0. -1.
</event>
<event>
 7    1  0.5373252E-013  0.5052885E+02  0.7816164E-02  0.1300439E+00
        -11   -1    0    0    0    0  0.00000000000E+00  0.00000000000E+00  0.45593999997E+02  0.45594000000E+02  0.51100000000E-03 0.  1.
         11   -1    0    0    0    0 -0.00000000000E+00 -0.00000000000E+00 -0.45593999997E+02  0.45594000000E+02  0.51100000000E-03 0. -1.
    9900012    2    1    2    0    0  0.14125911744E+02  0.40593093875E+01 -0.37909722122E+02  0.50528850886E+02  0.29999972752E+02 0.  0.
        -12    1    1    2    0    0 -0.14125911744E+02 -0.40593093875E+01  0.37909722122E+02  0.40659149114E+02  0.00000000000E+00 0.  1.
         11    1    3    3    0    0  0.10641000595E+02 -0.33278893146E+01 -0.19619964218E+02  0.22566540212E+02  0.51100000000E-03 0. -1.
        -11    1    3    3    0    0 -0.54267938081E+01  0.33817671674E+01 -0.16930510370E+02  0.18097751845E+02  0.51100000000E-03 0.  1.
         12    1    3    3    0    0  0.89117049569E+01  0.40054315347E+01 -0.13592475344E+01  0.98645588283E+01  0.00000000000E+00 0. -1.
</event>
<event>
 7    1  0.5373252E-013  0.5052886E+02  0.7816164E-02  0.1300439E+00
        -11   -1    0    0    0    0  0.00000000000E+00  0.00000000000E+00  0.45593999997E+02  0.45594000000E+02  0.51100000000E-03 0.  1.
         11   -1    0    0    0    0 -0.00000000000E+00 -0.00000000000E+00 -0.45593999997E+02  0.45594000000E+02  0.51100000000E-03 0. -1.
    9900012    2    1    2    0    0 -0.34393628024E+01  0.40344211454E+02 -0.36987382885E+01  0.50528864751E+02  0.30000014896E+02 0.  0.
        -12    1    1    2    0    0  0.34393628024E+01 -0.40344211454E+02  0.36987382885E+01  0.40659135249E+02  0.00000000000E+00 0.  1.
         11    1    3    3    0    0  0.33596339782E+01 -0.98281791781E+00  0.11103047035E+01  0.36723083098E+01  0.51100000000E-03 0. -1.
        -11    1    3    3    0    0 -0.13409124537E+02  0.23390195184E+02 -0.62834925684E+01  0.27683715985E+02  0.51100000000E-03 0.  1.
         12    1    3    3    0    0  0.66101277561E+01  0.17936834187E+02  0.14744495764E+01  0.19172840456E+02  0.00000000000E+00 0. -1.
</event>
<event>
 7    1  0.5373252E-013  0.5052886E+02  0.7816164E-02  0.1300439E+00
        -11   -1    0    0    0    0  0.00000000000E+00  0.00000000000E+00  0.45593999997E+02  0.45594000000E+02  0.51100000000E-03 0. -1.
         11   -1    0    0    0    0 -0.00000000000E+00 -0.00000000000E+00 -0.45593999997E+02  0.45594000000E+02  0.51100000000E-03 0.  1.
    9900012    2    1    2    0    0 -0.55546612450E+01  0.48010800929E+01  0.39990761855E+02  0.50528860002E+02  0.30000000462E+02 0.  0.
        -12    1    1    2    0    0  0.55546612450E+01 -0.48010800929E+01 -0.39990761855E+02  0.40659139998E+02  0.00000000000E+00 0.  1.
         11    1    3    3    0    0  0.51922837565E+01  0.48887406990E+01  0.29165491639E+02  0.30024748109E+02  0.51100000000E-03 0.  1.
        -11    1    3    3    0    0 -0.77894847745E+01  0.77083865528E+00  0.14026072461E+02  0.16062408730E+02  0.51100000000E-03 0. -1.
        -12    1    3    3    0    0 -0.29574602270E+01 -0.85849926144E+00 -0.32008022442E+01  0.44417031624E+01  0.00000000000E+00 0.  1.
</event>
<event>
 7    1  0.7290154E-013  0.5052885E+02  0.7816164E-02  0.1300439E+00
        -11   -1    0    0    0    0  0.00000000000E+00  0.00000000000E+00  0.45593999997E+02  0.45594000000E+02  0.51100000000E-03 0.  1.
         11   -1    0    0    0    0 -0.00000000000E+00 -0.00000000000E+00 -0.45593999997E+02  0.45594000000E+02  0.51100000000E-03 0. -1.
    9900012    2    1    2    0    0 -0.68719379521E+01 -0.39183363015E+02 -0.84027815976E+01  0.50528853342E+02  0.29999980219E+02 0.  0.
        -12    1    1    2    0    0  0.68719379521E+01  0.39183363015E+02  0.84027815976E+01  0.40659146658E+02  0.00000000000E+00 0.  1.
         11    1    3    3    0    0 -0.22504626140E+01 -0.11115159775E+02 -0.60816367729E+01  0.12868475624E+02  0.51100000000E-03 0. -1.
        -11    1    3    3    0    0  0.32453613403E+00  0.12095881028E+01 -0.74270913733E+01  0.75319395648E+01  0.51100000000E-03 0.  1.
        -12    1    3    3    0    0 -0.49460114722E+01 -0.29277791343E+02  0.51059465485E+01  0.30128438153E+02  0.00000000000E+00 0.  1.
</event>
<event>
 7    1  0.5373252E-013  0.5052886E+02  0.7816164E-02  0.1300439E+00
        -11   -1    0    0    0    0  0.00000000000E+00  0.00000000000E+00  0.45593999997E+02  0.45594000000E+02  0.51100000000E-03 0.  1.
         11   -1    0    0    0    0 -0.00000000000E+00 -0.00000000000E+00 -0.45593999997E+02  0.45594000000E+02  0.51100000000E-03 0. -1.
    9900012    2    1    2    0    0  0.40071441454E+02  0.59206672661E+01  0.35200236735E+01  0.50528864646E+02  0.30000014578E+02 0.  0.
        -12    1    1    2    0    0 -0.40071441454E+02 -0.59206672661E+01 -0.35200236735E+01  0.40659135354E+02  0.00000000000E+00 0.  1.
         11    1    3    3    0    0 -0.25413202773E+01  0.41493101122E+01 -0.30103297485E+01  0.57216403780E+01  0.51100000000E-03 0. -1.
        -11    1    3    3    0    0  0.61359596838E+01  0.38593396142E+01  0.37597948941E+01  0.81658166404E+01  0.51100000000E-03 0.  1.
        -12    1    3    3    0    0  0.36476802048E+02 -0.20879824603E+01  0.27705585279E+01  0.36641407628E+02  0.00000000000E+00 0.  1.
</event>
<event>
 7    1  0.5373252E-013  0.5052886E+02  0.7816164E-02  0.1300439E+00
        -11   -1    0    0    0    0  0.00000000000E+00  0.00000000000E+00  0.45593999997E+02  0.45594000000E+02  0.51100000000E-03 0.  1.
         11   -1    0    0    0    0 -0.00000000000E+00 -0.00000000000E+00 -0.45593999997E+02  0.45594000000E+02  0.51100000000E-03 0. -1.
    9900012    2    1    2    0    0 -0.26611347022E+02 -0.30198617339E+02 -0.57484788949E+01  0.50528864629E+02  0.30000014525E+02 0.  0.
        -12    1    1    2    0    0  0.26611347022E+02  0.30198617339E+02  0.57484788949E+01  0.40659135371E+02  0.00000000000E+00 0.  1.
         11    1    3    3    0    0 -0.95175296157E+01 -0.16135902793E+02 -0.11110483489E+02  0.21780577875E+02  0.51100000000E-03 0. -1.
        -11    1    3    3    0    0  0.33186848004E+01 -0.56904291087E-01  0.16812400475E+01  0.37206820962E+01  0.51100000000E-03 0.  1.
        -12    1    3    3    0    0 -0.20412502207E+02 -0.14005810255E+02  0.36807645469E+01  0.25027604658E+02  0.00000000000E+00 0.  1.
</event>
<event>
 7    1  0.5503415E-013  0.5052886E+02  0.7816164E-02  0.1300439E+00
        -11   -1    0    0    0    0  0.00000000000E+00  0.00000000000E+00  0.45593999997E+02  0.45594000000E+02  0.51100000000E-03 0.  1.
         11   -1    0    0    0    0 -0.00000000000E+00 -0.00000000000E+00 -0.45593999997E+02  0.45594000000E+02  0.51100000000E-03 0. -1.
    9900012    2    1    2    0    0 -0.50676810811E+01 -0.37819528542E+02  0.14041642689E+02  0.50528857608E+02  0.29999993185E+02 0.  0.
        -12    1    1    2    0    0  0.50676810811E+01  0.37819528542E+02 -0.14041642689E+02  0.40659142392E+02  0.00000000000E+00 0.  1.
         11    1    3    3    0    0 -0.82664637833E+01 -0.34346739149E+02  0.90090687038E+01  0.36458143573E+02  0.51100000000E-03 0. -1.
        -11    1    3    3    0    0 -0.36867462691E+01  0.20163335507E+01  0.71152787352E+00  0.42619210711E+01  0.51100000000E-03 0.  1.
        -12    1    3    3    0    0  0.68855289713E+01 -0.54891229437E+01  0.43210461115E+01  0.98087929637E+01  0.00000000000E+00 0.  1.
</event>
<event>
 7    1  0.5373252E-013  0.5052885E+02  0.7816164E-02  0.1300439E+00
        -11   -1    0    0    0    0  0.00000000000E+00  0.00000000000E+00  0.45593999997E+02  0.45594000000E+02  0.51100000000E-03 0.  1.
         11   -1    0    0    0    0 -0.00000000000E+00 -0.00000000000E+00 -0.45593999997E+02  0.45594000000E+02  0.51100000000E-03 0. -1.
    9900012    2    1    2    0    0 -0.26474112544E+02  0.21437742156E+02 -0.22197104240E+02  0.50528845306E+02  0.29999955793E+02 0.  0.
        -12    1    1    2    0    0  0.26474112544E+02 -0.21437742156E+02  0.22197104240E+02  0.40659154694E+02  0.00000000000E+00 0.  1.
         11    1    3    3    0    0 -0.23448424619E+01  0.10276286817E+02 -0.26963747671E+01  0.10879834285E+02  0.51100000000E-03 0. -1.
        -11    1    3    3    0    0 -0.14861813852E+02  0.14801999407E+02 -0.20880780584E+02  0.29596954159E+02  0.51100000000E-03 0.  1.
        -12    1    3    3    0    0 -0.92674562301E+01 -0.36405440687E+01  0.13800511108E+01  0.10052056862E+02  0.00000000000E+00 0.  1.
</event>
<event>
 7    1  0.5373252E-013  0.5052884E+02  0.7816164E-02  0.1300439E+00
        -11   -1    0    0    0    0  0.00000000000E+00  0.00000000000E+00  0.45593999997E+02  0.45594000000E+02  0.51100000000E-03 0. -1.
         11   -1    0    0    0    0 -0.00000000000E+00 -0.00000000000E+00 -0.45593999997E+02  0.45594000000E+02  0.51100000000E-03 0.  1.
    9900012    2    1    2    0    0  0.32855821679E+02  0.10271528241E+02 -0.21636959760E+02  0.50528839430E+02  0.29999937931E+02 0.  0.
        -12    1    1    2    0    0 -0.32855821679E+02 -0.10271528241E+02  0.21636959760E+02  0.40659160570E+02  0.00000000000E+00 0.  1.
         11    1    3    3    0    0  0.96660520491E+01 -0.37050045971E+00  0.28410620455E-02  0.96731505281E+01  0.51100000000E-03 0. -1.
        -11    1    3    3    0    0  0.91459490693E+01  0.11606706633E+02  0.30928015799E+00  0.14780381515E+02  0.51100000000E-03 0.  1.
        -12    1    3    3    0    0  0.14043820560E+02 -0.96467793275E+00 -0.21949080980E+02  0.26075307387E+02  0.00000000000E+00 0.  1.
</event>
<event>
 7    1  0.5373252E-013  0.5052886E+02  0.7816164E-02  0.1300439E+00
        -11   -1    0    0    0    0  0.00000000000E+00  0.00000000000E+00  0.45593999997E+02  0.45594000000E+02  0.51100000000E-03 0.  1.
         11   -1    0    0    0    0 -0.00000000000E+00 -0.00000000000E+00 -0.45593999997E+02  0.45594000000E+02  0.51100000000E-03 0. -1.
    9900012    2    1    2    0    0 -0.12601769862E+02  0.38357695978E+02 -0.48008379856E+01  0.50528862161E+02  0.30000007026E+02 0.  0.
        -12    1    1    2    0    0  0.12601769862E+02 -0.38357695978E+02  0.48008379856E+01  0.40659137839E+02  0.00000000000E+00 0.  1.
         11    1    3    3    0    0 -0.25203708212E+01  0.27169788105E+02 -0.39356598998E+00  0.27289275351E+02  0.51100000000E-03 0. -1.
        -11    1    3    3    0    0  0.41196039534E+01 -0.13047434054E-01 -0.30038795374E+01  0.50984899239E+01  0.51100000000E-03 0.  1.
         12    1    3    3    0    0 -0.14201002995E+02  0.11200955307E+02 -0.14033924582E+01  0.18141096886E+02  0.00000000000E+00 0. -1.
</event>
<event>
 7    1  0.5373252E-013  0.5052886E+02  0.7816164E-02  0.1300439E+00
        -11   -1    0    0    0    0  0.00000000000E+00  0.00000000000E+00  0.45593999997E+02  0.45594000000E+02  0.51100000000E-03 0.  1.
         11   -1    0    0    0    0 -0.00000000000E+00 -0.00000000000E+00 -0.45593999997E+02  0.45594000000E+02  0.51100000000E-03 0. -1.
    9900012    2    1    2    0    0 -0.17236968325E+02  0.62176068012E+01 -0.36295919556E+02  0.50528862186E+02  0.30000007100E+02 0.  0.
        -12    1    1    2    0    0  0.17236968325E+02 -0.62176068012E+01  0.36295919556E+02  0.40659137814E+02  0.00000000000E+00 0.  1.
         11    1    3    3    0    0 -0.44735181912E+01 -0.10678771759E+01 -0.21413852700E+02  0.21902187434E+02  0.51100000000E-03 0. -1.
        -11    1    3    3    0    0  0.80688700507E+00  0.99880220846E+01 -0.94126898810E+01  0.13748104701E+02  0.51100000000E-03 0.  1.
        -12    1    3    3    0    0 -0.13570337138E+02 -0.27025381075E+01 -0.54693769754E+01  0.14878570051E+02  0.00000000000E+00 0.  1.
</event>
<event>
 7    1  0.5373252E-013  0.5052876E+02  0.7816164E-02  0.1300439E+00
        -11   -1    0    0    0    0  0.00000000000E+00  0.00000000000E+00  0.45593999997E+02  0.45594000000E+02  0.51100000000E-03 0.  1.
         11   -1    0    0    0    0 -0.00000000000E+00 -0.00000000000E+00 -0.45593999997E+02  0.45594000000E+02  0.51100000000E-03 0. -1.
    9900012    2    1    2    0    0  0.32464337151E+02  0.18321078986E+02 -0.16235104608E+02  0.50528760662E+02  0.29999698508E+02 0.  0.
        -12    1    1    2    0    0 -0.32464337151E+02 -0.18321078986E+02  0.16235104608E+02  0.40659239338E+02  0.00000000000E+00 0.  1.
         11    1    3    3    0    0  0.11208196935E+02  0.95248639008E+00 -0.78494691092E+01  0.13716598500E+02  0.51100000000E-03 0. -1.
        -11    1    3    3    0    0 -0.25955362442E+01 -0.27610247879E+01  0.14967235871E+01  0.40743401959E+01  0.51100000000E-03 0.  1.
        -12    1    3    3    0    0  0.23851676460E+02  0.20129617384E+02 -0.98823590862E+01  0.32737821966E+02  0.00000000000E+00 0.  1.
</event>
<event>
 7    1  0.5373252E-013  0.5052886E+02  0.7816164E-02  0.1300439E+00
        -11   -1    0    0    0    0  0.00000000000E+00  0.00000000000E+00  0.45593999997E+02  0.45594000000E+02  0.51100000000E-03 0.  1.
         11   -1    0    0    0    0 -0.00000000000E+00 -0.00000000000E+00 -0.45593999997E+02  0.45594000000E+02  0.51100000000E-03 0. -1.
    9900012    2    1    2    0    0 -0.56651407718E+01  0.17669536482E+02 -0.36178157240E+02  0.50528863257E+02  0.30000010355E+02 0.  0.
        -12    1    1    2    0    0  0.56651407718E+01 -0.17669536482E+02  0.36178157240E+02  0.40659136743E+02  0.00000000000E+00 0.  1.
         11    1    3    3    0    0 -0.12016294461E+02  0.29517388125E+01 -0.12302187395E+02  0.17448435734E+02  0.51100000000E-03 0. -1.
        -11    1    3    3    0    0  0.34316774550E+01 -0.30365631762E+01 -0.72828306188E+01  0.86044609454E+01  0.51100000000E-03 0.  1.
         12    1    3    3    0    0  0.29194762346E+01  0.17754360845E+02 -0.16593139227E+02  0.24475966578E+02  0.00000000000E+00 0. -1.
</event>
<event>
 7    1  0.5373252E-013  0.5052883E+02  0.7816164E-02  0.1300439E+00
        -11   -1    0    0    0    0  0.00000000000E+00  0.00000000000E+00  0.45593999997E+02  0.45594000000E+02  0.51100000000E-03 0. -1.
         11   -1    0    0    0    0 -0.00000000000E+00 -0.00000000000E+00 -0.45593999997E+02  0.45594000000E+02  0.51100000000E-03 0.  1.
    9900012    2    1    2    0    0 -0.21013668442E+02  0.32645653874E+02 -0.12077038323E+02  0.50528833347E+02  0.29999919441E+02 0.  0.
        -12    1    1    2    0    0  0.21013668442E+02 -0.32645653874E+02  0.12077038323E+02  0.40659166653E+02  0.00000000000E+00 0.  1.
         11    1    3    3    0    0 -0.10799868004E+02  0.17222198711E+02 -0.90224572741E+01  0.22240638769E+02  0.51100000000E-03 0.  1.
        -11    1    3    3    0    0  0.57510725525E+01  0.84910825553E+01  0.13249130078E+01  0.10340634081E+02  0.51100000000E-03 0. -1.
         12    1    3    3    0    0 -0.15964872990E+02  0.69323726082E+01 -0.43794940571E+01  0.17947560496E+02  0.00000000000E+00 0. -1.
</event>
<event>
 7    1  0.5373252E-013  0.5052887E+02  0.7816164E-02  0.1300439E+00
        -11   -1    0    0    0    0  0.00000000000E+00  0.00000000000E+00  0.45593999997E+02  0.45594000000E+02  0.51100000000E-03 0.  1.
         11   -1    0    0    0    0 -0.00000000000E+00 -0.00000000000E+00 -0.45593999997E+02  0.45594000000E+02  0.51100000000E-03 0. -1.
    9900012    2    1    2    0    0 -0.62221817120E+01 -0.38843093941E+02  0.10279265150E+02  0.50528870838E+02  0.30000033400E+02 0.  0.
        -12    1    1    2    0    0  0.62221817120E+01  0.38843093941E+02 -0.10279265150E+02  0.40659129162E+02  0.00000000000E+00 0.  1.
         11    1    3    3    0    0  0.68669302092E+00  0.89132833157E+00  0.88275137986E+01  0.88989332858E+01  0.51100000000E-03 0. -1.
        -11    1    3    3    0    0 -0.22044135618E+00 -0.32592504046E+01 -0.28015521413E+01  0.43034872200E+01  0.51100000000E-03 0.  1.
         12    1    3    3    0    0 -0.66884333768E+01 -0.36475171868E+02  0.42533034926E+01  0.37326450333E+02  0.00000000000E+00 0. -1.
</event>
<event>
 7    1  0.6282238E-013  0.5052887E+02  0.7816164E-02  0.1300439E+00
        -11   -1    0    0    0    0  0.00000000000E+00  0.00000000000E+00  0.45593999997E+02  0.45594000000E+02  0.51100000000E-03 0.  1.
         11   -1    0    0    0    0 -0.00000000000E+00 -0.00000000000E+00 -0.45593999997E+02  0.45594000000E+02  0.51100000000E-03 0. -1.
    9900012    2    1    2    0    0 -0.32602390983E+02 -0.14085921604E+02  0.19794837301E+02  0.50528872255E+02  0.30000037705E+02 0.  0.
        -12    1    1    2    0    0  0.32602390983E+02  0.14085921604E+02 -0.19794837301E+02  0.40659127745E+02  0.00000000000E+00 0.  1.
         11    1    3    3    0    0 -0.16501897704E+02 -0.10177025850E+02  0.51629750829E+01  0.20063419324E+02  0.51100000000E-03 0. -1.
        -11    1    3    3    0    0 -0.50196001682E+01 -0.11947317512E+02  0.82434982748E+01  0.15358712370E+02  0.51100000000E-03 0.  1.
        -12    1    3    3    0    0 -0.11080893111E+02  0.80384217587E+01  0.63883639432E+01  0.15106740561E+02  0.00000000000E+00 0.  1.
</event>
<event>
 7    1  0.5373252E-013  0.5052886E+02  0.7816164E-02  0.1300439E+00
        -11   -1    0    0    0    0  0.00000000000E+00  0.00000000000E+00  0.45593999997E+02  0.45594000000E+02  0.51100000000E-03 0.  1.
         11   -1    0    0    0    0 -0.00000000000E+00 -0.00000000000E+00 -0.45593999997E+02  0.45594000000E+02  0.51100000000E-03 0. -1.
    9900012    2    1    2    0    0 -0.21450662337E+01  0.35553542406E+00 -0.40600955878E+02  0.50528864092E+02  0.30000012894E+02 0.  0.
        -12    1    1    2    0    0  0.21450662337E+01 -0.35553542406E+00  0.40600955878E+02  0.40659135908E+02  0.00000000000E+00 0.  1.
         11    1    3    3    0    0  0.91050091987E+00 -0.75657593793E+01 -0.60240049621E+01  0.97138232924E+01  0.51100000000E-03 0. -1.
        -11    1    3    3    0    0  0.66299368500E+01  0.24758549174E+01 -0.36714089254E+01  0.79727764277E+01  0.51100000000E-03 0.  1.
         12    1    3    3    0    0 -0.96855040036E+01  0.54454398860E+01 -0.30905541990E+02  0.32842264372E+02  0.00000000000E+00 0. -1.
</event>
<event>
 7    1  0.5373252E-013  0.5052886E+02  0.7816164E-02  0.1300439E+00
        -11   -1    0    0    0    0  0.00000000000E+00  0.00000000000E+00  0.45593999997E+02  0.45594000000E+02  0.51100000000E-03 0.  1.
         11   -1    0    0    0    0 -0.00000000000E+00 -0.00000000000E+00 -0.45593999997E+02  0.45594000000E+02  0.51100000000E-03 0. -1.
    9900012    2    1    2    0    0  0.35696415745E+02 -0.18279902554E+02 -0.66915344270E+01  0.50528861206E+02  0.30000004123E+02 0.  0.
        -12    1    1    2    0    0 -0.35696415745E+02  0.18279902554E+02  0.66915344270E+01  0.40659138794E+02  0.00000000000E+00 0.  1.
         11    1    3    3    0    0  0.10106716912E+02  0.22151043703E+01 -0.33761293036E+01  0.10883504189E+02  0.51100000000E-03 0. -1.
        -11    1    3    3    0    0  0.19903746040E+02 -0.19036317496E+01 -0.28643036891E+01  0.20198691941E+02  0.51100000000E-03 0.  1.
         12    1    3    3    0    0  0.56859527936E+01 -0.18591375175E+02 -0.45110143430E+00  0.19446665075E+02  0.00000000000E+00 0. -1.
</event>
<event>
 7    1  0.5373252E-013  0.5052887E+02  0.7816164E-02  0.1300439E+00
        -11   -1    0    0    0    0  0.00000000000E+00  0.00000000000E+00  0.45593999997E+02  0.45594000000E+02  0.51100000000E-03 0.  1.
         11   -1    0    0    0    0 -0.00000000000E+00 -0.00000000000E+00 -0.45593999997E+02  0.45594000000E+02  0.51100000000E-03 0. -1.
    9900012    2    1    2    0    0 -0.26736608512E+02  0.59197495447E+01 -0.30054543208E+02  0.50528865272E+02  0.30000016482E+02 0.  0.
        -12    1    1    2    0    0  0.26736608512E+02 -0.59197495447E+01  0.30054543208E+02  0.40659134728E+02  0.00000000000E+00 0.  1.
         11    1    3    3    0    0 -0.63845035402E+01  0.10217624005E+02 -0.10892204544E+02  0.16241977893E+02  0.51100000000E-03 0. -1.
        -11    1    3    3    0    0 -0.29968365106E+01  0.17540557555E+01  0.36189487463E+01  0.50154292891E+01  0.51100000000E-03 0.  1.
         12    1    3    3    0    0 -0.17355268461E+02 -0.60519302162E+01 -0.22781287410E+02  0.29271458090E+02  0.00000000000E+00 0. -1.
</event>
<event>
 7    1  0.5373252E-013  0.5052886E+02  0.7816164E-02  0.1300439E+00
        -11   -1    0    0    0    0  0.00000000000E+00  0.00000000000E+00  0.45593999997E+02  0.45594000000E+02  0.51100000000E-03 0.  1.
         11   -1    0    0    0    0 -0.00000000000E+00 -0.00000000000E+00 -0.45593999997E+02  0.45594000000E+02  0.51100000000E-03 0. -1.
    9900012    2    1    2    0    0 -0.16210759018E+02  0.32513456082E+02 -0.18255200766E+02  0.50528857248E+02  0.29999992090E+02 0.  0.
        -12    1    1    2    0    0  0.16210759018E+02 -0.32513456082E+02  0.18255200766E+02  0.40659142752E+02  0.00000000000E+00 0.  1.
         11    1    3    3    0    0 -0.63014001183E+01  0.58186569955E+01 -0.78083748045E+00  0.86124398468E+01  0.51100000000E-03 0.  1.
        -11    1    3    3    0    0  0.76340507308E+01  0.15030624115E+02 -0.57823914674E+01  0.17822301849E+02  0.51100000000E-03 0. -1.
         12    1    3    3    0    0 -0.17543409631E+02  0.11664174972E+02 -0.11691971818E+02  0.24094115552E+02  0.00000000000E+00 0. -1.
</event>
<event>
 7    1  0.5373252E-013  0.5052886E+02  0.7816164E-02  0.1300439E+00
        -11   -1    0    0    0    0  0.00000000000E+00  0.00000000000E+00  0.45593999997E+02  0.45594000000E+02  0.51100000000E-03 0.  1.
         11   -1    0    0    0    0 -0.00000000000E+00 -0.00000000000E+00 -0.45593999997E+02  0.45594000000E+02  0.51100000000E-03 0. -1.
    9900012    2    1    2    0    0  0.32040211795E+02  0.11668407670E+02 -0.22145852375E+02  0.50528859738E+02  0.29999999660E+02 0.  0.
        -12    1    1    2    0    0 -0.32040211795E+02 -0.11668407670E+02  0.22145852375E+02  0.40659140262E+02  0.00000000000E+00 0.  1.
         11    1    3    3    0    0  0.14765677645E+02  0.12854845752E+01 -0.65889320820E+01  0.16220102748E+02  0.51100000000E-03 0. -1.
        -11    1    3    3    0    0  0.13441773287E+02  0.13647637423E+02 -0.19927710322E+02  0.27641507109E+02  0.51100000000E-03 0.  1.
        -12    1    3    3    0    0  0.38327608635E+01 -0.32647143285E+01  0.43707900298E+01  0.66672498805E+01  0.00000000000E+00 0.  1.
</event>
<event>
 7    1  0.5373252E-013  0.5052886E+02  0.7816164E-02  0.1300439E+00
        -11   -1    0    0    0    0  0.00000000000E+00  0.00000000000E+00  0.45593999997E+02  0.45594000000E+02  0.51100000000E-03 0.  1.
         11   -1    0    0    0    0 -0.00000000000E+00 -0.00000000000E+00 -0.45593999997E+02  0.45594000000E+02  0.51100000000E-03 0. -1.
    9900012    2    1    2    0    0  0.29961091142E+02 -0.13876257867E+02 -0.23726526949E+02  0.50528860857E+02  0.30000003060E+02 0.  0.
        -12    1    1    2    0    0 -0.29961091142E+02  0.13876257867E+02  0.23726526949E+02  0.40659139143E+02  0.00000000000E+00 0.  1.
         11    1    3    3    0    0  0.10914743927E+01 -0.28677190111E+01 -0.15152665192E+02  0.15460219641E+02  0.51100000000E-03 0. -1.
        -11    1    3    3    0    0  0.18839444531E+02 -0.33427480844E+01 -0.11205048812E+02  0.22173221555E+02  0.51100000000E-03 0.  1.
        -12    1    3    3    0    0  0.10030172219E+02 -0.76657907717E+01  0.26311870553E+01  0.12895419660E+02  0.00000000000E+00 0.  1.
</event>
<event>
 7    1  0.5373252E-013  0.5052886E+02  0.7816164E-02  0.1300439E+00
        -11   -1    0    0    0    0  0.00000000000E+00  0.00000000000E+00  0.45593999997E+02  0.45594000000E+02  0.51100000000E-03 0.  1.
         11   -1    0    0    0    0 -0.00000000000E+00 -0.00000000000E+00 -0.45593999997E+02  0.45594000000E+02  0.51100000000E-03 0. -1.
    9900012    2    1    2    0    0  0.29133857752E+02 -0.16039040051E+02 -0.23390879285E+02  0.50528859490E+02  0.29999998907E+02 0.  0.
        -12    1    1    2    0    0 -0.29133857752E+02  0.16039040051E+02  0.23390879285E+02  0.40659140510E+02  0.00000000000E+00 0.  1.
         11    1    3    3    0    0  0.13625318472E+02 -0.40120997520E+01 -0.13241030353E+02  0.19418319519E+02  0.51100000000E-03 0. -1.
        -11    1    3    3    0    0  0.12092840575E+02  0.33587169694E+01 -0.35714511065E+00  0.12555688979E+02  0.51100000000E-03 0.  1.
        -12    1    3    3    0    0  0.34156987058E+01 -0.15385657268E+02 -0.97927038213E+01  0.18554850992E+02  0.00000000000E+00 0.  1.
</event>
<event>
 7    1  0.5373252E-013  0.5052886E+02  0.7816164E-02  0.1300439E+00
        -11   -1    0    0    0    0  0.00000000000E+00  0.00000000000E+00  0.45593999997E+02  0.45594000000E+02  0.51100000000E-03 0.  1.
         11   -1    0    0    0    0 -0.00000000000E+00 -0.00000000000E+00 -0.45593999997E+02  0.45594000000E+02  0.51100000000E-03 0. -1.
    9900012    2    1    2    0    0 -0.18499277401E+02 -0.33696196624E+02 -0.13247977419E+02  0.50528857892E+02  0.29999994048E+02 0.  0.
        -12    1    1    2    0    0  0.18499277401E+02  0.33696196624E+02  0.13247977419E+02  0.40659142108E+02  0.00000000000E+00 0.  1.
         11    1    3    3    0    0 -0.40627453136E+01 -0.23984113614E+02 -0.44995060160E+01  0.24738414662E+02  0.51100000000E-03 0. -1.
        -11    1    3    3    0    0  0.65106931306E+00  0.33509809969E+01  0.10313436225E+01  0.35660390941E+01  0.51100000000E-03 0.  1.
         12    1    3    3    0    0 -0.15087601400E+02 -0.13063064007E+02 -0.97798150251E+01  0.22224404136E+02  0.00000000000E+00 0. -1.
</event>
<event>
 7    1  0.5373252E-013  0.5052884E+02  0.7816164E-02  0.1300439E+00
        -11   -1    0    0    0    0  0.00000000000E+00  0.00000000000E+00  0.45593999997E+02  0.45594000000E+02  0.51100000000E-03 0.  1.
         11   -1    0    0    0    0 -0.00000000000E+00 -0.00000000000E+00 -0.45593999997E+02  0.45594000000E+02  0.51100000000E-03 0. -1.
    9900012    2    1    2    0    0 -0.23607179451E+02 -0.88302192967E+01 -0.31904482386E+02  0.50528835095E+02  0.29999924753E+02 0.  0.
        -12    1    1    2    0    0  0.23607179451E+02  0.88302192967E+01  0.31904482386E+02  0.40659164905E+02  0.00000000000E+00 0.  1.
         11    1    3    3    0    0 -0.61378480798E+01  0.73122828915E+01 -0.31071967041E+01  0.10039787436E+02  0.51100000000E-03 0.  1.
        -11    1    3    3    0    0 -0.61809114461E+01 -0.27424683795E+01 -0.19531146514E+02  0.20668586878E+02  0.51100000000E-03 0. -1.
        -12    1    3    3    0    0 -0.11288419925E+02 -0.13400033809E+02 -0.92661391684E+01  0.19820460781E+02  0.00000000000E+00 0.  1.
</event>
<event>
 7    1  0.5373252E-013  0.5052886E+02  0.7816164E-02  0.1300439E+00
        -11   -1    0    0    0    0  0.00000000000E+00  0.00000000000E+00  0.45593999997E+02  0.45594000000E+02  0.51100000000E-03 0.  1.
         11   -1    0    0    0    0 -0.00000000000E+00 -0.00000000000E+00 -0.45593999997E+02  0.45594000000E+02  0.51100000000E-03 0. -1.
    9900012    2    1    2    0    0 -0.18794205874E+02 -0.24079006133E+02 -0.26835514414E+02  0.50528861487E+02  0.30000004974E+02 0.  0.
        -12    1    1    2    0    0  0.18794205874E+02  0.24079006133E+02  0.26835514414E+02  0.40659138513E+02  0.00000000000E+00 0.  1.
         11    1    3    3    0    0 -0.14277473746E+02 -0.13366203267E+02 -0.20916595235E+02  0.28635739956E+02  0.51100000000E-03 0. -1.
        -11    1    3    3    0    0 -0.87330254922E+01 -0.11485110919E+02  0.19109613682E+00  0.14429484574E+02  0.51100000000E-03 0.  1.
         12    1    3    3    0    0  0.42162933643E+01  0.77230805257E+00 -0.61100153161E+01  0.74636369569E+01  0.00000000000E+00 0. -1.
</event>
<event>
 7    1  0.5373252E-013  0.5052881E+02  0.7816164E-02  0.1300439E+00
        -11   -1    0    0    0    0  0.00000000000E+00  0.00000000000E+00  0.45593999997E+02  0.45594000000E+02  0.51100000000E-03 0.  1.
         11   -1    0    0    0    0 -0.00000000000E+00 -0.00000000000E+00 -0.45593999997E+02  0.45594000000E+02  0.51100000000E-03 0. -1.
    9900012    2    1    2    0    0  0.18543985008E+02 -0.29768045641E+02 -0.20570707316E+02  0.50528807672E+02  0.29999841401E+02 0.  0.
        -12    1    1    2    0    0 -0.18543985008E+02  0.29768045641E+02  0.20570707316E+02  0.40659192328E+02  0.00000000000E+00 0.  1.
         11    1    3    3    0    0  0.21510692031E+02 -0.23980068453E+02 -0.23012796651E+02  0.39589674975E+02  0.51100000000E-03 0. -1.
        -11    1    3    3    0    0  0.28322267544E+01 -0.10914666937E+01  0.15954409492E+01  0.34290290194E+01  0.51100000000E-03 0.  1.
        -12    1    3    3    0    0 -0.57989337770E+01 -0.46965104941E+01  0.84664838575E+00  0.75101036784E+01  0.00000000000E+00 0.  1.
</event>
<event>
 7    1  0.5373252E-013  0.5052886E+02  0.7816164E-02  0.1300439E+00
        -11   -1    0    0    0    0  0.00000000000E+00  0.00000000000E+00  0.45593999997E+02  0.45594000000E+02  0.51100000000E-03 0. -1.
         11   -1    0    0    0    0 -0.00000000000E+00 -0.00000000000E+00 -0.45593999997E+02  0.45594000000E+02  0.51100000000E-03 0.  1.
    9900012    2    1    2    0    0  0.84356531159E+00  0.36705785056E+02  0.17468234513E+02  0.50528862331E+02  0.30000007541E+02 0.  0.
        -12    1    1    2    0    0 -0.84356531159E+00 -0.36705785056E+02 -0.17468234513E+02  0.40659137669E+02  0.00000000000E+00 0.  1.
         11    1    3    3    0    0  0.68304208735E+01  0.36136826158E+01  0.89299124782E+01  0.11809178146E+02  0.51100000000E-03 0. -1.
        -11    1    3    3    0    0 -0.68329466925E+01  0.44358067576E+01  0.56323768034E+01  0.99039997380E+01  0.51100000000E-03 0.  1.
        -12    1    3    3    0    0  0.84609113061E+00  0.28656295683E+02  0.29059452309E+01  0.28815684447E+02  0.00000000000E+00 0.  1.
</event>
<event>
 7    1  0.5373252E-013  0.5052885E+02  0.7816164E-02  0.1300439E+00
        -11   -1    0    0    0    0  0.00000000000E+00  0.00000000000E+00  0.45593999997E+02  0.45594000000E+02  0.51100000000E-03 0.  1.
         11   -1    0    0    0    0 -0.00000000000E+00 -0.00000000000E+00 -0.45593999997E+02  0.45594000000E+02  0.51100000000E-03 0. -1.
    9900012    2    1    2    0    0  0.88930659990E+01 -0.38995301257E+02 -0.73106909186E+01  0.50528851648E+02  0.29999975070E+02 0.  0.
        -12    1    1    2    0    0 -0.88930659990E+01  0.38995301257E+02  0.73106909186E+01  0.40659148352E+02  0.00000000000E+00 0.  1.
         11    1    3    3    0    0  0.12083916089E+02 -0.10095929171E+02  0.37710562589E+01  0.16191654624E+02  0.51100000000E-03 0. -1.
        -11    1    3    3    0    0  0.49892021932E+00 -0.17562891431E+02  0.68925422144E+00  0.17583490793E+02  0.51100000000E-03 0.  1.
         12    1    3    3    0    0 -0.36897703096E+01 -0.11336480654E+02 -0.11771001399E+02  0.16753706232E+02  0.00000000000E+00 0. -1.
</event>
<event>
 7    1  0.5373252E-013  0.5052886E+02  0.7816164E-02  0.1300439E+00
        -11   -1    0    0    0    0  0.00000000000E+00  0.00000000000E+00  0.45593999997E+02  0.45594000000E+02  0.51100000000E-03 0.  1.
         11   -1    0    0    0    0 -0.00000000000E+00 -0.00000000000E+00 -0.45593999997E+02  0.45594000000E+02  0.51100000000E-03 0. -1.
    9900012    2    1    2    0    0  0.26487363841E+02  0.22050801356E+02 -0.21571911689E+02  0.50528860097E+02  0.30000000752E+02 0.  0.
        -12    1    1    2    0    0 -0.26487363841E+02 -0.22050801356E+02  0.21571911689E+02  0.40659139903E+02  0.00000000000E+00 0.  1.
         11    1    3    3    0    0  0.71079777646E+01  0.57507050941E+01 -0.88588225405E+01  0.12730777433E+02  0.51100000000E-03 0. -1.
        -11    1    3    3    0    0  0.11777075901E+02  0.22278632307E+02 -0.56594550432E+01  0.25827628732E+02  0.51100000000E-03 0.  1.
         12    1    3    3    0    0  0.76023101758E+01 -0.59785360455E+01 -0.70536341054E+01  0.11970453932E+02  0.00000000000E+00 0. -1.
</event>
<event>
 7    1  0.5373252E-013  0.5052886E+02  0.7816164E-02  0.1300439E+00
        -11   -1    0    0    0    0  0.00000000000E+00  0.00000000000E+00  0.45593999997E+02  0.45594000000E+02  0.51100000000E-03 0.  1.
         11   -1    0    0    0    0 -0.00000000000E+00 -0.00000000000E+00 -0.45593999997E+02  0.45594000000E+02  0.51100000000E-03 0. -1.
    9900012    2    1    2    0    0  0.37912973171E+01  0.38284330478E+02 -0.13156815880E+02  0.50528859581E+02  0.29999999184E+02 0.  0.
        -12    1    1    2    0    0 -0.37912973171E+01 -0.38284330478E+02  0.13156815880E+02  0.40659140419E+02  0.00000000000E+00 0.  1.
         11    1    3    3    0    0 -0.25877393808E+01 -0.30325108063E+01  0.24711022210E+01  0.46902945900E+01  0.51100000000E-03 0. -1.
        -11    1    3    3    0    0 -0.87893635883E+00  0.93992090085E+01  0.28183621349E+00  0.94444211586E+01  0.51100000000E-03 0.  1.
         12    1    3    3    0    0  0.72579730567E+01  0.31917632276E+02 -0.15909754314E+02  0.36394143833E+02  0.00000000000E+00 0. -1.
</event>
<event>
 7    1  0.5373252E-013  0.5052888E+02  0.7816164E-02  0.1300439E+00
        -11   -1    0    0    0    0  0.00000000000E+00  0.00000000000E+00  0.45593999997E+02  0.45594000000E+02  0.51100000000E-03 0.  1.
         11   -1    0    0    0    0 -0.00000000000E+00 -0.00000000000E+00 -0.45593999997E+02  0.45594000000E+02  0.51100000000E-03 0. -1.
    9900012    2    1    2    0    0  0.17369287942E+02 -0.63124939466E+00 -0.36756952297E+02  0.50528878248E+02  0.30000055923E+02 0.  0.
        -12    1    1    2    0    0 -0.17369287942E+02  0.63124939466E+00  0.36756952297E+02  0.40659121752E+02  0.00000000000E+00 0.  1.
         11    1    3    3    0    0  0.12720898966E+02  0.30118860437E+01 -0.11838755441E+02  0.17636577295E+02  0.51100000000E-03 0. -1.
        -11    1    3    3    0    0  0.10605364467E+02  0.37935774404E+01 -0.93448892229E+01  0.14635297747E+02  0.51100000000E-03 0.  1.
        -12    1    3    3    0    0 -0.59569754904E+01 -0.74367128787E+01 -0.15573307634E+02  0.18257003207E+02  0.00000000000E+00 0.  1.
</event>
<event>
 7    1  0.5373252E-013  0.5052889E+02  0.7816164E-02  0.1300439E+00
        -11   -1    0    0    0    0  0.00000000000E+00  0.00000000000E+00  0.45593999997E+02  0.45594000000E+02  0.51100000000E-03 0.  1.
         11   -1    0    0    0    0 -0.00000000000E+00 -0.00000000000E+00 -0.45593999997E+02  0.45594000000E+02  0.51100000000E-03 0. -1.
    9900012    2    1    2    0    0 -0.28188674309E+02  0.23765823365E+02 -0.17139066574E+02  0.50528888813E+02  0.30000088036E+02 0.  0.
        -12    1    1    2    0    0  0.28188674309E+02 -0.23765823365E+02  0.17139066574E+02  0.40659111187E+02  0.00000000000E+00 0.  1.
         11    1    3    3    0    0  0.22133920702E+01  0.27692296079E+01 -0.48916047482E+01  0.60411533958E+01  0.51100000000E-03 0. -1.
        -11    1    3    3    0    0  0.23726560811E+01  0.61950680011E+01 -0.33951031765E+01  0.74521869446E+01  0.51100000000E-03 0.  1.
        -12    1    3    3    0    0 -0.32774722460E+02  0.14801525756E+02 -0.88523586493E+01  0.37035548473E+02  0.00000000000E+00 0.  1.
</event>
<event>
 7    1  0.5373252E-013  0.5052887E+02  0.7816164E-02  0.1300439E+00
        -11   -1    0    0    0    0  0.00000000000E+00  0.00000000000E+00  0.45593999997E+02  0.45594000000E+02  0.51100000000E-03 0.  1.
         11   -1    0    0    0    0 -0.00000000000E+00 -0.00000000000E+00 -0.45593999997E+02  0.45594000000E+02  0.51100000000E-03 0. -1.
    9900012    2    1    2    0    0 -0.55265157716E+01  0.36868987940E+02 -0.16226524062E+02  0.50528871487E+02  0.30000035372E+02 0.  0.
        -12    1    1    2    0    0  0.55265157716E+01 -0.36868987940E+02  0.16226524062E+02  0.40659128513E+02  0.00000000000E+00 0.  1.
         11    1    3    3    0    0 -0.71844709233E+01  0.18312351350E+02 -0.52009714124E+01  0.20347209595E+02  0.51100000000E-03 0. -1.
        -11    1    3    3    0    0  0.65405307080E+01  0.17199153239E+02 -0.39510090854E+00  0.18405040588E+02  0.51100000000E-03 0.  1.
        -12    1    3    3    0    0 -0.48825755562E+01  0.13574833515E+01 -0.10630451741E+02  0.11776621304E+02  0.00000000000E+00 0.  1.
</event>
<event>
 7    1  0.5373252E-013  0.5052885E+02  0.7816164E-02  0.1300439E+00
        -11   -1    0    0    0    0  0.00000000000E+00  0.00000000000E+00  0.45593999997E+02  0.45594000000E+02  0.51100000000E-03 0. -1.
         11   -1    0    0    0    0 -0.00000000000E+00 -0.00000000000E+00 -0.45593999997E+02  0.45594000000E+02  0.51100000000E-03 0.  1.
    9900012    2    1    2    0    0  0.24527788301E+02  0.32391441066E+02 -0.15325123226E+01  0.50528850386E+02  0.29999971234E+02 0.  0.
        -12    1    1    2    0    0 -0.24527788301E+02 -0.32391441066E+02  0.15325123226E+01  0.40659149614E+02  0.00000000000E+00 0.  1.
         11    1    3    3    0    0  0.13526507187E+02  0.24641816265E+02  0.31215142166E+00  0.28111971547E+02  0.51100000000E-03 0. -1.
        -11    1    3    3    0    0  0.41685055449E+01  0.10704119174E+02 -0.69169293605E+01  0.13408896965E+02  0.51100000000E-03 0.  1.
         12    1    3    3    0    0  0.68327755688E+01 -0.29544943723E+01  0.50722656162E+01  0.90079818744E+01  0.00000000000E+00 0. -1.
</event>
<event>
 7    1  0.5373252E-013  0.5052886E+02  0.7816164E-02  0.1300439E+00
        -11   -1    0    0    0    0  0.00000000000E+00  0.00000000000E+00  0.45593999997E+02  0.45594000000E+02  0.51100000000E-03 0.  1.
         11   -1    0    0    0    0 -0.00000000000E+00 -0.00000000000E+00 -0.45593999997E+02  0.45594000000E+02  0.51100000000E-03 0. -1.
    9900012    2    1    2    0    0  0.73485487618E+01 -0.27816461975E+02 -0.28729930325E+02  0.50528860533E+02  0.30000002075E+02 0.  0.
        -12    1    1    2    0    0 -0.73485487618E+01  0.27816461975E+02  0.28729930325E+02  0.40659139467E+02  0.00000000000E+00 0.  1.
         11    1    3    3    0    0 -0.17995598427E+01 -0.55589900881E+01 -0.98870434333E+00  0.59260714615E+01  0.51100000000E-03 0. -1.
        -11    1    3    3    0    0  0.13084446825E+02 -0.16901573255E+02 -0.64925022078E+01  0.22338722264E+02  0.51100000000E-03 0.  1.
         12    1    3    3    0    0 -0.39363382210E+01 -0.53558986323E+01 -0.21248723774E+02  0.22264066807E+02  0.00000000000E+00 0. -1.
</event>
<event>
 7    1  0.5373252E-013  0.5052887E+02  0.7816164E-02  0.1300439E+00
        -11   -1    0    0    0    0  0.00000000000E+00  0.00000000000E+00  0.45593999997E+02  0.45594000000E+02  0.51100000000E-03 0.  1.
         11   -1    0    0    0    0 -0.00000000000E+00 -0.00000000000E+00 -0.45593999997E+02  0.45594000000E+02  0.51100000000E-03 0. -1.
    9900012    2    1    2    0    0 -0.25197155715E+02 -0.11775795878E+02 -0.29658034974E+02  0.50528867407E+02  0.30000022971E+02 0.  0.
        -12    1    1    2    0    0  0.25197155715E+02  0.11775795878E+02  0.29658034974E+02  0.40659132593E+02  0.00000000000E+00 0.  1.
         11    1    3    3    0    0  0.28070429059E+01  0.30869276067E+01 -0.23738064155E+01  0.48003717652E+01  0.51100000000E-03 0.  1.
        -11    1    3    3    0    0 -0.24273776746E+02 -0.10825697541E+02 -0.11400002776E+02  0.28920097308E+02  0.51100000000E-03 0. -1.
         12    1    3    3    0    0 -0.37304218747E+01 -0.40370259438E+01 -0.15884225783E+02  0.16808398334E+02  0.00000000000E+00 0. -1.
</event>
<event>
 7    1  0.5373252E-013  0.5052886E+02  0.7816164E-02  0.1300439E+00
        -11   -1    0    0    0    0  0.00000000000E+00  0.00000000000E+00  0.45593999997E+02  0.45594000000E+02  0.51100000000E-03 0.  1.
         11   -1    0    0    0    0 -0.00000000000E+00 -0.00000000000E+00 -0.45593999997E+02  0.45594000000E+02  0.51100000000E-03 0. -1.
    9900012    2    1    2    0    0  0.14964831410E+02 -0.35010462468E+02 -0.14264883955E+02  0.50528861106E+02  0.30000003819E+02 0.  0.
        -12    1    1    2    0    0 -0.14964831410E+02  0.35010462468E+02  0.14264883955E+02  0.40659138894E+02  0.00000000000E+00 0.  1.
         11    1    3    3    0    0  0.15273287218E+02 -0.28478170994E+02 -0.38349603642E+01  0.32542071951E+02  0.51100000000E-03 0. -1.
        -11    1    3    3    0    0  0.42857435482E+01 -0.82590420313E+01 -0.88219832353E+01  0.12822120008E+02  0.51100000000E-03 0.  1.
        -12    1    3    3    0    0 -0.45941993568E+01  0.17267505573E+01 -0.16079403559E+01  0.51646691477E+01  0.00000000000E+00 0.  1.
</event>
<event>
 7    1  0.5373252E-013  0.5052887E+02  0.7816164E-02  0.1300439E+00
        -11   -1    0    0    0    0  0.00000000000E+00  0.00000000000E+00  0.45593999997E+02  0.45594000000E+02  0.51100000000E-03 0.  1.
         11   -1    0    0    0    0 -0.00000000000E+00 -0.00000000000E+00 -0.45593999997E+02  0.45594000000E+02  0.51100000000E-03 0. -1.
    9900012    2    1    2    0    0 -0.17271104908E+02  0.27255973341E+02 -0.24738342711E+02  0.50528871288E+02  0.30000034768E+02 0.  0.
        -12    1    1    2    0    0  0.17271104908E+02 -0.27255973341E+02  0.24738342711E+02  0.40659128712E+02  0.00000000000E+00 0.  1.
         11    1    3    3    0    0 -0.14751073497E+02  0.14927179454E+02 -0.18732549608E+02  0.28130468728E+02  0.51100000000E-03 0. -1.
        -11    1    3    3    0    0  0.39234756621E+01  0.12695069018E+02 -0.81616542647E+01  0.15593942389E+02  0.51100000000E-03 0.  1.
        -12    1    3    3    0    0 -0.64435070732E+01 -0.36627513079E+00  0.21558611618E+01  0.68044601713E+01  0.00000000000E+00 0.  1.
</event>
<event>
 7    1  0.5373252E-013  0.5052886E+02  0.7816164E-02  0.1300439E+00
        -11   -1    0    0    0    0  0.00000000000E+00  0.00000000000E+00  0.45593999997E+02  0.45594000000E+02  0.51100000000E-03 0. -1.
         11   -1    0    0    0    0 -0.00000000000E+00 -0.00000000000E+00 -0.45593999997E+02  0.45594000000E+02  0.51100000000E-03 0.  1.
    9900012    2    1    2    0    0  0.49565302801E+01 -0.27037718725E+02  0.29959308867E+02  0.50528860633E+02  0.30000002380E+02 0.  0.
        -12    1    1    2    0    0 -0.49565302801E+01  0.27037718725E+02 -0.29959308867E+02  0.40659139367E+02  0.00000000000E+00 0.  1.
         11    1    3    3    0    0 -0.42041623824E+01 -0.17838454867E+01  0.66387598612E+01  0.80579289407E+01  0.51100000000E-03 0. -1.
        -11    1    3    3    0    0  0.43996228830E+01  0.85778628239E+00 -0.27563959997E+01  0.52621476592E+01  0.51100000000E-03 0.  1.
         12    1    3    3    0    0  0.47610697794E+01 -0.26111659521E+02  0.26076945006E+02  0.37208784033E+02  0.00000000000E+00 0. -1.
</event>
<event>
 7    1  0.5373252E-013  0.5052887E+02  0.7816164E-02  0.1300439E+00
        -11   -1    0    0    0    0  0.00000000000E+00  0.00000000000E+00  0.45593999997E+02  0.45594000000E+02  0.51100000000E-03 0. -1.
         11   -1    0    0    0    0 -0.00000000000E+00 -0.00000000000E+00 -0.45593999997E+02  0.45594000000E+02  0.51100000000E-03 0.  1.
    9900012    2    1    2    0    0  0.65544095911E+01  0.90734617039E+01  0.39088069461E+02  0.50528866136E+02  0.30000019108E+02 0.  0.
        -12    1    1    2    0    0 -0.65544095911E+01 -0.90734617039E+01 -0.39088069461E+02  0.40659133864E+02  0.00000000000E+00 0.  1.
         11    1    3    3    0    0  0.50352507533E+01  0.37454648408E+01  0.26855734885E+02  0.27579208718E+02  0.51100000000E-03 0. -1.
        -11    1    3    3    0    0 -0.30002757109E+01  0.96908536203E+01  0.11484436485E+01  0.10209467239E+02  0.51100000000E-03 0.  1.
         12    1    3    3    0    0  0.45194345487E+01 -0.43628567572E+01  0.11083890927E+02  0.12740190179E+02  0.00000000000E+00 0. -1.
</event>
<event>
 7    1  0.5662166E-013  0.5052885E+02  0.7816164E-02  0.1300439E+00
        -11   -1    0    0    0    0  0.00000000000E+00  0.00000000000E+00  0.45593999997E+02  0.45594000000E+02  0.51100000000E-03 0. -1.
         11   -1    0    0    0    0 -0.00000000000E+00 -0.00000000000E+00 -0.45593999997E+02  0.45594000000E+02  0.51100000000E-03 0.  1.
    9900012    2    1    2    0    0  0.33247958345E+02 -0.10077543243E+02  0.21123034213E+02  0.50528853596E+02  0.29999980990E+02 0.  0.
        -12    1    1    2    0    0 -0.33247958345E+02  0.10077543243E+02 -0.21123034213E+02  0.40659146404E+02  0.00000000000E+00 0.  1.
         11    1    3    3    0    0  0.11372579819E+02  0.15136889179E+01  0.16743675297E+02  0.20297228594E+02  0.51100000000E-03 0. -1.
        -11    1    3    3    0    0 -0.18293322430E+01 -0.39812212844E+01  0.29745845615E+01  0.52957278013E+01  0.51100000000E-03 0.  1.
         12    1    3    3    0    0  0.23704710769E+02 -0.76100108766E+01  0.14047743542E+01  0.24935897200E+02  0.00000000000E+00 0. -1.
</event>
<event>
 7    1  0.5373252E-013  0.5052886E+02  0.7816164E-02  0.1300439E+00
        -11   -1    0    0    0    0  0.00000000000E+00  0.00000000000E+00  0.45593999997E+02  0.45594000000E+02  0.51100000000E-03 0.  1.
         11   -1    0    0    0    0 -0.00000000000E+00 -0.00000000000E+00 -0.45593999997E+02  0.45594000000E+02  0.51100000000E-03 0. -1.
    9900012    2    1    2    0    0  0.23626136136E+02  0.32114184805E+00 -0.33088797743E+02  0.50528856171E+02  0.29999988818E+02 0.  0.
        -12    1    1    2    0    0 -0.23626136136E+02 -0.32114184805E+00  0.33088797743E+02  0.40659143829E+02  0.00000000000E+00 0.  1.
         11    1    3    3    0    0  0.21113359231E+02  0.56672941128E+01 -0.19782620397E+02  0.29482948132E+02  0.51100000000E-03 0.  1.
        -11    1    3    3    0    0 -0.33967196334E+01  0.24369774718E+01 -0.98157394888E+01  0.10668894293E+02  0.51100000000E-03 0. -1.
        -12    1    3    3    0    0  0.59094965388E+01 -0.77831297365E+01 -0.34904378579E+01  0.10377013746E+02  0.00000000000E+00 0.  1.
</event>
<event>
 7    1  0.5373252E-013  0.5052886E+02  0.7816164E-02  0.1300439E+00
        -11   -1    0    0    0    0  0.00000000000E+00  0.00000000000E+00  0.45593999997E+02  0.45594000000E+02  0.51100000000E-03 0.  1.
         11   -1    0    0    0    0 -0.00000000000E+00 -0.00000000000E+00 -0.45593999997E+02  0.45594000000E+02  0.51100000000E-03 0. -1.
    9900012    2    1    2    0    0 -0.40028807499E+02 -0.13268364537E+01 -0.70071381897E+01  0.50528856989E+02  0.29999991304E+02 0.  0.
        -12    1    1    2    0    0  0.40028807499E+02  0.13268364537E+01  0.70071381897E+01  0.40659143011E+02  0.00000000000E+00 0.  1.
         11    1    3    3    0    0  0.16486716327E+01 -0.16169604023E+01 -0.29444057753E+01  0.37419519940E+01  0.51100000000E-03 0. -1.
        -11    1    3    3    0    0 -0.93316067096E+01 -0.72214249251E+01  0.42741589447E+01  0.12549752853E+02  0.51100000000E-03 0.  1.
         12    1    3    3    0    0 -0.32345872422E+02  0.75115488737E+01 -0.83368913591E+01  0.34237152142E+02  0.00000000000E+00 0. -1.
</event>
<event>
 7    1  0.5373252E-013  0.5052877E+02  0.7816164E-02  0.1300439E+00
        -11   -1    0    0    0    0  0.00000000000E+00  0.00000000000E+00  0.45593999997E+02  0.45594000000E+02  0.51100000000E-03 0. -1.
         11   -1    0    0    0    0 -0.00000000000E+00 -0.00000000000E+00 -0.45593999997E+02  0.45594000000E+02  0.51100000000E-03 0.  1.
    9900012    2    1    2    0    0 -0.10959342449E+02  0.36119117906E+02  0.15115393638E+02  0.50528769928E+02  0.29999726671E+02 0.  0.
        -12    1    1    2    0    0  0.10959342449E+02 -0.36119117906E+02 -0.15115393638E+02  0.40659230072E+02  0.00000000000E+00 0.  1.
         11    1    3    3    0    0 -0.26055102771E+00  0.11174942390E+02  0.67962944528E+01  0.13081928100E+02  0.51100000000E-03 0. -1.
        -11    1    3    3    0    0  0.76564948357E+01  0.39476010144E+01  0.16264060671E+01  0.87664510433E+01  0.51100000000E-03 0.  1.
         12    1    3    3    0    0 -0.18355286257E+02  0.20996574501E+02  0.66926931180E+01  0.28680390784E+02  0.00000000000E+00 0. -1.
</event>
<event>
 7    1  0.5373252E-013  0.5052886E+02  0.7816164E-02  0.1300439E+00
        -11   -1    0    0    0    0  0.00000000000E+00  0.00000000000E+00  0.45593999997E+02  0.45594000000E+02  0.51100000000E-03 0. -1.
         11   -1    0    0    0    0 -0.00000000000E+00 -0.00000000000E+00 -0.45593999997E+02  0.45594000000E+02  0.51100000000E-03 0.  1.
    9900012    2    1    2    0    0  0.35195007600E+02 -0.15905818118E+02 -0.12707562538E+02  0.50528858893E+02  0.29999997090E+02 0.  0.
        -12    1    1    2    0    0 -0.35195007600E+02  0.15905818118E+02  0.12707562538E+02  0.40659141107E+02  0.00000000000E+00 0.  1.
         11    1    3    3    0    0  0.16420605765E+02 -0.73815086861E+01 -0.26904900705E+00  0.18005425621E+02  0.51100000000E-03 0. -1.
        -11    1    3    3    0    0  0.15525651406E+01 -0.12283790418E+02 -0.42889600115E+01  0.13103325677E+02  0.51100000000E-03 0.  1.
        -12    1    3    3    0    0  0.17221836695E+02  0.37594809866E+01 -0.81495535191E+01  0.19420107595E+02  0.00000000000E+00 0.  1.
</event>
<event>
 7    1  0.5373252E-013  0.5052887E+02  0.7816164E-02  0.1300439E+00
        -11   -1    0    0    0    0  0.00000000000E+00  0.00000000000E+00  0.45593999997E+02  0.45594000000E+02  0.51100000000E-03 0.  1.
         11   -1    0    0    0    0 -0.00000000000E+00 -0.00000000000E+00 -0.45593999997E+02  0.45594000000E+02  0.51100000000E-03 0. -1.
    9900012    2    1    2    0    0 -0.32777274834E+02 -0.46742450191E+01 -0.23600138808E+02  0.50528869860E+02  0.30000030426E+02 0.  0.
        -12    1    1    2    0    0  0.32777274834E+02  0.46742450191E+01  0.23600138808E+02  0.40659130140E+02  0.00000000000E+00 0.  1.
         11    1    3    3    0    0 -0.68269924581E+00 -0.35807152418E+01  0.24625543023E+01  0.43990651115E+01  0.51100000000E-03 0. -1.
        -11    1    3    3    0    0 -0.17799076242E+02 -0.74994771122E+01 -0.51292876473E+01  0.19983965173E+02  0.51100000000E-03 0.  1.
         12    1    3    3    0    0 -0.14295499346E+02  0.64059473348E+01 -0.20933405463E+02  0.26145839575E+02  0.00000000000E+00 0. -1.
</event>
<event>
 7    1  0.5373252E-013  0.5052886E+02  0.7816164E-02  0.1300439E+00
        -11   -1    0    0    0    0  0.00000000000E+00  0.00000000000E+00  0.45593999997E+02  0.45594000000E+02  0.51100000000E-03 0. -1.
         11   -1    0    0    0    0 -0.00000000000E+00 -0.00000000000E+00 -0.45593999997E+02  0.45594000000E+02  0.51100000000E-03 0.  1.
    9900012    2    1    2    0    0 -0.34166850835E+02 -0.82468716756E+01 -0.20439692399E+02  0.50528860636E+02  0.30000002389E+02 0.  0.
        -12    1    1    2    0    0  0.34166850835E+02  0.82468716756E+01  0.20439692399E+02  0.40659139364E+02  0.00000000000E+00 0.  1.
         11    1    3    3    0    0 -0.92084184390E+01  0.66833636001E+00  0.18502446885E+01  0.94162120465E+01  0.51100000000E-03 0. -1.
        -11    1    3    3    0    0 -0.10791215303E+02  0.35927030508E+01  0.64820093893E+00  0.11392015083E+02  0.51100000000E-03 0.  1.
        -12    1    3    3    0    0 -0.14167217094E+02 -0.12507911086E+02 -0.22938138027E+02  0.29720633507E+02  0.00000000000E+00 0.  1.
</event>
<event>
 7    1  0.5373252E-013  0.5052886E+02  0.7816164E-02  0.1300439E+00
        -11   -1    0    0    0    0  0.00000000000E+00  0.00000000000E+00  0.45593999997E+02  0.45594000000E+02  0.51100000000E-03 0.  1.
         11   -1    0    0    0    0 -0.00000000000E+00 -0.00000000000E+00 -0.45593999997E+02  0.45594000000E+02  0.51100000000E-03 0. -1.
    9900012    2    1    2    0    0 -0.26395006628E+01  0.18940161540E+02 -0.35881316580E+02  0.50528861268E+02  0.30000004310E+02 0.  0.
        -12    1    1    2    0    0  0.26395006628E+01 -0.18940161540E+02  0.35881316580E+02  0.40659138732E+02  0.00000000000E+00 0.  1.
         11    1    3    3    0    0 -0.40271381351E+01  0.13287557246E+02 -0.14769046497E+02  0.20270711724E+02  0.51100000000E-03 0. -1.
        -11    1    3    3    0    0  0.35503484051E+00  0.29538639404E+00 -0.24054910974E+02  0.24059344237E+02  0.51100000000E-03 0.  1.
        -12    1    3    3    0    0  0.10326026318E+01  0.53572178996E+01  0.29426408909E+01  0.61988053068E+01  0.00000000000E+00 0.  1.
</event>
<event>
 7    1  0.5373252E-013  0.5052886E+02  0.7816164E-02  0.1300439E+00
        -11   -1    0    0    0    0  0.00000000000E+00  0.00000000000E+00  0.45593999997E+02  0.45594000000E+02  0.51100000000E-03 0.  1.
         11   -1    0    0    0    0 -0.00000000000E+00 -0.00000000000E+00 -0.45593999997E+02  0.45594000000E+02  0.51100000000E-03 0. -1.
    9900012    2    1    2    0    0  0.74770556216E+01 -0.39671330351E+02  0.48419951345E+01  0.50528859214E+02  0.29999998067E+02 0.  0.
        -12    1    1    2    0    0 -0.74770556216E+01  0.39671330351E+02 -0.48419951345E+01  0.40659140786E+02  0.00000000000E+00 0.  1.
         11    1    3    3    0    0  0.54978102550E+01 -0.78129213710E+01  0.27119829987E+01  0.99308866672E+01  0.51100000000E-03 0. -1.
        -11    1    3    3    0    0  0.86680867614E+01 -0.28139360195E+02  0.84935732142E+01  0.30644740274E+02  0.51100000000E-03 0.  1.
         12    1    3    3    0    0 -0.66888413948E+01 -0.37190487853E+01 -0.63635610784E+01  0.99532322725E+01  0.00000000000E+00 0. -1.
</event>
<event>
 7    1  0.5373252E-013  0.5052886E+02  0.7816164E-02  0.1300439E+00
        -11   -1    0    0    0    0  0.00000000000E+00  0.00000000000E+00  0.45593999997E+02  0.45594000000E+02  0.51100000000E-03 0. -1.
         11   -1    0    0    0    0 -0.00000000000E+00 -0.00000000000E+00 -0.45593999997E+02  0.45594000000E+02  0.51100000000E-03 0.  1.
    9900012    2    1    2    0    0  0.23650968826E+02 -0.28982219780E+02  0.15931979605E+02  0.50528863709E+02  0.30000011730E+02 0.  0.
        -12    1    1    2    0    0 -0.23650968826E+02  0.28982219780E+02 -0.15931979605E+02  0.40659136291E+02  0.00000000000E+00 0.  1.
         11    1    3    3    0    0  0.85927678971E+00  0.17742196218E+00  0.38843205292E+01  0.39821829929E+01  0.51100000000E-03 0. -1.
        -11    1    3    3    0    0  0.27093967270E+02 -0.18860666273E+02  0.51116225480E+01  0.33405635453E+02  0.51100000000E-03 0.  1.
         12    1    3    3    0    0 -0.43022752333E+01 -0.10298975469E+02  0.69360365278E+01  0.13141045263E+02  0.00000000000E+00 0. -1.
</event>
<event>
 7    1  0.5373252E-013  0.5052887E+02  0.7816164E-02  0.1300439E+00
        -11   -1    0    0    0    0  0.00000000000E+00  0.00000000000E+00  0.45593999997E+02  0.45594000000E+02  0.51100000000E-03 0.  1.
         11   -1    0    0    0    0 -0.00000000000E+00 -0.00000000000E+00 -0.45593999997E+02  0.45594000000E+02  0.51100000000E-03 0. -1.
    9900012    2    1    2    0    0  0.16487658311E+02  0.15865712492E+02 -0.33609538649E+02  0.50528870673E+02  0.30000032896E+02 0.  0.
        -12    1    1    2    0    0 -0.16487658311E+02 -0.15865712492E+02  0.33609538649E+02  0.40659129327E+02  0.00000000000E+00 0.  1.
         11    1    3    3    0    0  0.12024040940E+02 -0.52779041044E+01 -0.17521804446E+02  0.21896288808E+02  0.51100000000E-03 0.  1.
        -11    1    3    3    0    0  0.59286995592E+01  0.63894619094E+01 -0.74965817864E+01  0.11496670853E+02  0.51100000000E-03 0. -1.
        -12    1    3    3    0    0 -0.14650821889E+01  0.14754154687E+02 -0.85911524173E+01  0.17135911012E+02  0.00000000000E+00 0.  1.
</event>
<event>
 7    1  0.5373252E-013  0.5052889E+02  0.7816164E-02  0.1300439E+00
        -11   -1    0    0    0    0  0.00000000000E+00  0.00000000000E+00  0.45593999997E+02  0.45594000000E+02  0.51100000000E-03 0.  1.
         11   -1    0    0    0    0 -0.00000000000E+00 -0.00000000000E+00 -0.45593999997E+02  0.45594000000E+02  0.51100000000E-03 0. -1.
    9900012    2    1    2    0    0  0.29189543516E+02  0.17488077553E+02 -0.22255358731E+02  0.50528889097E+02  0.30000088899E+02 0.  0.
        -12    1    1    2    0    0 -0.29189543516E+02 -0.17488077553E+02  0.22255358731E+02  0.40659110903E+02  0.00000000000E+00 0.  1.
         11    1    3    3    0    0  0.26131687149E+02  0.16364635109E+02 -0.10268016627E+02  0.32497669474E+02  0.51100000000E-03 0. -1.
        -11    1    3    3    0    0 -0.14142313092E+01  0.42170184254E+01  0.43673656319E+00  0.44692318896E+01  0.51100000000E-03 0.  1.
         12    1    3    3    0    0  0.44720876760E+01 -0.30935759822E+01 -0.12424078668E+02  0.13561987733E+02  0.00000000000E+00 0. -1.
</event>
<event>
 7    1  0.5373252E-013  0.5052887E+02  0.7816164E-02  0.1300439E+00
        -11   -1    0    0    0    0  0.00000000000E+00  0.00000000000E+00  0.45593999997E+02  0.45594000000E+02  0.51100000000E-03 0. -1.
         11   -1    0    0    0    0 -0.00000000000E+00 -0.00000000000E+00 -0.45593999997E+02  0.45594000000E+02  0.51100000000E-03 0.  1.
    9900012    2    1    2    0    0  0.15120743956E+02  0.18649533531E+01  0.37696816319E+02  0.50528869299E+02  0.30000028720E+02 0.  0.
        -12    1    1    2    0    0 -0.15120743956E+02 -0.18649533531E+01 -0.37696816319E+02  0.40659130701E+02  0.00000000000E+00 0.  1.
         11    1    3    3    0    0  0.79530158234E+01 -0.19530266707E+01 -0.11716881480E+01  0.82727037443E+01  0.51100000000E-03 0. -1.
        -11    1    3    3    0    0 -0.28376327070E+01 -0.21638316978E+01  0.34301179478E+01  0.49497511446E+01  0.51100000000E-03 0.  1.
         12    1    3    3    0    0  0.10005360839E+02  0.59818117216E+01  0.35438386520E+02  0.37306414410E+02  0.00000000000E+00 0. -1.
</event>
<event>
 7    1  0.5373252E-013  0.5052887E+02  0.7816164E-02  0.1300439E+00
        -11   -1    0    0    0    0  0.00000000000E+00  0.00000000000E+00  0.45593999997E+02  0.45594000000E+02  0.51100000000E-03 0.  1.
         11   -1    0    0    0    0 -0.00000000000E+00 -0.00000000000E+00 -0.45593999997E+02  0.45594000000E+02  0.51100000000E-03 0. -1.
    9900012    2    1    2    0    0 -0.15399259915E+02 -0.23383454241E+02 -0.29482899461E+02  0.50528874348E+02  0.30000044068E+02 0.  0.
        -12    1    1    2    0    0  0.15399259915E+02  0.23383454241E+02  0.29482899461E+02  0.40659125652E+02  0.00000000000E+00 0.  1.
         11    1    3    3    0    0  0.35267213148E+01 -0.17168838132E+00 -0.15197344502E+00  0.35341669912E+01  0.51100000000E-03 0. -1.
        -11    1    3    3    0    0 -0.71313572556E+01  0.29229912685E+01 -0.89788501970E+01  0.11832999847E+02  0.51100000000E-03 0.  1.
         12    1    3    3    0    0 -0.11794623974E+02 -0.26134757128E+02 -0.20352075819E+02  0.35161707509E+02  0.00000000000E+00 0. -1.
</event>
<event>
 7    1  0.5373252E-013  0.5052886E+02  0.7816164E-02  0.1300439E+00
        -11   -1    0    0    0    0  0.00000000000E+00  0.00000000000E+00  0.45593999997E+02  0.45594000000E+02  0.51100000000E-03 0. -1.
         11   -1    0    0    0    0 -0.00000000000E+00 -0.00000000000E+00 -0.45593999997E+02  0.45594000000E+02  0.51100000000E-03 0.  1.
    9900012    2    1    2    0    0  0.38081839170E+02 -0.91562700012E+01 -0.10913382485E+02  0.50528859918E+02  0.30000000208E+02 0.  0.
        -12    1    1    2    0    0 -0.38081839170E+02  0.91562700012E+01  0.10913382485E+02  0.40659140082E+02  0.00000000000E+00 0.  1.
         11    1    3    3    0    0  0.12617335248E+02  0.35604634158E+01  0.38694102219E+01  0.13669176428E+02  0.51100000000E-03 0. -1.
        -11    1    3    3    0    0 -0.24477320874E+01 -0.29105502114E+01 -0.35860451075E+01  0.52270847208E+01  0.51100000000E-03 0.  1.
        -12    1    3    3    0    0  0.27912236010E+02 -0.98061832057E+01 -0.11196747599E+02  0.31632598770E+02  0.00000000000E+00 0.  1.
</event>
<event>
 7    1  0.5373252E-013  0.5052886E+02  0.7816164E-02  0.1300439E+00
        -11   -1    0    0    0    0  0.00000000000E+00  0.00000000000E+00  0.45593999997E+02  0.45594000000E+02  0.51100000000E-03 0. -1.
         11   -1    0    0    0    0 -0.00000000000E+00 -0.00000000000E+00 -0.45593999997E+02  0.45594000000E+02  0.51100000000E-03 0.  1.
    9900012    2    1    2    0    0  0.15377654697E+02 -0.36637852878E+02 -0.86232997485E+01  0.50528858026E+02  0.29999994456E+02 0.  0.
        -12    1    1    2    0    0 -0.15377654697E+02  0.36637852878E+02  0.86232997485E+01  0.40659141974E+02  0.00000000000E+00 0.  1.
         11    1    3    3    0    0  0.45755928917E+01 -0.20603446535E+02  0.77988043086E+01  0.22500209074E+02  0.51100000000E-03 0. -1.
        -11    1    3    3    0    0  0.40059930567E+01  0.83233822001E+00 -0.53623692976E+01  0.67450553762E+01  0.51100000000E-03 0.  1.
        -12    1    3    3    0    0  0.67960687482E+01 -0.16866744563E+02 -0.11059734759E+02  0.21283593576E+02  0.00000000000E+00 0.  1.
</event>
<event>
 7    1  0.5373252E-013  0.5052888E+02  0.7816164E-02  0.1300439E+00
        -11   -1    0    0    0    0  0.00000000000E+00  0.00000000000E+00  0.45593999997E+02  0.45594000000E+02  0.51100000000E-03 0.  1.
         11   -1    0    0    0    0 -0.00000000000E+00 -0.00000000000E+00 -0.45593999997E+02  0.45594000000E+02  0.51100000000E-03 0. -1.
    9900012    2    1    2    0    0 -0.28017918610E+02  0.27291852378E+02 -0.11104722531E+02  0.50528882548E+02  0.30000068993E+02 0.  0.
        -12    1    1    2    0    0  0.28017918610E+02 -0.27291852378E+02  0.11104722531E+02  0.40659117452E+02  0.00000000000E+00 0.  1.
         11    1    3    3    0    0  0.25522597991E+01  0.10757464845E+01  0.27578220032E+01  0.39085602264E+01  0.51100000000E-03 0.  1.
        -11    1    3    3    0    0 -0.14832056735E+02  0.12854795204E+02  0.31377734725E+01  0.19876651864E+02  0.51100000000E-03 0. -1.
         12    1    3    3    0    0 -0.15738121675E+02  0.13361310690E+02 -0.17000318006E+02  0.26743670457E+02  0.00000000000E+00 0. -1.
</event>
<event>
 7    1  0.5373252E-013  0.5052882E+02  0.7816164E-02  0.1300439E+00
        -11   -1    0    0    0    0  0.00000000000E+00  0.00000000000E+00  0.45593999997E+02  0.45594000000E+02  0.51100000000E-03 0. -1.
         11   -1    0    0    0    0 -0.00000000000E+00 -0.00000000000E+00 -0.45593999997E+02  0.45594000000E+02  0.51100000000E-03 0.  1.
    9900012    2    1    2    0    0 -0.56686298357E+01 -0.39638020762E+02  0.70613581426E+01  0.50528821049E+02  0.29999882062E+02 0.  0.
        -12    1    1    2    0    0  0.56686298357E+01  0.39638020762E+02 -0.70613581426E+01  0.40659178951E+02  0.00000000000E+00 0.  1.
         11    1    3    3    0    0  0.23660961662E+01 -0.13284649524E+02  0.69900597092E+01  0.15196751595E+02  0.51100000000E-03 0. -1.
        -11    1    3    3    0    0 -0.72435338544E+01 -0.89659764578E+00  0.56851044184E+01  0.92516529630E+01  0.51100000000E-03 0.  1.
         12    1    3    3    0    0 -0.79119214746E+00 -0.25456773592E+02 -0.56138059850E+01  0.26080416492E+02  0.00000000000E+00 0. -1.
</event>
<event>
 7    1  0.5373252E-013  0.5052886E+02  0.7816164E-02  0.1300439E+00
        -11   -1    0    0    0    0  0.00000000000E+00  0.00000000000E+00  0.45593999997E+02  0.45594000000E+02  0.51100000000E-03 0.  1.
         11   -1    0    0    0    0 -0.00000000000E+00 -0.00000000000E+00 -0.45593999997E+02  0.45594000000E+02  0.51100000000E-03 0. -1.
    9900012    2    1    2    0    0 -0.14470838983E+02  0.22287068773E+02 -0.30774128983E+02  0.50528860436E+02  0.30000001783E+02 0.  0.
        -12    1    1    2    0    0  0.14470838983E+02 -0.22287068773E+02  0.30774128983E+02  0.40659139564E+02  0.00000000000E+00 0.  1.
         11    1    3    3    0    0 -0.10086619823E+02  0.11282548730E+02 -0.21638838585E+02  0.26405967902E+02  0.51100000000E-03 0. -1.
        -11    1    3    3    0    0  0.22495491482E+01  0.13356837185E+02 -0.10263887607E+02  0.16994497934E+02  0.51100000000E-03 0.  1.
         12    1    3    3    0    0 -0.66337683087E+01 -0.23523171420E+01  0.11285972092E+01  0.71283945999E+01  0.00000000000E+00 0. -1.
</event>
<event>
 7    1  0.5373252E-013  0.5052887E+02  0.7816164E-02  0.1300439E+00
        -11   -1    0    0    0    0  0.00000000000E+00  0.00000000000E+00  0.45593999997E+02  0.45594000000E+02  0.51100000000E-03 0.  1.
         11   -1    0    0    0    0 -0.00000000000E+00 -0.00000000000E+00 -0.45593999997E+02  0.45594000000E+02  0.51100000000E-03 0. -1.
    9900012    2    1    2    0    0  0.16387768494E+02 -0.82111892788E+01 -0.36293002025E+02  0.50528873330E+02  0.30000040974E+02 0.  0.
        -12    1    1    2    0    0 -0.16387768494E+02  0.82111892788E+01  0.36293002025E+02  0.40659126670E+02  0.00000000000E+00 0.  1.
         11    1    3    3    0    0 -0.34113810857E+01  0.24155855958E+01 -0.15749121715E+02  0.16294398109E+02  0.51100000000E-03 0. -1.
        -11    1    3    3    0    0  0.25413343578E+00 -0.71436620772E+01 -0.81039486706E+01  0.10806038867E+02  0.51100000000E-03 0.  1.
        -12    1    3    3    0    0  0.19545016144E+02 -0.34831127974E+01 -0.12439931639E+02  0.23428436354E+02  0.00000000000E+00 0.  1.
</event>
<event>
 7    1  0.5373252E-013  0.5052886E+02  0.7816164E-02  0.1300439E+00
        -11   -1    0    0    0    0  0.00000000000E+00  0.00000000000E+00  0.45593999997E+02  0.45594000000E+02  0.51100000000E-03 0.  1.
         11   -1    0    0    0    0 -0.00000000000E+00 -0.00000000000E+00 -0.45593999997E+02  0.45594000000E+02  0.51100000000E-03 0. -1.
    9900012    2    1    2    0    0 -0.28264612947E+02  0.96399763904E+01 -0.27592542132E+02  0.50528857471E+02  0.29999992769E+02 0.  0.
        -12    1    1    2    0    0  0.28264612947E+02 -0.96399763904E+01  0.27592542132E+02  0.40659142529E+02  0.00000000000E+00 0.  1.
         11    1    3    3    0    0 -0.11968708641E+02  0.11357033740E+02 -0.25760738272E+02  0.30591630203E+02  0.51100000000E-03 0. -1.
        -11    1    3    3    0    0 -0.12331654539E+02  0.32224584244E+01 -0.38081303482E+01  0.13302473415E+02  0.51100000000E-03 0.  1.
        -12    1    3    3    0    0 -0.39642497675E+01 -0.49395157736E+01  0.19763264879E+01  0.66347538525E+01  0.00000000000E+00 0.  1.
</event>
<event>
 7    1  0.5373252E-013  0.5052886E+02  0.7816164E-02  0.1300439E+00
        -11   -1    0    0    0    0  0.00000000000E+00  0.00000000000E+00  0.45593999997E+02  0.45594000000E+02  0.51100000000E-03 0.  1.
         11   -1    0    0    0    0 -0.00000000000E+00 -0.00000000000E+00 -0.45593999997E+02  0.45594000000E+02  0.51100000000E-03 0. -1.
    9900012    2    1    2    0    0  0.85147525584E+01  0.99922553711E+01 -0.38481417639E+02  0.50528859797E+02  0.29999999840E+02 0.  0.
        -12    1    1    2    0    0 -0.85147525584E+01 -0.99922553711E+01  0.38481417639E+02  0.40659140203E+02  0.00000000000E+00 0.  1.
         11    1    3    3    0    0  0.69916994092E+01  0.10511639080E-01 -0.60952659911E+01  0.92755721595E+01  0.51100000000E-03 0. -1.
        -11    1    3    3    0    0 -0.69627864014E+01 -0.24489231300E+01 -0.21349795873E+02  0.22589630432E+02  0.51100000000E-03 0.  1.
         12    1    3    3    0    0  0.84858395507E+01  0.12430666862E+02 -0.11036355775E+02  0.18663657206E+02  0.00000000000E+00 0. -1.
</event>
<event>
 7    1  0.5373252E-013  0.5052886E+02  0.7816164E-02  0.1300439E+00
        -11   -1    0    0    0    0  0.00000000000E+00  0.00000000000E+00  0.45593999997E+02  0.45594000000E+02  0.51100000000E-03 0.  1.
         11   -1    0    0    0    0 -0.00000000000E+00 -0.00000000000E+00 -0.45593999997E+02  0.45594000000E+02  0.51100000000E-03 0. -1.
    9900012    2    1    2    0    0  0.38038239986E+02 -0.96818282693E+01 -0.10607560735E+02  0.50528857798E+02  0.29999993761E+02 0.  0.
        -12    1    1    2    0    0 -0.38038239986E+02  0.96818282693E+01  0.10607560735E+02  0.40659142202E+02  0.00000000000E+00 0.  1.
         11    1    3    3    0    0  0.70000731108E+00 -0.91490023592E+01  0.19110084081E+01  0.93726307834E+01  0.51100000000E-03 0. -1.
        -11    1    3    3    0    0  0.18312379774E+02 -0.19825289066E+01 -0.15533454329E+00  0.18420038082E+02  0.51100000000E-03 0.  1.
         12    1    3    3    0    0  0.19025852901E+02  0.14497029966E+01 -0.12363234600E+02  0.22736188932E+02  0.00000000000E+00 0. -1.
</event>
<event>
 7    1  0.5373252E-013  0.5052886E+02  0.7816164E-02  0.1300439E+00
        -11   -1    0    0    0    0  0.00000000000E+00  0.00000000000E+00  0.45593999997E+02  0.45594000000E+02  0.51100000000E-03 0. -1.
         11   -1    0    0    0    0 -0.00000000000E+00 -0.00000000000E+00 -0.45593999997E+02  0.45594000000E+02  0.51100000000E-03 0.  1.
    9900012    2    1    2    0    0 -0.24533732319E+02 -0.23215990093E+02  0.22633591271E+02  0.50528859929E+02  0.30000000240E+02 0.  0.
        -12    1    1    2    0    0  0.24533732319E+02  0.23215990093E+02 -0.22633591271E+02  0.40659140071E+02  0.00000000000E+00 0.  1.
         11    1    3    3    0    0  0.64417608351E+00 -0.56636656211E+01  0.13762981388E+02  0.14896701918E+02  0.51100000000E-03 0.  1.
        -11    1    3    3    0    0 -0.21637393911E+02 -0.10693495487E+02  0.12411643721E+02  0.27139944014E+02  0.51100000000E-03 0. -1.
        -12    1    3    3    0    0 -0.35405144917E+01 -0.68588289847E+01 -0.35410338383E+01  0.84922139959E+01  0.00000000000E+00 0.  1.
</event>
<event>
 7    1  0.5373252E-013  0.5052886E+02  0.7816164E-02  0.1300439E+00
        -11   -1    0    0    0    0  0.00000000000E+00  0.00000000000E+00  0.45593999997E+02  0.45594000000E+02  0.51100000000E-03 0.  1.
         11   -1    0    0    0    0 -0.00000000000E+00 -0.00000000000E+00 -0.45593999997E+02  0.45594000000E+02  0.51100000000E-03 0. -1.
    9900012    2    1    2    0    0  0.31856950824E+02  0.21505279512E+02 -0.13259847126E+02  0.50528857012E+02  0.29999991375E+02 0.  0.
        -12    1    1    2    0    0 -0.31856950824E+02 -0.21505279512E+02  0.13259847126E+02  0.40659142988E+02  0.00000000000E+00 0.  1.
         11    1    3    3    0    0  0.49944372166E+01  0.67118802510E+01 -0.22062735213E+01  0.86522472645E+01  0.51100000000E-03 0. -1.
        -11    1    3    3    0    0  0.23321550344E+02  0.10855898504E+01  0.87552403051E+00  0.23363213785E+02  0.51100000000E-03 0.  1.
         12    1    3    3    0    0  0.35409632628E+01  0.13707809411E+02 -0.11929097636E+02  0.18513395963E+02  0.00000000000E+00 0. -1.
</event>
<event>
 7    1  0.5373252E-013  0.5052881E+02  0.7816164E-02  0.1300439E+00
        -11   -1    0    0    0    0  0.00000000000E+00  0.00000000000E+00  0.45593999997E+02  0.45594000000E+02  0.51100000000E-03 0.  1.
         11   -1    0    0    0    0 -0.00000000000E+00 -0.00000000000E+00 -0.45593999997E+02  0.45594000000E+02  0.51100000000E-03 0. -1.
    9900012    2    1    2    0    0  0.21100389380E+01  0.39635156888E+02 -0.88188230099E+01  0.50528812046E+02  0.29999854693E+02 0.  0.
        -12    1    1    2    0    0 -0.21100389380E+01 -0.39635156888E+02  0.88188230099E+01  0.40659187954E+02  0.00000000000E+00 0.  1.
         11    1    3    3    0    0  0.20328193879E+01  0.11979380628E+02 -0.10865442443E+02  0.16300176522E+02  0.51100000000E-03 0. -1.
        -11    1    3    3    0    0  0.42148813308E+01  0.18141757241E+01  0.62176385013E+01  0.77275796330E+01  0.51100000000E-03 0.  1.
        -12    1    3    3    0    0 -0.41376617807E+01  0.25841600536E+02 -0.41710190681E+01  0.26501055891E+02  0.00000000000E+00 0.  1.
</event>
<event>
 7    1  0.5373252E-013  0.5052886E+02  0.7816164E-02  0.1300439E+00
        -11   -1    0    0    0    0  0.00000000000E+00  0.00000000000E+00  0.45593999997E+02  0.45594000000E+02  0.51100000000E-03 0. -1.
         11   -1    0    0    0    0 -0.00000000000E+00 -0.00000000000E+00 -0.45593999997E+02  0.45594000000E+02  0.51100000000E-03 0.  1.
    9900012    2    1    2    0    0 -0.18118269129E+02  0.76484384983E+01  0.35586450182E+02  0.50528859278E+02  0.29999998261E+02 0.  0.
        -12    1    1    2    0    0  0.18118269129E+02 -0.76484384983E+01 -0.35586450182E+02  0.40659140722E+02  0.00000000000E+00 0.  1.
         11    1    3    3    0    0 -0.46758734100E+01 -0.26140006275E+01  0.27520798775E+02  0.28037317220E+02  0.51100000000E-03 0. -1.
        -11    1    3    3    0    0  0.20261669220E+01 -0.46153235210E+00  0.18583991619E+00  0.20863607654E+01  0.51100000000E-03 0.  1.
         12    1    3    3    0    0 -0.15468562641E+02  0.10723971478E+02  0.78798114914E+01  0.20405181293E+02  0.00000000000E+00 0. -1.
</event>
<event>
 7    1  0.5373252E-013  0.5052887E+02  0.7816164E-02  0.1300439E+00
        -11   -1    0    0    0    0  0.00000000000E+00  0.00000000000E+00  0.45593999997E+02  0.45594000000E+02  0.51100000000E-03 0.  1.
         11   -1    0    0    0    0 -0.00000000000E+00 -0.00000000000E+00 -0.45593999997E+02  0.45594000000E+02  0.51100000000E-03 0. -1.
    9900012    2    1    2    0    0 -0.26715838278E+02  0.30405031905E+02 -0.38682294431E+01  0.50528865982E+02  0.30000018639E+02 0.  0.
        -12    1    1    2    0    0  0.26715838278E+02 -0.30405031905E+02  0.38682294431E+01  0.40659134018E+02  0.00000000000E+00 0.  1.
         11    1    3    3    0    0 -0.23218724778E+02  0.80371926239E+01  0.46375869336E-01  0.24570465941E+02  0.51100000000E-03 0. -1.
        -11    1    3    3    0    0  0.50094219521E+00 -0.49068194106E+00  0.19086424418E+01  0.20333784896E+01  0.51100000000E-03 0.  1.
         12    1    3    3    0    0 -0.39980556951E+01  0.22858521223E+02 -0.58232477542E+01  0.23925021551E+02  0.00000000000E+00 0. -1.
</event>
<event>
 7    1  0.5373252E-013  0.5052884E+02  0.7816164E-02  0.1300439E+00
        -11   -1    0    0    0    0  0.00000000000E+00  0.00000000000E+00  0.45593999997E+02  0.45594000000E+02  0.51100000000E-03 0.  1.
         11   -1    0    0    0    0 -0.00000000000E+00 -0.00000000000E+00 -0.45593999997E+02  0.45594000000E+02  0.51100000000E-03 0. -1.
    9900012    2    1    2    0    0  0.20772322352E+02  0.14746597276E+02 -0.31689367011E+02  0.50528837580E+02  0.29999932309E+02 0.  0.
        -12    1    1    2    0    0 -0.20772322352E+02 -0.14746597276E+02  0.31689367011E+02  0.40659162420E+02  0.00000000000E+00 0.  1.
         11    1    3    3    0    0  0.11219504362E+02  0.60516822064E+01 -0.10989772959E+02  0.16830782679E+02  0.51100000000E-03 0. -1.
        -11    1    3    3    0    0  0.38323840005E+01 -0.43271264279E+01 -0.18404640981E+02  0.19290982353E+02  0.51100000000E-03 0.  1.
         12    1    3    3    0    0  0.57204339902E+01  0.13022041498E+02 -0.22949530705E+01  0.14407072548E+02  0.00000000000E+00 0. -1.
</event>
<event>
 7    1  0.5373252E-013  0.5052885E+02  0.7816164E-02  0.1300439E+00
        -11   -1    0    0    0    0  0.00000000000E+00  0.00000000000E+00  0.45593999997E+02  0.45594000000E+02  0.51100000000E-03 0.  1.
         11   -1    0    0    0    0 -0.00000000000E+00 -0.00000000000E+00 -0.45593999997E+02  0.45594000000E+02  0.51100000000E-03 0. -1.
    9900012    2    1    2    0    0 -0.18685925605E+02 -0.23420162398E+02 -0.27486333481E+02  0.50528851574E+02  0.29999974843E+02 0.  0.
        -12    1    1    2    0    0  0.18685925605E+02  0.23420162398E+02  0.27486333481E+02  0.40659148426E+02  0.00000000000E+00 0.  1.
         11    1    3    3    0    0  0.51833762102E+01 -0.52991190722E+01 -0.76079178726E+01  0.10622074491E+02  0.51100000000E-03 0. -1.
        -11    1    3    3    0    0 -0.60002525093E+01 -0.39684485952E+01 -0.14942145197E+02  0.16583706395E+02  0.51100000000E-03 0.  1.
         12    1    3    3    0    0 -0.17869049306E+02 -0.14152594731E+02 -0.49362704116E+01  0.23323070688E+02  0.00000000000E+00 0. -1.
</event>
<event>
 7    1  0.5373252E-013  0.5052884E+02  0.7816164E-02  0.1300439E+00
        -11   -1    0    0    0    0  0.00000000000E+00  0.00000000000E+00  0.45593999997E+02  0.45594000000E+02  0.51100000000E-03 0. -1.
         11   -1    0    0    0    0 -0.00000000000E+00 -0.00000000000E+00 -0.45593999997E+02  0.45594000000E+02  0.51100000000E-03 0.  1.
    9900012    2    1    2    0    0  0.29196633940E+02  0.28238380462E+02  0.18213588607E+01  0.50528844664E+02  0.29999953839E+02 0.  0.
        -12    1    1    2    0    0 -0.29196633940E+02 -0.28238380462E+02 -0.18213588607E+01  0.40659155336E+02  0.00000000000E+00 0.  1.
         11    1    3    3    0    0  0.10271146007E+02  0.18166228544E+02 -0.17930756336E+00  0.20869605921E+02  0.51100000000E-03 0. -1.
        -11    1    3    3    0    0  0.20886072351E+02  0.90206664266E+01 -0.41431595081E+01  0.23125012692E+02  0.51100000000E-03 0.  1.
         12    1    3    3    0    0 -0.19605844179E+01  0.10514854914E+01  0.61438259322E+01  0.65342260509E+01  0.00000000000E+00 0. -1.
</event>
<event>
 7    1  0.5373252E-013  0.5052886E+02  0.7816164E-02  0.1300439E+00
        -11   -1    0    0    0    0  0.00000000000E+00  0.00000000000E+00  0.45593999997E+02  0.45594000000E+02  0.51100000000E-03 0.  1.
         11   -1    0    0    0    0 -0.00000000000E+00 -0.00000000000E+00 -0.45593999997E+02  0.45594000000E+02  0.51100000000E-03 0. -1.
    9900012    2    1    2    0    0  0.27307193304E+02 -0.29638322567E+02 -0.53900442508E+01  0.50528861448E+02  0.30000004859E+02 0.  0.
        -12    1    1    2    0    0 -0.27307193304E+02  0.29638322567E+02  0.53900442508E+01  0.40659138552E+02  0.00000000000E+00 0.  1.
         11    1    3    3    0    0  0.21046913428E+02 -0.10569257878E+02 -0.42001018110E+01  0.23923265505E+02  0.51100000000E-03 0. -1.
        -11    1    3    3    0    0  0.10785516466E+02 -0.16859489940E+02  0.27623739519E+01  0.20203971802E+02  0.51100000000E-03 0.  1.
        -12    1    3    3    0    0 -0.45252365912E+01 -0.22095747496E+01 -0.39523163917E+01  0.64016241408E+01  0.00000000000E+00 0.  1.
</event>
<event>
 7    1  0.5373252E-013  0.5052886E+02  0.7816164E-02  0.1300439E+00
        -11   -1    0    0    0    0  0.00000000000E+00  0.00000000000E+00  0.45593999997E+02  0.45594000000E+02  0.51100000000E-03 0.  1.
         11   -1    0    0    0    0 -0.00000000000E+00 -0.00000000000E+00 -0.45593999997E+02  0.45594000000E+02  0.51100000000E-03 0. -1.
    9900012    2    1    2    0    0 -0.22057332263E+02  0.32027138930E+02  0.11870225012E+02  0.50528858636E+02  0.29999996311E+02 0.  0.
        -12    1    1    2    0    0  0.22057332263E+02 -0.32027138930E+02 -0.11870225012E+02  0.40659141364E+02  0.00000000000E+00 0.  1.
         11    1    3    3    0    0 -0.31601018113E+00  0.19077667940E+02  0.21822607563E+01  0.19204674919E+02  0.51100000000E-03 0. -1.
        -11    1    3    3    0    0  0.75196709134E+00 -0.17066175413E+01 -0.13443844997E+01  0.22989927975E+01  0.51100000000E-03 0.  1.
         12    1    3    3    0    0 -0.22493289173E+02  0.14656088531E+02  0.11032348755E+02  0.29025190920E+02  0.00000000000E+00 0. -1.
</event>
<event>
 7    1  0.5373252E-013  0.5052886E+02  0.7816164E-02  0.1300439E+00
        -11   -1    0    0    0    0  0.00000000000E+00  0.00000000000E+00  0.45593999997E+02  0.45594000000E+02  0.51100000000E-03 0.  1.
         11   -1    0    0    0    0 -0.00000000000E+00 -0.00000000000E+00 -0.45593999997E+02  0.45594000000E+02  0.51100000000E-03 0. -1.
    9900012    2    1    2    0    0 -0.39788746173E+02  0.80839008340E+01  0.21614435410E+01  0.50528860647E+02  0.30000002423E+02 0.  0.
        -12    1    1    2    0    0  0.39788746173E+02 -0.80839008340E+01 -0.21614435410E+01  0.40659139353E+02  0.00000000000E+00 0.  1.
         11    1    3    3    0    0 -0.13082737443E+02 -0.40313832208E+01  0.12557873532E+02  0.18577143419E+02  0.51100000000E-03 0.  1.
        -11    1    3    3    0    0 -0.17407022486E+02  0.61080187927E+01 -0.31347790328E+01  0.18712005912E+02  0.51100000000E-03 0. -1.
        -12    1    3    3    0    0 -0.92989862435E+01  0.60072652620E+01 -0.72616509586E+01  0.13239711316E+02  0.00000000000E+00 0.  1.
</event>
<event>
 7    1  0.5373252E-013  0.5052886E+02  0.7816164E-02  0.1300439E+00
        -11   -1    0    0    0    0  0.00000000000E+00  0.00000000000E+00  0.45593999997E+02  0.45594000000E+02  0.51100000000E-03 0.  1.
         11   -1    0    0    0    0 -0.00000000000E+00 -0.00000000000E+00 -0.45593999997E+02  0.45594000000E+02  0.51100000000E-03 0. -1.
    9900012    2    1    2    0    0  0.26072575071E+01  0.34055687022E+01 -0.40432289923E+02  0.50528858859E+02  0.29999996989E+02 0.  0.
        -12    1    1    2    0    0 -0.26072575071E+01 -0.34055687022E+01  0.40432289923E+02  0.40659141141E+02  0.00000000000E+00 0.  1.
         11    1    3    3    0    0 -0.73446592597E+01  0.36544280984E+01 -0.30929616275E+02  0.31999062917E+02  0.51100000000E-03 0. -1.
        -11    1    3    3    0    0 -0.12381322592E+01 -0.24771379789E+01 -0.59775643384E+01  0.65879025295E+01  0.51100000000E-03 0.  1.
        -12    1    3    3    0    0  0.11190049026E+02  0.22282785827E+01 -0.35251093090E+01  0.11941893413E+02  0.00000000000E+00 0.  1.
</event>
<event>
 7    1  0.5373252E-013  0.5052887E+02  0.7816164E-02  0.1300439E+00
        -11   -1    0    0    0    0  0.00000000000E+00  0.00000000000E+00  0.45593999997E+02  0.45594000000E+02  0.51100000000E-03 0.  1.
         11   -1    0    0    0    0 -0.00000000000E+00 -0.00000000000E+00 -0.45593999997E+02  0.45594000000E+02  0.51100000000E-03 0. -1.
    9900012    2    1    2    0    0 -0.29791957234E+02 -0.25386354446E+02 -0.11006243607E+02  0.50528866878E+02  0.30000021361E+02 0.  0.
        -12    1    1    2    0    0  0.29791957234E+02  0.25386354446E+02  0.11006243607E+02  0.40659133122E+02  0.00000000000E+00 0.  1.
         11    1    3    3    0    0 -0.29189714224E+01 -0.17690675962E+01 -0.14574895270E+01  0.37113704082E+01  0.51100000000E-03 0. -1.
        -11    1    3    3    0    0  0.10572994191E+01 -0.13622022783E+02 -0.10351883792E+02  0.17141729349E+02  0.51100000000E-03 0.  1.
        -12    1    3    3    0    0 -0.27930285231E+02 -0.99952640677E+01  0.80312971220E+00  0.29675767121E+02  0.00000000000E+00 0.  1.
</event>
<event>
 7    1  0.5373252E-013  0.5052886E+02  0.7816164E-02  0.1300439E+00
        -11   -1    0    0    0    0  0.00000000000E+00  0.00000000000E+00  0.45593999997E+02  0.45594000000E+02  0.51100000000E-03 0.  1.
         11   -1    0    0    0    0 -0.00000000000E+00 -0.00000000000E+00 -0.45593999997E+02  0.45594000000E+02  0.51100000000E-03 0. -1.
    9900012    2    1    2    0    0  0.49737252913E+01 -0.21964696975E+02 -0.33852319237E+02  0.50528863582E+02  0.30000011345E+02 0.  0.
        -12    1    1    2    0    0 -0.49737252913E+01  0.21964696975E+02  0.33852319237E+02  0.40659136418E+02  0.00000000000E+00 0.  1.
         11    1    3    3    0    0  0.16236110571E+01 -0.16575852407E+02 -0.33044617377E+02  0.37004617735E+02  0.51100000000E-03 0. -1.
        -11    1    3    3    0    0 -0.33538415892E+01  0.33025085584E+00 -0.29239550741E+01  0.44617073604E+01  0.51100000000E-03 0.  1.
         12    1    3    3    0    0  0.67039558235E+01 -0.57190954243E+01  0.21162532142E+01  0.90625384867E+01  0.00000000000E+00 0. -1.
</event>
<event>
 7    1  0.5373252E-013  0.5052886E+02  0.7816164E-02  0.1300439E+00
        -11   -1    0    0    0    0  0.00000000000E+00  0.00000000000E+00  0.45593999997E+02  0.45594000000E+02  0.51100000000E-03 0. -1.
         11   -1    0    0    0    0 -0.00000000000E+00 -0.00000000000E+00 -0.45593999997E+02  0.45594000000E+02  0.51100000000E-03 0.  1.
    9900012    2    1    2    0    0 -0.64233147789E+01 -0.33737462273E+02  0.21764431330E+02  0.50528858291E+02  0.29999995262E+02 0.  0.
        -12    1    1    2    0    0  0.64233147789E+01  0.33737462273E+02 -0.21764431330E+02  0.40659141709E+02  0.00000000000E+00 0.  1.
         11    1    3    3    0    0  0.69824880687E+01  0.33654544364E+00  0.83869826334E+01  0.10918327730E+02  0.51100000000E-03 0.  1.
        -11    1    3    3    0    0 -0.28972181450E+01 -0.15942391301E+02  0.74327308440E+01  0.17826923499E+02  0.51100000000E-03 0. -1.
        -12    1    3    3    0    0 -0.10508584703E+02 -0.18131616416E+02  0.59447178531E+01  0.21783607063E+02  0.00000000000E+00 0.  1.
</event>
<event>
 7    1  0.5373252E-013  0.5052886E+02  0.7816164E-02  0.1300439E+00
        -11   -1    0    0    0    0  0.00000000000E+00  0.00000000000E+00  0.45593999997E+02  0.45594000000E+02  0.51100000000E-03 0. -1.
         11   -1    0    0    0    0 -0.00000000000E+00 -0.00000000000E+00 -0.45593999997E+02  0.45594000000E+02  0.51100000000E-03 0.  1.
    9900012    2    1    2    0    0 -0.34523975926E+02 -0.17521356139E+02  0.12420260002E+02  0.50528859660E+02  0.29999999421E+02 0.  0.
        -12    1    1    2    0    0  0.34523975926E+02  0.17521356139E+02 -0.12420260002E+02  0.40659140340E+02  0.00000000000E+00 0.  1.
         11    1    3    3    0    0 -0.17446244612E+02 -0.21557742336E+02  0.31411395679E+01  0.27910114004E+02  0.51100000000E-03 0.  1.
        -11    1    3    3    0    0 -0.41714596796E+01 -0.94237922430E+00  0.75509773030E+01  0.86779267658E+01  0.51100000000E-03 0. -1.
        -12    1    3    3    0    0 -0.12906271635E+02  0.49787654213E+01  0.17281431309E+01  0.13940818890E+02  0.00000000000E+00 0.  1.
</event>
<event>
 7    1  0.5373252E-013  0.5052880E+02  0.7816164E-02  0.1300439E+00
        -11   -1    0    0    0    0  0.00000000000E+00  0.00000000000E+00  0.45593999997E+02  0.45594000000E+02  0.51100000000E-03 0.  1.
         11   -1    0    0    0    0 -0.00000000000E+00 -0.00000000000E+00 -0.45593999997E+02  0.45594000000E+02  0.51100000000E-03 0. -1.
    9900012    2    1    2    0    0 -0.68162130974E+01 -0.10138463434E+01 -0.40070958898E+02  0.50528801872E+02  0.29999823770E+02 0.  0.
        -12    1    1    2    0    0  0.68162130974E+01  0.10138463434E+01  0.40070958898E+02  0.40659198128E+02  0.00000000000E+00 0.  1.
         11    1    3    3    0    0 -0.61121732877E+01 -0.14025218651E+01 -0.30998915528E+02  0.31626863488E+02  0.51100000000E-03 0. -1.
        -11    1    3    3    0    0 -0.87385075640E+00  0.64283663205E+01 -0.10816689503E+02  0.12613020287E+02  0.51100000000E-03 0.  1.
        -12    1    3    3    0    0  0.16981094662E+00 -0.60396907988E+01  0.17446461333E+01  0.62889180972E+01  0.00000000000E+00 0.  1.
</event>
<event>
 7    1  0.5373252E-013  0.5052886E+02  0.7816164E-02  0.1300439E+00
        -11   -1    0    0    0    0  0.00000000000E+00  0.00000000000E+00  0.45593999997E+02  0.45594000000E+02  0.51100000000E-03 0. -1.
         11   -1    0    0    0    0 -0.00000000000E+00 -0.00000000000E+00 -0.45593999997E+02  0.45594000000E+02  0.51100000000E-03 0.  1.
    9900012    2    1    2    0    0  0.25661309840E+02  0.16302588200E+02  0.26997932664E+02  0.50528861140E+02  0.30000003920E+02 0.  0.
        -12    1    1    2    0    0 -0.25661309840E+02 -0.16302588200E+02 -0.26997932664E+02  0.40659138860E+02  0.00000000000E+00 0.  1.
         11    1    3    3    0    0  0.98871229859E-01  0.75697502687E+01  0.57558925991E+01  0.95100575458E+01  0.51100000000E-03 0. -1.
        -11    1    3    3    0    0  0.80197962802E+01  0.11965884793E+02  0.16123144838E+01  0.14494795256E+02  0.51100000000E-03 0.  1.
         12    1    3    3    0    0  0.17542642330E+02 -0.32330468611E+01  0.19629725581E+02  0.26524008338E+02  0.00000000000E+00 0. -1.
</event>
<event>
 7    1  0.5373252E-013  0.5052886E+02  0.7816164E-02  0.1300439E+00
        -11   -1    0    0    0    0  0.00000000000E+00  0.00000000000E+00  0.45593999997E+02  0.45594000000E+02  0.51100000000E-03 0.  1.
         11   -1    0    0    0    0 -0.00000000000E+00 -0.00000000000E+00 -0.45593999997E+02  0.45594000000E+02  0.51100000000E-03 0. -1.
    9900012    2    1    2    0    0 -0.36969508579E+02 -0.13186199878E+02 -0.10608748700E+02  0.50528856124E+02  0.29999988673E+02 0.  0.
        -12    1    1    2    0    0  0.36969508579E+02  0.13186199878E+02  0.10608748700E+02  0.40659143876E+02  0.00000000000E+00 0.  1.
         11    1    3    3    0    0 -0.22569158146E+02 -0.22048645646E+01 -0.10116269647E+02  0.24830772018E+02  0.51100000000E-03 0. -1.
        -11    1    3    3    0    0 -0.17552444020E+02 -0.54916936523E+01 -0.34479553023E+01  0.18711904935E+02  0.51100000000E-03 0.  1.
        -12    1    3    3    0    0  0.31520935871E+01 -0.54896416610E+01  0.29554762501E+01  0.69861791713E+01  0.00000000000E+00 0.  1.
</event>
<event>
 7    1  0.5373252E-013  0.5052886E+02  0.7816164E-02  0.1300439E+00
        -11   -1    0    0    0    0  0.00000000000E+00  0.00000000000E+00  0.45593999997E+02  0.45594000000E+02  0.51100000000E-03 0.  1.
         11   -1    0    0    0    0 -0.00000000000E+00 -0.00000000000E+00 -0.45593999997E+02  0.45594000000E+02  0.51100000000E-03 0. -1.
    9900012    2    1    2    0    0 -0.53490670040E+01  0.13738380512E+01 -0.40282328588E+02  0.50528856560E+02  0.29999989998E+02 0.  0.
        -12    1    1    2    0    0  0.53490670040E+01 -0.13738380512E+01  0.40282328588E+02  0.40659143440E+02  0.00000000000E+00 0.  1.
         11    1    3    3    0    0  0.39250894907E+00 -0.36304908703E+01 -0.20870837401E+01  0.42060011928E+01  0.51100000000E-03 0. -1.
        -11    1    3    3    0    0 -0.14259252359E+02 -0.28471653092E+01 -0.19400600914E+02  0.24244915842E+02  0.51100000000E-03 0.  1.
         12    1    3    3    0    0  0.85176764058E+01  0.78514942306E+01 -0.18794643935E+02  0.22077939524E+02  0.00000000000E+00 0. -1.
</event>
<event>
 7    1  0.5373252E-013  0.5052886E+02  0.7816164E-02  0.1300439E+00
        -11   -1    0    0    0    0  0.00000000000E+00  0.00000000000E+00  0.45593999997E+02  0.45594000000E+02  0.51100000000E-03 0. -1.
         11   -1    0    0    0    0 -0.00000000000E+00 -0.00000000000E+00 -0.45593999997E+02  0.45594000000E+02  0.51100000000E-03 0.  1.
    9900012    2    1    2    0    0 -0.17187511241E+02  0.53170266207E+00  0.36843890261E+02  0.50528862036E+02  0.30000006646E+02 0.  0.
        -12    1    1    2    0    0  0.17187511241E+02 -0.53170266207E+00 -0.36843890261E+02  0.40659137964E+02  0.00000000000E+00 0.  1.
         11    1    3    3    0    0 -0.11830704753E+02 -0.34177080042E+01  0.97002448493E+00  0.12352621208E+02  0.51100000000E-03 0.  1.
        -11    1    3    3    0    0  0.31938400866E+00  0.64278221282E+01  0.13413412757E+02  0.14877450908E+02  0.51100000000E-03 0. -1.
        -12    1    3    3    0    0 -0.56761904963E+01 -0.24784114620E+01  0.22460453019E+02  0.23298789920E+02  0.00000000000E+00 0.  1.
</event>
<event>
 7    1  0.5373252E-013  0.5052886E+02  0.7816164E-02  0.1300439E+00
        -11   -1    0    0    0    0  0.00000000000E+00  0.00000000000E+00  0.45593999997E+02  0.45594000000E+02  0.51100000000E-03 0. -1.
         11   -1    0    0    0    0 -0.00000000000E+00 -0.00000000000E+00 -0.45593999997E+02  0.45594000000E+02  0.51100000000E-03 0.  1.
    9900012    2    1    2    0    0 -0.30069245268E+02 -0.11053687432E+01  0.27345644638E+02  0.50528860416E+02  0.30000001721E+02 0.  0.
        -12    1    1    2    0    0  0.30069245268E+02  0.11053687432E+01 -0.27345644638E+02  0.40659139584E+02  0.00000000000E+00 0.  1.
         11    1    3    3    0    0  0.36947713335E+01 -0.38759986332E+01  0.41435375178E+00  0.53708835310E+01  0.51100000000E-03 0.  1.
        -11    1    3    3    0    0 -0.54299221090E+00  0.22314679803E+01  0.45519842056E+01  0.50985145246E+01  0.51100000000E-03 0. -1.
         12    1    3    3    0    0 -0.33221024390E+02  0.53916190966E+00  0.22379306681E+02  0.40059462361E+02  0.00000000000E+00 0. -1.
</event>
<event>
 7    1  0.5373252E-013  0.5052886E+02  0.7816164E-02  0.1300439E+00
        -11   -1    0    0    0    0  0.00000000000E+00  0.00000000000E+00  0.45593999997E+02  0.45594000000E+02  0.51100000000E-03 0.  1.
         11   -1    0    0    0    0 -0.00000000000E+00 -0.00000000000E+00 -0.45593999997E+02  0.45594000000E+02  0.51100000000E-03 0. -1.
    9900012    2    1    2    0    0 -0.10730640993E+02 -0.31691099031E+02 -0.23101799542E+02  0.50528861347E+02  0.30000004551E+02 0.  0.
        -12    1    1    2    0    0  0.10730640993E+02  0.31691099031E+02  0.23101799542E+02  0.40659138653E+02  0.00000000000E+00 0.  1.
         11    1    3    3    0    0 -0.22214301020E+01 -0.23115669472E+02 -0.54025674816E+01  0.23842329217E+02  0.51100000000E-03 0. -1.
        -11    1    3    3    0    0  0.18474572843E+01  0.41752286790E+00  0.19533009588E+01  0.27208102946E+01  0.51100000000E-03 0.  1.
         12    1    3    3    0    0 -0.10356668175E+02 -0.89929524268E+01 -0.19652533019E+02  0.23965721836E+02  0.00000000000E+00 0. -1.
</event>
<event>
 7    1  0.5373252E-013  0.5052886E+02  0.7816164E-02  0.1300439E+00
        -11   -1    0    0    0    0  0.00000000000E+00  0.00000000000E+00  0.45593999997E+02  0.45594000000E+02  0.51100000000E-03 0.  1.
         11   -1    0    0    0    0 -0.00000000000E+00 -0.00000000000E+00 -0.45593999997E+02  0.45594000000E+02  0.51100000000E-03 0. -1.
    9900012    2    1    2    0    0  0.10486183017E+02 -0.31419027883E+02 -0.23580712335E+02  0.50528863983E+02  0.30000012564E+02 0.  0.
        -12    1    1    2    0    0 -0.10486183017E+02  0.31419027883E+02  0.23580712335E+02  0.40659136017E+02  0.00000000000E+00 0.  1.
         11    1    3    3    0    0 -0.25909584710E+01 -0.17678095893E+02 -0.13729732306E+02  0.22532946760E+02  0.51100000000E-03 0.  1.
        -11    1    3    3    0    0  0.76868681430E+01 -0.17838576710E+02 -0.76463893663E+01  0.20875105544E+02  0.51100000000E-03 0. -1.
        -12    1    3    3    0    0  0.53902733451E+01  0.40976447200E+01 -0.22045906628E+01  0.71208116796E+01  0.00000000000E+00 0.  1.
</event>
<event>
 7    1  0.5373252E-013  0.5052886E+02  0.7816164E-02  0.1300439E+00
        -11   -1    0    0    0    0  0.00000000000E+00  0.00000000000E+00  0.45593999997E+02  0.45594000000E+02  0.51100000000E-03 0.  1.
         11   -1    0    0    0    0 -0.00000000000E+00 -0.00000000000E+00 -0.45593999997E+02  0.45594000000E+02  0.51100000000E-03 0. -1.
    9900012    2    1    2    0    0 -0.57637408198E+01  0.90431569801E+01 -0.39219459874E+02  0.50528862906E+02  0.30000009290E+02 0.  0.
        -12    1    1    2    0    0  0.57637408198E+01 -0.90431569801E+01  0.39219459874E+02  0.40659137094E+02  0.00000000000E+00 0.  1.
         11    1    3    3    0    0  0.93050593383E-01 -0.97677002942E-01  0.20355983748E+01  0.20400637771E+01  0.51100000000E-03 0.  1.
        -11    1    3    3    0    0  0.17666673978E+01  0.10011725910E+02 -0.39267936044E+02  0.40562625295E+02  0.51100000000E-03 0. -1.
         12    1    3    3    0    0 -0.76234588110E+01 -0.87089192743E+00 -0.19871222043E+01  0.79261738340E+01  0.00000000000E+00 0. -1.
</event>
<event>
 7    1  0.5373252E-013  0.5052891E+02  0.7816164E-02  0.1300439E+00
        -11   -1    0    0    0    0  0.00000000000E+00  0.00000000000E+00  0.45593999997E+02  0.45594000000E+02  0.51100000000E-03 0.  1.
         11   -1    0    0    0    0 -0.00000000000E+00 -0.00000000000E+00 -0.45593999997E+02  0.45594000000E+02  0.51100000000E-03 0. -1.
    9900012    2    1    2    0    0  0.13555332360E+02  0.27554638662E+02 -0.26648756827E+02  0.50528912607E+02  0.30000160360E+02 0.  0.
        -12    1    1    2    0    0 -0.13555332360E+02 -0.27554638662E+02  0.26648756827E+02  0.40659087393E+02  0.00000000000E+00 0.  1.
         11    1    3    3    0    0  0.34675066184E+01  0.87349283976E+00 -0.10155041248E+02  0.10766218227E+02  0.51100000000E-03 0. -1.
        -11    1    3    3    0    0 -0.92581873396E+00 -0.16977538360E+01  0.30330062098E+01  0.35970314629E+01  0.51100000000E-03 0.  1.
         12    1    3    3    0    0  0.11013644475E+02  0.28378899659E+02 -0.19526721789E+02  0.36165662918E+02  0.00000000000E+00 0. -1.
</event>
<event>
 7    1  0.5373252E-013  0.5052886E+02  0.7816164E-02  0.1300439E+00
        -11   -1    0    0    0    0  0.00000000000E+00  0.00000000000E+00  0.45593999997E+02  0.45594000000E+02  0.51100000000E-03 0. -1.
         11   -1    0    0    0    0 -0.00000000000E+00 -0.00000000000E+00 -0.45593999997E+02  0.45594000000E+02  0.51100000000E-03 0.  1.
    9900012    2    1    2    0    0 -0.30157019528E+00  0.40346045062E+02  0.50270339620E+01  0.50528863669E+02  0.30000011609E+02 0.  0.
        -12    1    1    2    0    0  0.30157019528E+00 -0.40346045062E+02 -0.50270339620E+01  0.40659136331E+02  0.00000000000E+00 0.  1.
         11    1    3    3    0    0 -0.29137576317E+01  0.26443137164E+01  0.16417092231E+01  0.42635182656E+01  0.51100000000E-03 0. -1.
        -11    1    3    3    0    0 -0.99701393095E+01  0.69693778031E+01  0.46751246452E+01  0.13031987397E+02  0.51100000000E-03 0.  1.
         12    1    3    3    0    0  0.12582326746E+02  0.30732353542E+02 -0.12897999064E+01  0.33233358006E+02  0.00000000000E+00 0. -1.
</event>
<event>
 7    1  0.5373252E-013  0.5052885E+02  0.7816164E-02  0.1300439E+00
        -11   -1    0    0    0    0  0.00000000000E+00  0.00000000000E+00  0.45593999997E+02  0.45594000000E+02  0.51100000000E-03 0.  1.
         11   -1    0    0    0    0 -0.00000000000E+00 -0.00000000000E+00 -0.45593999997E+02  0.45594000000E+02  0.51100000000E-03 0. -1.
    9900012    2    1    2    0    0 -0.35026948400E+02  0.35914539595E+01 -0.20331759557E+02  0.50528854627E+02  0.29999984126E+02 0.  0.
        -12    1    1    2    0    0  0.35026948400E+02 -0.35914539595E+01  0.20331759557E+02  0.40659145373E+02  0.00000000000E+00 0.  1.
         11    1    3    3    0    0 -0.14196786109E+02  0.10322856298E+02 -0.63525945445E+01  0.18667232138E+02  0.51100000000E-03 0. -1.
        -11    1    3    3    0    0  0.20803796153E+01  0.21131371704E+01 -0.48033250407E+01  0.56449322186E+01  0.51100000000E-03 0.  1.
        -12    1    3    3    0    0 -0.22910541906E+02 -0.88445395094E+01 -0.91758399714E+01  0.26216690271E+02  0.00000000000E+00 0.  1.
</event>
<event>
 7    1  0.5373252E-013  0.5052887E+02  0.7816164E-02  0.1300439E+00
        -11   -1    0    0    0    0  0.00000000000E+00  0.00000000000E+00  0.45593999997E+02  0.45594000000E+02  0.51100000000E-03 0.  1.
         11   -1    0    0    0    0 -0.00000000000E+00 -0.00000000000E+00 -0.45593999997E+02  0.45594000000E+02  0.51100000000E-03 0. -1.
    9900012    2    1    2    0    0 -0.35321421801E+02  0.18349233353E+02 -0.82986516589E+01  0.50528870373E+02  0.30000031986E+02 0.  0.
        -12    1    1    2    0    0  0.35321421801E+02 -0.18349233353E+02  0.82986516589E+01  0.40659129627E+02  0.00000000000E+00 0.  1.
         11    1    3    3    0    0 -0.93883541923E+01  0.42629407109E+01 -0.96950855521E+01  0.14153040029E+02  0.51100000000E-03 0. -1.
        -11    1    3    3    0    0 -0.15930503685E+02  0.19328929736E+02  0.13174418014E+01  0.25082346891E+02  0.51100000000E-03 0.  1.
         12    1    3    3    0    0 -0.10002563923E+02 -0.52426370944E+01  0.78992091808E-01  0.11293483453E+02  0.00000000000E+00 0. -1.
</event>
<event>
 7    1  0.5373252E-013  0.5052886E+02  0.7816164E-02  0.1300439E+00
        -11   -1    0    0    0    0  0.00000000000E+00  0.00000000000E+00  0.45593999997E+02  0.45594000000E+02  0.51100000000E-03 0. -1.
         11   -1    0    0    0    0 -0.00000000000E+00 -0.00000000000E+00 -0.45593999997E+02  0.45594000000E+02  0.51100000000E-03 0.  1.
    9900012    2    1    2    0    0 -0.31849929162E+02  0.18493004311E+02 -0.17226621622E+02  0.50528859716E+02  0.29999999594E+02 0.  0.
        -12    1    1    2    0    0  0.31849929162E+02 -0.18493004311E+02  0.17226621622E+02  0.40659140284E+02  0.00000000000E+00 0.  1.
         11    1    3    3    0    0 -0.28856409073E+02  0.15000910445E+02 -0.27726796056E+01  0.32640579211E+02  0.51100000000E-03 0. -1.
        -11    1    3    3    0    0 -0.40579144351E+01  0.63232645800E+01 -0.10425967877E+02  0.12851114774E+02  0.51100000000E-03 0.  1.
        -12    1    3    3    0    0  0.10643943456E+01 -0.28311707143E+01 -0.40279741398E+01  0.50371657316E+01  0.00000000000E+00 0.  1.
</event>
<event>
 7    1  0.5373252E-013  0.5052885E+02  0.7816164E-02  0.1300439E+00
        -11   -1    0    0    0    0  0.00000000000E+00  0.00000000000E+00  0.45593999997E+02  0.45594000000E+02  0.51100000000E-03 0.  1.
         11   -1    0    0    0    0 -0.00000000000E+00 -0.00000000000E+00 -0.45593999997E+02  0.45594000000E+02  0.51100000000E-03 0. -1.
    9900012    2    1    2    0    0 -0.34539629775E+02  0.20880003782E+02 -0.49199133793E+01  0.50528854281E+02  0.29999983072E+02 0.  0.
        -12    1    1    2    0    0  0.34539629775E+02 -0.20880003782E+02  0.49199133793E+01  0.40659145719E+02  0.00000000000E+00 0.  1.
         11    1    3    3    0    0 -0.12437792511E+02  0.46701488929E+01 -0.32587907644E+01  0.13679498921E+02  0.51100000000E-03 0. -1.
        -11    1    3    3    0    0 -0.37300078179E+01  0.13664781472E+02 -0.91327645739E+01  0.16853682091E+02  0.51100000000E-03 0.  1.
         12    1    3    3    0    0 -0.18371829447E+02  0.25450734175E+01  0.74716419590E+01  0.19995673269E+02  0.00000000000E+00 0. -1.
</event>
<event>
 7    1  0.5373252E-013  0.5052898E+02  0.7816164E-02  0.1300438E+00
        -11   -1    0    0    0    0  0.00000000000E+00  0.00000000000E+00  0.45593999997E+02  0.45594000000E+02  0.51100000000E-03 0.  1.
         11   -1    0    0    0    0 -0.00000000000E+00 -0.00000000000E+00 -0.45593999997E+02  0.45594000000E+02  0.51100000000E-03 0. -1.
    9900012    2    1    2    0    0  0.17264444082E+02 -0.35486377702E+01 -0.36640164931E+02  0.50528984448E+02  0.30000378726E+02 0.  0.
        -12    1    1    2    0    0 -0.17264444082E+02  0.35486377702E+01  0.36640164931E+02  0.40659015552E+02  0.00000000000E+00 0.  1.
         11    1    3    3    0    0  0.13811428388E+02 -0.17876291777E+01 -0.20149666495E+02  0.24494085660E+02  0.51100000000E-03 0. -1.
        -11    1    3    3    0    0  0.32672164855E+01  0.78849803322E+01 -0.22372518139E+01  0.88234298514E+01  0.51100000000E-03 0.  1.
         12    1    3    3    0    0  0.18579920788E+00 -0.96459889247E+01 -0.14253246622E+02  0.17211468937E+02  0.00000000000E+00 0. -1.
</event>
<event>
 7    1  0.5373252E-013  0.5052886E+02  0.7816164E-02  0.1300439E+00
        -11   -1    0    0    0    0  0.00000000000E+00  0.00000000000E+00  0.45593999997E+02  0.45594000000E+02  0.51100000000E-03 0. -1.
         11   -1    0    0    0    0 -0.00000000000E+00 -0.00000000000E+00 -0.45593999997E+02  0.45594000000E+02  0.51100000000E-03 0.  1.
    9900012    2    1    2    0    0 -0.54946042941E+01  0.37016887004E+01  0.40115742911E+02  0.50528855827E+02  0.29999987771E+02 0.  0.
        -12    1    1    2    0    0  0.54946042941E+01 -0.37016887004E+01 -0.40115742911E+02  0.40659144173E+02  0.00000000000E+00 0.  1.
         11    1    3    3    0    0  0.55586565934E+01 -0.37513759290E+01  0.17916707427E+02  0.19130600873E+02  0.51100000000E-03 0. -1.
        -11    1    3    3    0    0 -0.73249834812E+01 -0.36610172254E+00  0.21489675993E+02  0.22706730016E+02  0.51100000000E-03 0.  1.
        -12    1    3    3    0    0 -0.37282774063E+01  0.78191663519E+01  0.70935949119E+00  0.86915249378E+01  0.00000000000E+00 0.  1.
</event>
<event>
 7    1  0.5373252E-013  0.5052888E+02  0.7816164E-02  0.1300439E+00
        -11   -1    0    0    0    0  0.00000000000E+00  0.00000000000E+00  0.45593999997E+02  0.45594000000E+02  0.51100000000E-03 0.  1.
         11   -1    0    0    0    0 -0.00000000000E+00 -0.00000000000E+00 -0.45593999997E+02  0.45594000000E+02  0.51100000000E-03 0. -1.
    9900012    2    1    2    0    0  0.10643534788E+02  0.31209445192E+02 -0.23787598328E+02  0.50528878807E+02  0.30000057621E+02 0.  0.
        -12    1    1    2    0    0 -0.10643534788E+02 -0.31209445192E+02  0.23787598328E+02  0.40659121193E+02  0.00000000000E+00 0.  1.
         11    1    3    3    0    0 -0.31552905590E+01 -0.18821336401E+01 -0.36045069184E+01  0.51469171294E+01  0.51100000000E-03 0.  1.
        -11    1    3    3    0    0 -0.34007171375E+01  0.92987309430E+01 -0.26532878451E+00  0.99046289089E+01  0.51100000000E-03 0. -1.
        -12    1    3    3    0    0  0.17199542485E+02  0.23792847889E+02 -0.19917762625E+02  0.35477332768E+02  0.00000000000E+00 0.  1.
</event>
<event>
 7    1  0.5373252E-013  0.5052886E+02  0.7816164E-02  0.1300439E+00
        -11   -1    0    0    0    0  0.00000000000E+00  0.00000000000E+00  0.45593999997E+02  0.45594000000E+02  0.51100000000E-03 0. -1.
         11   -1    0    0    0    0 -0.00000000000E+00 -0.00000000000E+00 -0.45593999997E+02  0.45594000000E+02  0.51100000000E-03 0.  1.
    9900012    2    1    2    0    0  0.39425322596E+02  0.87130160143E+01  0.47846382090E+01  0.50528862372E+02  0.30000007665E+02 0.  0.
        -12    1    1    2    0    0 -0.39425322596E+02 -0.87130160143E+01 -0.47846382090E+01  0.40659137628E+02  0.00000000000E+00 0.  1.
         11    1    3    3    0    0  0.25330523793E+02  0.11069377308E+02  0.41007606357E+01  0.27946069270E+02  0.51100000000E-03 0. -1.
        -11    1    3    3    0    0  0.14020783868E+02 -0.78393268309E+01  0.34670670031E+01  0.16433440884E+02  0.51100000000E-03 0.  1.
        -12    1    3    3    0    0  0.74014935769E-01  0.54829655373E+01 -0.27831894298E+01  0.61493522176E+01  0.00000000000E+00 0.  1.
</event>
<event>
 7    1  0.5373252E-013  0.5052873E+02  0.7816164E-02  0.1300439E+00
        -11   -1    0    0    0    0  0.00000000000E+00  0.00000000000E+00  0.45593999997E+02  0.45594000000E+02  0.51100000000E-03 0.  1.
         11   -1    0    0    0    0 -0.00000000000E+00 -0.00000000000E+00 -0.45593999997E+02  0.45594000000E+02  0.51100000000E-03 0. -1.
    9900012    2    1    2    0    0 -0.73941097421E+01 -0.31054272164E+02 -0.25182054879E+02  0.50528725948E+02  0.29999592990E+02 0.  0.
        -12    1    1    2    0    0  0.73941097421E+01  0.31054272164E+02  0.25182054879E+02  0.40659274052E+02  0.00000000000E+00 0.  1.
         11    1    3    3    0    0  0.26705513495E+01 -0.52183391597E+00  0.26481903558E+01  0.37969813758E+01  0.51100000000E-03 0. -1.
        -11    1    3    3    0    0 -0.39586094163E+01 -0.21563423395E+02 -0.66101770266E+01  0.22898608202E+02  0.51100000000E-03 0.  1.
         12    1    3    3    0    0 -0.61060516753E+01 -0.89690148531E+01 -0.21220068208E+02  0.23833136370E+02  0.00000000000E+00 0. -1.
</event>
<event>
 7    1  0.5373252E-013  0.5052886E+02  0.7816164E-02  0.1300439E+00
        -11   -1    0    0    0    0  0.00000000000E+00  0.00000000000E+00  0.45593999997E+02  0.45594000000E+02  0.51100000000E-03 0.  1.
         11   -1    0    0    0    0 -0.00000000000E+00 -0.00000000000E+00 -0.45593999997E+02  0.45594000000E+02  0.51100000000E-03 0. -1.
    9900012    2    1    2    0    0  0.20403158686E+02 -0.31090496196E+01 -0.35031560981E+02  0.50528864019E+02  0.30000012673E+02 0.  0.
        -12    1    1    2    0    0 -0.20403158686E+02  0.31090496196E+01  0.35031560981E+02  0.40659135981E+02  0.00000000000E+00 0.  1.
         11    1    3    3    0    0  0.11231509198E+02  0.41629767553E+00 -0.15990160995E+02  0.19544957189E+02  0.51100000000E-03 0. -1.
        -11    1    3    3    0    0  0.53000534546E+01 -0.21309385199E+01  0.43834084058E+01  0.72003982606E+01  0.51100000000E-03 0.  1.
         12    1    3    3    0    0  0.38715960338E+01 -0.13944087752E+01 -0.23424808392E+02  0.23783508570E+02  0.00000000000E+00 0. -1.
</event>
<event>
 7    1  0.5373252E-013  0.5052886E+02  0.7816164E-02  0.1300439E+00
        -11   -1    0    0    0    0  0.00000000000E+00  0.00000000000E+00  0.45593999997E+02  0.45594000000E+02  0.51100000000E-03 0.  1.
         11   -1    0    0    0    0 -0.00000000000E+00 -0.00000000000E+00 -0.45593999997E+02  0.45594000000E+02  0.51100000000E-03 0. -1.
    9900012    2    1    2    0    0 -0.28874647760E+02 -0.21069868633E+02 -0.19377340459E+02  0.50528856247E+02  0.29999989048E+02 0.  0.
        -12    1    1    2    0    0  0.28874647760E+02  0.21069868633E+02  0.19377340459E+02  0.40659143753E+02  0.00000000000E+00 0.  1.
         11    1    3    3    0    0 -0.14652288916E+02  0.11179727693E+01 -0.75679531441E+01  0.16529166605E+02  0.51100000000E-03 0. -1.
        -11    1    3    3    0    0  0.34802072910E+01 -0.18508721183E+00 -0.27864760632E+00  0.34962472473E+01  0.51100000000E-03 0.  1.
         12    1    3    3    0    0 -0.17702566134E+02 -0.22002754190E+02 -0.11530739709E+02  0.30503442395E+02  0.00000000000E+00 0. -1.
</event>
<event>
 7    1  0.5373252E-013  0.5052887E+02  0.7816164E-02  0.1300439E+00
        -11   -1    0    0    0    0  0.00000000000E+00  0.00000000000E+00  0.45593999997E+02  0.45594000000E+02  0.51100000000E-03 0.  1.
         11   -1    0    0    0    0 -0.00000000000E+00 -0.00000000000E+00 -0.45593999997E+02  0.45594000000E+02  0.51100000000E-03 0. -1.
    9900012    2    1    2    0    0  0.16852566204E+02 -0.31453771905E+02 -0.19488874317E+02  0.50528868469E+02  0.30000026199E+02 0.  0.
        -12    1    1    2    0    0 -0.16852566204E+02  0.31453771905E+02  0.19488874317E+02  0.40659131531E+02  0.00000000000E+00 0.  1.
         11    1    3    3    0    0  0.13803111459E+02 -0.79797328144E+01 -0.69933227835E+01  0.17410013944E+02  0.51100000000E-03 0.  1.
        -11    1    3    3    0    0  0.58884705348E+01 -0.81516613307E+01  0.36328111863E+01  0.10692099189E+02  0.51100000000E-03 0. -1.
         12    1    3    3    0    0 -0.28390157895E+01 -0.15322377760E+02 -0.16128362720E+02  0.22426755336E+02  0.00000000000E+00 0. -1.
</event>
<event>
 7    1  0.5373252E-013  0.5052886E+02  0.7816164E-02  0.1300439E+00
        -11   -1    0    0    0    0  0.00000000000E+00  0.00000000000E+00  0.45593999997E+02  0.45594000000E+02  0.51100000000E-03 0.  1.
         11   -1    0    0    0    0 -0.00000000000E+00 -0.00000000000E+00 -0.45593999997E+02  0.45594000000E+02  0.51100000000E-03 0. -1.
    9900012    2    1    2    0    0 -0.46514785493E+01  0.66168249390E+01 -0.39846544003E+02  0.50528859651E+02  0.29999999395E+02 0.  0.
        -12    1    1    2    0    0  0.46514785493E+01 -0.66168249390E+01  0.39846544003E+02  0.40659140349E+02  0.00000000000E+00 0.  1.
         11    1    3    3    0    0 -0.94743670771E+01 -0.21506991602E+01 -0.14695955645E+02  0.17617044332E+02  0.51100000000E-03 0. -1.
        -11    1    3    3    0    0 -0.27181799826E+01  0.92437463152E+01 -0.39649643985E+01  0.10419035047E+02  0.51100000000E-03 0.  1.
         12    1    3    3    0    0  0.75410685104E+01 -0.47622221605E+00 -0.21185623959E+02  0.22492780273E+02  0.00000000000E+00 0. -1.
</event>
<event>
 7    1  0.5373252E-013  0.5052886E+02  0.7816164E-02  0.1300439E+00
        -11   -1    0    0    0    0  0.00000000000E+00  0.00000000000E+00  0.45593999997E+02  0.45594000000E+02  0.51100000000E-03 0.  1.
         11   -1    0    0    0    0 -0.00000000000E+00 -0.00000000000E+00 -0.45593999997E+02  0.45594000000E+02  0.51100000000E-03 0. -1.
    9900012    2    1    2    0    0  0.16896301392E+02  0.29547665590E+02 -0.22239965843E+02  0.50528860520E+02  0.30000002036E+02 0.  0.
        -12    1    1    2    0    0 -0.16896301392E+02 -0.29547665590E+02  0.22239965843E+02  0.40659139480E+02  0.00000000000E+00 0.  1.
         11    1    3    3    0    0  0.10616983197E+01  0.17343351466E+01 -0.73113808666E+00  0.21609453686E+01  0.51100000000E-03 0. -1.
        -11    1    3    3    0    0  0.64894144270E+00  0.25464593723E+02 -0.20966988788E+02  0.32992139633E+02  0.51100000000E-03 0.  1.
         12    1    3    3    0    0  0.15185661630E+02  0.23487367203E+01 -0.54183896834E+00  0.15375775518E+02  0.00000000000E+00 0. -1.
</event>
<event>
 7    1  0.5373252E-013  0.5052886E+02  0.7816164E-02  0.1300439E+00
        -11   -1    0    0    0    0  0.00000000000E+00  0.00000000000E+00  0.45593999997E+02  0.45594000000E+02  0.51100000000E-03 0. -1.
         11   -1    0    0    0    0 -0.00000000000E+00 -0.00000000000E+00 -0.45593999997E+02  0.45594000000E+02  0.51100000000E-03 0.  1.
    9900012    2    1    2    0    0 -0.30710918514E+02 -0.24047081320E+00  0.26644829956E+02  0.50528864427E+02  0.30000013911E+02 0.  0.
        -12    1    1    2    0    0  0.30710918514E+02  0.24047081320E+00 -0.26644829956E+02  0.40659135573E+02  0.00000000000E+00 0.  1.
         11    1    3    3    0    0 -0.12099307150E+01 -0.23411991637E+00  0.78800907058E+01  0.79758745140E+01  0.51100000000E-03 0. -1.
        -11    1    3    3    0    0 -0.25933160486E+02  0.66074626894E+00  0.24554483815E+02  0.35719575503E+02  0.51100000000E-03 0.  1.
        -12    1    3    3    0    0 -0.35678273130E+01 -0.66709716578E+00 -0.57897445651E+01  0.68334144096E+01  0.00000000000E+00 0.  1.
</event>
<event>
 7    1  0.5373252E-013  0.5052885E+02  0.7816164E-02  0.1300439E+00
        -11   -1    0    0    0    0  0.00000000000E+00  0.00000000000E+00  0.45593999997E+02  0.45594000000E+02  0.51100000000E-03 0.  1.
         11   -1    0    0    0    0 -0.00000000000E+00 -0.00000000000E+00 -0.45593999997E+02  0.45594000000E+02  0.51100000000E-03 0. -1.
    9900012    2    1    2    0    0 -0.61533892692E+01  0.48677880129E+01 -0.39894948131E+02  0.50528850402E+02  0.29999971283E+02 0.  0.
        -12    1    1    2    0    0  0.61533892692E+01 -0.48677880129E+01  0.39894948131E+02  0.40659149598E+02  0.00000000000E+00 0.  1.
         11    1    3    3    0    0 -0.27655284992E+01  0.29686743241E+01 -0.29125717455E+01  0.49944218440E+01  0.51100000000E-03 0. -1.
        -11    1    3    3    0    0 -0.10782093170E+02 -0.18026490210E+01 -0.41764342120E+01  0.11702379229E+02  0.51100000000E-03 0.  1.
         12    1    3    3    0    0  0.73942324004E+01  0.37017627098E+01 -0.32805942173E+02  0.33832049330E+02  0.00000000000E+00 0. -1.
</event>
<event>
 7    1  0.5972427E-013  0.5052880E+02  0.7816164E-02  0.1300439E+00
        -11   -1    0    0    0    0  0.00000000000E+00  0.00000000000E+00  0.45593999997E+02  0.45594000000E+02  0.51100000000E-03 0.  1.
         11   -1    0    0    0    0 -0.00000000000E+00 -0.00000000000E+00 -0.45593999997E+02  0.45594000000E+02  0.51100000000E-03 0. -1.
    9900012    2    1    2    0    0 -0.22847887854E+02 -0.32378035442E+02 -0.90998560396E+01  0.50528800076E+02  0.29999818312E+02 0.  0.
        -12    1    1    2    0    0  0.22847887854E+02  0.32378035442E+02  0.90998560396E+01  0.40659199924E+02  0.00000000000E+00 0.  1.
         11    1    3    3    0    0 -0.58864724857E+01 -0.15982055292E+02 -0.58414935089E+01  0.18005546267E+02  0.51100000000E-03 0. -1.
        -11    1    3    3    0    0 -0.19093631678E+02 -0.15361400850E+02 -0.91612791422E+01  0.26162347802E+02  0.51100000000E-03 0.  1.
        -12    1    3    3    0    0  0.21322163092E+01 -0.10345792997E+01  0.59029166116E+01  0.63609060078E+01  0.00000000000E+00 0.  1.
</event>
<event>
 7    1  0.5373252E-013  0.5052886E+02  0.7816164E-02  0.1300439E+00
        -11   -1    0    0    0    0  0.00000000000E+00  0.00000000000E+00  0.45593999997E+02  0.45594000000E+02  0.51100000000E-03 0.  1.
         11   -1    0    0    0    0 -0.00000000000E+00 -0.00000000000E+00 -0.45593999997E+02  0.45594000000E+02  0.51100000000E-03 0. -1.
    9900012    2    1    2    0    0  0.34445626065E+02  0.13938716858E+02 -0.16503836912E+02  0.50528860615E+02  0.30000002326E+02 0.  0.
        -12    1    1    2    0    0 -0.34445626065E+02 -0.13938716858E+02  0.16503836912E+02  0.40659139385E+02  0.00000000000E+00 0.  1.
         11    1    3    3    0    0  0.86580434900E+01  0.12580888564E+01  0.12476430414E+01  0.88374836953E+01  0.51100000000E-03 0. -1.
        -11    1    3    3    0    0 -0.24053339979E+00  0.83144526292E+01  0.22033404823E+01  0.86048061211E+01  0.51100000000E-03 0.  1.
        -12    1    3    3    0    0  0.26028115975E+02  0.43661753729E+01 -0.19954820436E+02  0.33086570799E+02  0.00000000000E+00 0.  1.
</event>
<event>
 7    1  0.5373252E-013  0.5052885E+02  0.7816164E-02  0.1300439E+00
        -11   -1    0    0    0    0  0.00000000000E+00  0.00000000000E+00  0.45593999997E+02  0.45594000000E+02  0.51100000000E-03 0. -1.
         11   -1    0    0    0    0 -0.00000000000E+00 -0.00000000000E+00 -0.45593999997E+02  0.45594000000E+02  0.51100000000E-03 0.  1.
    9900012    2    1    2    0    0  0.18538793683E+02  0.25032418437E+02  0.26131539415E+02  0.50528853474E+02  0.29999980618E+02 0.  0.
        -12    1    1    2    0    0 -0.18538793683E+02 -0.25032418437E+02 -0.26131539415E+02  0.40659146526E+02  0.00000000000E+00 0.  1.
         11    1    3    3    0    0  0.32135661394E+01  0.49135121967E+01  0.22155410551E+02  0.22920118377E+02  0.51100000000E-03 0. -1.
        -11    1    3    3    0    0  0.72885296167E+01  0.22783195385E+01 -0.26424836772E-01  0.76363670960E+01  0.51100000000E-03 0.  1.
        -12    1    3    3    0    0  0.80366979270E+01  0.17840586702E+02  0.40025537009E+01  0.19972368001E+02  0.00000000000E+00 0.  1.
</event>
<event>
 7    1  0.5373252E-013  0.5052884E+02  0.7816164E-02  0.1300439E+00
        -11   -1    0    0    0    0  0.00000000000E+00  0.00000000000E+00  0.45593999997E+02  0.45594000000E+02  0.51100000000E-03 0.  1.
         11   -1    0    0    0    0 -0.00000000000E+00 -0.00000000000E+00 -0.45593999997E+02  0.45594000000E+02  0.51100000000E-03 0. -1.
    9900012    2    1    2    0    0 -0.36994642752E+02  0.36368459196E+01 -0.16472307280E+02  0.50528841773E+02  0.29999945053E+02 0.  0.
        -12    1    1    2    0    0  0.36994642752E+02 -0.36368459196E+01  0.16472307280E+02  0.40659158227E+02  0.00000000000E+00 0.  1.
         11    1    3    3    0    0 -0.15215747344E+01  0.50060514409E+01 -0.38357627542E+01  0.64875894498E+01  0.51100000000E-03 0. -1.
        -11    1    3    3    0    0 -0.79790604239E+01 -0.79504553393E+01  0.31042066203E+01  0.11683802650E+02  0.51100000000E-03 0.  1.
         12    1    3    3    0    0 -0.27494007594E+02  0.65812498180E+01 -0.15740751146E+02  0.32357449674E+02  0.00000000000E+00 0. -1.
</event>
<event>
 7    1  0.5373252E-013  0.5052886E+02  0.7816164E-02  0.1300439E+00
        -11   -1    0    0    0    0  0.00000000000E+00  0.00000000000E+00  0.45593999997E+02  0.45594000000E+02  0.51100000000E-03 0.  1.
         11   -1    0    0    0    0 -0.00000000000E+00 -0.00000000000E+00 -0.45593999997E+02  0.45594000000E+02  0.51100000000E-03 0. -1.
    9900012    2    1    2    0    0 -0.39893662704E+02  0.48465389710E+01 -0.61783539216E+01  0.50528864235E+02  0.30000013330E+02 0.  0.
        -12    1    1    2    0    0  0.39893662704E+02 -0.48465389710E+01  0.61783539216E+01  0.40659135765E+02  0.00000000000E+00 0.  1.
         11    1    3    3    0    0 -0.20622958062E+02  0.56934894592E+01 -0.10800956168E+02  0.23966286234E+02  0.51100000000E-03 0. -1.
        -11    1    3    3    0    0 -0.12025655183E+02  0.49013914015E+01 -0.43317487763E+01  0.13689560547E+02  0.51100000000E-03 0.  1.
        -12    1    3    3    0    0 -0.72450494596E+01 -0.57483418897E+01  0.89543510225E+01  0.12873017455E+02  0.00000000000E+00 0.  1.
</event>
<event>
 7    1  0.5373252E-013  0.5052887E+02  0.7816164E-02  0.1300439E+00
        -11   -1    0    0    0    0  0.00000000000E+00  0.00000000000E+00  0.45593999997E+02  0.45594000000E+02  0.51100000000E-03 0.  1.
         11   -1    0    0    0    0 -0.00000000000E+00 -0.00000000000E+00 -0.45593999997E+02  0.45594000000E+02  0.51100000000E-03 0. -1.
    9900012    2    1    2    0    0 -0.27123380732E+02 -0.20064495044E+02 -0.22691471923E+02  0.50528872590E+02  0.30000038724E+02 0.  0.
        -12    1    1    2    0    0  0.27123380732E+02  0.20064495044E+02  0.22691471923E+02  0.40659127410E+02  0.00000000000E+00 0.  1.
         11    1    3    3    0    0  0.23289655513E+01 -0.37525346806E+01 -0.94358375350E+01  0.10418283319E+02  0.51100000000E-03 0. -1.
        -11    1    3    3    0    0 -0.26954321928E+01 -0.64454148772E+01  0.26318720878E+01  0.74656197729E+01  0.51100000000E-03 0.  1.
         12    1    3    3    0    0 -0.26756914091E+02 -0.98665454859E+01 -0.15887506476E+02  0.32644969498E+02  0.00000000000E+00 0. -1.
</event>
<event>
 7    1  0.5373252E-013  0.5052886E+02  0.7816164E-02  0.1300439E+00
        -11   -1    0    0    0    0  0.00000000000E+00  0.00000000000E+00  0.45593999997E+02  0.45594000000E+02  0.51100000000E-03 0.  1.
         11   -1    0    0    0    0 -0.00000000000E+00 -0.00000000000E+00 -0.45593999997E+02  0.45594000000E+02  0.51100000000E-03 0. -1.
    9900012    2    1    2    0    0  0.22101487557E+02 -0.95792684006E+01 -0.32755571656E+02  0.50528860685E+02  0.30000002537E+02 0.  0.
        -12    1    1    2    0    0 -0.22101487557E+02  0.95792684006E+01  0.32755571656E+02  0.40659139315E+02  0.00000000000E+00 0.  1.
         11    1    3    3    0    0  0.26020548273E+01 -0.90483331721E+01 -0.23117634893E+01  0.96947033585E+01  0.51100000000E-03 0. -1.
        -11    1    3    3    0    0  0.82479486651E+01  0.17768302460E+00  0.12700377129E+00  0.82508398760E+01  0.51100000000E-03 0.  1.
        -12    1    3    3    0    0  0.11251484065E+02 -0.70861825317E+00 -0.30570811938E+02  0.32583317450E+02  0.00000000000E+00 0.  1.
</event>
<event>
 7    1  0.5373252E-013  0.5052886E+02  0.7816164E-02  0.1300439E+00
        -11   -1    0    0    0    0  0.00000000000E+00  0.00000000000E+00  0.45593999997E+02  0.45594000000E+02  0.51100000000E-03 0.  1.
         11   -1    0    0    0    0 -0.00000000000E+00 -0.00000000000E+00 -0.45593999997E+02  0.45594000000E+02  0.51100000000E-03 0. -1.
    9900012    2    1    2    0    0 -0.13771646703E+02  0.26216284296E+02 -0.27860612498E+02  0.50528861495E+02  0.30000005001E+02 0.  0.
        -12    1    1    2    0    0  0.13771646703E+02 -0.26216284296E+02  0.27860612498E+02  0.40659138505E+02  0.00000000000E+00 0.  1.
         11    1    3    3    0    0 -0.28120010320E+00  0.94621760745E+01 -0.16266649895E+02  0.18820620304E+02  0.51100000000E-03 0. -1.
        -11    1    3    3    0    0  0.99641220709E+00  0.14639693498E+02 -0.39669727695E+01  0.15200340003E+02  0.51100000000E-03 0.  1.
        -12    1    3    3    0    0 -0.14486858807E+02  0.21144147240E+01 -0.76269898335E+01  0.16507901188E+02  0.00000000000E+00 0.  1.
</event>
<event>
 7    1  0.5373252E-013  0.5052893E+02  0.7816164E-02  0.1300439E+00
        -11   -1    0    0    0    0  0.00000000000E+00  0.00000000000E+00  0.45593999997E+02  0.45594000000E+02  0.51100000000E-03 0.  1.
         11   -1    0    0    0    0 -0.00000000000E+00 -0.00000000000E+00 -0.45593999997E+02  0.45594000000E+02  0.51100000000E-03 0. -1.
    9900012    2    1    2    0    0  0.17087065475E+02 -0.33689404817E+02 -0.15040495759E+02  0.50528925784E+02  0.30000200411E+02 0.  0.
        -12    1    1    2    0    0 -0.17087065475E+02  0.33689404817E+02  0.15040495759E+02  0.40659074216E+02  0.00000000000E+00 0.  1.
         11    1    3    3    0    0 -0.14042868904E+01 -0.60309923179E+01 -0.74070728389E+01  0.96545128469E+01  0.51100000000E-03 0. -1.
        -11    1    3    3    0    0  0.23923597813E+01 -0.21436648706E+02  0.96591999947E+00  0.21591347683E+02  0.51100000000E-03 0.  1.
        -12    1    3    3    0    0  0.16098992584E+02 -0.62217637928E+01 -0.85993429195E+01  0.19283065254E+02  0.00000000000E+00 0.  1.
</event>
<event>
 7    1  0.5373252E-013  0.5052887E+02  0.7816164E-02  0.1300439E+00
        -11   -1    0    0    0    0  0.00000000000E+00  0.00000000000E+00  0.45593999997E+02  0.45594000000E+02  0.51100000000E-03 0. -1.
         11   -1    0    0    0    0 -0.00000000000E+00 -0.00000000000E+00 -0.45593999997E+02  0.45594000000E+02  0.51100000000E-03 0.  1.
    9900012    2    1    2    0    0 -0.20013929028E+02  0.33407622800E+02  0.11684960321E+02  0.50528869242E+02  0.30000028548E+02 0.  0.
        -12    1    1    2    0    0  0.20013929028E+02 -0.33407622800E+02 -0.11684960321E+02  0.40659130758E+02  0.00000000000E+00 0.  1.
         11    1    3    3    0    0 -0.11159589205E+02  0.21902739647E+02 -0.51232299619E+01  0.25110036256E+02  0.51100000000E-03 0. -1.
        -11    1    3    3    0    0  0.24810341938E+01  0.59283749361E+01  0.53023803977E+01  0.83316503885E+01  0.51100000000E-03 0.  1.
        -12    1    3    3    0    0 -0.11335374017E+02  0.55765082166E+01  0.11505809885E+02  0.17087182597E+02  0.00000000000E+00 0.  1.
</event>
<event>
 7    1  0.5373252E-013  0.5052890E+02  0.7816164E-02  0.1300439E+00
        -11   -1    0    0    0    0  0.00000000000E+00  0.00000000000E+00  0.45593999997E+02  0.45594000000E+02  0.51100000000E-03 0.  1.
         11   -1    0    0    0    0 -0.00000000000E+00 -0.00000000000E+00 -0.45593999997E+02  0.45594000000E+02  0.51100000000E-03 0. -1.
    9900012    2    1    2    0    0 -0.16371798932E+02 -0.24055895867E+01 -0.37139464792E+02  0.50528898847E+02  0.30000118534E+02 0.  0.
        -12    1    1    2    0    0  0.16371798932E+02  0.24055895867E+01  0.37139464792E+02  0.40659101153E+02  0.00000000000E+00 0.  1.
         11    1    3    3    0    0  0.22756090569E+01 -0.42284576541E+01 -0.27082023934E+02  0.27504440938E+02  0.51100000000E-03 0. -1.
        -11    1    3    3    0    0 -0.10443333089E+01  0.25347320416E+01 -0.62970253423E-02  0.27414482480E+01  0.51100000000E-03 0.  1.
        -12    1    3    3    0    0 -0.17603074681E+02 -0.71186397420E+00 -0.10051143833E+02  0.20283009660E+02  0.00000000000E+00 0.  1.
</event>
<event>
 7    1  0.5373252E-013  0.5052886E+02  0.7816164E-02  0.1300439E+00
        -11   -1    0    0    0    0  0.00000000000E+00  0.00000000000E+00  0.45593999997E+02  0.45594000000E+02  0.51100000000E-03 0. -1.
         11   -1    0    0    0    0 -0.00000000000E+00 -0.00000000000E+00 -0.45593999997E+02  0.45594000000E+02  0.51100000000E-03 0.  1.
    9900012    2    1    2    0    0  0.23395161161E+02 -0.16127289888E+02  0.29081658310E+02  0.50528857179E+02  0.29999991881E+02 0.  0.
        -12    1    1    2    0    0 -0.23395161161E+02  0.16127289888E+02 -0.29081658310E+02  0.40659142821E+02  0.00000000000E+00 0.  1.
         11    1    3    3    0    0  0.36476772612E+00 -0.13908580617E+02  0.11446944776E+02  0.18017053456E+02  0.51100000000E-03 0. -1.
        -11    1    3    3    0    0  0.16167460437E+02 -0.68252067034E+01  0.66547809995E+01  0.18768493118E+02  0.51100000000E-03 0.  1.
        -12    1    3    3    0    0  0.68629329975E+01  0.46064974317E+01  0.10979932534E+02  0.13743310605E+02  0.00000000000E+00 0.  1.
</event>
<event>
 7    1  0.5373252E-013  0.5052886E+02  0.7816164E-02  0.1300439E+00
        -11   -1    0    0    0    0  0.00000000000E+00  0.00000000000E+00  0.45593999997E+02  0.45594000000E+02  0.51100000000E-03 0.  1.
         11   -1    0    0    0    0 -0.00000000000E+00 -0.00000000000E+00 -0.45593999997E+02  0.45594000000E+02  0.51100000000E-03 0. -1.
    9900012    2    1    2    0    0 -0.10063205023E+02 -0.76603161574E+01 -0.38642166052E+02  0.50528861591E+02  0.30000005291E+02 0.  0.
        -12    1    1    2    0    0  0.10063205023E+02  0.76603161574E+01  0.38642166052E+02  0.40659138409E+02  0.00000000000E+00 0.  1.
         11    1    3    3    0    0 -0.86552741673E+01 -0.29387192676E+01 -0.17207446605E+02  0.19484508225E+02  0.51100000000E-03 0. -1.
        -11    1    3    3    0    0 -0.49033683896E+01  0.77816288951E+01 -0.65399098639E+01  0.11285707382E+02  0.51100000000E-03 0.  1.
         12    1    3    3    0    0  0.34954375336E+01 -0.12503225785E+02 -0.14894809583E+02  0.19758645984E+02  0.00000000000E+00 0. -1.
</event>
<event>
 7    1  0.5373252E-013  0.5052888E+02  0.7816164E-02  0.1300439E+00
        -11   -1    0    0    0    0  0.00000000000E+00  0.00000000000E+00  0.45593999997E+02  0.45594000000E+02  0.51100000000E-03 0.  1.
         11   -1    0    0    0    0 -0.00000000000E+00 -0.00000000000E+00 -0.45593999997E+02  0.45594000000E+02  0.51100000000E-03 0. -1.
    9900012    2    1    2    0    0 -0.21174213022E+02  0.45172908942E+01 -0.34415271983E+02  0.50528878516E+02  0.30000056739E+02 0.  0.
        -12    1    1    2    0    0  0.21174213022E+02 -0.45172908942E+01  0.34415271983E+02  0.40659121484E+02  0.00000000000E+00 0.  1.
         11    1    3    3    0    0 -0.15100241569E+02  0.25143504646E+01 -0.13751055091E+01  0.15369781037E+02  0.51100000000E-03 0. -1.
        -11    1    3    3    0    0 -0.11051705782E+00  0.46234109482E+01 -0.75848938259E+01  0.88836229899E+01  0.51100000000E-03 0.  1.
        -12    1    3    3    0    0 -0.59634543956E+01 -0.26204705186E+01 -0.25455272648E+02  0.26275474490E+02  0.00000000000E+00 0.  1.
</event>
<event>
 7    1  0.5373252E-013  0.5052886E+02  0.7816164E-02  0.1300439E+00
        -11   -1    0    0    0    0  0.00000000000E+00  0.00000000000E+00  0.45593999997E+02  0.45594000000E+02  0.51100000000E-03 0.  1.
         11   -1    0    0    0    0 -0.00000000000E+00 -0.00000000000E+00 -0.45593999997E+02  0.45594000000E+02  0.51100000000E-03 0. -1.
    9900012    2    1    2    0    0 -0.29315011042E+02  0.13430175200E+02 -0.24767441337E+02  0.50528860453E+02  0.30000001833E+02 0.  0.
        -12    1    1    2    0    0  0.29315011042E+02 -0.13430175200E+02  0.24767441337E+02  0.40659139547E+02  0.00000000000E+00 0.  1.
         11    1    3    3    0    0 -0.31188911013E+01  0.38742756127E+01 -0.17503385644E+02  0.18196318377E+02  0.51100000000E-03 0.  1.
        -11    1    3    3    0    0 -0.21998734508E+02  0.70952078912E+01 -0.11557991911E+02  0.25843248098E+02  0.51100000000E-03 0. -1.
        -12    1    3    3    0    0 -0.41973854324E+01  0.24606916964E+01  0.42939362170E+01  0.64892939777E+01  0.00000000000E+00 0.  1.
</event>
<event>
 7    1  0.5373252E-013  0.5052887E+02  0.7816164E-02  0.1300439E+00
        -11   -1    0    0    0    0  0.00000000000E+00  0.00000000000E+00  0.45593999997E+02  0.45594000000E+02  0.51100000000E-03 0. -1.
         11   -1    0    0    0    0 -0.00000000000E+00 -0.00000000000E+00 -0.45593999997E+02  0.45594000000E+02  0.51100000000E-03 0.  1.
    9900012    2    1    2    0    0 -0.34700660067E+02 -0.87205303902E+01  0.19312734123E+02  0.50528866233E+02  0.30000019401E+02 0.  0.
        -12    1    1    2    0    0  0.34700660067E+02  0.87205303902E+01 -0.19312734123E+02  0.40659133767E+02  0.00000000000E+00 0.  1.
         11    1    3    3    0    0 -0.77643375549E+01 -0.90932179198E+01  0.33853847267E+01  0.12427082514E+02  0.51100000000E-03 0. -1.
        -11    1    3    3    0    0 -0.19787908578E+02 -0.17263757086E+01 -0.70654878504E+00  0.19875636101E+02  0.51100000000E-03 0.  1.
         12    1    3    3    0    0 -0.71484139345E+01  0.20990632382E+01  0.16633898182E+02  0.18226147618E+02  0.00000000000E+00 0. -1.
</event>
<event>
 7    1  0.5373252E-013  0.5052887E+02  0.7816164E-02  0.1300439E+00
        -11   -1    0    0    0    0  0.00000000000E+00  0.00000000000E+00  0.45593999997E+02  0.45594000000E+02  0.51100000000E-03 0. -1.
         11   -1    0    0    0    0 -0.00000000000E+00 -0.00000000000E+00 -0.45593999997E+02  0.45594000000E+02  0.51100000000E-03 0.  1.
    9900012    2    1    2    0    0  0.37982931693E+02  0.12810470230E+02  0.68083766008E+01  0.50528865240E+02  0.30000016384E+02 0.  0.
        -12    1    1    2    0    0 -0.37982931693E+02 -0.12810470230E+02 -0.68083766008E+01  0.40659134760E+02  0.00000000000E+00 0.  1.
         11    1    3    3    0    0  0.13099572630E+02  0.12421987567E+02 -0.69396171846E+01  0.19340704877E+02  0.51100000000E-03 0. -1.
        -11    1    3    3    0    0  0.35008457923E+01 -0.46796577720E+01  0.15136425306E+01  0.60370714834E+01  0.51100000000E-03 0.  1.
         12    1    3    3    0    0  0.21382513270E+02  0.50681404346E+01  0.12234351255E+02  0.25151088880E+02  0.00000000000E+00 0. -1.
</event>
<event>
 7    1  0.5373252E-013  0.5052888E+02  0.7816164E-02  0.1300439E+00
        -11   -1    0    0    0    0  0.00000000000E+00  0.00000000000E+00  0.45593999997E+02  0.45594000000E+02  0.51100000000E-03 0.  1.
         11   -1    0    0    0    0 -0.00000000000E+00 -0.00000000000E+00 -0.45593999997E+02  0.45594000000E+02  0.51100000000E-03 0. -1.
    9900012    2    1    2    0    0 -0.33793128346E+01 -0.32642194903E+02 -0.24004820719E+02  0.50528879731E+02  0.30000060430E+02 0.  0.
        -12    1    1    2    0    0  0.33793128346E+01  0.32642194903E+02  0.24004820719E+02  0.40659120269E+02  0.00000000000E+00 0.  1.
         11    1    3    3    0    0  0.70934510960E+01 -0.12576398671E+02 -0.82298007470E+01  0.16619641169E+02  0.51100000000E-03 0. -1.
        -11    1    3    3    0    0 -0.14458383978E+01  0.70616733441E+00 -0.10541786620E+02  0.10663882332E+02  0.51100000000E-03 0.  1.
         12    1    3    3    0    0 -0.90269255327E+01 -0.20771963566E+02 -0.52332333521E+01  0.23245356231E+02  0.00000000000E+00 0. -1.
</event>
<event>
 7    1  0.5373252E-013  0.5052886E+02  0.7816164E-02  0.1300439E+00
        -11   -1    0    0    0    0  0.00000000000E+00  0.00000000000E+00  0.45593999997E+02  0.45594000000E+02  0.51100000000E-03 0. -1.
         11   -1    0    0    0    0 -0.00000000000E+00 -0.00000000000E+00 -0.45593999997E+02  0.45594000000E+02  0.51100000000E-03 0.  1.
    9900012    2    1    2    0    0 -0.29711581539E+01 -0.40088303988E+02  0.61045871967E+01  0.50528857335E+02  0.29999992357E+02 0.  0.
        -12    1    1    2    0    0  0.29711581539E+01  0.40088303988E+02 -0.61045871967E+01  0.40659142665E+02  0.00000000000E+00 0.  1.
         11    1    3    3    0    0 -0.67995733596E+01 -0.32298810675E+02  0.29747527690E+01  0.33140557074E+02  0.51100000000E-03 0. -1.
        -11    1    3    3    0    0  0.27440356515E+01 -0.96477390764E+01 -0.33386174639E+01  0.10571422221E+02  0.51100000000E-03 0.  1.
        -12    1    3    3    0    0  0.10843795542E+01  0.18582457640E+01  0.64684518917E+01  0.68168780400E+01  0.00000000000E+00 0.  1.
</event>
<event>
 7    1  0.5373252E-013  0.5052887E+02  0.7816164E-02  0.1300439E+00
        -11   -1    0    0    0    0  0.00000000000E+00  0.00000000000E+00  0.45593999997E+02  0.45594000000E+02  0.51100000000E-03 0.  1.
         11   -1    0    0    0    0 -0.00000000000E+00 -0.00000000000E+00 -0.45593999997E+02  0.45594000000E+02  0.51100000000E-03 0. -1.
    9900012    2    1    2    0    0 -0.29569120252E+02  0.64635951036E+01 -0.27148743410E+02  0.50528865689E+02  0.30000017748E+02 0.  0.
        -12    1    1    2    0    0  0.29569120252E+02 -0.64635951036E+01  0.27148743410E+02  0.40659134311E+02  0.00000000000E+00 0.  1.
         11    1    3    3    0    0  0.16738550276E+01  0.29290524393E+00 -0.10223427601E+02  0.10363689319E+02  0.51100000000E-03 0. -1.
        -11    1    3    3    0    0 -0.54972870862E+01 -0.31317697820E+01  0.22803345576E+01  0.67251820222E+01  0.51100000000E-03 0.  1.
         12    1    3    3    0    0 -0.25745688194E+02  0.93024596417E+01 -0.19205650367E+02  0.33439994348E+02  0.00000000000E+00 0. -1.
</event>
<event>
 7    1  0.5373252E-013  0.5052888E+02  0.7816164E-02  0.1300439E+00
        -11   -1    0    0    0    0  0.00000000000E+00  0.00000000000E+00  0.45593999997E+02  0.45594000000E+02  0.51100000000E-03 0.  1.
         11   -1    0    0    0    0 -0.00000000000E+00 -0.00000000000E+00 -0.45593999997E+02  0.45594000000E+02  0.51100000000E-03 0. -1.
    9900012    2    1    2    0    0  0.48992530999E+01  0.26852938305E+02 -0.30134384503E+02  0.50528879179E+02  0.30000058752E+02 0.  0.
        -12    1    1    2    0    0 -0.48992530999E+01 -0.26852938305E+02  0.30134384503E+02  0.40659120821E+02  0.00000000000E+00 0.  1.
         11    1    3    3    0    0 -0.33379010156E+01  0.14036085401E+02 -0.13583854811E+02  0.19816013433E+02  0.51100000000E-03 0. -1.
        -11    1    3    3    0    0  0.10201456017E+02  0.11861725578E+02 -0.17393773538E+01  0.15741527003E+02  0.51100000000E-03 0.  1.
         12    1    3    3    0    0 -0.19643019017E+01  0.95512732601E+00 -0.14811152338E+02  0.14971338742E+02  0.00000000000E+00 0. -1.
</event>
<event>
 7    1  0.5373252E-013  0.5052886E+02  0.7816164E-02  0.1300439E+00
        -11   -1    0    0    0    0  0.00000000000E+00  0.00000000000E+00  0.45593999997E+02  0.45594000000E+02  0.51100000000E-03 0.  1.
         11   -1    0    0    0    0 -0.00000000000E+00 -0.00000000000E+00 -0.45593999997E+02  0.45594000000E+02  0.51100000000E-03 0. -1.
    9900012    2    1    2    0    0 -0.13679371249E+02  0.32101276045E+01 -0.38154106028E+02  0.50528856824E+02  0.29999990803E+02 0.  0.
        -12    1    1    2    0    0  0.13679371249E+02 -0.32101276045E+01  0.38154106028E+02  0.40659143176E+02  0.00000000000E+00 0.  1.
         11    1    3    3    0    0  0.23103259382E+01  0.50006123463E+01 -0.56615868461E+01  0.78991958867E+01  0.51100000000E-03 0. -1.
        -11    1    3    3    0    0 -0.34885370347E+00  0.67106689118E+01 -0.19402496443E+02  0.20533183987E+02  0.51100000000E-03 0.  1.
        -12    1    3    3    0    0 -0.15640843484E+02 -0.85011536536E+01 -0.13090022738E+02  0.22096476950E+02  0.00000000000E+00 0.  1.
</event>
<event>
 7    1  0.5373252E-013  0.5052886E+02  0.7816164E-02  0.1300439E+00
        -11   -1    0    0    0    0  0.00000000000E+00  0.00000000000E+00  0.45593999997E+02  0.45594000000E+02  0.51100000000E-03 0. -1.
         11   -1    0    0    0    0 -0.00000000000E+00 -0.00000000000E+00 -0.45593999997E+02  0.45594000000E+02  0.51100000000E-03 0.  1.
    9900012    2    1    2    0    0 -0.21677889372E+02 -0.13817204361E+02  0.31501099803E+02  0.50528864338E+02  0.30000013641E+02 0.  0.
        -12    1    1    2    0    0  0.21677889372E+02  0.13817204361E+02 -0.31501099803E+02  0.40659135662E+02  0.00000000000E+00 0.  1.
         11    1    3    3    0    0 -0.80388293384E+01 -0.75373051067E+01  0.44788821955E+01  0.11895130575E+02  0.51100000000E-03 0. -1.
        -11    1    3    3    0    0 -0.19082562228E+02 -0.47626866552E+00  0.15287377579E+02  0.24455570460E+02  0.51100000000E-03 0.  1.
        -12    1    3    3    0    0  0.54435021939E+01 -0.58036305887E+01  0.11734840029E+02  0.14178163303E+02  0.00000000000E+00 0.  1.
</event>
<event>
 7    1  0.5373252E-013  0.5052887E+02  0.7816164E-02  0.1300439E+00
        -11   -1    0    0    0    0  0.00000000000E+00  0.00000000000E+00  0.45593999997E+02  0.45594000000E+02  0.51100000000E-03 0. -1.
         11   -1    0    0    0    0 -0.00000000000E+00 -0.00000000000E+00 -0.45593999997E+02  0.45594000000E+02  0.51100000000E-03 0.  1.
    9900012    2    1    2    0    0  0.18370271052E+02  0.29572804644E+02  0.21003513043E+02  0.50528865808E+02  0.30000018111E+02 0.  0.
        -12    1    1    2    0    0 -0.18370271052E+02 -0.29572804644E+02 -0.21003513043E+02  0.40659134192E+02  0.00000000000E+00 0.  1.
         11    1    3    3    0    0 -0.30094447488E+01  0.31625621349E-01  0.38708151540E+01  0.49031589913E+01  0.51100000000E-03 0. -1.
        -11    1    3    3    0    0 -0.47590417183E+00 -0.27328736546E+01 -0.54390017476E+00  0.28268199189E+01  0.51100000000E-03 0.  1.
        -12    1    3    3    0    0  0.21855619973E+02  0.32274052677E+02  0.17676598064E+02  0.42798886898E+02  0.00000000000E+00 0.  1.
</event>
<event>
 7    1  0.5373252E-013  0.5052885E+02  0.7816164E-02  0.1300439E+00
        -11   -1    0    0    0    0  0.00000000000E+00  0.00000000000E+00  0.45593999997E+02  0.45594000000E+02  0.51100000000E-03 0.  1.
         11   -1    0    0    0    0 -0.00000000000E+00 -0.00000000000E+00 -0.45593999997E+02  0.45594000000E+02  0.51100000000E-03 0. -1.
    9900012    2    1    2    0    0  0.26375482638E+02 -0.25486355991E+02 -0.17548390033E+02  0.50528850736E+02  0.29999972298E+02 0.  0.
        -12    1    1    2    0    0 -0.26375482638E+02  0.25486355991E+02  0.17548390033E+02  0.40659149264E+02  0.00000000000E+00 0.  1.
         11    1    3    3    0    0  0.10365128258E+02  0.27542403163E+01 -0.70212978880E+01  0.12818749854E+02  0.51100000000E-03 0. -1.
        -11    1    3    3    0    0  0.79638481580E+01 -0.88666130762E+01  0.35627247802E+01  0.12439160464E+02  0.51100000000E-03 0.  1.
         12    1    3    3    0    0  0.80465062219E+01 -0.19373983231E+02 -0.14089816925E+02  0.25270940418E+02  0.00000000000E+00 0. -1.
</event>
<event>
 7    1  0.5373252E-013  0.5052886E+02  0.7816164E-02  0.1300439E+00
        -11   -1    0    0    0    0  0.00000000000E+00  0.00000000000E+00  0.45593999997E+02  0.45594000000E+02  0.51100000000E-03 0. -1.
         11   -1    0    0    0    0 -0.00000000000E+00 -0.00000000000E+00 -0.45593999997E+02  0.45594000000E+02  0.51100000000E-03 0.  1.
    9900012    2    1    2    0    0  0.47082173819E+01 -0.37102767409E+02  0.15949384454E+02  0.50528861731E+02  0.30000005718E+02 0.  0.
        -12    1    1    2    0    0 -0.47082173819E+01  0.37102767409E+02 -0.15949384454E+02  0.40659138269E+02  0.00000000000E+00 0.  1.
         11    1    3    3    0    0 -0.47423767068E+00 -0.17908853965E+02  0.30504649948E+01  0.18172982382E+02  0.51100000000E-03 0. -1.
        -11    1    3    3    0    0  0.72484184108E+01 -0.13273262538E+02 -0.28632746330E+01  0.15392121678E+02  0.51100000000E-03 0.  1.
         12    1    3    3    0    0 -0.20659633582E+01 -0.59206509061E+01  0.15762194092E+02  0.16963757672E+02  0.00000000000E+00 0. -1.
</event>
<event>
 7    1  0.5373252E-013  0.5052887E+02  0.7816164E-02  0.1300439E+00
        -11   -1    0    0    0    0  0.00000000000E+00  0.00000000000E+00  0.45593999997E+02  0.45594000000E+02  0.51100000000E-03 0.  1.
         11   -1    0    0    0    0 -0.00000000000E+00 -0.00000000000E+00 -0.45593999997E+02  0.45594000000E+02  0.51100000000E-03 0. -1.
    9900012    2    1    2    0    0  0.34210925211E+02 -0.17481684484E+02 -0.13310467530E+02  0.50528865207E+02  0.30000016285E+02 0.  0.
        -12    1    1    2    0    0 -0.34210925211E+02  0.17481684484E+02  0.13310467530E+02  0.40659134793E+02  0.00000000000E+00 0.  1.
         11    1    3    3    0    0  0.13392562114E+01 -0.12516249217E+01 -0.28383139914E+01  0.33787865750E+01  0.51100000000E-03 0. -1.
        -11    1    3    3    0    0  0.10267089669E+02 -0.51565350459E+01 -0.17573813233E+02  0.20996235276E+02  0.51100000000E-03 0.  1.
         12    1    3    3    0    0  0.22604579331E+02 -0.11073524516E+02  0.71016596939E+01  0.26153843357E+02  0.00000000000E+00 0. -1.
</event>
<event>
 7    1  0.5373252E-013  0.5052886E+02  0.7816164E-02  0.1300439E+00
        -11   -1    0    0    0    0  0.00000000000E+00  0.00000000000E+00  0.45593999997E+02  0.45594000000E+02  0.51100000000E-03 0. -1.
         11   -1    0    0    0    0 -0.00000000000E+00 -0.00000000000E+00 -0.45593999997E+02  0.45594000000E+02  0.51100000000E-03 0.  1.
    9900012    2    1    2    0    0 -0.76333240676E+01  0.21518775022E+02  0.33642832609E+02  0.50528862027E+02  0.30000006617E+02 0.  0.
        -12    1    1    2    0    0  0.76333240676E+01 -0.21518775022E+02 -0.33642832609E+02  0.40659137973E+02  0.00000000000E+00 0.  1.
         11    1    3    3    0    0 -0.59716762306E+00  0.54739957699E+01 -0.17674604539E+01  0.57831786741E+01  0.51100000000E-03 0. -1.
        -11    1    3    3    0    0 -0.12006046568E+02  0.90794895415E+01  0.10357154618E+02  0.18271642963E+02  0.51100000000E-03 0.  1.
         12    1    3    3    0    0  0.49698901239E+01  0.69652897105E+01  0.25053138445E+02  0.26474040390E+02  0.00000000000E+00 0. -1.
</event>
<event>
 7    1  0.5373252E-013  0.5052886E+02  0.7816164E-02  0.1300439E+00
        -11   -1    0    0    0    0  0.00000000000E+00  0.00000000000E+00  0.45593999997E+02  0.45594000000E+02  0.51100000000E-03 0.  1.
         11   -1    0    0    0    0 -0.00000000000E+00 -0.00000000000E+00 -0.45593999997E+02  0.45594000000E+02  0.51100000000E-03 0. -1.
    9900012    2    1    2    0    0  0.21612911336E+02 -0.14784128080E+02 -0.31104296103E+02  0.50528860615E+02  0.30000002324E+02 0.  0.
        -12    1    1    2    0    0 -0.21612911336E+02  0.14784128080E+02  0.31104296103E+02  0.40659139385E+02  0.00000000000E+00 0.  1.
         11    1    3    3    0    0  0.24891551699E+01  0.64745310690E+01 -0.15504926093E+02  0.16985822895E+02  0.51100000000E-03 0.  1.
        -11    1    3    3    0    0  0.27228133357E+01 -0.83579888224E+01 -0.38564926797E+01  0.95990742088E+01  0.51100000000E-03 0. -1.
        -12    1    3    3    0    0  0.16400942830E+02 -0.12900670327E+02 -0.11742877330E+02  0.23943963510E+02  0.00000000000E+00 0.  1.
</event>
<event>
 7    1  0.7803710E-013  0.5052885E+02  0.7816164E-02  0.1300439E+00
        -11   -1    0    0    0    0  0.00000000000E+00  0.00000000000E+00  0.45593999997E+02  0.45594000000E+02  0.51100000000E-03 0. -1.
         11   -1    0    0    0    0 -0.00000000000E+00 -0.00000000000E+00 -0.45593999997E+02  0.45594000000E+02  0.51100000000E-03 0.  1.
    9900012    2    1    2    0    0  0.11403087496E+02 -0.84014452411E+01  0.38112353721E+02  0.50528853517E+02  0.29999980750E+02 0.  0.
        -12    1    1    2    0    0 -0.11403087496E+02  0.84014452411E+01 -0.38112353721E+02  0.40659146483E+02  0.00000000000E+00 0.  1.
         11    1    3    3    0    0  0.55867474752E+01 -0.12129311176E+02  0.18613715303E+02  0.22908564656E+02  0.51100000000E-03 0. -1.
        -11    1    3    3    0    0  0.10743738765E+02 -0.16456243823E+01  0.63564335584E+01  0.12591276746E+02  0.51100000000E-03 0.  1.
        -12    1    3    3    0    0 -0.49273987440E+01  0.53734903171E+01  0.13142204859E+02  0.15029012114E+02  0.00000000000E+00 0.  1.
</event>
<event>
 7    1  0.5373252E-013  0.5052887E+02  0.7816164E-02  0.1300439E+00
        -11   -1    0    0    0    0  0.00000000000E+00  0.00000000000E+00  0.45593999997E+02  0.45594000000E+02  0.51100000000E-03 0.  1.
         11   -1    0    0    0    0 -0.00000000000E+00 -0.00000000000E+00 -0.45593999997E+02  0.45594000000E+02  0.51100000000E-03 0. -1.
    9900012    2    1    2    0    0 -0.64550526325E+01  0.39141247721E+02 -0.89140494159E+01  0.50528865053E+02  0.30000015816E+02 0.  0.
        -12    1    1    2    0    0  0.64550526325E+01 -0.39141247721E+02  0.89140494159E+01  0.40659134947E+02  0.00000000000E+00 0.  1.
         11    1    3    3    0    0 -0.86184321061E+01  0.33884532383E+02 -0.52819254941E+01  0.35360113743E+02  0.51100000000E-03 0. -1.
        -11    1    3    3    0    0  0.37268116377E+01  0.93876956458E+01 -0.13291100849E+01  0.10187467222E+02  0.51100000000E-03 0.  1.
        -12    1    3    3    0    0 -0.15634321640E+01 -0.41309803074E+01 -0.23030138369E+01  0.49812840879E+01  0.00000000000E+00 0.  1.
</event>
<event>
 7    1  0.6513660E-013  0.5052886E+02  0.7816164E-02  0.1300439E+00
        -11   -1    0    0    0    0  0.00000000000E+00  0.00000000000E+00  0.45593999997E+02  0.45594000000E+02  0.51100000000E-03 0.  1.
         11   -1    0    0    0    0 -0.00000000000E+00 -0.00000000000E+00 -0.45593999997E+02  0.45594000000E+02  0.51100000000E-03 0. -1.
    9900012    2    1    2    0    0  0.47352022055E+01 -0.27278903157E+02 -0.29775918879E+02  0.50528855365E+02  0.29999986368E+02 0.  0.
        -12    1    1    2    0    0 -0.47352022055E+01  0.27278903157E+02  0.29775918879E+02  0.40659144635E+02  0.00000000000E+00 0.  1.
         11    1    3    3    0    0  0.18765329832E+01 -0.15683874159E+02 -0.24473224563E+02  0.29128062164E+02  0.51100000000E-03 0. -1.
        -11    1    3    3    0    0  0.77887772184E+01 -0.10604416204E+02 -0.82904380101E+01  0.15551529065E+02  0.51100000000E-03 0.  1.
        -12    1    3    3    0    0 -0.49301079961E+01 -0.99061279332E+00  0.29877436940E+01  0.58492641367E+01  0.00000000000E+00 0.  1.
</event>
<event>
 7    1  0.5373252E-013  0.5052885E+02  0.7816164E-02  0.1300439E+00
        -11   -1    0    0    0    0  0.00000000000E+00  0.00000000000E+00  0.45593999997E+02  0.45594000000E+02  0.51100000000E-03 0.  1.
         11   -1    0    0    0    0 -0.00000000000E+00 -0.00000000000E+00 -0.45593999997E+02  0.45594000000E+02  0.51100000000E-03 0. -1.
    9900012    2    1    2    0    0  0.23777252238E+02 -0.22924582848E+02  0.23712273338E+02  0.50528854293E+02  0.29999983109E+02 0.  0.
        -12    1    1    2    0    0 -0.23777252238E+02  0.22924582848E+02 -0.23712273338E+02  0.40659145707E+02  0.00000000000E+00 0.  1.
         11    1    3    3    0    0 -0.36665870471E+01 -0.11893207628E+02  0.10302125092E+01  0.12488137825E+02  0.51100000000E-03 0. -1.
        -11    1    3    3    0    0  0.46759027257E+01 -0.38521012678E+01  0.79230685093E+01  0.99738540866E+01  0.51100000000E-03 0.  1.
        -12    1    3    3    0    0  0.22767936560E+02 -0.71792739525E+01  0.14758992319E+02  0.28066862382E+02  0.00000000000E+00 0.  1.
</event>
<event>
 7    1  0.5373252E-013  0.5052887E+02  0.7816164E-02  0.1300439E+00
        -11   -1    0    0    0    0  0.00000000000E+00  0.00000000000E+00  0.45593999997E+02  0.45594000000E+02  0.51100000000E-03 0.  1.
         11   -1    0    0    0    0 -0.00000000000E+00 -0.00000000000E+00 -0.45593999997E+02  0.45594000000E+02  0.51100000000E-03 0. -1.
    9900012    2    1    2    0    0 -0.18595470966E+02  0.18910004283E+01 -0.36108137551E+02  0.50528867932E+02  0.30000024567E+02 0.  0.
        -12    1    1    2    0    0  0.18595470966E+02 -0.18910004283E+01  0.36108137551E+02  0.40659132068E+02  0.00000000000E+00 0.  1.
         11    1    3    3    0    0 -0.12073718358E+01 -0.10796716902E+02 -0.21411101057E+02  0.24009624973E+02  0.51100000000E-03 0. -1.
        -11    1    3    3    0    0 -0.79974789858E+01  0.40758365966E+01 -0.84533592926E+01  0.12330101284E+02  0.51100000000E-03 0.  1.
        -12    1    3    3    0    0 -0.93906201449E+01  0.86118807335E+01 -0.62436772019E+01  0.14189141675E+02  0.00000000000E+00 0.  1.
</event>
<event>
 7    1  0.5373252E-013  0.5052886E+02  0.7816164E-02  0.1300439E+00
        -11   -1    0    0    0    0  0.00000000000E+00  0.00000000000E+00  0.45593999997E+02  0.45594000000E+02  0.51100000000E-03 0.  1.
         11   -1    0    0    0    0 -0.00000000000E+00 -0.00000000000E+00 -0.45593999997E+02  0.45594000000E+02  0.51100000000E-03 0. -1.
    9900012    2    1    2    0    0  0.39005562855E+02  0.89685747606E+01 -0.71621762437E+01  0.50528855452E+02  0.29999986631E+02 0.  0.
        -12    1    1    2    0    0 -0.39005562855E+02 -0.89685747606E+01  0.71621762437E+01  0.40659144548E+02  0.00000000000E+00 0.  1.
         11    1    3    3    0    0  0.24771035531E+02  0.14584540217E+02  0.74760286826E+00  0.28755380800E+02  0.51100000000E-03 0. -1.
        -11    1    3    3    0    0  0.15255513498E+02 -0.52372706424E+01 -0.25811175891E+01  0.16334682860E+02  0.51100000000E-03 0.  1.
        -12    1    3    3    0    0 -0.10209861742E+01 -0.37869481446E+00 -0.53286615229E+01  0.54387917919E+01  0.00000000000E+00 0.  1.
</event>
<event>
 7    1  0.5373252E-013  0.5052889E+02  0.7816164E-02  0.1300439E+00
        -11   -1    0    0    0    0  0.00000000000E+00  0.00000000000E+00  0.45593999997E+02  0.45594000000E+02  0.51100000000E-03 0.  1.
         11   -1    0    0    0    0 -0.00000000000E+00 -0.00000000000E+00 -0.45593999997E+02  0.45594000000E+02  0.51100000000E-03 0. -1.
    9900012    2    1    2    0    0  0.12017484201E+02 -0.27933694582E+02 -0.26989847579E+02  0.50528891650E+02  0.30000096658E+02 0.  0.
        -12    1    1    2    0    0 -0.12017484201E+02  0.27933694582E+02  0.26989847579E+02  0.40659108350E+02  0.00000000000E+00 0.  1.
         11    1    3    3    0    0  0.15507341816E+02 -0.18727274213E+02 -0.10844564579E+02  0.26623167182E+02  0.51100000000E-03 0. -1.
        -11    1    3    3    0    0 -0.15090674549E+01  0.39959086268E+01 -0.36004696558E+01  0.55864078208E+01  0.51100000000E-03 0.  1.
        -12    1    3    3    0    0 -0.19807901598E+01 -0.13202328996E+02 -0.12544813344E+02  0.18319316647E+02  0.00000000000E+00 0.  1.
</event>
<event>
 7    1  0.5373252E-013  0.5052886E+02  0.7816164E-02  0.1300439E+00
        -11   -1    0    0    0    0  0.00000000000E+00  0.00000000000E+00  0.45593999997E+02  0.45594000000E+02  0.51100000000E-03 0.  1.
         11   -1    0    0    0    0 -0.00000000000E+00 -0.00000000000E+00 -0.45593999997E+02  0.45594000000E+02  0.51100000000E-03 0. -1.
    9900012    2    1    2    0    0  0.35093235154E+02 -0.16362901972E+02  0.12405073510E+02  0.50528861257E+02  0.30000004277E+02 0.  0.
        -12    1    1    2    0    0 -0.35093235154E+02  0.16362901972E+02 -0.12405073510E+02  0.40659138743E+02  0.00000000000E+00 0.  1.
         11    1    3    3    0    0  0.20966649711E+02 -0.12723238571E+02  0.14082621780E+02  0.28280760886E+02  0.51100000000E-03 0. -1.
        -11    1    3    3    0    0  0.10083288429E+02 -0.77544582301E+01 -0.68959168142E+01  0.14469208580E+02  0.51100000000E-03 0.  1.
        -12    1    3    3    0    0  0.40432970145E+01  0.41147948285E+01  0.52183685439E+01  0.77788917904E+01  0.00000000000E+00 0.  1.
</event>
<event>
 7    1  0.5373252E-013  0.5052886E+02  0.7816164E-02  0.1300439E+00
        -11   -1    0    0    0    0  0.00000000000E+00  0.00000000000E+00  0.45593999997E+02  0.45594000000E+02  0.51100000000E-03 0.  1.
         11   -1    0    0    0    0 -0.00000000000E+00 -0.00000000000E+00 -0.45593999997E+02  0.45594000000E+02  0.51100000000E-03 0. -1.
    9900012    2    1    2    0    0  0.36550093227E+02 -0.39424863745E+01  0.17369887699E+02  0.50528861883E+02  0.30000006180E+02 0.  0.
        -12    1    1    2    0    0 -0.36550093227E+02  0.39424863745E+01 -0.17369887699E+02  0.40659138117E+02  0.00000000000E+00 0.  1.
         11    1    3    3    0    0  0.21414533213E+02  0.74932911786E+01  0.30584578181E+01  0.22892920520E+02  0.51100000000E-03 0. -1.
        -11    1    3    3    0    0 -0.17683748608E+01  0.65841035945E+00 -0.68318722085E+00  0.20068380327E+01  0.51100000000E-03 0.  1.
        -12    1    3    3    0    0  0.16903934874E+02 -0.12094187913E+02  0.14994617102E+02  0.25629103331E+02  0.00000000000E+00 0.  1.
</event>
<event>
 7    1  0.5373252E-013  0.5052886E+02  0.7816164E-02  0.1300439E+00
        -11   -1    0    0    0    0  0.00000000000E+00  0.00000000000E+00  0.45593999997E+02  0.45594000000E+02  0.51100000000E-03 0. -1.
         11   -1    0    0    0    0 -0.00000000000E+00 -0.00000000000E+00 -0.45593999997E+02  0.45594000000E+02  0.51100000000E-03 0.  1.
    9900012    2    1    2    0    0  0.24625266228E+02 -0.31786002793E+02 -0.60342531447E+01  0.50528856854E+02  0.29999990895E+02 0.  0.
        -12    1    1    2    0    0 -0.24625266228E+02  0.31786002793E+02  0.60342531447E+01  0.40659143146E+02  0.00000000000E+00 0.  1.
         11    1    3    3    0    0 -0.16134034306E+01 -0.18899936644E+01  0.36560027500E+01  0.44205772305E+01  0.51100000000E-03 0. -1.
        -11    1    3    3    0    0  0.75256200108E+01  0.50574949775E+00 -0.70286377492E+01  0.10309824827E+02  0.51100000000E-03 0.  1.
         12    1    3    3    0    0  0.18713049648E+02 -0.30401758626E+02 -0.26616181455E+01  0.35798454797E+02  0.00000000000E+00 0. -1.
</event>
<event>
 7    1  0.5373252E-013  0.5052886E+02  0.7816164E-02  0.1300439E+00
        -11   -1    0    0    0    0  0.00000000000E+00  0.00000000000E+00  0.45593999997E+02  0.45594000000E+02  0.51100000000E-03 0.  1.
         11   -1    0    0    0    0 -0.00000000000E+00 -0.00000000000E+00 -0.45593999997E+02  0.45594000000E+02  0.51100000000E-03 0. -1.
    9900012    2    1    2    0    0  0.42895412261E+01  0.24065466030E+02 -0.32490285370E+02  0.50528862496E+02  0.30000008042E+02 0.  0.
        -12    1    1    2    0    0 -0.42895412261E+01 -0.24065466030E+02  0.32490285370E+02  0.40659137504E+02  0.00000000000E+00 0.  1.
         11    1    3    3    0    0  0.43057152794E+01  0.11497926786E+02 -0.19531358161E+02  0.23069795325E+02  0.51100000000E-03 0. -1.
        -11    1    3    3    0    0 -0.21640791756E-01 -0.26582788815E+01 -0.11903479621E+02  0.12196710306E+02  0.51100000000E-03 0.  1.
        -12    1    3    3    0    0  0.54667384754E-02  0.15225818125E+02 -0.10554475881E+01  0.15262356865E+02  0.00000000000E+00 0.  1.
</event>
<event>
 7    1  0.5373252E-013  0.5052891E+02  0.7816164E-02  0.1300439E+00
        -11   -1    0    0    0    0  0.00000000000E+00  0.00000000000E+00  0.45593999997E+02  0.45594000000E+02  0.51100000000E-03 0.  1.
         11   -1    0    0    0    0 -0.00000000000E+00 -0.00000000000E+00 -0.45593999997E+02  0.45594000000E+02  0.51100000000E-03 0. -1.
    9900012    2    1    2    0    0 -0.17366383655E+02 -0.34882106401E+02 -0.11610733140E+02  0.50528908123E+02  0.30000146730E+02 0.  0.
        -12    1    1    2    0    0  0.17366383655E+02  0.34882106401E+02  0.11610733140E+02  0.40659091877E+02  0.00000000000E+00 0.  1.
         11    1    3    3    0    0 -0.24711079885E+01 -0.11103723306E+02  0.78996971383E+01  0.13849341540E+02  0.51100000000E-03 0.  1.
        -11    1    3    3    0    0 -0.19050608098E+00 -0.17923499579E+01 -0.73501267920E+01  0.75679042712E+01  0.51100000000E-03 0. -1.
        -12    1    3    3    0    0 -0.14704769586E+02 -0.21986033137E+02 -0.12160303486E+02  0.29111662312E+02  0.00000000000E+00 0.  1.
</event>
<event>
 7    1  0.5373252E-013  0.5052886E+02  0.7816164E-02  0.1300439E+00
        -11   -1    0    0    0    0  0.00000000000E+00  0.00000000000E+00  0.45593999997E+02  0.45594000000E+02  0.51100000000E-03 0. -1.
         11   -1    0    0    0    0 -0.00000000000E+00 -0.00000000000E+00 -0.45593999997E+02  0.45594000000E+02  0.51100000000E-03 0.  1.
    9900012    2    1    2    0    0 -0.39501689780E+02  0.82915291965E+01  0.49023369701E+01  0.50528857613E+02  0.29999993199E+02 0.  0.
        -12    1    1    2    0    0  0.39501689780E+02 -0.82915291965E+01 -0.49023369701E+01  0.40659142387E+02  0.00000000000E+00 0.  1.
         11    1    3    3    0    0 -0.39299549792E+01 -0.42423824763E+00  0.91111260560E+01  0.99316233567E+01  0.51100000000E-03 0. -1.
        -11    1    3    3    0    0 -0.66665087537E+01 -0.81319561984E+00  0.54681249076E+01  0.86604859185E+01  0.51100000000E-03 0.  1.
         12    1    3    3    0    0 -0.28905226047E+02  0.95289630640E+01 -0.96769139936E+01  0.31936748337E+02  0.00000000000E+00 0. -1.
</event>
<event>
 7    1  0.5373252E-013  0.5052886E+02  0.7816164E-02  0.1300439E+00
        -11   -1    0    0    0    0  0.00000000000E+00  0.00000000000E+00  0.45593999997E+02  0.45594000000E+02  0.51100000000E-03 0.  1.
         11   -1    0    0    0    0 -0.00000000000E+00 -0.00000000000E+00 -0.45593999997E+02  0.45594000000E+02  0.51100000000E-03 0. -1.
    9900012    2    1    2    0    0  0.20998069450E+02 -0.34714805534E+02 -0.26700492373E+01  0.50528858263E+02  0.29999995176E+02 0.  0.
        -12    1    1    2    0    0 -0.20998069450E+02  0.34714805534E+02  0.26700492373E+01  0.40659141737E+02  0.00000000000E+00 0.  1.
         11    1    3    3    0    0  0.45336402312E+01 -0.13561868542E+02  0.65306960639E+01  0.15720310539E+02  0.51100000000E-03 0. -1.
        -11    1    3    3    0    0  0.23575883212E+01  0.33967701819E+01  0.16971842693E+01  0.44695307434E+01  0.51100000000E-03 0.  1.
         12    1    3    3    0    0  0.14106840897E+02 -0.24549707174E+02 -0.10897929570E+02  0.30339016980E+02  0.00000000000E+00 0. -1.
</event>
<event>
 7    1  0.5373252E-013  0.5052886E+02  0.7816164E-02  0.1300439E+00
        -11   -1    0    0    0    0  0.00000000000E+00  0.00000000000E+00  0.45593999997E+02  0.45594000000E+02  0.51100000000E-03 0.  1.
         11   -1    0    0    0    0 -0.00000000000E+00 -0.00000000000E+00 -0.45593999997E+02  0.45594000000E+02  0.51100000000E-03 0. -1.
    9900012    2    1    2    0    0  0.34600765528E+02  0.21352443187E+02  0.16067843803E+00  0.50528860526E+02  0.30000002056E+02 0.  0.
        -12    1    1    2    0    0 -0.34600765528E+02 -0.21352443187E+02 -0.16067843803E+00  0.40659139474E+02  0.00000000000E+00 0.  1.
         11    1    3    3    0    0  0.16671868568E+01 -0.23893647122E+01  0.37262379536E+01  0.47300555273E+01  0.51100000000E-03 0. -1.
        -11    1    3    3    0    0  0.80220707958E+01  0.69352660256E+01 -0.10537893928E+02  0.14949874360E+02  0.51100000000E-03 0.  1.
         12    1    3    3    0    0  0.24911507876E+02  0.16806541874E+02  0.69723344122E+01  0.30848930638E+02  0.00000000000E+00 0. -1.
</event>
<event>
 7    1  0.5373252E-013  0.5052888E+02  0.7816164E-02  0.1300439E+00
        -11   -1    0    0    0    0  0.00000000000E+00  0.00000000000E+00  0.45593999997E+02  0.45594000000E+02  0.51100000000E-03 0.  1.
         11   -1    0    0    0    0 -0.00000000000E+00 -0.00000000000E+00 -0.45593999997E+02  0.45594000000E+02  0.51100000000E-03 0. -1.
    9900012    2    1    2    0    0 -0.10977416684E+02 -0.38583142920E+02  0.66333819186E+01  0.50528876174E+02  0.30000049618E+02 0.  0.
        -12    1    1    2    0    0  0.10977416684E+02  0.38583142920E+02 -0.66333819186E+01  0.40659123826E+02  0.00000000000E+00 0.  1.
         11    1    3    3    0    0 -0.95996943120E+01 -0.26935636200E+02 -0.29441561246E+01  0.28746316006E+02  0.51100000000E-03 0. -1.
        -11    1    3    3    0    0 -0.79837485834E+01 -0.57220253203E+01  0.18074504857E+01  0.99874267321E+01  0.51100000000E-03 0.  1.
         12    1    3    3    0    0  0.66060262110E+01 -0.59254813995E+01  0.77700875574E+01  0.11795133436E+02  0.00000000000E+00 0. -1.
</event>
<event>
 7    1  0.5373252E-013  0.5052887E+02  0.7816164E-02  0.1300439E+00
        -11   -1    0    0    0    0  0.00000000000E+00  0.00000000000E+00  0.45593999997E+02  0.45594000000E+02  0.51100000000E-03 0. -1.
         11   -1    0    0    0    0 -0.00000000000E+00 -0.00000000000E+00 -0.45593999997E+02  0.45594000000E+02  0.51100000000E-03 0.  1.
    9900012    2    1    2    0    0 -0.30639227232E+02 -0.13259313423E+02  0.23207612219E+02  0.50528869380E+02  0.30000028969E+02 0.  0.
        -12    1    1    2    0    0  0.30639227232E+02  0.13259313423E+02 -0.23207612219E+02  0.40659130620E+02  0.00000000000E+00 0.  1.
         11    1    3    3    0    0 -0.14249366236E+02 -0.28214210619E+01 -0.33228855640E+01  0.14901222221E+02  0.51100000000E-03 0. -1.
        -11    1    3    3    0    0 -0.12891280816E+01 -0.59810683115E+01  0.19216707917E+01  0.64130997381E+01  0.51100000000E-03 0.  1.
        -12    1    3    3    0    0 -0.15100732914E+02 -0.44568240495E+01  0.24608826992E+02  0.29214547422E+02  0.00000000000E+00 0.  1.
</event>
<event>
 7    1  0.5373252E-013  0.5052886E+02  0.7816164E-02  0.1300439E+00
        -11   -1    0    0    0    0  0.00000000000E+00  0.00000000000E+00  0.45593999997E+02  0.45594000000E+02  0.51100000000E-03 0.  1.
         11   -1    0    0    0    0 -0.00000000000E+00 -0.00000000000E+00 -0.45593999997E+02  0.45594000000E+02  0.51100000000E-03 0. -1.
    9900012    2    1    2    0    0 -0.22089134265E+02  0.16965058378E+02 -0.29621323885E+02  0.50528857276E+02  0.29999992177E+02 0.  0.
        -12    1    1    2    0    0  0.22089134265E+02 -0.16965058378E+02  0.29621323885E+02  0.40659142724E+02  0.00000000000E+00 0.  1.
         11    1    3    3    0    0 -0.83692950050E+01 -0.18938668810E+01 -0.10329853606E+02  0.13428987543E+02  0.51100000000E-03 0. -1.
        -11    1    3    3    0    0 -0.17697662138E+02  0.11043347940E+02 -0.19167427609E+02  0.28329367453E+02  0.51100000000E-03 0.  1.
        -12    1    3    3    0    0  0.39778228780E+01  0.78155773186E+01 -0.12404267003E+00  0.87705022807E+01  0.00000000000E+00 0.  1.
</event>
<event>
 7    1  0.5373252E-013  0.5052886E+02  0.7816164E-02  0.1300439E+00
        -11   -1    0    0    0    0  0.00000000000E+00  0.00000000000E+00  0.45593999997E+02  0.45594000000E+02  0.51100000000E-03 0.  1.
         11   -1    0    0    0    0 -0.00000000000E+00 -0.00000000000E+00 -0.45593999997E+02  0.45594000000E+02  0.51100000000E-03 0. -1.
    9900012    2    1    2    0    0 -0.35352483960E+02  0.55032633732E+01 -0.19315323555E+02  0.50528858912E+02  0.29999997150E+02 0.  0.
        -12    1    1    2    0    0  0.35352483960E+02 -0.55032633732E+01  0.19315323555E+02  0.40659141088E+02  0.00000000000E+00 0.  1.
         11    1    3    3    0    0 -0.29079581924E+02  0.31132524234E+00 -0.44835005482E+00  0.29084704336E+02  0.51100000000E-03 0. -1.
        -11    1    3    3    0    0 -0.54987744614E+01  0.25413145491E+01 -0.69862741117E+01  0.92467738395E+01  0.51100000000E-03 0.  1.
        -12    1    3    3    0    0 -0.77412757533E+00  0.26506235817E+01 -0.11880699389E+02  0.12197380737E+02  0.00000000000E+00 0.  1.
</event>
<event>
 7    1  0.5373252E-013  0.5052887E+02  0.7816164E-02  0.1300439E+00
        -11   -1    0    0    0    0  0.00000000000E+00  0.00000000000E+00  0.45593999997E+02  0.45594000000E+02  0.51100000000E-03 0.  1.
         11   -1    0    0    0    0 -0.00000000000E+00 -0.00000000000E+00 -0.45593999997E+02  0.45594000000E+02  0.51100000000E-03 0. -1.
    9900012    2    1    2    0    0 -0.13545900285E+02  0.24614383565E+02 -0.29390574044E+02  0.50528866519E+02  0.30000020270E+02 0.  0.
        -12    1    1    2    0    0  0.13545900285E+02 -0.24614383565E+02  0.29390574044E+02  0.40659133481E+02  0.00000000000E+00 0.  1.
         11    1    3    3    0    0 -0.99947075837E+01  0.15706885395E+02 -0.22367380531E+02  0.29101548766E+02  0.51100000000E-03 0. -1.
        -11    1    3    3    0    0  0.43092670295E+01  0.22451184996E+01 -0.96406844769E+01  0.10795977809E+02  0.51100000000E-03 0.  1.
         12    1    3    3    0    0 -0.78604597310E+01  0.66623796703E+01  0.26174909636E+01  0.10631339944E+02  0.00000000000E+00 0. -1.
</event>
<event>
 7    1  0.5373252E-013  0.5052886E+02  0.7816164E-02  0.1300439E+00
        -11   -1    0    0    0    0  0.00000000000E+00  0.00000000000E+00  0.45593999997E+02  0.45594000000E+02  0.51100000000E-03 0. -1.
         11   -1    0    0    0    0 -0.00000000000E+00 -0.00000000000E+00 -0.45593999997E+02  0.45594000000E+02  0.51100000000E-03 0.  1.
    9900012    2    1    2    0    0  0.36170325687E+02  0.66198877117E+01 -0.17350812449E+02  0.50528855072E+02  0.29999985477E+02 0.  0.
        -12    1    1    2    0    0 -0.36170325687E+02 -0.66198877117E+01  0.17350812449E+02  0.40659144928E+02  0.00000000000E+00 0.  1.
         11    1    3    3    0    0 -0.33965981033E+01  0.23425130029E+01 -0.10115442979E+01  0.42482311580E+01  0.51100000000E-03 0. -1.
        -11    1    3    3    0    0  0.88966218867E+01  0.33618360503E+01  0.30455085104E+01  0.99863379159E+01  0.51100000000E-03 0.  1.
         12    1    3    3    0    0  0.30670301904E+02  0.91553865853E+00 -0.19384776662E+02  0.36294285998E+02  0.00000000000E+00 0. -1.
</event>
<event>
 7    1  0.5373252E-013  0.5052887E+02  0.7816164E-02  0.1300439E+00
        -11   -1    0    0    0    0  0.00000000000E+00  0.00000000000E+00  0.45593999997E+02  0.45594000000E+02  0.51100000000E-03 0.  1.
         11   -1    0    0    0    0 -0.00000000000E+00 -0.00000000000E+00 -0.45593999997E+02  0.45594000000E+02  0.51100000000E-03 0. -1.
    9900012    2    1    2    0    0 -0.38880297256E+02 -0.10886355811E+02 -0.47932174343E+01  0.50528865836E+02  0.30000018195E+02 0.  0.
        -12    1    1    2    0    0  0.38880297256E+02  0.10886355811E+02  0.47932174343E+01  0.40659134164E+02  0.00000000000E+00 0.  1.
         11    1    3    3    0    0 -0.22455194861E+02 -0.66913014794E+01  0.47445245028E+01  0.23906480392E+02  0.51100000000E-03 0. -1.
        -11    1    3    3    0    0 -0.97991366777E+01 -0.11365998655E+02 -0.46977265640E+01  0.15725064076E+02  0.51100000000E-03 0.  1.
         12    1    3    3    0    0 -0.66259657179E+01  0.71709443236E+01 -0.48400153731E+01  0.10897321368E+02  0.00000000000E+00 0. -1.
</event>
<event>
 7    1  0.5373252E-013  0.5052886E+02  0.7816164E-02  0.1300439E+00
        -11   -1    0    0    0    0  0.00000000000E+00  0.00000000000E+00  0.45593999997E+02  0.45594000000E+02  0.51100000000E-03 0. -1.
         11   -1    0    0    0    0 -0.00000000000E+00 -0.00000000000E+00 -0.45593999997E+02  0.45594000000E+02  0.51100000000E-03 0.  1.
    9900012    2    1    2    0    0 -0.88656876842E+01  0.37148956093E+02  0.13947059085E+02  0.50528858174E+02  0.29999994906E+02 0.  0.
        -12    1    1    2    0    0  0.88656876842E+01 -0.37148956093E+02 -0.13947059085E+02  0.40659141826E+02  0.00000000000E+00 0.  1.
         11    1    3    3    0    0  0.55664105521E+01  0.15679956210E+02  0.12313467620E+02  0.20699455024E+02  0.51100000000E-03 0. -1.
        -11    1    3    3    0    0  0.29355344509E+01  0.15776445504E+01  0.70651404252E+00  0.34066827257E+01  0.51100000000E-03 0.  1.
        -12    1    3    3    0    0 -0.17367632687E+02  0.19891355332E+02  0.92707742274E+00  0.26422720425E+02  0.00000000000E+00 0.  1.
</event>
<event>
 7    1  0.5442070E-013  0.5052889E+02  0.7816164E-02  0.1300439E+00
        -11   -1    0    0    0    0  0.00000000000E+00  0.00000000000E+00  0.45593999997E+02  0.45594000000E+02  0.51100000000E-03 0.  1.
         11   -1    0    0    0    0 -0.00000000000E+00 -0.00000000000E+00 -0.45593999997E+02  0.45594000000E+02  0.51100000000E-03 0. -1.
    9900012    2    1    2    0    0  0.27194875845E+02  0.20715322167E+02 -0.22010847200E+02  0.50528889838E+02  0.30000091151E+02 0.  0.
        -12    1    1    2    0    0 -0.27194875845E+02 -0.20715322167E+02  0.22010847200E+02  0.40659110162E+02  0.00000000000E+00 0.  1.
         11    1    3    3    0    0  0.15972285234E+02  0.99672439209E+01 -0.63496928534E+01  0.19869032351E+02  0.51100000000E-03 0. -1.
        -11    1    3    3    0    0  0.11140728257E+02 -0.37806419983E+01 -0.59453558330E+01  0.13181666672E+02  0.51100000000E-03 0.  1.
        -12    1    3    3    0    0  0.81862353931E-01  0.14528720244E+02 -0.97157985141E+01  0.17478190815E+02  0.00000000000E+00 0.  1.
</event>
<event>
 7    1  0.5373252E-013  0.5052886E+02  0.7816164E-02  0.1300439E+00
        -11   -1    0    0    0    0  0.00000000000E+00  0.00000000000E+00  0.45593999997E+02  0.45594000000E+02  0.51100000000E-03 0.  1.
         11   -1    0    0    0    0 -0.00000000000E+00 -0.00000000000E+00 -0.45593999997E+02  0.45594000000E+02  0.51100000000E-03 0. -1.
    9900012    2    1    2    0    0  0.22206511183E+02  0.86128820555E+01 -0.32952305867E+02  0.50528864026E+02  0.30000012693E+02 0.  0.
        -12    1    1    2    0    0 -0.22206511183E+02 -0.86128820555E+01  0.32952305867E+02  0.40659135974E+02  0.00000000000E+00 0.  1.
         11    1    3    3    0    0  0.28911285926E+01 -0.39910095085E+01 -0.55759292976E+01  0.74416240989E+01  0.51100000000E-03 0. -1.
        -11    1    3    3    0    0 -0.27722040516E+01  0.35253954220E+01  0.22638715048E+01  0.50238075836E+01  0.51100000000E-03 0.  1.
        -12    1    3    3    0    0  0.22087586642E+02  0.90784961419E+01 -0.29640248074E+02  0.38063432343E+02  0.00000000000E+00 0.  1.
</event>
<event>
 7    1  0.5373252E-013  0.5052886E+02  0.7816164E-02  0.1300439E+00
        -11   -1    0    0    0    0  0.00000000000E+00  0.00000000000E+00  0.45593999997E+02  0.45594000000E+02  0.51100000000E-03 0. -1.
         11   -1    0    0    0    0 -0.00000000000E+00 -0.00000000000E+00 -0.45593999997E+02  0.45594000000E+02  0.51100000000E-03 0.  1.
    9900012    2    1    2    0    0  0.25963952811E+02  0.27200580142E+01  0.31171144827E+02  0.50528857966E+02  0.29999994273E+02 0.  0.
        -12    1    1    2    0    0 -0.25963952811E+02 -0.27200580142E+01 -0.31171144827E+02  0.40659142034E+02  0.00000000000E+00 0.  1.
         11    1    3    3    0    0  0.10656956381E+01  0.67284281291E+01  0.59683577054E+00  0.68383964114E+01  0.51100000000E-03 0.  1.
        -11    1    3    3    0    0  0.82402202605E+01  0.36400606016E+01  0.21344947772E+02  0.23168039770E+02  0.51100000000E-03 0. -1.
        -12    1    3    3    0    0  0.16658036912E+02 -0.76484307165E+01  0.92293612843E+01  0.20522421785E+02  0.00000000000E+00 0.  1.
</event>
<event>
 7    1  0.5373252E-013  0.5052887E+02  0.7816164E-02  0.1300439E+00
        -11   -1    0    0    0    0  0.00000000000E+00  0.00000000000E+00  0.45593999997E+02  0.45594000000E+02  0.51100000000E-03 0.  1.
         11   -1    0    0    0    0 -0.00000000000E+00 -0.00000000000E+00 -0.45593999997E+02  0.45594000000E+02  0.51100000000E-03 0. -1.
    9900012    2    1    2    0    0 -0.13726439646E+02  0.18088525371E+02 -0.33727664250E+02  0.50528865341E+02  0.30000016690E+02 0.  0.
        -12    1    1    2    0    0  0.13726439646E+02 -0.18088525371E+02  0.33727664250E+02  0.40659134659E+02  0.00000000000E+00 0.  1.
         11    1    3    3    0    0 -0.68807335372E+01 -0.18596849646E+01  0.38265513895E+00  0.71378811558E+01  0.51100000000E-03 0. -1.
        -11    1    3    3    0    0 -0.85108214332E-01  0.12192465403E+00  0.18062160925E+01  0.18123260919E+01  0.51100000000E-03 0.  1.
         12    1    3    3    0    0 -0.67605978947E+01  0.19826285681E+02 -0.35916535482E+02  0.41578658093E+02  0.00000000000E+00 0. -1.
</event>
<event>
 7    1  0.5373252E-013  0.5052888E+02  0.7816164E-02  0.1300439E+00
        -11   -1    0    0    0    0  0.00000000000E+00  0.00000000000E+00  0.45593999997E+02  0.45594000000E+02  0.51100000000E-03 0.  1.
         11   -1    0    0    0    0 -0.00000000000E+00 -0.00000000000E+00 -0.45593999997E+02  0.45594000000E+02  0.51100000000E-03 0. -1.
    9900012    2    1    2    0    0 -0.27413952601E+02 -0.27167904962E+02 -0.12788451297E+02  0.50528876254E+02  0.30000049860E+02 0.  0.
        -12    1    1    2    0    0  0.27413952601E+02  0.27167904962E+02  0.12788451297E+02  0.40659123746E+02  0.00000000000E+00 0.  1.
         11    1    3    3    0    0  0.29257283327E+01  0.37167194677E+01 -0.20707517401E+01  0.51635165255E+01  0.51100000000E-03 0. -1.
        -11    1    3    3    0    0 -0.45336060038E+01 -0.39285435557E+01  0.13430743854E+01  0.61474292946E+01  0.51100000000E-03 0.  1.
         12    1    3    3    0    0 -0.25806074930E+02 -0.26956080874E+02 -0.12060773942E+02  0.39217930433E+02  0.00000000000E+00 0. -1.
</event>
<event>
 7    1  0.5373252E-013  0.5052887E+02  0.7816164E-02  0.1300439E+00
        -11   -1    0    0    0    0  0.00000000000E+00  0.00000000000E+00  0.45593999997E+02  0.45594000000E+02  0.51100000000E-03 0.  1.
         11   -1    0    0    0    0 -0.00000000000E+00 -0.00000000000E+00 -0.45593999997E+02  0.45594000000E+02  0.51100000000E-03 0. -1.
    9900012    2    1    2    0    0 -0.29692054014E+02  0.26761982156E+02  0.74392936358E+01  0.50528870026E+02  0.30000030930E+02 0.  0.
        -12    1    1    2    0    0  0.29692054014E+02 -0.26761982156E+02 -0.74392936358E+01  0.40659129974E+02  0.00000000000E+00 0.  1.
         11    1    3    3    0    0 -0.92566644425E+01 -0.15823110907E+01 -0.24268612886E+01  0.96994433327E+01  0.51100000000E-03 0. -1.
        -11    1    3    3    0    0  0.22728964305E+01  0.56208501847E+01 -0.22903539736E+01  0.64811832692E+01  0.51100000000E-03 0.  1.
         12    1    3    3    0    0 -0.22708286002E+02  0.22723443062E+02  0.12156508898E+02  0.34348243424E+02  0.00000000000E+00 0. -1.
</event>
<event>
 7    1  0.5373252E-013  0.5052887E+02  0.7816164E-02  0.1300439E+00
        -11   -1    0    0    0    0  0.00000000000E+00  0.00000000000E+00  0.45593999997E+02  0.45594000000E+02  0.51100000000E-03 0.  1.
         11   -1    0    0    0    0 -0.00000000000E+00 -0.00000000000E+00 -0.45593999997E+02  0.45594000000E+02  0.51100000000E-03 0. -1.
    9900012    2    1    2    0    0 -0.29676977493E+02  0.16141743528E+02  0.22624890341E+02  0.50528873839E+02  0.30000042520E+02 0.  0.
        -12    1    1    2    0    0  0.29676977493E+02 -0.16141743528E+02 -0.22624890341E+02  0.40659126161E+02  0.00000000000E+00 0.  1.
         11    1    3    3    0    0 -0.57340417516E+01 -0.28315099447E+01 -0.70602389995E+00  0.64339065415E+01  0.51100000000E-03 0. -1.
        -11    1    3    3    0    0 -0.70595895281E+01 -0.44174478918E+01  0.32165285891E+01  0.89273572017E+01  0.51100000000E-03 0.  1.
        -12    1    3    3    0    0 -0.16883346214E+02  0.23390701365E+02  0.20114385652E+02  0.35167610096E+02  0.00000000000E+00 0.  1.
</event>
<event>
 7    1  0.5373252E-013  0.5052886E+02  0.7816164E-02  0.1300439E+00
        -11   -1    0    0    0    0  0.00000000000E+00  0.00000000000E+00  0.45593999997E+02  0.45594000000E+02  0.51100000000E-03 0.  1.
         11   -1    0    0    0    0 -0.00000000000E+00 -0.00000000000E+00 -0.45593999997E+02  0.45594000000E+02  0.51100000000E-03 0. -1.
    9900012    2    1    2    0    0 -0.16667458527E+02  0.36500211439E+02 -0.65647717084E+01  0.50528857899E+02  0.29999994069E+02 0.  0.
        -12    1    1    2    0    0  0.16667458527E+02 -0.36500211439E+02  0.65647717084E+01  0.40659142101E+02  0.00000000000E+00 0.  1.
         11    1    3    3    0    0 -0.28473555892E+01  0.13898642864E+02 -0.75386607801E+01  0.16065836857E+02  0.51100000000E-03 0. -1.
        -11    1    3    3    0    0  0.26573926449E+01  0.33357550996E+01  0.71910865972E+01  0.83606653122E+01  0.51100000000E-03 0.  1.
         12    1    3    3    0    0 -0.16477495583E+02  0.19265813476E+02 -0.62171975255E+01  0.26102355729E+02  0.00000000000E+00 0. -1.
</event>
<event>
 7    1  0.5373252E-013  0.5052886E+02  0.7816164E-02  0.1300439E+00
        -11   -1    0    0    0    0  0.00000000000E+00  0.00000000000E+00  0.45593999997E+02  0.45594000000E+02  0.51100000000E-03 0. -1.
         11   -1    0    0    0    0 -0.00000000000E+00 -0.00000000000E+00 -0.45593999997E+02  0.45594000000E+02  0.51100000000E-03 0.  1.
    9900012    2    1    2    0    0  0.80393490100E+01  0.26824048920E+02  0.29478886366E+02  0.50528862352E+02  0.30000007604E+02 0.  0.
        -12    1    1    2    0    0 -0.80393490100E+01 -0.26824048920E+02 -0.29478886366E+02  0.40659137648E+02  0.00000000000E+00 0.  1.
         11    1    3    3    0    0  0.14826149794E+01 -0.21496620751E+01  0.65171946003E+01  0.70208987981E+01  0.51100000000E-03 0.  1.
        -11    1    3    3    0    0  0.13871334776E+02  0.16039690465E+02  0.87286463041E+01  0.22931961652E+02  0.51100000000E-03 0. -1.
         12    1    3    3    0    0 -0.73146007449E+01  0.12934020530E+02  0.14233045461E+02  0.20576001901E+02  0.00000000000E+00 0. -1.
</event>
<event>
 7    1  0.5373252E-013  0.5052884E+02  0.7816164E-02  0.1300439E+00
        -11   -1    0    0    0    0  0.00000000000E+00  0.00000000000E+00  0.45593999997E+02  0.45594000000E+02  0.51100000000E-03 0.  1.
         11   -1    0    0    0    0 -0.00000000000E+00 -0.00000000000E+00 -0.45593999997E+02  0.45594000000E+02  0.51100000000E-03 0. -1.
    9900012    2    1    2    0    0 -0.29661158557E+02  0.24964168579E+02 -0.12254510581E+02  0.50528842736E+02  0.29999947981E+02 0.  0.
        -12    1    1    2    0    0  0.29661158557E+02 -0.24964168579E+02  0.12254510581E+02  0.40659157264E+02  0.00000000000E+00 0.  1.
         11    1    3    3    0    0 -0.78494597364E+01 -0.48020451591E+01 -0.59022957550E+01  0.10932097297E+02  0.51100000000E-03 0.  1.
        -11    1    3    3    0    0 -0.46558129970E+01  0.56926764424E+01 -0.68231526523E+01  0.10031877796E+02  0.51100000000E-03 0. -1.
         12    1    3    3    0    0 -0.17155885824E+02  0.24073537296E+02  0.47093782649E+00  0.29564867644E+02  0.00000000000E+00 0. -1.
</event>
<event>
 7    1  0.5373252E-013  0.5052886E+02  0.7816164E-02  0.1300439E+00
        -11   -1    0    0    0    0  0.00000000000E+00  0.00000000000E+00  0.45593999997E+02  0.45594000000E+02  0.51100000000E-03 0.  1.
         11   -1    0    0    0    0 -0.00000000000E+00 -0.00000000000E+00 -0.45593999997E+02  0.45594000000E+02  0.51100000000E-03 0. -1.
    9900012    2    1    2    0    0  0.24993208302E+02  0.24716990443E+02 -0.20434662578E+02  0.50528861882E+02  0.30000006178E+02 0.  0.
        -12    1    1    2    0    0 -0.24993208302E+02 -0.24716990443E+02  0.20434662578E+02  0.40659138118E+02  0.00000000000E+00 0.  1.
         11    1    3    3    0    0  0.86136222503E+01  0.88549129066E+01 -0.16119872293E+02  0.20308969788E+02  0.51100000000E-03 0. -1.
        -11    1    3    3    0    0  0.31430578141E+01  0.92149283705E-01 -0.86289488989E+01  0.91840112846E+01  0.51100000000E-03 0.  1.
        -12    1    3    3    0    0  0.13236528238E+02  0.15769928253E+02  0.43141586142E+01  0.21035880809E+02  0.00000000000E+00 0.  1.
</event>
<event>
 7    1  0.5373252E-013  0.5052886E+02  0.7816164E-02  0.1300439E+00
        -11   -1    0    0    0    0  0.00000000000E+00  0.00000000000E+00  0.45593999997E+02  0.45594000000E+02  0.51100000000E-03 0.  1.
         11   -1    0    0    0    0 -0.00000000000E+00 -0.00000000000E+00 -0.45593999997E+02  0.45594000000E+02  0.51100000000E-03 0. -1.
    9900012    2    1    2    0    0 -0.25396707606E+02 -0.10575429229E+02 -0.29938823812E+02  0.50528860414E+02  0.30000001716E+02 0.  0.
        -12    1    1    2    0    0  0.25396707606E+02  0.10575429229E+02  0.29938823812E+02  0.40659139586E+02  0.00000000000E+00 0.  1.
         11    1    3    3    0    0 -0.22531431521E+01 -0.56497190114E+01 -0.67805801520E+01  0.91089102768E+01  0.51100000000E-03 0. -1.
        -11    1    3    3    0    0 -0.65422458299E+01 -0.13660653215E+02 -0.13646141581E+02  0.20387045079E+02  0.51100000000E-03 0.  1.
        -12    1    3    3    0    0 -0.16601318624E+02  0.87349429975E+01 -0.95121020786E+01  0.21032905058E+02  0.00000000000E+00 0.  1.
</event>
<event>
 7    1  0.5373252E-013  0.5052886E+02  0.7816164E-02  0.1300439E+00
        -11   -1    0    0    0    0  0.00000000000E+00  0.00000000000E+00  0.45593999997E+02  0.45594000000E+02  0.51100000000E-03 0.  1.
         11   -1    0    0    0    0 -0.00000000000E+00 -0.00000000000E+00 -0.45593999997E+02  0.45594000000E+02  0.51100000000E-03 0. -1.
    9900012    2    1    2    0    0  0.14000829633E+02 -0.81482961207E+01 -0.37292733128E+02  0.50528857065E+02  0.29999991533E+02 0.  0.
        -12    1    1    2    0    0 -0.14000829633E+02  0.81482961207E+01  0.37292733128E+02  0.40659142935E+02  0.00000000000E+00 0.  1.
         11    1    3    3    0    0  0.47016123358E+00  0.43633728494E+01 -0.12213434673E+02  0.12977983703E+02  0.51100000000E-03 0. -1.
        -11    1    3    3    0    0  0.15713572748E+02 -0.10965594874E+02 -0.27781455381E+02  0.33748628162E+02  0.51100000000E-03 0.  1.
        -12    1    3    3    0    0 -0.21829043490E+01 -0.15460740958E+01  0.27021569262E+01  0.38022451999E+01  0.00000000000E+00 0.  1.
</event>
<event>
 7    1  0.5373252E-013  0.5052886E+02  0.7816164E-02  0.1300439E+00
        -11   -1    0    0    0    0  0.00000000000E+00  0.00000000000E+00  0.45593999997E+02  0.45594000000E+02  0.51100000000E-03 0.  1.
         11   -1    0    0    0    0 -0.00000000000E+00 -0.00000000000E+00 -0.45593999997E+02  0.45594000000E+02  0.51100000000E-03 0. -1.
    9900012    2    1    2    0    0 -0.22047144032E+02 -0.18382037764E+02 -0.28795653282E+02  0.50528861787E+02  0.30000005886E+02 0.  0.
        -12    1    1    2    0    0  0.22047144032E+02  0.18382037764E+02  0.28795653282E+02  0.40659138213E+02  0.00000000000E+00 0.  1.
         11    1    3    3    0    0 -0.15241123417E+02 -0.90513378515E+01 -0.11006055221E+00  0.17726552781E+02  0.51100000000E-03 0.  1.
        -11    1    3    3    0    0 -0.37409818270E+01 -0.77350165125E+01 -0.77107930895E+01  0.11544771795E+02  0.51100000000E-03 0. -1.
        -12    1    3    3    0    0 -0.30650387880E+01 -0.15956834000E+01 -0.20974799640E+02  0.21257537210E+02  0.00000000000E+00 0.  1.
</event>
<event>
 7    1  0.5373252E-013  0.5052886E+02  0.7816164E-02  0.1300439E+00
        -11   -1    0    0    0    0  0.00000000000E+00  0.00000000000E+00  0.45593999997E+02  0.45594000000E+02  0.51100000000E-03 0.  1.
         11   -1    0    0    0    0 -0.00000000000E+00 -0.00000000000E+00 -0.45593999997E+02  0.45594000000E+02  0.51100000000E-03 0. -1.
    9900012    2    1    2    0    0  0.12570698267E+02 -0.33880633799E+02 -0.18634534698E+02  0.50528859762E+02  0.29999999731E+02 0.  0.
        -12    1    1    2    0    0 -0.12570698267E+02  0.33880633799E+02  0.18634534698E+02  0.40659140238E+02  0.00000000000E+00 0.  1.
         11    1    3    3    0    0 -0.91199750625E+00 -0.14971135050E+02 -0.89701807267E+01  0.17476577659E+02  0.51100000000E-03 0. -1.
        -11    1    3    3    0    0  0.13238407421E+02 -0.23415541039E+02 -0.69347169504E+01  0.27778288152E+02  0.51100000000E-03 0.  1.
         12    1    3    3    0    0  0.24428835142E+00  0.45060422907E+01 -0.27296370210E+01  0.52739939506E+01  0.00000000000E+00 0. -1.
</event>
<event>
 7    1  0.5373252E-013  0.5052886E+02  0.7816164E-02  0.1300439E+00
        -11   -1    0    0    0    0  0.00000000000E+00  0.00000000000E+00  0.45593999997E+02  0.45594000000E+02  0.51100000000E-03 0.  1.
         11   -1    0    0    0    0 -0.00000000000E+00 -0.00000000000E+00 -0.45593999997E+02  0.45594000000E+02  0.51100000000E-03 0. -1.
    9900012    2    1    2    0    0 -0.19952204876E+01 -0.43566561514E+01 -0.40375792691E+02  0.50528855973E+02  0.29999988216E+02 0.  0.
        -12    1    1    2    0    0  0.19952204876E+01  0.43566561514E+01  0.40375792691E+02  0.40659144027E+02  0.00000000000E+00 0.  1.
         11    1    3    3    0    0  0.56893376769E+01 -0.81948710654E+01 -0.33955463890E+02  0.35390648528E+02  0.51100000000E-03 0. -1.
        -11    1    3    3    0    0 -0.14688917983E+01 -0.36242769897E+01 -0.10904821006E+01  0.40598249083E+01  0.51100000000E-03 0.  1.
        -12    1    3    3    0    0 -0.62156663662E+01  0.74624919037E+01 -0.53298467002E+01  0.11078382537E+02  0.00000000000E+00 0.  1.
</event>
<event>
 7    1  0.5583910E-013  0.5052886E+02  0.7816164E-02  0.1300439E+00
        -11   -1    0    0    0    0  0.00000000000E+00  0.00000000000E+00  0.45593999997E+02  0.45594000000E+02  0.51100000000E-03 0.  1.
         11   -1    0    0    0    0 -0.00000000000E+00 -0.00000000000E+00 -0.45593999997E+02  0.45594000000E+02  0.51100000000E-03 0. -1.
    9900012    2    1    2    0    0  0.15182382690E+02  0.18189840465E+02 -0.33042256285E+02  0.50528859076E+02  0.29999997647E+02 0.  0.
        -12    1    1    2    0    0 -0.15182382690E+02 -0.18189840465E+02  0.33042256285E+02  0.40659140924E+02  0.00000000000E+00 0.  1.
         11    1    3    3    0    0  0.80855343370E+01  0.17911510240E+02 -0.21061958177E+02  0.28806321305E+02  0.51100000000E-03 0.  1.
        -11    1    3    3    0    0 -0.29103318961E+01  0.10486457333E+01 -0.11240629330E+02  0.11658534968E+02  0.51100000000E-03 0. -1.
        -12    1    3    3    0    0  0.10007180249E+02 -0.77031550811E+00 -0.73966877800E+00  0.10064002803E+02  0.00000000000E+00 0.  1.
</event>
<event>
 7    1  0.5373252E-013  0.5052886E+02  0.7816164E-02  0.1300439E+00
        -11   -1    0    0    0    0  0.00000000000E+00  0.00000000000E+00  0.45593999997E+02  0.45594000000E+02  0.51100000000E-03 0. -1.
         11   -1    0    0    0    0 -0.00000000000E+00 -0.00000000000E+00 -0.45593999997E+02  0.45594000000E+02  0.51100000000E-03 0.  1.
    9900012    2    1    2    0    0 -0.30751612091E+02  0.21047537439E+02  0.16263607750E+02  0.50528863075E+02  0.30000009803E+02 0.  0.
        -12    1    1    2    0    0  0.30751612091E+02 -0.21047537439E+02 -0.16263607750E+02  0.40659136925E+02  0.00000000000E+00 0.  1.
         11    1    3    3    0    0 -0.12984793235E+02  0.78548126301E+01  0.18444187670E+02  0.23884953336E+02  0.51100000000E-03 0. -1.
        -11    1    3    3    0    0  0.21179045220E+01  0.42190316187E+01 -0.14161666277E-01  0.47207995274E+01  0.51100000000E-03 0.  1.
        -12    1    3    3    0    0 -0.19884723378E+02  0.89736931903E+01 -0.21664182536E+01  0.21923110212E+02  0.00000000000E+00 0.  1.
</event>
<event>
 7    1  0.5373252E-013  0.5052884E+02  0.7816164E-02  0.1300439E+00
        -11   -1    0    0    0    0  0.00000000000E+00  0.00000000000E+00  0.45593999997E+02  0.45594000000E+02  0.51100000000E-03 0.  1.
         11   -1    0    0    0    0 -0.00000000000E+00 -0.00000000000E+00 -0.45593999997E+02  0.45594000000E+02  0.51100000000E-03 0. -1.
    9900012    2    1    2    0    0 -0.29245989571E+02 -0.21304401133E+02 -0.18546204756E+02  0.50528842059E+02  0.29999945922E+02 0.  0.
        -12    1    1    2    0    0  0.29245989571E+02  0.21304401133E+02  0.18546204756E+02  0.40659157941E+02  0.00000000000E+00 0.  1.
         11    1    3    3    0    0 -0.18013794742E+02 -0.75576006714E+01 -0.89537410726E+01  0.21489150946E+02  0.51100000000E-03 0. -1.
        -11    1    3    3    0    0 -0.12467218240E+02  0.89363527509E-01 -0.85333591306E+01  0.15108200912E+02  0.51100000000E-03 0.  1.
         12    1    3    3    0    0  0.12350234115E+01 -0.13836163989E+02 -0.10591045528E+01  0.13931490201E+02  0.00000000000E+00 0. -1.
</event>
<event>
 7    1  0.5373252E-013  0.5052882E+02  0.7816164E-02  0.1300439E+00
        -11   -1    0    0    0    0  0.00000000000E+00  0.00000000000E+00  0.45593999997E+02  0.45594000000E+02  0.51100000000E-03 0. -1.
         11   -1    0    0    0    0 -0.00000000000E+00 -0.00000000000E+00 -0.45593999997E+02  0.45594000000E+02  0.51100000000E-03 0.  1.
    9900012    2    1    2    0    0  0.82285385271E+01  0.21430440708E+02  0.33558849372E+02  0.50528818917E+02  0.29999875579E+02 0.  0.
        -12    1    1    2    0    0 -0.82285385271E+01 -0.21430440708E+02 -0.33558849372E+02  0.40659181083E+02  0.00000000000E+00 0.  1.
         11    1    3    3    0    0 -0.32645833872E+01  0.14069961437E+02  0.23593766491E+02  0.27663823615E+02  0.51100000000E-03 0. -1.
        -11    1    3    3    0    0  0.76174136808E+01  0.10927797405E+02  0.11258262194E+02  0.17441049716E+02  0.51100000000E-03 0.  1.
         12    1    3    3    0    0  0.38757082335E+01 -0.35673181339E+01 -0.12931793129E+01  0.54239455856E+01  0.00000000000E+00 0. -1.
</event>
<event>
 7    1  0.5373252E-013  0.5052886E+02  0.7816164E-02  0.1300439E+00
        -11   -1    0    0    0    0  0.00000000000E+00  0.00000000000E+00  0.45593999997E+02  0.45594000000E+02  0.51100000000E-03 0.  1.
         11   -1    0    0    0    0 -0.00000000000E+00 -0.00000000000E+00 -0.45593999997E+02  0.45594000000E+02  0.51100000000E-03 0. -1.
    9900012    2    1    2    0    0 -0.81728148965E+01 -0.28835912215E+02 -0.27474730875E+02  0.50528861135E+02  0.30000003906E+02 0.  0.
        -12    1    1    2    0    0  0.81728148965E+01  0.28835912215E+02  0.27474730875E+02  0.40659138865E+02  0.00000000000E+00 0.  1.
         11    1    3    3    0    0 -0.36980288770E+01 -0.17211202151E+02 -0.96203737780E+01  0.20061218531E+02  0.51100000000E-03 0. -1.
        -11    1    3    3    0    0 -0.10734219825E+02 -0.16366323880E+01 -0.14681752018E+02  0.18260774447E+02  0.51100000000E-03 0.  1.
         12    1    3    3    0    0  0.62594338055E+01 -0.99880776762E+01 -0.31726050789E+01  0.12206868158E+02  0.00000000000E+00 0. -1.
</event>
<event>
 7    1  0.5373252E-013  0.5052885E+02  0.7816164E-02  0.1300439E+00
        -11   -1    0    0    0    0  0.00000000000E+00  0.00000000000E+00  0.45593999997E+02  0.45594000000E+02  0.51100000000E-03 0.  1.
         11   -1    0    0    0    0 -0.00000000000E+00 -0.00000000000E+00 -0.45593999997E+02  0.45594000000E+02  0.51100000000E-03 0. -1.
    9900012    2    1    2    0    0  0.92596793852E+01  0.39065289558E+02 -0.64286955213E+01  0.50528848058E+02  0.29999964157E+02 0.  0.
        -12    1    1    2    0    0 -0.92596793852E+01 -0.39065289558E+02  0.64286955213E+01  0.40659151942E+02  0.00000000000E+00 0.  1.
         11    1    3    3    0    0 -0.50857110164E-01  0.29481205842E+02  0.23707190032E+01  0.29576416166E+02  0.51100000000E-03 0. -1.
        -11    1    3    3    0    0 -0.27219562574E+00  0.11234242010E+01  0.32106446842E+01  0.34123909423E+01  0.51100000000E-03 0.  1.
        -12    1    3    3    0    0  0.95827321211E+01  0.84606595145E+01 -0.12010059209E+02  0.17540040950E+02  0.00000000000E+00 0.  1.
</event>
<event>
 7    1  0.5373252E-013  0.5052891E+02  0.7816164E-02  0.1300439E+00
        -11   -1    0    0    0    0  0.00000000000E+00  0.00000000000E+00  0.45593999997E+02  0.45594000000E+02  0.51100000000E-03 0.  1.
         11   -1    0    0    0    0 -0.00000000000E+00 -0.00000000000E+00 -0.45593999997E+02  0.45594000000E+02  0.51100000000E-03 0. -1.
    9900012    2    1    2    0    0 -0.16078872121E+02  0.18951514590E+02 -0.32178749134E+02  0.50528905940E+02  0.30000140095E+02 0.  0.
        -12    1    1    2    0    0  0.16078872121E+02 -0.18951514590E+02  0.32178749134E+02  0.40659094060E+02  0.00000000000E+00 0.  1.
         11    1    3    3    0    0 -0.12918051546E+02  0.10894866874E+02 -0.32677655337E+02  0.36788630560E+02  0.51100000000E-03 0. -1.
        -11    1    3    3    0    0 -0.67166313934E+01  0.69009667295E+01 -0.10625483413E+01  0.96884203209E+01  0.51100000000E-03 0.  1.
        -12    1    3    3    0    0  0.35558108192E+01  0.11556809865E+01  0.15614545437E+01  0.40518550587E+01  0.00000000000E+00 0.  1.
</event>
<event>
 7    1  0.5373252E-013  0.5052884E+02  0.7816164E-02  0.1300439E+00
        -11   -1    0    0    0    0  0.00000000000E+00  0.00000000000E+00  0.45593999997E+02  0.45594000000E+02  0.51100000000E-03 0. -1.
         11   -1    0    0    0    0 -0.00000000000E+00 -0.00000000000E+00 -0.45593999997E+02  0.45594000000E+02  0.51100000000E-03 0.  1.
    9900012    2    1    2    0    0 -0.20869712165E+02  0.55177562809E+01  0.34455427434E+02  0.50528843592E+02  0.29999950581E+02 0.  0.
        -12    1    1    2    0    0  0.20869712165E+02 -0.55177562809E+01 -0.34455427434E+02  0.40659156408E+02  0.00000000000E+00 0.  1.
         11    1    3    3    0    0 -0.56188475310E+01 -0.48614096541E+01  0.40383844239E+01  0.84565536963E+01  0.51100000000E-03 0. -1.
        -11    1    3    3    0    0  0.11183577602E+01  0.64084183580E+01 -0.84632070940E+00  0.65600921438E+01  0.51100000000E-03 0.  1.
         12    1    3    3    0    0 -0.16369222394E+02  0.39707475770E+01  0.31263363719E+02  0.35512197751E+02  0.00000000000E+00 0. -1.
</event>
<event>
 7    1  0.5373252E-013  0.5052886E+02  0.7816164E-02  0.1300439E+00
        -11   -1    0    0    0    0  0.00000000000E+00  0.00000000000E+00  0.45593999997E+02  0.45594000000E+02  0.51100000000E-03 0.  1.
         11   -1    0    0    0    0 -0.00000000000E+00 -0.00000000000E+00 -0.45593999997E+02  0.45594000000E+02  0.51100000000E-03 0. -1.
    9900012    2    1    2    0    0  0.31459534569E+02  0.25478755872E+02 -0.37810106081E+01  0.50528863791E+02  0.30000011978E+02 0.  0.
        -12    1    1    2    0    0 -0.31459534569E+02 -0.25478755872E+02  0.37810106081E+01  0.40659136209E+02  0.00000000000E+00 0.  1.
         11    1    3    3    0    0  0.15287907271E+02  0.91173292336E+00 -0.45120156854E+01  0.15965890249E+02  0.51100000000E-03 0. -1.
        -11    1    3    3    0    0 -0.37138531954E+01  0.55370185286E+01 -0.18474621297E+01  0.69184099565E+01  0.51100000000E-03 0.  1.
         12    1    3    3    0    0  0.19885480494E+02  0.19030004420E+02  0.25784672071E+01  0.27644563585E+02  0.00000000000E+00 0. -1.
</event>
<event>
 7    1  0.5373252E-013  0.5052886E+02  0.7816164E-02  0.1300439E+00
        -11   -1    0    0    0    0  0.00000000000E+00  0.00000000000E+00  0.45593999997E+02  0.45594000000E+02  0.51100000000E-03 0.  1.
         11   -1    0    0    0    0 -0.00000000000E+00 -0.00000000000E+00 -0.45593999997E+02  0.45594000000E+02  0.51100000000E-03 0. -1.
    9900012    2    1    2    0    0  0.11338573524E+01 -0.37242184756E+02 -0.16275748381E+02  0.50528856585E+02  0.29999990076E+02 0.  0.
        -12    1    1    2    0    0 -0.11338573524E+01  0.37242184756E+02  0.16275748381E+02  0.40659143415E+02  0.00000000000E+00 0.  1.
         11    1    3    3    0    0 -0.11220585867E+01  0.15396771073E+01 -0.56899982653E+01  0.60004751134E+01  0.51100000000E-03 0. -1.
        -11    1    3    3    0    0 -0.54812746150E+01 -0.17858810579E+02  0.22099391082E+01  0.18811308244E+02  0.51100000000E-03 0.  1.
        -12    1    3    3    0    0  0.77371905542E+01 -0.20923051284E+02 -0.12795689224E+02  0.25717073228E+02  0.00000000000E+00 0.  1.
</event>
<event>
 7    1  0.5373252E-013  0.5052886E+02  0.7816164E-02  0.1300439E+00
        -11   -1    0    0    0    0  0.00000000000E+00  0.00000000000E+00  0.45593999997E+02  0.45594000000E+02  0.51100000000E-03 0.  1.
         11   -1    0    0    0    0 -0.00000000000E+00 -0.00000000000E+00 -0.45593999997E+02  0.45594000000E+02  0.51100000000E-03 0. -1.
    9900012    2    1    2    0    0 -0.10752160152E+02  0.36115295654E+02 -0.15272275382E+02  0.50528856828E+02  0.29999990815E+02 0.  0.
        -12    1    1    2    0    0  0.10752160152E+02 -0.36115295654E+02  0.15272275382E+02  0.40659143172E+02  0.00000000000E+00 0.  1.
         11    1    3    3    0    0  0.46303747407E+00  0.22539822254E+02 -0.13759043158E+02  0.26411536491E+02  0.51100000000E-03 0. -1.
        -11    1    3    3    0    0 -0.79118866127E+01  0.17016292798E+02  0.86874872848E+00  0.18785816324E+02  0.51100000000E-03 0.  1.
         12    1    3    3    0    0 -0.33033110137E+01 -0.34408193976E+01 -0.23819809521E+01  0.53315040126E+01  0.00000000000E+00 0. -1.
</event>
<event>
 7    1  0.6187062E-013  0.5052887E+02  0.7816164E-02  0.1300439E+00
        -11   -1    0    0    0    0  0.00000000000E+00  0.00000000000E+00  0.45593999997E+02  0.45594000000E+02  0.51100000000E-03 0.  1.
         11   -1    0    0    0    0 -0.00000000000E+00 -0.00000000000E+00 -0.45593999997E+02  0.45594000000E+02  0.51100000000E-03 0. -1.
    9900012    2    1    2    0    0 -0.71773258929E+01  0.33871296705E+02 -0.21316328200E+02  0.50528873160E+02  0.30000040458E+02 0.  0.
        -12    1    1    2    0    0  0.71773258929E+01 -0.33871296705E+02  0.21316328200E+02  0.40659126840E+02  0.00000000000E+00 0.  1.
         11    1    3    3    0    0 -0.22584455705E+01  0.24026578701E+02 -0.10607521937E+02  0.26360891153E+02  0.51100000000E-03 0. -1.
        -11    1    3    3    0    0 -0.95704953271E+01  0.73160084306E+01 -0.13573435271E+02  0.18148181878E+02  0.51100000000E-03 0.  1.
        -12    1    3    3    0    0  0.46516150047E+01  0.25287095733E+01  0.28646290069E+01  0.60198001300E+01  0.00000000000E+00 0.  1.
</event>
<event>
 7    1  0.5373252E-013  0.5052887E+02  0.7816164E-02  0.1300439E+00
        -11   -1    0    0    0    0  0.00000000000E+00  0.00000000000E+00  0.45593999997E+02  0.45594000000E+02  0.51100000000E-03 0. -1.
         11   -1    0    0    0    0 -0.00000000000E+00 -0.00000000000E+00 -0.45593999997E+02  0.45594000000E+02  0.51100000000E-03 0.  1.
    9900012    2    1    2    0    0 -0.33770928880E+02 -0.17409862836E+02  0.14477071168E+02  0.50528873706E+02  0.30000042118E+02 0.  0.
        -12    1    1    2    0    0  0.33770928880E+02  0.17409862836E+02 -0.14477071168E+02  0.40659126294E+02  0.00000000000E+00 0.  1.
         11    1    3    3    0    0 -0.39576120958E+00  0.52122295449E+01  0.36885108458E+01  0.63975836286E+01  0.51100000000E-03 0. -1.
        -11    1    3    3    0    0 -0.24710380474E+01 -0.68510933001E+01  0.52925074785E+01  0.90030075036E+01  0.51100000000E-03 0.  1.
         12    1    3    3    0    0 -0.30904129623E+02 -0.15770999081E+02  0.54960528434E+01  0.35128282574E+02  0.00000000000E+00 0. -1.
</event>
<event>
 7    1  0.5812748E-013  0.5052885E+02  0.7816164E-02  0.1300439E+00
        -11   -1    0    0    0    0  0.00000000000E+00  0.00000000000E+00  0.45593999997E+02  0.45594000000E+02  0.51100000000E-03 0. -1.
         11   -1    0    0    0    0 -0.00000000000E+00 -0.00000000000E+00 -0.45593999997E+02  0.45594000000E+02  0.51100000000E-03 0.  1.
    9900012    2    1    2    0    0  0.14812707800E+02 -0.29299052398E+02  0.23985737089E+02  0.50528851368E+02  0.29999974217E+02 0.  0.
        -12    1    1    2    0    0 -0.14812707800E+02  0.29299052398E+02 -0.23985737089E+02  0.40659148632E+02  0.00000000000E+00 0.  1.
         11    1    3    3    0    0  0.13438076124E+02 -0.70320128180E+01  0.19035363887E+02  0.24338779196E+02  0.51100000000E-03 0. -1.
        -11    1    3    3    0    0  0.68608325366E+01 -0.13455454424E+02  0.46596580820E+01  0.15806096626E+02  0.51100000000E-03 0.  1.
        -12    1    3    3    0    0 -0.54862008607E+01 -0.88115851567E+01  0.29071511991E+00  0.10383975546E+02  0.00000000000E+00 0.  1.
</event>
<event>
 7    1  0.5373252E-013  0.5052886E+02  0.7816164E-02  0.1300439E+00
        -11   -1    0    0    0    0  0.00000000000E+00  0.00000000000E+00  0.45593999997E+02  0.45594000000E+02  0.51100000000E-03 0. -1.
         11   -1    0    0    0    0 -0.00000000000E+00 -0.00000000000E+00 -0.45593999997E+02  0.45594000000E+02  0.51100000000E-03 0.  1.
    9900012    2    1    2    0    0  0.79275095178E+01  0.39495944349E+02  0.55127845968E+01  0.50528858086E+02  0.29999994639E+02 0.  0.
        -12    1    1    2    0    0 -0.79275095178E+01 -0.39495944349E+02 -0.55127845968E+01  0.40659141914E+02  0.00000000000E+00 0.  1.
         11    1    3    3    0    0 -0.86140513042E+01  0.20127672789E+02  0.20189437943E+01  0.21986387290E+02  0.51100000000E-03 0. -1.
        -11    1    3    3    0    0  0.41892248912E+01  0.65681711708E+01  0.69284619551E+01  0.10425644490E+02  0.51100000000E-03 0.  1.
        -12    1    3    3    0    0  0.12352335931E+02  0.12800100389E+02 -0.34346211526E+01  0.18116826305E+02  0.00000000000E+00 0.  1.
</event>
<event>
 7    1  0.5373252E-013  0.5052886E+02  0.7816164E-02  0.1300439E+00
        -11   -1    0    0    0    0  0.00000000000E+00  0.00000000000E+00  0.45593999997E+02  0.45594000000E+02  0.51100000000E-03 0. -1.
         11   -1    0    0    0    0 -0.00000000000E+00 -0.00000000000E+00 -0.45593999997E+02  0.45594000000E+02  0.51100000000E-03 0.  1.
    9900012    2    1    2    0    0  0.20111426317E+02 -0.17672382786E+02  0.30600376701E+02  0.50528860362E+02  0.30000001556E+02 0.  0.
        -12    1    1    2    0    0 -0.20111426317E+02  0.17672382786E+02 -0.30600376701E+02  0.40659139638E+02  0.00000000000E+00 0.  1.
         11    1    3    3    0    0 -0.49269662747E+01 -0.38115808274E+01  0.67865121042E+01  0.92119428937E+01  0.51100000000E-03 0. -1.
        -11    1    3    3    0    0 -0.26514152954E+01 -0.23941907232E+01  0.11868238191E+01  0.37643994642E+01  0.51100000000E-03 0.  1.
         12    1    3    3    0    0  0.27689807887E+02 -0.11466611236E+02  0.22627040778E+02  0.37552518004E+02  0.00000000000E+00 0. -1.
</event>
<event>
 7    1  0.5373252E-013  0.5052887E+02  0.7816164E-02  0.1300439E+00
        -11   -1    0    0    0    0  0.00000000000E+00  0.00000000000E+00  0.45593999997E+02  0.45594000000E+02  0.51100000000E-03 0.  1.
         11   -1    0    0    0    0 -0.00000000000E+00 -0.00000000000E+00 -0.45593999997E+02  0.45594000000E+02  0.51100000000E-03 0. -1.
    9900012    2    1    2    0    0  0.29408268114E+02  0.93919191290E+01 -0.26459599297E+02  0.50528870972E+02  0.30000033805E+02 0.  0.
        -12    1    1    2    0    0 -0.29408268114E+02 -0.93919191290E+01  0.26459599297E+02  0.40659129028E+02  0.00000000000E+00 0.  1.
         11    1    3    3    0    0  0.47088948256E+01 -0.23388268904E+00 -0.11858042899E+02  0.12760939356E+02  0.51100000000E-03 0. -1.
        -11    1    3    3    0    0  0.17641799836E+01  0.10374912823E+02 -0.96798935379E+01  0.14298653303E+02  0.51100000000E-03 0.  1.
        -12    1    3    3    0    0  0.22935193305E+02 -0.74911100492E+00 -0.49216628600E+01  0.23469278313E+02  0.00000000000E+00 0.  1.
</event>
<event>
 7    1  0.5373252E-013  0.5052887E+02  0.7816164E-02  0.1300439E+00
        -11   -1    0    0    0    0  0.00000000000E+00  0.00000000000E+00  0.45593999997E+02  0.45594000000E+02  0.51100000000E-03 0.  1.
         11   -1    0    0    0    0 -0.00000000000E+00 -0.00000000000E+00 -0.45593999997E+02  0.45594000000E+02  0.51100000000E-03 0. -1.
    9900012    2    1    2    0    0  0.15719689595E+02 -0.14257894979E+02 -0.34680955983E+02  0.50528869192E+02  0.30000028395E+02 0.  0.
        -12    1    1    2    0    0 -0.15719689595E+02  0.14257894979E+02  0.34680955983E+02  0.40659130808E+02  0.00000000000E+00 0.  1.
         11    1    3    3    0    0  0.67696140513E+01 -0.10017743513E+02 -0.14466124244E+01  0.12176844717E+02  0.51100000000E-03 0. -1.
        -11    1    3    3    0    0 -0.11681083024E+01  0.45400110907E+01 -0.38801876623E+01  0.60853951610E+01  0.51100000000E-03 0.  1.
         12    1    3    3    0    0  0.10118183846E+02 -0.87801625569E+01 -0.29354155896E+02  0.32266629313E+02  0.00000000000E+00 0. -1.
</event>
<event>
 7    1  0.5373252E-013  0.5052886E+02  0.7816164E-02  0.1300439E+00
        -11   -1    0    0    0    0  0.00000000000E+00  0.00000000000E+00  0.45593999997E+02  0.45594000000E+02  0.51100000000E-03 0.  1.
         11   -1    0    0    0    0 -0.00000000000E+00 -0.00000000000E+00 -0.45593999997E+02  0.45594000000E+02  0.51100000000E-03 0. -1.
    9900012    2    1    2    0    0 -0.36817671067E+02  0.48566866981E+01  0.16554064416E+02  0.50528863792E+02  0.30000011982E+02 0.  0.
        -12    1    1    2    0    0  0.36817671067E+02 -0.48566866981E+01 -0.16554064416E+02  0.40659136208E+02  0.00000000000E+00 0.  1.
         11    1    3    3    0    0 -0.83351947152E+01  0.32811807799E+01  0.35900680149E+01  0.96503993111E+01  0.51100000000E-03 0. -1.
        -11    1    3    3    0    0 -0.25628838832E+02  0.90271583900E+00  0.20474808718E+02  0.32815698501E+02  0.51100000000E-03 0.  1.
         12    1    3    3    0    0 -0.28536375195E+01  0.67279007922E+00 -0.75108123170E+01  0.80627659798E+01  0.00000000000E+00 0. -1.
</event>
<event>
 7    1  0.5373252E-013  0.5052887E+02  0.7816164E-02  0.1300439E+00
        -11   -1    0    0    0    0  0.00000000000E+00  0.00000000000E+00  0.45593999997E+02  0.45594000000E+02  0.51100000000E-03 0.  1.
         11   -1    0    0    0    0 -0.00000000000E+00 -0.00000000000E+00 -0.45593999997E+02  0.45594000000E+02  0.51100000000E-03 0. -1.
    9900012    2    1    2    0    0 -0.13546054797E+02  0.11145868673E+02 -0.36680228861E+02  0.50528865991E+02  0.30000018667E+02 0.  0.
        -12    1    1    2    0    0  0.13546054797E+02 -0.11145868673E+02  0.36680228861E+02  0.40659134009E+02  0.00000000000E+00 0.  1.
         11    1    3    3    0    0 -0.63194955149E+01 -0.33791286404E+00 -0.24017285973E+02  0.24837073790E+02  0.51100000000E-03 0. -1.
        -11    1    3    3    0    0 -0.90645580620E+01  0.13031891879E+01  0.23105767993E+00  0.91606715273E+01  0.51100000000E-03 0.  1.
        -12    1    3    3    0    0  0.18379987800E+01  0.10180592349E+02 -0.12894000568E+02  0.16531120674E+02  0.00000000000E+00 0.  1.
</event>
<event>
 7    1  0.5373252E-013  0.5052886E+02  0.7816164E-02  0.1300439E+00
        -11   -1    0    0    0    0  0.00000000000E+00  0.00000000000E+00  0.45593999997E+02  0.45594000000E+02  0.51100000000E-03 0.  1.
         11   -1    0    0    0    0 -0.00000000000E+00 -0.00000000000E+00 -0.45593999997E+02  0.45594000000E+02  0.51100000000E-03 0. -1.
    9900012    2    1    2    0    0 -0.12729441293E+02  0.37651717643E+02 -0.85717803344E+01  0.50528856684E+02  0.29999990378E+02 0.  0.
        -12    1    1    2    0    0  0.12729441293E+02 -0.37651717643E+02  0.85717803344E+01  0.40659143316E+02  0.00000000000E+00 0.  1.
         11    1    3    3    0    0 -0.52562210635E+01  0.77324759458E+01 -0.47944306805E+01  0.10507407384E+02  0.51100000000E-03 0. -1.
        -11    1    3    3    0    0  0.71852592710E+01  0.20510101608E+02 -0.57812076255E+01  0.22488098644E+02  0.51100000000E-03 0.  1.
         12    1    3    3    0    0 -0.14658479500E+02  0.94091400887E+01  0.20038579715E+01  0.17533350656E+02  0.00000000000E+00 0. -1.
</event>
<event>
 7    1  0.5373252E-013  0.5052886E+02  0.7816164E-02  0.1300439E+00
        -11   -1    0    0    0    0  0.00000000000E+00  0.00000000000E+00  0.45593999997E+02  0.45594000000E+02  0.51100000000E-03 0.  1.
         11   -1    0    0    0    0 -0.00000000000E+00 -0.00000000000E+00 -0.45593999997E+02  0.45594000000E+02  0.51100000000E-03 0. -1.
    9900012    2    1    2    0    0  0.11228564619E+02 -0.36805094831E+02 -0.13132792337E+02  0.50528857074E+02  0.29999991562E+02 0.  0.
        -12    1    1    2    0    0 -0.11228564619E+02  0.36805094831E+02  0.13132792337E+02  0.40659142926E+02  0.00000000000E+00 0.  1.
         11    1    3    3    0    0  0.12336672789E+02 -0.31042343398E+01 -0.81933439541E+01  0.15131445792E+02  0.51100000000E-03 0. -1.
        -11    1    3    3    0    0 -0.38584263488E+01 -0.11570378597E+02 -0.47691681363E+01  0.13096032977E+02  0.51100000000E-03 0.  1.
        -12    1    3    3    0    0  0.27503181785E+01 -0.22130481894E+02 -0.17028024718E+00  0.22301378305E+02  0.00000000000E+00 0.  1.
</event>
<event>
 7    1  0.5373252E-013  0.5052885E+02  0.7816164E-02  0.1300439E+00
        -11   -1    0    0    0    0  0.00000000000E+00  0.00000000000E+00  0.45593999997E+02  0.45594000000E+02  0.51100000000E-03 0.  1.
         11   -1    0    0    0    0 -0.00000000000E+00 -0.00000000000E+00 -0.45593999997E+02  0.45594000000E+02  0.51100000000E-03 0. -1.
    9900012    2    1    2    0    0  0.17017543317E+02 -0.36471577531E+02 -0.57787017701E+01  0.50528854137E+02  0.29999982636E+02 0.  0.
        -12    1    1    2    0    0 -0.17017543317E+02  0.36471577531E+02  0.57787017701E+01  0.40659145863E+02  0.00000000000E+00 0.  1.
         11    1    3    3    0    0  0.12507206313E+02 -0.30691779496E+02 -0.14467433387E+02  0.36162441392E+02  0.51100000000E-03 0. -1.
        -11    1    3    3    0    0  0.10301330522E+01 -0.67220413158E+01  0.25808983744E+01  0.72737920122E+01  0.51100000000E-03 0.  1.
        -12    1    3    3    0    0  0.34802039521E+01  0.94224328083E+00  0.61078332423E+01  0.70926207331E+01  0.00000000000E+00 0.  1.
</event>
<event>
 7    1  0.5373252E-013  0.5052888E+02  0.7816164E-02  0.1300439E+00
        -11   -1    0    0    0    0  0.00000000000E+00  0.00000000000E+00  0.45593999997E+02  0.45594000000E+02  0.51100000000E-03 0.  1.
         11   -1    0    0    0    0 -0.00000000000E+00 -0.00000000000E+00 -0.45593999997E+02  0.45594000000E+02  0.51100000000E-03 0. -1.
    9900012    2    1    2    0    0 -0.16131539398E+02  0.57480026824E-01 -0.37322037740E+02  0.50528875952E+02  0.30000048944E+02 0.  0.
        -12    1    1    2    0    0  0.16131539398E+02 -0.57480026824E-01  0.37322037740E+02  0.40659124048E+02  0.00000000000E+00 0.  1.
         11    1    3    3    0    0 -0.70513896133E+01  0.52942313089E+01 -0.89857668334E+01  0.12589479198E+02  0.51100000000E-03 0. -1.
        -11    1    3    3    0    0  0.49862742180E+01  0.52035831148E+01 -0.50515088309E+01  0.88010198011E+01  0.51100000000E-03 0.  1.
        -12    1    3    3    0    0 -0.14066424002E+02 -0.10440334397E+02 -0.23284762076E+02  0.29138376953E+02  0.00000000000E+00 0.  1.
</event>
<event>
 7    1  0.5373252E-013  0.5052886E+02  0.7816164E-02  0.1300439E+00
        -11   -1    0    0    0    0  0.00000000000E+00  0.00000000000E+00  0.45593999997E+02  0.45594000000E+02  0.51100000000E-03 0.  1.
         11   -1    0    0    0    0 -0.00000000000E+00 -0.00000000000E+00 -0.45593999997E+02  0.45594000000E+02  0.51100000000E-03 0. -1.
    9900012    2    1    2    0    0  0.35126712672E+01 -0.80169836731E+01 -0.39705852304E+02  0.50528860882E+02  0.30000003137E+02 0.  0.
        -12    1    1    2    0    0 -0.35126712672E+01  0.80169836731E+01  0.39705852304E+02  0.40659139118E+02  0.00000000000E+00 0.  1.
         11    1    3    3    0    0  0.72577619535E+01  0.52902981707E+01 -0.23397845036E+02  0.25062352561E+02  0.51100000000E-03 0. -1.
        -11    1    3    3    0    0 -0.27287306671E+01 -0.11910835650E+02 -0.18807420234E+02  0.22428397916E+02  0.51100000000E-03 0.  1.
        -12    1    3    3    0    0 -0.10163600192E+01 -0.13964461939E+01  0.24994129660E+01  0.30381104055E+01  0.00000000000E+00 0.  1.
</event>
<event>
 7    1  0.5373252E-013  0.5052886E+02  0.7816164E-02  0.1300439E+00
        -11   -1    0    0    0    0  0.00000000000E+00  0.00000000000E+00  0.45593999997E+02  0.45594000000E+02  0.51100000000E-03 0. -1.
         11   -1    0    0    0    0 -0.00000000000E+00 -0.00000000000E+00 -0.45593999997E+02  0.45594000000E+02  0.51100000000E-03 0.  1.
    9900012    2    1    2    0    0  0.10229687697E+02  0.11260058179E+02  0.37705841222E+02  0.50528857328E+02  0.29999992334E+02 0.  0.
        -12    1    1    2    0    0 -0.10229687697E+02 -0.11260058179E+02 -0.37705841222E+02  0.40659142672E+02  0.00000000000E+00 0.  1.
         11    1    3    3    0    0  0.63297915931E+01  0.19051121302E+01 -0.26881524093E+01  0.71359566617E+01  0.51100000000E-03 0.  1.
        -11    1    3    3    0    0 -0.29003218355E+01 -0.13138440994E+01  0.73710549224E+01  0.80293526512E+01  0.51100000000E-03 0. -1.
        -12    1    3    3    0    0  0.68002179397E+01  0.10668790149E+02  0.33022938709E+02  0.35363548015E+02  0.00000000000E+00 0.  1.
</event>
<event>
 7    1  0.5373252E-013  0.5052891E+02  0.7816164E-02  0.1300439E+00
        -11   -1    0    0    0    0  0.00000000000E+00  0.00000000000E+00  0.45593999997E+02  0.45594000000E+02  0.51100000000E-03 0.  1.
         11   -1    0    0    0    0 -0.00000000000E+00 -0.00000000000E+00 -0.45593999997E+02  0.45594000000E+02  0.51100000000E-03 0. -1.
    9900012    2    1    2    0    0  0.10529788692E+02  0.21976566154E+02 -0.32547135125E+02  0.50528906125E+02  0.30000140658E+02 0.  0.
        -12    1    1    2    0    0 -0.10529788692E+02 -0.21976566154E+02  0.32547135125E+02  0.40659093875E+02  0.00000000000E+00 0.  1.
         11    1    3    3    0    0 -0.11523652236E+01  0.14351043674E+02 -0.11829254087E+02  0.18633616199E+02  0.51100000000E-03 0. -1.
        -11    1    3    3    0    0  0.83890305957E+01  0.13516801153E+01 -0.22945053331E+02  0.24467904408E+02  0.51100000000E-03 0.  1.
         12    1    3    3    0    0  0.32931233202E+01  0.62738423646E+01  0.22271722926E+01  0.74273855184E+01  0.00000000000E+00 0. -1.
</event>
<event>
 7    1  0.5373252E-013  0.5052887E+02  0.7816164E-02  0.1300439E+00
        -11   -1    0    0    0    0  0.00000000000E+00  0.00000000000E+00  0.45593999997E+02  0.45594000000E+02  0.51100000000E-03 0. -1.
         11   -1    0    0    0    0 -0.00000000000E+00 -0.00000000000E+00 -0.45593999997E+02  0.45594000000E+02  0.51100000000E-03 0.  1.
    9900012    2    1    2    0    0  0.21276315465E+02 -0.21853972971E+02  0.26886564120E+02  0.50528867390E+02  0.30000022919E+02 0.  0.
        -12    1    1    2    0    0 -0.21276315465E+02  0.21853972971E+02 -0.26886564120E+02  0.40659132610E+02  0.00000000000E+00 0.  1.
         11    1    3    3    0    0  0.16191005101E+02 -0.15460929310E+02  0.88769965313E+01  0.24082982560E+02  0.51100000000E-03 0. -1.
        -11    1    3    3    0    0 -0.75749380461E+00 -0.94823245528E+01  0.28851667983E+01  0.99404458403E+01  0.51100000000E-03 0.  1.
         12    1    3    3    0    0  0.58428041683E+01  0.30892808913E+01  0.15124400791E+02  0.16505438990E+02  0.00000000000E+00 0. -1.
</event>
<event>
 7    1  0.5373252E-013  0.5052885E+02  0.7816164E-02  0.1300439E+00
        -11   -1    0    0    0    0  0.00000000000E+00  0.00000000000E+00  0.45593999997E+02  0.45594000000E+02  0.51100000000E-03 0. -1.
         11   -1    0    0    0    0 -0.00000000000E+00 -0.00000000000E+00 -0.45593999997E+02  0.45594000000E+02  0.51100000000E-03 0.  1.
    9900012    2    1    2    0    0 -0.29323828479E+02 -0.13909056005E+02  0.24491169816E+02  0.50528853986E+02  0.29999982176E+02 0.  0.
        -12    1    1    2    0    0  0.29323828479E+02  0.13909056005E+02 -0.24491169816E+02  0.40659146014E+02  0.00000000000E+00 0.  1.
         11    1    3    3    0    0  0.40245285190E+01  0.22901559904E+00  0.11938711652E+01  0.42041178105E+01  0.51100000000E-03 0. -1.
        -11    1    3    3    0    0 -0.23255182029E+02 -0.15591934336E+02  0.22813307523E+02  0.36115909347E+02  0.51100000000E-03 0.  1.
        -12    1    3    3    0    0 -0.10093174970E+02  0.14538627324E+01  0.48399112788E+00  0.10208826829E+02  0.00000000000E+00 0.  1.
</event>
<event>
 7    1  0.5373252E-013  0.5052885E+02  0.7816164E-02  0.1300439E+00
        -11   -1    0    0    0    0  0.00000000000E+00  0.00000000000E+00  0.45593999997E+02  0.45594000000E+02  0.51100000000E-03 0. -1.
         11   -1    0    0    0    0 -0.00000000000E+00 -0.00000000000E+00 -0.45593999997E+02  0.45594000000E+02  0.51100000000E-03 0.  1.
    9900012    2    1    2    0    0  0.29798785355E+02  0.71986529043E+01  0.26709138360E+02  0.50528852392E+02  0.29999977330E+02 0.  0.
        -12    1    1    2    0    0 -0.29798785355E+02 -0.71986529043E+01 -0.26709138360E+02  0.40659147608E+02  0.00000000000E+00 0.  1.
         11    1    3    3    0    0  0.73558366363E+01 -0.20953548287E+01  0.21859898878E+02  0.23159318291E+02  0.51100000000E-03 0. -1.
        -11    1    3    3    0    0  0.98768062871E+01  0.95754315170E+01  0.54238812067E+01  0.14787111915E+02  0.51100000000E-03 0.  1.
        -12    1    3    3    0    0  0.12566142432E+02 -0.28142378396E+00 -0.57464172484E+00  0.12582422186E+02  0.00000000000E+00 0.  1.
</event>
<event>
 7    1  0.5373252E-013  0.5052887E+02  0.7816164E-02  0.1300439E+00
        -11   -1    0    0    0    0  0.00000000000E+00  0.00000000000E+00  0.45593999997E+02  0.45594000000E+02  0.51100000000E-03 0. -1.
         11   -1    0    0    0    0 -0.00000000000E+00 -0.00000000000E+00 -0.45593999997E+02  0.45594000000E+02  0.51100000000E-03 0.  1.
    9900012    2    1    2    0    0  0.18581041026E+01 -0.23997703175E+02 -0.32769233160E+02  0.50528868794E+02  0.30000027186E+02 0.  0.
        -12    1    1    2    0    0 -0.18581041026E+01  0.23997703175E+02  0.32769233160E+02  0.40659131206E+02  0.00000000000E+00 0.  1.
         11    1    3    3    0    0  0.12464740862E+02 -0.89121439948E+01 -0.18891454668E+02  0.24324537715E+02  0.51100000000E-03 0. -1.
        -11    1    3    3    0    0 -0.18425654083E+01 -0.44067624899E+01  0.19821631162E+01  0.51714189356E+01  0.51100000000E-03 0.  1.
        -12    1    3    3    0    0 -0.87640713507E+01 -0.10678796691E+02 -0.15859941608E+02  0.21032912143E+02  0.00000000000E+00 0.  1.
</event>
<event>
 7    1  0.5373252E-013  0.5052887E+02  0.7816164E-02  0.1300439E+00
        -11   -1    0    0    0    0  0.00000000000E+00  0.00000000000E+00  0.45593999997E+02  0.45594000000E+02  0.51100000000E-03 0.  1.
         11   -1    0    0    0    0 -0.00000000000E+00 -0.00000000000E+00 -0.45593999997E+02  0.45594000000E+02  0.51100000000E-03 0. -1.
    9900012    2    1    2    0    0  0.38090222982E+02 -0.10740207780E+02 -0.93245870123E+01  0.50528867288E+02  0.30000022609E+02 0.  0.
        -12    1    1    2    0    0 -0.38090222982E+02  0.10740207780E+02  0.93245870123E+01  0.40659132712E+02  0.00000000000E+00 0.  1.
         11    1    3    3    0    0  0.32346545365E+02 -0.35616742578E+01 -0.72394484776E+01  0.33337578423E+02  0.51100000000E-03 0. -1.
        -11    1    3    3    0    0  0.12269254080E+01  0.39286118642E+01 -0.31078778000E+01  0.51573483320E+01  0.51100000000E-03 0.  1.
        -12    1    3    3    0    0  0.45167522086E+01 -0.11107145387E+02  0.10227392653E+01  0.12033940533E+02  0.00000000000E+00 0.  1.
</event>
<event>
 7    1  0.5373252E-013  0.5052885E+02  0.7816164E-02  0.1300439E+00
        -11   -1    0    0    0    0  0.00000000000E+00  0.00000000000E+00  0.45593999997E+02  0.45594000000E+02  0.51100000000E-03 0.  1.
         11   -1    0    0    0    0 -0.00000000000E+00 -0.00000000000E+00 -0.45593999997E+02  0.45594000000E+02  0.51100000000E-03 0. -1.
    9900012    2    1    2    0    0  0.27617099809E+02 -0.26978817999E+02 -0.12751679093E+02  0.50528854138E+02  0.29999982639E+02 0.  0.
        -12    1    1    2    0    0 -0.27617099809E+02  0.26978817999E+02  0.12751679093E+02  0.40659145862E+02  0.00000000000E+00 0.  1.
         11    1    3    3    0    0  0.73115024970E+01 -0.10705667532E+02 -0.29185918992E+01  0.13288625400E+02  0.51100000000E-03 0. -1.
        -11    1    3    3    0    0 -0.25975187750E+01 -0.12232862947E+02 -0.51065996038E+01  0.13508049431E+02  0.51100000000E-03 0.  1.
        -12    1    3    3    0    0  0.22903116087E+02 -0.40402875200E+01 -0.47264875902E+01  0.23732179308E+02  0.00000000000E+00 0.  1.
</event>
<event>
 7    1  0.5373252E-013  0.5052886E+02  0.7816164E-02  0.1300439E+00
        -11   -1    0    0    0    0  0.00000000000E+00  0.00000000000E+00  0.45593999997E+02  0.45594000000E+02  0.51100000000E-03 0.  1.
         11   -1    0    0    0    0 -0.00000000000E+00 -0.00000000000E+00 -0.45593999997E+02  0.45594000000E+02  0.51100000000E-03 0. -1.
    9900012    2    1    2    0    0 -0.27548833444E+02  0.27770367193E+02 -0.11092083344E+02  0.50528857964E+02  0.29999994268E+02 0.  0.
        -12    1    1    2    0    0  0.27548833444E+02 -0.27770367193E+02  0.11092083344E+02  0.40659142036E+02  0.00000000000E+00 0.  1.
         11    1    3    3    0    0 -0.33054548575E+01  0.74133158688E+00 -0.28216198507E+01  0.44087575551E+01  0.51100000000E-03 0. -1.
        -11    1    3    3    0    0 -0.10175027129E+02  0.98204231003E+01  0.10022889403E+02  0.17332922408E+02  0.51100000000E-03 0.  1.
        -12    1    3    3    0    0 -0.14068351458E+02  0.17208612506E+02 -0.18293352896E+02  0.28787178002E+02  0.00000000000E+00 0.  1.
</event>
<event>
 7    1  0.5373252E-013  0.5052887E+02  0.7816164E-02  0.1300439E+00
        -11   -1    0    0    0    0  0.00000000000E+00  0.00000000000E+00  0.45593999997E+02  0.45594000000E+02  0.51100000000E-03 0.  1.
         11   -1    0    0    0    0 -0.00000000000E+00 -0.00000000000E+00 -0.45593999997E+02  0.45594000000E+02  0.51100000000E-03 0. -1.
    9900012    2    1    2    0    0  0.18999354267E+02  0.26652332280E+01 -0.35848099394E+02  0.50528866206E+02  0.30000019321E+02 0.  0.
        -12    1    1    2    0    0 -0.18999354267E+02 -0.26652332280E+01  0.35848099394E+02  0.40659133794E+02  0.00000000000E+00 0.  1.
         11    1    3    3    0    0 -0.40297198489E+01  0.11585273475E+01 -0.19774893587E+02  0.20214530524E+02  0.51100000000E-03 0.  1.
        -11    1    3    3    0    0  0.13226172945E+02 -0.10675519518E+01 -0.15146593402E+02  0.20136797409E+02  0.51100000000E-03 0. -1.
        -12    1    3    3    0    0  0.98029011706E+01  0.25742578323E+01 -0.92661240427E+00  0.10177538273E+02  0.00000000000E+00 0.  1.
</event>
<event>
 7    1  0.5373252E-013  0.5052887E+02  0.7816164E-02  0.1300439E+00
        -11   -1    0    0    0    0  0.00000000000E+00  0.00000000000E+00  0.45593999997E+02  0.45594000000E+02  0.51100000000E-03 0. -1.
         11   -1    0    0    0    0 -0.00000000000E+00 -0.00000000000E+00 -0.45593999997E+02  0.45594000000E+02  0.51100000000E-03 0.  1.
    9900012    2    1    2    0    0 -0.36561970814E+02  0.15843592308E+02 -0.80850464856E+01  0.50528866909E+02  0.30000021457E+02 0.  0.
        -12    1    1    2    0    0  0.36561970814E+02 -0.15843592308E+02  0.80850464856E+01  0.40659133091E+02  0.00000000000E+00 0.  1.
         11    1    3    3    0    0 -0.11669242118E+02  0.70905761962E+01  0.43700913926E+01  0.14336846984E+02  0.51100000000E-03 0. -1.
        -11    1    3    3    0    0 -0.28330585036E+02  0.10011786974E+02 -0.12466128244E+02  0.32530943432E+02  0.51100000000E-03 0.  1.
         12    1    3    3    0    0  0.34378563403E+01 -0.12587708628E+01  0.10990365706E-01  0.36610764933E+01  0.00000000000E+00 0. -1.
</event>
<event>
 7    1  0.5373252E-013  0.5052887E+02  0.7816164E-02  0.1300439E+00
        -11   -1    0    0    0    0  0.00000000000E+00  0.00000000000E+00  0.45593999997E+02  0.45594000000E+02  0.51100000000E-03 0.  1.
         11   -1    0    0    0    0 -0.00000000000E+00 -0.00000000000E+00 -0.45593999997E+02  0.45594000000E+02  0.51100000000E-03 0. -1.
    9900012    2    1    2    0    0  0.40477930468E+02  0.13587406846E+01 -0.35854843862E+01  0.50528871510E+02  0.30000035443E+02 0.  0.
        -12    1    1    2    0    0 -0.40477930468E+02 -0.13587406846E+01  0.35854843862E+01  0.40659128490E+02  0.00000000000E+00 0.  1.
         11    1    3    3    0    0  0.32159391858E+01  0.41625957189E+01  0.59630724025E+01  0.79515847920E+01  0.51100000000E-03 0.  1.
        -11    1    3    3    0    0  0.13952095260E+02  0.75353128820E+01 -0.19941265974E+01  0.15981816027E+02  0.51100000000E-03 0. -1.
         12    1    3    3    0    0  0.23309896023E+02 -0.10339167916E+02 -0.75544301913E+01  0.26595470692E+02  0.00000000000E+00 0. -1.
</event>
<event>
 7    1  0.5373252E-013  0.5052882E+02  0.7816164E-02  0.1300439E+00
        -11   -1    0    0    0    0  0.00000000000E+00  0.00000000000E+00  0.45593999997E+02  0.45594000000E+02  0.51100000000E-03 0.  1.
         11   -1    0    0    0    0 -0.00000000000E+00 -0.00000000000E+00 -0.45593999997E+02  0.45594000000E+02  0.51100000000E-03 0. -1.
    9900012    2    1    2    0    0 -0.39128996291E+02  0.10574806536E+02 -0.32037184059E+01  0.50528822738E+02  0.29999887195E+02 0.  0.
        -12    1    1    2    0    0  0.39128996291E+02 -0.10574806536E+02  0.32037184059E+01  0.40659177262E+02  0.00000000000E+00 0.  1.
         11    1    3    3    0    0 -0.26978853470E+01  0.34814529341E+01 -0.41398551318E+01  0.60446257660E+01  0.51100000000E-03 0. -1.
        -11    1    3    3    0    0  0.16809420288E+01 -0.30003983402E+01  0.35867266884E+01  0.49691613882E+01  0.51100000000E-03 0.  1.
         12    1    3    3    0    0 -0.38112052972E+02  0.10093751942E+02 -0.26505899625E+01  0.39515035584E+02  0.00000000000E+00 0. -1.
</event>
<event>
 7    1  0.5373252E-013  0.5052887E+02  0.7816164E-02  0.1300439E+00
        -11   -1    0    0    0    0  0.00000000000E+00  0.00000000000E+00  0.45593999997E+02  0.45594000000E+02  0.51100000000E-03 0.  1.
         11   -1    0    0    0    0 -0.00000000000E+00 -0.00000000000E+00 -0.45593999997E+02  0.45594000000E+02  0.51100000000E-03 0. -1.
    9900012    2    1    2    0    0  0.36181607720E+02 -0.14107913410E+02 -0.12042549365E+02  0.50528868760E+02  0.30000027082E+02 0.  0.
        -12    1    1    2    0    0 -0.36181607720E+02  0.14107913410E+02  0.12042549365E+02  0.40659131240E+02  0.00000000000E+00 0.  1.
         11    1    3    3    0    0  0.29440198531E+02 -0.14004831374E+02 -0.10021883232E+02  0.34107165452E+02  0.51100000000E-03 0. -1.
        -11    1    3    3    0    0  0.70369267792E+01  0.31532793521E+00  0.54669564299E+01  0.89165791125E+01  0.51100000000E-03 0.  1.
         12    1    3    3    0    0 -0.29551759029E+00 -0.41840997091E+00 -0.74876225625E+01  0.75051241954E+01  0.00000000000E+00 0. -1.
</event>
<event>
 7    1  0.5373252E-013  0.5052886E+02  0.7816164E-02  0.1300439E+00
        -11   -1    0    0    0    0  0.00000000000E+00  0.00000000000E+00  0.45593999997E+02  0.45594000000E+02  0.51100000000E-03 0. -1.
         11   -1    0    0    0    0 -0.00000000000E+00 -0.00000000000E+00 -0.45593999997E+02  0.45594000000E+02  0.51100000000E-03 0.  1.
    9900012    2    1    2    0    0  0.27362159248E+02  0.23127700589E+02  0.19224650409E+02  0.50528862323E+02  0.30000007518E+02 0.  0.
        -12    1    1    2    0    0 -0.27362159248E+02 -0.23127700589E+02 -0.19224650409E+02  0.40659137677E+02  0.00000000000E+00 0.  1.
         11    1    3    3    0    0  0.19649850354E+02  0.13312404457E+02  0.74541784246E+01  0.24877731159E+02  0.51100000000E-03 0. -1.
        -11    1    3    3    0    0  0.11697594426E+02  0.11383951683E+02  0.40425889987E+01  0.16815784173E+02  0.51100000000E-03 0.  1.
        -12    1    3    3    0    0 -0.39852855326E+01 -0.15686555510E+01  0.77278829858E+01  0.88353469913E+01  0.00000000000E+00 0.  1.
</event>
<event>
 7    1  0.5373252E-013  0.5052883E+02  0.7816164E-02  0.1300439E+00
        -11   -1    0    0    0    0  0.00000000000E+00  0.00000000000E+00  0.45593999997E+02  0.45594000000E+02  0.51100000000E-03 0.  1.
         11   -1    0    0    0    0 -0.00000000000E+00 -0.00000000000E+00 -0.45593999997E+02  0.45594000000E+02  0.51100000000E-03 0. -1.
    9900012    2    1    2    0    0  0.80773523514E+00  0.39578448275E+02 -0.92769463107E+01  0.50528834528E+02  0.29999923030E+02 0.  0.
        -12    1    1    2    0    0 -0.80773523514E+00 -0.39578448275E+02  0.92769463107E+01  0.40659165472E+02  0.00000000000E+00 0.  1.
         11    1    3    3    0    0  0.14102876975E+01  0.50668348735E+01 -0.34466300936E+01  0.62881623936E+01  0.51100000000E-03 0. -1.
        -11    1    3    3    0    0 -0.10151589516E+02  0.42458788049E+01  0.27948044392E+01  0.11353113610E+02  0.51100000000E-03 0.  1.
        -12    1    3    3    0    0  0.95490370539E+01  0.30265734596E+02 -0.86251206563E+01  0.32887558524E+02  0.00000000000E+00 0.  1.
</event>
<event>
 7    1  0.5373252E-013  0.5052886E+02  0.7816164E-02  0.1300439E+00
        -11   -1    0    0    0    0  0.00000000000E+00  0.00000000000E+00  0.45593999997E+02  0.45594000000E+02  0.51100000000E-03 0. -1.
         11   -1    0    0    0    0 -0.00000000000E+00 -0.00000000000E+00 -0.45593999997E+02  0.45594000000E+02  0.51100000000E-03 0.  1.
    9900012    2    1    2    0    0  0.15628107810E+02  0.26074623761E+02  0.27000779155E+02  0.50528857940E+02  0.29999994196E+02 0.  0.
        -12    1    1    2    0    0 -0.15628107810E+02 -0.26074623761E+02 -0.27000779155E+02  0.40659142060E+02  0.00000000000E+00 0.  1.
         11    1    3    3    0    0  0.57892054030E+01  0.58216090682E+01  0.14017607744E+02  0.16244979485E+02  0.51100000000E-03 0. -1.
        -11    1    3    3    0    0  0.43426860938E+01  0.24014340158E+02  0.12943068759E+02  0.27623730466E+02  0.51100000000E-03 0.  1.
        -12    1    3    3    0    0  0.54962163136E+01 -0.37613254649E+01  0.40102653214E-01  0.66601479894E+01  0.00000000000E+00 0.  1.
</event>
<event>
 7    1  0.5373252E-013  0.5052887E+02  0.7816164E-02  0.1300439E+00
        -11   -1    0    0    0    0  0.00000000000E+00  0.00000000000E+00  0.45593999997E+02  0.45594000000E+02  0.51100000000E-03 0.  1.
         11   -1    0    0    0    0 -0.00000000000E+00 -0.00000000000E+00 -0.45593999997E+02  0.45594000000E+02  0.51100000000E-03 0. -1.
    9900012    2    1    2    0    0  0.39003579694E+02 -0.17136051242E+01 -0.11355574393E+02  0.50528871366E+02  0.30000035005E+02 0.  0.
        -12    1    1    2    0    0 -0.39003579694E+02  0.17136051242E+01  0.11355574393E+02  0.40659128634E+02  0.00000000000E+00 0.  1.
         11    1    3    3    0    0  0.65293134459E+01  0.62865210238E+01  0.12546462050E+01  0.91502140969E+01  0.51100000000E-03 0. -1.
        -11    1    3    3    0    0  0.10587509673E+02  0.15766717584E+00 -0.14488754783E+02  0.17945590975E+02  0.51100000000E-03 0.  1.
        -12    1    3    3    0    0  0.21886756574E+02 -0.81577933238E+01  0.18785341854E+01  0.23433066294E+02  0.00000000000E+00 0.  1.
</event>
<event>
 7    1  0.5373252E-013  0.5052886E+02  0.7816164E-02  0.1300439E+00
        -11   -1    0    0    0    0  0.00000000000E+00  0.00000000000E+00  0.45593999997E+02  0.45594000000E+02  0.51100000000E-03 0. -1.
         11   -1    0    0    0    0 -0.00000000000E+00 -0.00000000000E+00 -0.45593999997E+02  0.45594000000E+02  0.51100000000E-03 0.  1.
    9900012    2    1    2    0    0 -0.25720073613E+02 -0.23636846093E+02 -0.20807279490E+02  0.50528861302E+02  0.30000004415E+02 0.  0.
        -12    1    1    2    0    0  0.25720073613E+02  0.23636846093E+02  0.20807279490E+02  0.40659138698E+02  0.00000000000E+00 0.  1.
         11    1    3    3    0    0  0.68751687918E+00 -0.35752132187E+01 -0.65536990063E+01  0.74970527505E+01  0.51100000000E-03 0. -1.
        -11    1    3    3    0    0 -0.18137786154E+02 -0.49978229797E+01 -0.17324205054E+02  0.25575097304E+02  0.51100000000E-03 0.  1.
         12    1    3    3    0    0 -0.82698043385E+01 -0.15063809894E+02  0.30706245709E+01  0.17456711248E+02  0.00000000000E+00 0. -1.
</event>
<event>
 7    1  0.5373252E-013  0.5052886E+02  0.7816164E-02  0.1300439E+00
        -11   -1    0    0    0    0  0.00000000000E+00  0.00000000000E+00  0.45593999997E+02  0.45594000000E+02  0.51100000000E-03 0.  1.
         11   -1    0    0    0    0 -0.00000000000E+00 -0.00000000000E+00 -0.45593999997E+02  0.45594000000E+02  0.51100000000E-03 0. -1.
    9900012    2    1    2    0    0 -0.20073649414E+02 -0.15382752460E+02 -0.31836851315E+02  0.50528861105E+02  0.30000003816E+02 0.  0.
        -12    1    1    2    0    0  0.20073649414E+02  0.15382752460E+02  0.31836851315E+02  0.40659138895E+02  0.00000000000E+00 0.  1.
         11    1    3    3    0    0 -0.15616172630E+01 -0.12039551414E+02 -0.47677750686E+01  0.13043048957E+02  0.51100000000E-03 0. -1.
        -11    1    3    3    0    0 -0.68822690165E+01 -0.40788059924E+00 -0.24186352212E+02  0.25149783835E+02  0.51100000000E-03 0.  1.
         12    1    3    3    0    0 -0.11629763134E+02 -0.29353204472E+01 -0.28827240343E+01  0.12336028313E+02  0.00000000000E+00 0. -1.
</event>
<event>
 7    1  0.5373252E-013  0.5052886E+02  0.7816164E-02  0.1300439E+00
        -11   -1    0    0    0    0  0.00000000000E+00  0.00000000000E+00  0.45593999997E+02  0.45594000000E+02  0.51100000000E-03 0. -1.
         11   -1    0    0    0    0 -0.00000000000E+00 -0.00000000000E+00 -0.45593999997E+02  0.45594000000E+02  0.51100000000E-03 0.  1.
    9900012    2    1    2    0    0  0.18068909701E+02 -0.31462032321E+02  0.18352683534E+02  0.50528856275E+02  0.29999989133E+02 0.  0.
        -12    1    1    2    0    0 -0.18068909701E+02  0.31462032321E+02 -0.18352683534E+02  0.40659143725E+02  0.00000000000E+00 0.  1.
         11    1    3    3    0    0  0.95652609280E+01 -0.20861445823E+02  0.16972702857E+02  0.28544119902E+02  0.51100000000E-03 0. -1.
        -11    1    3    3    0    0 -0.49684877943E+01 -0.11299971525E+01 -0.13992441992E+01  0.52839993487E+01  0.51100000000E-03 0.  1.
         12    1    3    3    0    0  0.13472136567E+02 -0.94705893464E+01  0.27792248767E+01  0.16700737024E+02  0.00000000000E+00 0. -1.
</event>
<event>
 7    1  0.5373252E-013  0.5052884E+02  0.7816164E-02  0.1300439E+00
        -11   -1    0    0    0    0  0.00000000000E+00  0.00000000000E+00  0.45593999997E+02  0.45594000000E+02  0.51100000000E-03 0. -1.
         11   -1    0    0    0    0 -0.00000000000E+00 -0.00000000000E+00 -0.45593999997E+02  0.45594000000E+02  0.51100000000E-03 0.  1.
    9900012    2    1    2    0    0 -0.16526746869E+02  0.23027394956E+02  0.29150860430E+02  0.50528844274E+02  0.29999952655E+02 0.  0.
        -12    1    1    2    0    0  0.16526746869E+02 -0.23027394956E+02 -0.29150860430E+02  0.40659155726E+02  0.00000000000E+00 0.  1.
         11    1    3    3    0    0 -0.11518587606E+02 -0.96849666497E+00  0.32150303760E+01  0.11998010952E+02  0.51100000000E-03 0. -1.
        -11    1    3    3    0    0 -0.17418367373E+01  0.13242257910E+02  0.40982783635E+01  0.13970943976E+02  0.51100000000E-03 0.  1.
         12    1    3    3    0    0 -0.32663225259E+01  0.10753633711E+02  0.21837551691E+02  0.24559889346E+02  0.00000000000E+00 0. -1.
</event>
<event>
 7    1  0.5373252E-013  0.5052886E+02  0.7816164E-02  0.1300439E+00
        -11   -1    0    0    0    0  0.00000000000E+00  0.00000000000E+00  0.45593999997E+02  0.45594000000E+02  0.51100000000E-03 0.  1.
         11   -1    0    0    0    0 -0.00000000000E+00 -0.00000000000E+00 -0.45593999997E+02  0.45594000000E+02  0.51100000000E-03 0. -1.
    9900012    2    1    2    0    0 -0.68425082825E+01  0.14098452354E+02 -0.37517717781E+02  0.50528862947E+02  0.30000009414E+02 0.  0.
        -12    1    1    2    0    0  0.68425082825E+01 -0.14098452354E+02  0.37517717781E+02  0.40659137053E+02  0.00000000000E+00 0.  1.
         11    1    3    3    0    0 -0.11606641363E+02  0.55190914100E+01 -0.11032670443E+02  0.16937954750E+02  0.51100000000E-03 0. -1.
        -11    1    3    3    0    0 -0.82103770314E+00  0.14863599385E+01  0.26175960416E+01  0.31201246890E+01  0.51100000000E-03 0.  1.
         12    1    3    3    0    0  0.55851707837E+01  0.70930010051E+01 -0.29102643380E+02  0.30470783509E+02  0.00000000000E+00 0. -1.
</event>
<event>
 7    1  0.5373252E-013  0.5052886E+02  0.7816164E-02  0.1300439E+00
        -11   -1    0    0    0    0  0.00000000000E+00  0.00000000000E+00  0.45593999997E+02  0.45594000000E+02  0.51100000000E-03 0.  1.
         11   -1    0    0    0    0 -0.00000000000E+00 -0.00000000000E+00 -0.45593999997E+02  0.45594000000E+02  0.51100000000E-03 0. -1.
    9900012    2    1    2    0    0 -0.11934678786E+02  0.14389014824E+01 -0.38841456936E+02  0.50528858690E+02  0.29999996473E+02 0.  0.
        -12    1    1    2    0    0  0.11934678786E+02 -0.14389014824E+01  0.38841456936E+02  0.40659141310E+02  0.00000000000E+00 0.  1.
         11    1    3    3    0    0 -0.11151822763E+01 -0.67168875220E+01 -0.15432650896E+02  0.16867925879E+02  0.51100000000E-03 0. -1.
        -11    1    3    3    0    0 -0.52254021864E+01  0.47674797883E+01  0.20587790850E+01  0.73669710956E+01  0.51100000000E-03 0.  1.
         12    1    3    3    0    0 -0.55940943236E+01  0.33883092161E+01 -0.25467585124E+02  0.26293961716E+02  0.00000000000E+00 0. -1.
</event>
<event>
 7    1  0.5373252E-013  0.5052887E+02  0.7816164E-02  0.1300439E+00
        -11   -1    0    0    0    0  0.00000000000E+00  0.00000000000E+00  0.45593999997E+02  0.45594000000E+02  0.51100000000E-03 0. -1.
         11   -1    0    0    0    0 -0.00000000000E+00 -0.00000000000E+00 -0.45593999997E+02  0.45594000000E+02  0.51100000000E-03 0.  1.
    9900012    2    1    2    0    0 -0.13694569544E+02 -0.31733459774E+02  0.21415204961E+02  0.50528871778E+02  0.30000036256E+02 0.  0.
        -12    1    1    2    0    0  0.13694569544E+02  0.31733459774E+02 -0.21415204961E+02  0.40659128222E+02  0.00000000000E+00 0.  1.
         11    1    3    3    0    0 -0.19099918347E+00 -0.40414249397E+00  0.83933413175E+01  0.84052359025E+01  0.51100000000E-03 0.  1.
        -11    1    3    3    0    0 -0.86473074194E+01 -0.68587773158E+01  0.13159747295E+02  0.17175497111E+02  0.51100000000E-03 0. -1.
        -12    1    3    3    0    0 -0.48562629410E+01 -0.24470539965E+02 -0.13788365147E+00  0.24948138764E+02  0.00000000000E+00 0.  1.
</event>
<event>
 7    1  0.5373252E-013  0.5052884E+02  0.7816164E-02  0.1300439E+00
        -11   -1    0    0    0    0  0.00000000000E+00  0.00000000000E+00  0.45593999997E+02  0.45594000000E+02  0.51100000000E-03 0. -1.
         11   -1    0    0    0    0 -0.00000000000E+00 -0.00000000000E+00 -0.45593999997E+02  0.45594000000E+02  0.51100000000E-03 0.  1.
    9900012    2    1    2    0    0  0.29080992424E+02 -0.10180596638E+02  0.26529582928E+02  0.50528838196E+02  0.29999934180E+02 0.  0.
        -12    1    1    2    0    0 -0.29080992424E+02  0.10180596638E+02 -0.26529582928E+02  0.40659161804E+02  0.00000000000E+00 0.  1.
         11    1    3    3    0    0  0.14116339402E+02  0.73648644513E-01  0.19744082087E+02  0.24271490270E+02  0.51100000000E-03 0. -1.
        -11    1    3    3    0    0  0.17868323079E+02 -0.39825825655E+01  0.36453093713E+01  0.18666178351E+02  0.51100000000E-03 0.  1.
         12    1    3    3    0    0 -0.29036700574E+01 -0.62716627173E+01  0.31401914698E+01  0.75911695745E+01  0.00000000000E+00 0. -1.
</event>
<event>
 7    1  0.5373252E-013  0.5052886E+02  0.7816164E-02  0.1300439E+00
        -11   -1    0    0    0    0  0.00000000000E+00  0.00000000000E+00  0.45593999997E+02  0.45594000000E+02  0.51100000000E-03 0.  1.
         11   -1    0    0    0    0 -0.00000000000E+00 -0.00000000000E+00 -0.45593999997E+02  0.45594000000E+02  0.51100000000E-03 0. -1.
    9900012    2    1    2    0    0  0.35565498209E+02  0.96163649547E+01 -0.17198454025E+02  0.50528856396E+02  0.29999989500E+02 0.  0.
        -12    1    1    2    0    0 -0.35565498209E+02 -0.96163649547E+01  0.17198454025E+02  0.40659143604E+02  0.00000000000E+00 0.  1.
         11    1    3    3    0    0  0.29282555225E+01 -0.27049665992E+01 -0.28933252036E+01  0.49257340268E+01  0.51100000000E-03 0. -1.
        -11    1    3    3    0    0  0.89040033440E+01  0.12028606675E+02 -0.15873933682E+02  0.21816288064E+02  0.51100000000E-03 0.  1.
         12    1    3    3    0    0  0.23733239342E+02  0.29272487844E+00  0.15688048606E+01  0.23786834304E+02  0.00000000000E+00 0. -1.
</event>
<event>
 7    1  0.5373252E-013  0.5052885E+02  0.7816164E-02  0.1300439E+00
        -11   -1    0    0    0    0  0.00000000000E+00  0.00000000000E+00  0.45593999997E+02  0.45594000000E+02  0.51100000000E-03 0. -1.
         11   -1    0    0    0    0 -0.00000000000E+00 -0.00000000000E+00 -0.45593999997E+02  0.45594000000E+02  0.51100000000E-03 0.  1.
    9900012    2    1    2    0    0 -0.15767482622E+01 -0.32499419932E+02  0.24381709849E+02  0.50528853351E+02  0.29999980247E+02 0.  0.
        -12    1    1    2    0    0  0.15767482622E+01  0.32499419932E+02 -0.24381709849E+02  0.40659146649E+02  0.00000000000E+00 0.  1.
         11    1    3    3    0    0  0.76480288022E+01 -0.65283975665E+01  0.55691653285E+01  0.11494691038E+02  0.51100000000E-03 0. -1.
        -11    1    3    3    0    0 -0.56400780462E-02 -0.98980906346E+01  0.17933978113E+02  0.20484135355E+02  0.51100000000E-03 0.  1.
         12    1    3    3    0    0 -0.92191369863E+01 -0.16072931731E+02  0.87856640771E+00  0.18550026958E+02  0.00000000000E+00 0. -1.
</event>
<event>
 7    1  0.5373252E-013  0.5052894E+02  0.7816164E-02  0.1300438E+00
        -11   -1    0    0    0    0  0.00000000000E+00  0.00000000000E+00  0.45593999997E+02  0.45594000000E+02  0.51100000000E-03 0.  1.
         11   -1    0    0    0    0 -0.00000000000E+00 -0.00000000000E+00 -0.45593999997E+02  0.45594000000E+02  0.51100000000E-03 0. -1.
    9900012    2    1    2    0    0 -0.27614691103E+02  0.33252972391E+01 -0.29656872539E+02  0.50528943749E+02  0.30000255019E+02 0.  0.
        -12    1    1    2    0    0  0.27614691103E+02 -0.33252972391E+01  0.29656872539E+02  0.40659056251E+02  0.00000000000E+00 0.  1.
         11    1    3    3    0    0 -0.14133037252E+02  0.13005853375E+02 -0.16529069897E+02  0.25339793130E+02  0.51100000000E-03 0. -1.
        -11    1    3    3    0    0 -0.11766247273E+02 -0.45431944054E+01 -0.14870826824E+02  0.19499402067E+02  0.51100000000E-03 0.  1.
        -12    1    3    3    0    0 -0.17154065780E+01 -0.51373617303E+01  0.17430241824E+01  0.56897485512E+01  0.00000000000E+00 0.  1.
</event>
<event>
 7    1  0.5373252E-013  0.5052888E+02  0.7816164E-02  0.1300439E+00
        -11   -1    0    0    0    0  0.00000000000E+00  0.00000000000E+00  0.45593999997E+02  0.45594000000E+02  0.51100000000E-03 0.  1.
         11   -1    0    0    0    0 -0.00000000000E+00 -0.00000000000E+00 -0.45593999997E+02  0.45594000000E+02  0.51100000000E-03 0. -1.
    9900012    2    1    2    0    0 -0.29136495220E+02 -0.82129224224E+01 -0.27143635296E+02  0.50528875741E+02  0.30000048302E+02 0.  0.
        -12    1    1    2    0    0  0.29136495220E+02  0.82129224224E+01  0.27143635296E+02  0.40659124259E+02  0.00000000000E+00 0.  1.
         11    1    3    3    0    0 -0.98090191454E+01 -0.72816823543E+00 -0.15492240172E+02  0.18350928897E+02  0.51100000000E-03 0. -1.
        -11    1    3    3    0    0 -0.99411490866E+01  0.63417368569E+01 -0.98596505361E+01  0.15370646716E+02  0.51100000000E-03 0.  1.
        -12    1    3    3    0    0 -0.93863269877E+01 -0.13826491044E+02 -0.17917445881E+01  0.16807300128E+02  0.00000000000E+00 0.  1.
</event>
<event>
 7    1  0.5373252E-013  0.5052886E+02  0.7816164E-02  0.1300439E+00
        -11   -1    0    0    0    0  0.00000000000E+00  0.00000000000E+00  0.45593999997E+02  0.45594000000E+02  0.51100000000E-03 0.  1.
         11   -1    0    0    0    0 -0.00000000000E+00 -0.00000000000E+00 -0.45593999997E+02  0.45594000000E+02  0.51100000000E-03 0. -1.
    9900012    2    1    2    0    0  0.15310587941E+02  0.36969392164E+02 -0.72121827766E+01  0.50528860308E+02  0.30000001393E+02 0.  0.
        -12    1    1    2    0    0 -0.15310587941E+02 -0.36969392164E+02  0.72121827766E+01  0.40659139692E+02  0.00000000000E+00 0.  1.
         11    1    3    3    0    0  0.13281811020E+02  0.15948172469E+02 -0.11333614113E+02  0.23647442107E+02  0.51100000000E-03 0. -1.
        -11    1    3    3    0    0  0.83254485953E+01  0.17426315621E+02  0.29756352607E+01  0.19540828435E+02  0.51100000000E-03 0.  1.
        -12    1    3    3    0    0 -0.62966716745E+01  0.35949040735E+01  0.11457960757E+01  0.73405897666E+01  0.00000000000E+00 0.  1.
</event>
<event>
 7    1  0.5373252E-013  0.5052887E+02  0.7816164E-02  0.1300439E+00
        -11   -1    0    0    0    0  0.00000000000E+00  0.00000000000E+00  0.45593999997E+02  0.45594000000E+02  0.51100000000E-03 0.  1.
         11   -1    0    0    0    0 -0.00000000000E+00 -0.00000000000E+00 -0.45593999997E+02  0.45594000000E+02  0.51100000000E-03 0. -1.
    9900012    2    1    2    0    0 -0.38441641468E+02 -0.12768371416E+02  0.35176654452E+01  0.50528867230E+02  0.30000022433E+02 0.  0.
        -12    1    1    2    0    0  0.38441641468E+02  0.12768371416E+02 -0.35176654452E+01  0.40659132770E+02  0.00000000000E+00 0.  1.
         11    1    3    3    0    0 -0.19650680556E+02 -0.93601036312E+01 -0.66387831561E+01  0.22755971268E+02  0.51100000000E-03 0. -1.
        -11    1    3    3    0    0 -0.14214257217E+02 -0.10244277026E+02  0.57502702318E+01  0.18440605414E+02  0.51100000000E-03 0.  1.
        -12    1    3    3    0    0 -0.45767036954E+01  0.68360092411E+01  0.44061783694E+01  0.93322905485E+01  0.00000000000E+00 0.  1.
</event>
<event>
 7    1  0.5373252E-013  0.5052886E+02  0.7816164E-02  0.1300439E+00
        -11   -1    0    0    0    0  0.00000000000E+00  0.00000000000E+00  0.45593999997E+02  0.45594000000E+02  0.51100000000E-03 0. -1.
         11   -1    0    0    0    0 -0.00000000000E+00 -0.00000000000E+00 -0.45593999997E+02  0.45594000000E+02  0.51100000000E-03 0.  1.
    9900012    2    1    2    0    0 -0.10648758509E+02  0.35769054962E+02  0.16135179429E+02  0.50528863686E+02  0.30000011659E+02 0.  0.
        -12    1    1    2    0    0  0.10648758509E+02 -0.35769054962E+02 -0.16135179429E+02  0.40659136314E+02  0.00000000000E+00 0.  1.
         11    1    3    3    0    0  0.72873450935E+01  0.12728202320E+02  0.87079944082E+01  0.17057013211E+02  0.51100000000E-03 0. -1.
        -11    1    3    3    0    0 -0.11992699516E+02  0.23132002583E+02  0.85494033540E+01  0.27422740256E+02  0.51100000000E-03 0.  1.
        -12    1    3    3    0    0 -0.59434040861E+01 -0.91149941876E-01 -0.11222183328E+01  0.60491102180E+01  0.00000000000E+00 0.  1.
</event>
<event>
 7    1  0.5373252E-013  0.5052887E+02  0.7816164E-02  0.1300439E+00
        -11   -1    0    0    0    0  0.00000000000E+00  0.00000000000E+00  0.45593999997E+02  0.45594000000E+02  0.51100000000E-03 0.  1.
         11   -1    0    0    0    0 -0.00000000000E+00 -0.00000000000E+00 -0.45593999997E+02  0.45594000000E+02  0.51100000000E-03 0. -1.
    9900012    2    1    2    0    0  0.10691916020E+02 -0.10705006551E+02 -0.37739247541E+02  0.50528867712E+02  0.30000023897E+02 0.  0.
        -12    1    1    2    0    0 -0.10691916020E+02  0.10705006551E+02  0.37739247541E+02  0.40659132288E+02  0.00000000000E+00 0.  1.
         11    1    3    3    0    0  0.42857054431E+01  0.39967565071E+00 -0.23864229950E+02  0.24249298611E+02  0.51100000000E-03 0. -1.
        -11    1    3    3    0    0  0.91066257403E+01 -0.13083683127E+02 -0.15777684186E+02  0.22428747515E+02  0.51100000000E-03 0.  1.
         12    1    3    3    0    0 -0.27004151634E+01  0.19790009246E+01  0.19026665951E+01  0.38508215859E+01  0.00000000000E+00 0. -1.
</event>
<event>
 7    1  0.5373252E-013  0.5052886E+02  0.7816164E-02  0.1300439E+00
        -11   -1    0    0    0    0  0.00000000000E+00  0.00000000000E+00  0.45593999997E+02  0.45594000000E+02  0.51100000000E-03 0.  1.
         11   -1    0    0    0    0 -0.00000000000E+00 -0.00000000000E+00 -0.45593999997E+02  0.45594000000E+02  0.51100000000E-03 0. -1.
    9900012    2    1    2    0    0  0.40438696204E+02  0.37727838752E+01 -0.19088542114E+01  0.50528858675E+02  0.29999996429E+02 0.  0.
        -12    1    1    2    0    0 -0.40438696204E+02 -0.37727838752E+01  0.19088542114E+01  0.40659141325E+02  0.00000000000E+00 0.  1.
         11    1    3    3    0    0  0.49523261905E+01 -0.48221878875E+01 -0.20057039151E+00  0.69151471034E+01  0.51100000000E-03 0.  1.
        -11    1    3    3    0    0  0.15308433229E+02  0.11528446531E+01 -0.12270863094E+02  0.19653276064E+02  0.51100000000E-03 0. -1.
        -12    1    3    3    0    0  0.20177936784E+02  0.74421271096E+01  0.10562579274E+02  0.23960435507E+02  0.00000000000E+00 0.  1.
</event>
<event>
 7    1  0.5373252E-013  0.5052886E+02  0.7816164E-02  0.1300439E+00
        -11   -1    0    0    0    0  0.00000000000E+00  0.00000000000E+00  0.45593999997E+02  0.45594000000E+02  0.51100000000E-03 0.  1.
         11   -1    0    0    0    0 -0.00000000000E+00 -0.00000000000E+00 -0.45593999997E+02  0.45594000000E+02  0.51100000000E-03 0. -1.
    9900012    2    1    2    0    0 -0.12137128989E+02 -0.38220234690E+02 -0.67134037664E+01  0.50528855518E+02  0.29999986832E+02 0.  0.
        -12    1    1    2    0    0  0.12137128989E+02  0.38220234690E+02  0.67134037664E+01  0.40659144482E+02  0.00000000000E+00 0.  1.
         11    1    3    3    0    0 -0.29513878095E+01 -0.29303627176E+02 -0.78990744772E+01  0.30492763626E+02  0.51100000000E-03 0. -1.
        -11    1    3    3    0    0  0.29450251877E+01  0.10238668399E+01 -0.24160374315E+01  0.39444535482E+01  0.51100000000E-03 0.  1.
         12    1    3    3    0    0 -0.12130766367E+02 -0.99404743544E+01  0.36017081424E+01  0.16091638344E+02  0.00000000000E+00 0. -1.
</event>
<event>
 7    1  0.5373252E-013  0.5052886E+02  0.7816164E-02  0.1300439E+00
        -11   -1    0    0    0    0  0.00000000000E+00  0.00000000000E+00  0.45593999997E+02  0.45594000000E+02  0.51100000000E-03 0. -1.
         11   -1    0    0    0    0 -0.00000000000E+00 -0.00000000000E+00 -0.45593999997E+02  0.45594000000E+02  0.51100000000E-03 0.  1.
    9900012    2    1    2    0    0  0.87642331536E+01 -0.24634112838E+01  0.39626827268E+02  0.50528860594E+02  0.30000002261E+02 0.  0.
        -12    1    1    2    0    0 -0.87642331536E+01  0.24634112838E+01 -0.39626827268E+02  0.40659139406E+02  0.00000000000E+00 0.  1.
         11    1    3    3    0    0  0.23710658615E+01  0.48788410952E+01  0.60179763129E+01  0.81019184713E+01  0.51100000000E-03 0. -1.
        -11    1    3    3    0    0 -0.29918545060E+00 -0.13140138526E+01  0.33390033304E+02  0.33417218146E+02  0.51100000000E-03 0.  1.
        -12    1    3    3    0    0  0.66923527427E+01 -0.60282385264E+01  0.21881765093E+00  0.90097239762E+01  0.00000000000E+00 0.  1.
</event>
<event>
 7    1  0.5373252E-013  0.5052887E+02  0.7816164E-02  0.1300439E+00
        -11   -1    0    0    0    0  0.00000000000E+00  0.00000000000E+00  0.45593999997E+02  0.45594000000E+02  0.51100000000E-03 0.  1.
         11   -1    0    0    0    0 -0.00000000000E+00 -0.00000000000E+00 -0.45593999997E+02  0.45594000000E+02  0.51100000000E-03 0. -1.
    9900012    2    1    2    0    0 -0.17408269915E+02  0.36717679392E+02 -0.13890294587E+01  0.50528865181E+02  0.30000016204E+02 0.  0.
        -12    1    1    2    0    0  0.17408269915E+02 -0.36717679392E+02  0.13890294587E+01  0.40659134819E+02  0.00000000000E+00 0.  1.
         11    1    3    3    0    0  0.24136570871E+01  0.10261189431E+02  0.41660992625E+00  0.10549469805E+02  0.51100000000E-03 0.  1.
        -11    1    3    3    0    0 -0.42883590880E+01  0.16823872591E+02 -0.99037669852E+01  0.19987929192E+02  0.51100000000E-03 0. -1.
         12    1    3    3    0    0 -0.15533567914E+02  0.96326173709E+01  0.80981276003E+01  0.19991466184E+02  0.00000000000E+00 0. -1.
</event>
<event>
 7    1  0.5373252E-013  0.5052886E+02  0.7816164E-02  0.1300439E+00
        -11   -1    0    0    0    0  0.00000000000E+00  0.00000000000E+00  0.45593999997E+02  0.45594000000E+02  0.51100000000E-03 0.  1.
         11   -1    0    0    0    0 -0.00000000000E+00 -0.00000000000E+00 -0.45593999997E+02  0.45594000000E+02  0.51100000000E-03 0. -1.
    9900012    2    1    2    0    0  0.73269552649E+01  0.34397794847E+02 -0.20402773462E+02  0.50528859223E+02  0.29999998095E+02 0.  0.
        -12    1    1    2    0    0 -0.73269552649E+01 -0.34397794847E+02  0.20402773462E+02  0.40659140777E+02  0.00000000000E+00 0.  1.
         11    1    3    3    0    0  0.38098616079E+01  0.41991142122E+01 -0.56408536121E+00  0.56978766391E+01  0.51100000000E-03 0. -1.
        -11    1    3    3    0    0  0.11585649472E+02  0.46560197789E+01 -0.10951459243E+02  0.16608439231E+02  0.51100000000E-03 0.  1.
        -12    1    3    3    0    0 -0.80685558154E+01  0.25542660856E+02 -0.88872288571E+01  0.28222543353E+02  0.00000000000E+00 0.  1.
</event>
<event>
 7    1  0.5373252E-013  0.5052887E+02  0.7816164E-02  0.1300439E+00
        -11   -1    0    0    0    0  0.00000000000E+00  0.00000000000E+00  0.45593999997E+02  0.45594000000E+02  0.51100000000E-03 0.  1.
         11   -1    0    0    0    0 -0.00000000000E+00 -0.00000000000E+00 -0.45593999997E+02  0.45594000000E+02  0.51100000000E-03 0. -1.
    9900012    2    1    2    0    0 -0.33904580147E+02  0.20050728968E+02 -0.10080303136E+02  0.50528870664E+02  0.30000032870E+02 0.  0.
        -12    1    1    2    0    0  0.33904580147E+02 -0.20050728968E+02  0.10080303136E+02  0.40659129336E+02  0.00000000000E+00 0.  1.
         11    1    3    3    0    0 -0.20695052316E+02  0.21615280828E+02 -0.82848348664E+01  0.31050668989E+02  0.51100000000E-03 0. -1.
        -11    1    3    3    0    0  0.41146540684E+00 -0.45533218413E+01 -0.30203520200E+01  0.54794680542E+01  0.51100000000E-03 0.  1.
        -12    1    3    3    0    0 -0.13620993237E+02  0.29887699807E+01  0.12248837500E+01  0.13998733620E+02  0.00000000000E+00 0.  1.
</event>
<event>
 7    1  0.5373252E-013  0.5052887E+02  0.7816164E-02  0.1300439E+00
        -11   -1    0    0    0    0  0.00000000000E+00  0.00000000000E+00  0.45593999997E+02  0.45594000000E+02  0.51100000000E-03 0. -1.
         11   -1    0    0    0    0 -0.00000000000E+00 -0.00000000000E+00 -0.45593999997E+02  0.45594000000E+02  0.51100000000E-03 0.  1.
    9900012    2    1    2    0    0  0.94354947810E+01  0.20038441834E+02  0.34096879411E+02  0.50528869433E+02  0.30000029129E+02 0.  0.
        -12    1    1    2    0    0 -0.94354947810E+01 -0.20038441834E+02 -0.34096879411E+02  0.40659130567E+02  0.00000000000E+00 0.  1.
         11    1    3    3    0    0  0.14135898878E+02  0.13656169768E+02  0.21255219848E+02  0.28949939221E+02  0.51100000000E-03 0. -1.
        -11    1    3    3    0    0  0.14213794658E+01  0.65030686930E+01 -0.72360958016E+00  0.66958071281E+01  0.51100000000E-03 0.  1.
         12    1    3    3    0    0 -0.61217835631E+01 -0.12079662708E+00  0.13565269143E+02  0.14883123084E+02  0.00000000000E+00 0. -1.
</event>
<event>
 7    1  0.5373252E-013  0.5052878E+02  0.7816164E-02  0.1300439E+00
        -11   -1    0    0    0    0  0.00000000000E+00  0.00000000000E+00  0.45593999997E+02  0.45594000000E+02  0.51100000000E-03 0.  1.
         11   -1    0    0    0    0 -0.00000000000E+00 -0.00000000000E+00 -0.45593999997E+02  0.45594000000E+02  0.51100000000E-03 0. -1.
    9900012    2    1    2    0    0 -0.87003189458E+01  0.23231568504E+02 -0.32214445019E+02  0.50528784651E+02  0.29999771423E+02 0.  0.
        -12    1    1    2    0    0  0.87003189458E+01 -0.23231568504E+02  0.32214445019E+02  0.40659215349E+02  0.00000000000E+00 0.  1.
         11    1    3    3    0    0 -0.68098792810E+00  0.12047614836E+02 -0.81619833049E+01  0.14568003965E+02  0.51100000000E-03 0. -1.
        -11    1    3    3    0    0 -0.10991435480E+02  0.65227712951E+01 -0.16510690730E+01  0.12887367017E+02  0.51100000000E-03 0.  1.
        -12    1    3    3    0    0  0.29721044624E+01  0.46611823729E+01 -0.22401392641E+02  0.23073413668E+02  0.00000000000E+00 0.  1.
</event>
<event>
 7    1  0.5373252E-013  0.5052885E+02  0.7816164E-02  0.1300439E+00
        -11   -1    0    0    0    0  0.00000000000E+00  0.00000000000E+00  0.45593999997E+02  0.45594000000E+02  0.51100000000E-03 0.  1.
         11   -1    0    0    0    0 -0.00000000000E+00 -0.00000000000E+00 -0.45593999997E+02  0.45594000000E+02  0.51100000000E-03 0. -1.
    9900012    2    1    2    0    0 -0.40236911768E+02 -0.17204550413E+01  0.55854672102E+01  0.50528850007E+02  0.29999970081E+02 0.  0.
        -12    1    1    2    0    0  0.40236911768E+02  0.17204550413E+01 -0.55854672102E+01  0.40659149993E+02  0.00000000000E+00 0.  1.
         11    1    3    3    0    0 -0.73737157691E+01  0.32378345716E+01 -0.86070162638E+01  0.11787111019E+02  0.51100000000E-03 0. -1.
        -11    1    3    3    0    0 -0.25549107502E+01 -0.15001775443E+01  0.67063547122E+01  0.73316638898E+01  0.51100000000E-03 0.  1.
         12    1    3    3    0    0 -0.30308285249E+02 -0.34581120687E+01  0.74861287619E+01  0.31410075098E+02  0.00000000000E+00 0. -1.
</event>
<event>
 7    1  0.5373252E-013  0.5052886E+02  0.7816164E-02  0.1300439E+00
        -11   -1    0    0    0    0  0.00000000000E+00  0.00000000000E+00  0.45593999997E+02  0.45594000000E+02  0.51100000000E-03 0.  1.
         11   -1    0    0    0    0 -0.00000000000E+00 -0.00000000000E+00 -0.45593999997E+02  0.45594000000E+02  0.51100000000E-03 0. -1.
    9900012    2    1    2    0    0  0.17449957334E+02  0.26347519506E+02 -0.25582670079E+02  0.50528858304E+02  0.29999995299E+02 0.  0.
        -12    1    1    2    0    0 -0.17449957334E+02 -0.26347519506E+02  0.25582670079E+02  0.40659141696E+02  0.00000000000E+00 0.  1.
         11    1    3    3    0    0  0.37231170253E+01  0.74390895018E+01 -0.94538249865E+01  0.12592714566E+02  0.51100000000E-03 0. -1.
        -11    1    3    3    0    0 -0.70444838314E+01  0.78080185612E+01 -0.72199633162E+01  0.12756087835E+02  0.51100000000E-03 0.  1.
        -12    1    3    3    0    0  0.20771324140E+02  0.11100411443E+02 -0.89088817766E+01  0.25180055903E+02  0.00000000000E+00 0.  1.
</event>
<event>
 7    1  0.5373252E-013  0.5052887E+02  0.7816164E-02  0.1300439E+00
        -11   -1    0    0    0    0  0.00000000000E+00  0.00000000000E+00  0.45593999997E+02  0.45594000000E+02  0.51100000000E-03 0. -1.
         11   -1    0    0    0    0 -0.00000000000E+00 -0.00000000000E+00 -0.45593999997E+02  0.45594000000E+02  0.51100000000E-03 0.  1.
    9900012    2    1    2    0    0 -0.20940234566E+02  0.34467121077E+02 -0.51661724377E+01  0.50528865766E+02  0.30000017983E+02 0.  0.
        -12    1    1    2    0    0  0.20940234566E+02 -0.34467121077E+02  0.51661724377E+01  0.40659134234E+02  0.00000000000E+00 0.  1.
         11    1    3    3    0    0  0.27286041487E-01  0.95728341511E+01  0.99709711119E+00  0.96246610913E+01  0.51100000000E-03 0. -1.
        -11    1    3    3    0    0 -0.12371588323E+02  0.40656814263E+01  0.70242303411E+01  0.14796140552E+02  0.51100000000E-03 0.  1.
         12    1    3    3    0    0 -0.85959322838E+01  0.20828605499E+02 -0.13187499890E+02  0.26108064123E+02  0.00000000000E+00 0. -1.
</event>
<event>
 7    1  0.5373252E-013  0.5052885E+02  0.7816164E-02  0.1300439E+00
        -11   -1    0    0    0    0  0.00000000000E+00  0.00000000000E+00  0.45593999997E+02  0.45594000000E+02  0.51100000000E-03 0. -1.
         11   -1    0    0    0    0 -0.00000000000E+00 -0.00000000000E+00 -0.45593999997E+02  0.45594000000E+02  0.51100000000E-03 0.  1.
    9900012    2    1    2    0    0  0.31817886841E+02 -0.10275859615E+02  0.23134284868E+02  0.50528851581E+02  0.29999974864E+02 0.  0.
        -12    1    1    2    0    0 -0.31817886841E+02  0.10275859615E+02 -0.23134284868E+02  0.40659148419E+02  0.00000000000E+00 0.  1.
         11    1    3    3    0    0  0.21367645018E+02 -0.39101815424E+01  0.20687708435E+02  0.29997450790E+02  0.51100000000E-03 0. -1.
        -11    1    3    3    0    0 -0.30735409394E+01 -0.11719730735E+01  0.48361940683E+01  0.58488416049E+01  0.51100000000E-03 0.  1.
         12    1    3    3    0    0  0.13523782762E+02 -0.51937049995E+01 -0.23896176354E+01  0.14682559186E+02  0.00000000000E+00 0. -1.
</event>
<event>
 7    1  0.5373252E-013  0.5052886E+02  0.7816164E-02  0.1300439E+00
        -11   -1    0    0    0    0  0.00000000000E+00  0.00000000000E+00  0.45593999997E+02  0.45594000000E+02  0.51100000000E-03 0.  1.
         11   -1    0    0    0    0 -0.00000000000E+00 -0.00000000000E+00 -0.45593999997E+02  0.45594000000E+02  0.51100000000E-03 0. -1.
    9900012    2    1    2    0    0 -0.34387264347E+01  0.19230847822E+02 -0.35658311698E+02  0.50528861536E+02  0.30000005125E+02 0.  0.
        -12    1    1    2    0    0  0.34387264347E+01 -0.19230847822E+02  0.35658311698E+02  0.40659138464E+02  0.00000000000E+00 0.  1.
         11    1    3    3    0    0 -0.69947392117E+01  0.23155031713E+01 -0.19725685413E+02  0.21056842044E+02  0.51100000000E-03 0. -1.
        -11    1    3    3    0    0 -0.54272538274E+01  0.57209401829E+01  0.18752386030E+00  0.78879278738E+01  0.51100000000E-03 0.  1.
        -12    1    3    3    0    0  0.89832666043E+01  0.11194404468E+02 -0.16120150146E+02  0.21584091619E+02  0.00000000000E+00 0.  1.
</event>
<event>
 7    1  0.5373252E-013  0.5052886E+02  0.7816164E-02  0.1300439E+00
        -11   -1    0    0    0    0  0.00000000000E+00  0.00000000000E+00  0.45593999997E+02  0.45594000000E+02  0.51100000000E-03 0. -1.
         11   -1    0    0    0    0 -0.00000000000E+00 -0.00000000000E+00 -0.45593999997E+02  0.45594000000E+02  0.51100000000E-03 0.  1.
    9900012    2    1    2    0    0  0.26345741558E+02  0.30054694824E+02  0.74687918592E+01  0.50528860425E+02  0.30000001748E+02 0.  0.
        -12    1    1    2    0    0 -0.26345741558E+02 -0.30054694824E+02 -0.74687918592E+01  0.40659139575E+02  0.00000000000E+00 0.  1.
         11    1    3    3    0    0  0.80214626515E+01  0.55240080542E+01  0.11737063959E+02  0.15251793294E+02  0.51100000000E-03 0. -1.
        -11    1    3    3    0    0  0.18522506828E+02  0.14621858152E+02  0.17818354090E+01  0.23665522025E+02  0.51100000000E-03 0.  1.
        -12    1    3    3    0    0 -0.19822792223E+00  0.99088286174E+01 -0.60501075088E+01  0.11611545106E+02  0.00000000000E+00 0.  1.
</event>
<event>
 7    1  0.5373252E-013  0.5052887E+02  0.7816164E-02  0.1300439E+00
        -11   -1    0    0    0    0  0.00000000000E+00  0.00000000000E+00  0.45593999997E+02  0.45594000000E+02  0.51100000000E-03 0. -1.
         11   -1    0    0    0    0 -0.00000000000E+00 -0.00000000000E+00 -0.45593999997E+02  0.45594000000E+02  0.51100000000E-03 0.  1.
    9900012    2    1    2    0    0 -0.87270473973E+01  0.39643655049E+02 -0.23203138374E+01  0.50528873125E+02  0.30000040351E+02 0.  0.
        -12    1    1    2    0    0  0.87270473973E+01 -0.39643655049E+02  0.23203138374E+01  0.40659126875E+02  0.00000000000E+00 0.  1.
         11    1    3    3    0    0 -0.24342558994E+01  0.22608780153E+02 -0.49370135204E+01  0.23269220970E+02  0.51100000000E-03 0. -1.
        -11    1    3    3    0    0 -0.12481305223E+02  0.16683976104E+02  0.10304337858E+01  0.20861443688E+02  0.51100000000E-03 0.  1.
        -12    1    3    3    0    0  0.61885137248E+01  0.35089879182E+00  0.15862658973E+01  0.63982084665E+01  0.00000000000E+00 0.  1.
</event>
<event>
 7    1  0.5373252E-013  0.5052885E+02  0.7816164E-02  0.1300439E+00
        -11   -1    0    0    0    0  0.00000000000E+00  0.00000000000E+00  0.45593999997E+02  0.45594000000E+02  0.51100000000E-03 0.  1.
         11   -1    0    0    0    0 -0.00000000000E+00 -0.00000000000E+00 -0.45593999997E+02  0.45594000000E+02  0.51100000000E-03 0. -1.
    9900012    2    1    2    0    0  0.22238208116E+02  0.21106235799E+02 -0.26704962735E+02  0.50528854357E+02  0.29999983302E+02 0.  0.
        -12    1    1    2    0    0 -0.22238208116E+02 -0.21106235799E+02  0.26704962735E+02  0.40659145643E+02  0.00000000000E+00 0.  1.
         11    1    3    3    0    0  0.64337254929E+01  0.99708351448E+01 -0.81905983878E+01  0.14418608789E+02  0.51100000000E-03 0. -1.
        -11    1    3    3    0    0 -0.35448511483E+01 -0.14012091719E+01 -0.11340995018E+02  0.11964427486E+02  0.51100000000E-03 0.  1.
         12    1    3    3    0    0  0.19349333771E+02  0.12536609826E+02 -0.71733693293E+01  0.24145818082E+02  0.00000000000E+00 0. -1.
</event>
<event>
 7    1  0.5373252E-013  0.5052885E+02  0.7816164E-02  0.1300439E+00
        -11   -1    0    0    0    0  0.00000000000E+00  0.00000000000E+00  0.45593999997E+02  0.45594000000E+02  0.51100000000E-03 0.  1.
         11   -1    0    0    0    0 -0.00000000000E+00 -0.00000000000E+00 -0.45593999997E+02  0.45594000000E+02  0.51100000000E-03 0. -1.
    9900012    2    1    2    0    0  0.24462210509E+02 -0.66721792478E+01 -0.31784405719E+02  0.50528853848E+02  0.29999981756E+02 0.  0.
        -12    1    1    2    0    0 -0.24462210509E+02  0.66721792478E+01  0.31784405719E+02  0.40659146152E+02  0.00000000000E+00 0.  1.
         11    1    3    3    0    0  0.16841344888E+02 -0.53413543136E+01 -0.12874473531E+02  0.21861222119E+02  0.51100000000E-03 0. -1.
        -11    1    3    3    0    0  0.10793009242E+02  0.68373324238E+01 -0.10845643154E+02  0.16759061395E+02  0.51100000000E-03 0.  1.
        -12    1    3    3    0    0 -0.31721436213E+01 -0.81681573581E+01 -0.80642890337E+01  0.11908570334E+02  0.00000000000E+00 0.  1.
</event>
<event>
 7    1  0.5373252E-013  0.5052885E+02  0.7816164E-02  0.1300439E+00
        -11   -1    0    0    0    0  0.00000000000E+00  0.00000000000E+00  0.45593999997E+02  0.45594000000E+02  0.51100000000E-03 0.  1.
         11   -1    0    0    0    0 -0.00000000000E+00 -0.00000000000E+00 -0.45593999997E+02  0.45594000000E+02  0.51100000000E-03 0. -1.
    9900012    2    1    2    0    0  0.90705318984E+01  0.39005980190E+02 -0.70302999094E+01  0.50528853965E+02  0.29999982111E+02 0.  0.
        -12    1    1    2    0    0 -0.90705318984E+01 -0.39005980190E+02  0.70302999094E+01  0.40659146035E+02  0.00000000000E+00 0.  1.
         11    1    3    3    0    0 -0.68568669221E+01  0.89076829602E+00  0.16850666994E+00  0.69165372047E+01  0.51100000000E-03 0. -1.
        -11    1    3    3    0    0 -0.58903864590E+00  0.11440886387E+02 -0.37270296134E+01  0.12047057643E+02  0.51100000000E-03 0.  1.
         12    1    3    3    0    0  0.16516437466E+02  0.26674325507E+02 -0.34717769660E+01  0.31565259117E+02  0.00000000000E+00 0. -1.
</event>
<event>
 7    1  0.5373252E-013  0.5052886E+02  0.7816164E-02  0.1300439E+00
        -11   -1    0    0    0    0  0.00000000000E+00  0.00000000000E+00  0.45593999997E+02  0.45594000000E+02  0.51100000000E-03 0. -1.
         11   -1    0    0    0    0 -0.00000000000E+00 -0.00000000000E+00 -0.45593999997E+02  0.45594000000E+02  0.51100000000E-03 0.  1.
    9900012    2    1    2    0    0 -0.38821523238E+02 -0.49386966407E+01  0.11030164887E+02  0.50528856767E+02  0.29999990629E+02 0.  0.
        -12    1    1    2    0    0  0.38821523238E+02  0.49386966407E+01 -0.11030164887E+02  0.40659143233E+02  0.00000000000E+00 0.  1.
         11    1    3    3    0    0 -0.66271571260E+01 -0.82413103411E+01  0.84487255543E+01  0.13535855033E+02  0.51100000000E-03 0. -1.
        -11    1    3    3    0    0 -0.17950144884E+02  0.28961364946E+01  0.10185765203E+02  0.20840948179E+02  0.51100000000E-03 0.  1.
        -12    1    3    3    0    0 -0.14244221228E+02  0.40647720575E+00 -0.76043258710E+01  0.16152053555E+02  0.00000000000E+00 0.  1.
</event>
<event>
 7    1  0.5373252E-013  0.5052886E+02  0.7816164E-02  0.1300439E+00
        -11   -1    0    0    0    0  0.00000000000E+00  0.00000000000E+00  0.45593999997E+02  0.45594000000E+02  0.51100000000E-03 0. -1.
         11   -1    0    0    0    0 -0.00000000000E+00 -0.00000000000E+00 -0.45593999997E+02  0.45594000000E+02  0.51100000000E-03 0.  1.
    9900012    2    1    2    0    0  0.18572139656E+02  0.39551088844E+01  0.35952720946E+02  0.50528863251E+02  0.30000010339E+02 0.  0.
        -12    1    1    2    0    0 -0.18572139656E+02 -0.39551088844E+01 -0.35952720946E+02  0.40659136749E+02  0.00000000000E+00 0.  1.
         11    1    3    3    0    0  0.87996768254E+01 -0.85154736864E+00  0.36079958422E+02  0.37147312758E+02  0.51100000000E-03 0. -1.
        -11    1    3    3    0    0  0.17747769458E+01 -0.21363005231E+01 -0.26294900120E+00  0.27897590524E+01  0.51100000000E-03 0.  1.
        -12    1    3    3    0    0  0.79976858849E+01  0.69429567762E+01  0.13571152569E+00  0.10591791441E+02  0.00000000000E+00 0.  1.
</event>
<event>
 7    1  0.5373252E-013  0.5052887E+02  0.7816164E-02  0.1300439E+00
        -11   -1    0    0    0    0  0.00000000000E+00  0.00000000000E+00  0.45593999997E+02  0.45594000000E+02  0.51100000000E-03 0. -1.
         11   -1    0    0    0    0 -0.00000000000E+00 -0.00000000000E+00 -0.45593999997E+02  0.45594000000E+02  0.51100000000E-03 0.  1.
    9900012    2    1    2    0    0 -0.26792938471E+02 -0.29239444973E+02 -0.89642630921E+01  0.50528871787E+02  0.30000036284E+02 0.  0.
        -12    1    1    2    0    0  0.26792938471E+02  0.29239444973E+02  0.89642630921E+01  0.40659128213E+02  0.00000000000E+00 0.  1.
         11    1    3    3    0    0 -0.11040880989E+02 -0.21974268826E+02 -0.42370070073E+01  0.24954393843E+02  0.51100000000E-03 0. -1.
        -11    1    3    3    0    0  0.36712188624E+01  0.10330122310E+01  0.41380146972E+00  0.38361691989E+01  0.51100000000E-03 0.  1.
         12    1    3    3    0    0 -0.19423276344E+02 -0.82981883779E+01 -0.51410575545E+01  0.21738308745E+02  0.00000000000E+00 0. -1.
</event>
<event>
 7    1  0.5373252E-013  0.5052886E+02  0.7816164E-02  0.1300439E+00
        -11   -1    0    0    0    0  0.00000000000E+00  0.00000000000E+00  0.45593999997E+02  0.45594000000E+02  0.51100000000E-03 0. -1.
         11   -1    0    0    0    0 -0.00000000000E+00 -0.00000000000E+00 -0.45593999997E+02  0.45594000000E+02  0.51100000000E-03 0.  1.
    9900012    2    1    2    0    0  0.34285886437E+01 -0.39827634805E+02  0.74276538001E+01  0.50528858897E+02  0.29999997103E+02 0.  0.
        -12    1    1    2    0    0 -0.34285886437E+01  0.39827634805E+02 -0.74276538001E+01  0.40659141103E+02  0.00000000000E+00 0.  1.
         11    1    3    3    0    0  0.85070368952E+01 -0.71798874310E+01  0.10172137023E+02  0.15079550130E+02  0.51100000000E-03 0. -1.
        -11    1    3    3    0    0 -0.49484578739E+01 -0.15526766667E+02  0.44265616530E+01  0.16886745299E+02  0.51100000000E-03 0.  1.
        -12    1    3    3    0    0 -0.12999037762E+00 -0.17120980707E+02 -0.71710448760E+01  0.18562563467E+02  0.00000000000E+00 0.  1.
</event>
<event>
 7    1  0.5373252E-013  0.5052889E+02  0.7816164E-02  0.1300439E+00
        -11   -1    0    0    0    0  0.00000000000E+00  0.00000000000E+00  0.45593999997E+02  0.45594000000E+02  0.51100000000E-03 0.  1.
         11   -1    0    0    0    0 -0.00000000000E+00 -0.00000000000E+00 -0.45593999997E+02  0.45594000000E+02  0.51100000000E-03 0. -1.
    9900012    2    1    2    0    0 -0.15637907715E+02 -0.32539272924E+01 -0.37390255717E+02  0.50528887576E+02  0.30000084277E+02 0.  0.
        -12    1    1    2    0    0  0.15637907715E+02  0.32539272924E+01  0.37390255717E+02  0.40659112424E+02  0.00000000000E+00 0.  1.
         11    1    3    3    0    0 -0.68930375276E+01 -0.89908921993E+01 -0.52099602581E+01  0.12469715115E+02  0.51100000000E-03 0.  1.
        -11    1    3    3    0    0 -0.12375641881E+02  0.57691855777E+01 -0.14137810527E+02  0.19654966318E+02  0.51100000000E-03 0. -1.
         12    1    3    3    0    0  0.36307716939E+01 -0.32220670721E-01 -0.18042484932E+02  0.18404206144E+02  0.00000000000E+00 0. -1.
</event>
<event>
 7    1  0.5373252E-013  0.5052888E+02  0.7816164E-02  0.1300439E+00
        -11   -1    0    0    0    0  0.00000000000E+00  0.00000000000E+00  0.45593999997E+02  0.45594000000E+02  0.51100000000E-03 0.  1.
         11   -1    0    0    0    0 -0.00000000000E+00 -0.00000000000E+00 -0.45593999997E+02  0.45594000000E+02  0.51100000000E-03 0. -1.
    9900012    2    1    2    0    0  0.32418249299E+02  0.92367145739E+01 -0.22735536298E+02  0.50528875630E+02  0.30000047966E+02 0.  0.
        -12    1    1    2    0    0 -0.32418249299E+02 -0.92367145739E+01  0.22735536298E+02  0.40659124370E+02  0.00000000000E+00 0.  1.
         11    1    3    3    0    0  0.18662119977E+02  0.15177857087E+02 -0.75485782416E+01  0.25211566820E+02  0.51100000000E-03 0. -1.
        -11    1    3    3    0    0 -0.10787470138E+01  0.62167564310E+00  0.15640233026E+01  0.19990860104E+01  0.51100000000E-03 0.  1.
         12    1    3    3    0    0  0.14834876336E+02 -0.65628181558E+01 -0.16750981359E+02  0.23318222800E+02  0.00000000000E+00 0. -1.
</event>
<event>
 7    1  0.5373252E-013  0.5052886E+02  0.7816164E-02  0.1300439E+00
        -11   -1    0    0    0    0  0.00000000000E+00  0.00000000000E+00  0.45593999997E+02  0.45594000000E+02  0.51100000000E-03 0. -1.
         11   -1    0    0    0    0 -0.00000000000E+00 -0.00000000000E+00 -0.45593999997E+02  0.45594000000E+02  0.51100000000E-03 0.  1.
    9900012    2    1    2    0    0  0.37910865843E+02  0.49365007981E+01  0.13840628899E+02  0.50528858378E+02  0.29999995527E+02 0.  0.
        -12    1    1    2    0    0 -0.37910865843E+02 -0.49365007981E+01 -0.13840628899E+02  0.40659141622E+02  0.00000000000E+00 0.  1.
         11    1    3    3    0    0 -0.87912214593E-01  0.66498296290E+00 -0.35029608772E+01  0.35666042767E+01  0.51100000000E-03 0. -1.
        -11    1    3    3    0    0  0.35122756522E+02  0.28284199107E+01  0.67323237714E+01  0.35873836824E+02  0.51100000000E-03 0.  1.
         12    1    3    3    0    0  0.28760215359E+01  0.14430979245E+01  0.10611266005E+02  0.11088417277E+02  0.00000000000E+00 0. -1.
</event>
<event>
 7    1  0.5373252E-013  0.5052886E+02  0.7816164E-02  0.1300439E+00
        -11   -1    0    0    0    0  0.00000000000E+00  0.00000000000E+00  0.45593999997E+02  0.45594000000E+02  0.51100000000E-03 0.  1.
         11   -1    0    0    0    0 -0.00000000000E+00 -0.00000000000E+00 -0.45593999997E+02  0.45594000000E+02  0.51100000000E-03 0. -1.
    9900012    2    1    2    0    0 -0.31525413759E+02 -0.16055004964E+02 -0.20038725725E+02  0.50528862949E+02  0.30000009418E+02 0.  0.
        -12    1    1    2    0    0  0.31525413759E+02  0.16055004964E+02  0.20038725725E+02  0.40659137051E+02  0.00000000000E+00 0.  1.
         11    1    3    3    0    0 -0.20495282423E+02 -0.77762565909E+01 -0.22959486808E+01  0.22040829131E+02  0.51100000000E-03 0. -1.
        -11    1    3    3    0    0 -0.14870490856E+02 -0.10159907676E+02 -0.14188970857E+02  0.22927758646E+02  0.51100000000E-03 0.  1.
         12    1    3    3    0    0  0.38403595204E+01  0.18811593023E+01 -0.35538061873E+01  0.55602751716E+01  0.00000000000E+00 0. -1.
</event>
<event>
 7    1  0.5373252E-013  0.5052886E+02  0.7816164E-02  0.1300439E+00
        -11   -1    0    0    0    0  0.00000000000E+00  0.00000000000E+00  0.45593999997E+02  0.45594000000E+02  0.51100000000E-03 0. -1.
         11   -1    0    0    0    0 -0.00000000000E+00 -0.00000000000E+00 -0.45593999997E+02  0.45594000000E+02  0.51100000000E-03 0.  1.
    9900012    2    1    2    0    0 -0.24423447365E+02 -0.32005033109E+02  0.56867295818E+01  0.50528858115E+02  0.29999994725E+02 0.  0.
        -12    1    1    2    0    0  0.24423447365E+02  0.32005033109E+02 -0.56867295818E+01  0.40659141885E+02  0.00000000000E+00 0.  1.
         11    1    3    3    0    0 -0.91857721494E+00 -0.15528597543E+02  0.10322284943E+02  0.18668976739E+02  0.51100000000E-03 0. -1.
        -11    1    3    3    0    0 -0.35153192659E+01 -0.98199229005E+01 -0.20955802054E+01  0.10638600095E+02  0.51100000000E-03 0.  1.
         12    1    3    3    0    0 -0.19989550884E+02 -0.66565126654E+01 -0.25399751561E+01  0.21221281281E+02  0.00000000000E+00 0. -1.
</event>
<event>
 7    1  0.5373252E-013  0.5052886E+02  0.7816164E-02  0.1300439E+00
        -11   -1    0    0    0    0  0.00000000000E+00  0.00000000000E+00  0.45593999997E+02  0.45594000000E+02  0.51100000000E-03 0. -1.
         11   -1    0    0    0    0 -0.00000000000E+00 -0.00000000000E+00 -0.45593999997E+02  0.45594000000E+02  0.51100000000E-03 0.  1.
    9900012    2    1    2    0    0  0.27072390129E+02 -0.83010493638E+01  0.29177795851E+02  0.50528862054E+02  0.30000006698E+02 0.  0.
        -12    1    1    2    0    0 -0.27072390129E+02  0.83010493638E+01 -0.29177795851E+02  0.40659137946E+02  0.00000000000E+00 0.  1.
         11    1    3    3    0    0  0.50512783874E+00 -0.24869820343E+00  0.10730671122E+02  0.10745431956E+02  0.51100000000E-03 0. -1.
        -11    1    3    3    0    0  0.78228938500E+01  0.75076491661E+01  0.47699110337E+01  0.11845442825E+02  0.51100000000E-03 0.  1.
        -12    1    3    3    0    0  0.18744368440E+02 -0.15560000326E+02  0.13677213695E+02  0.27937987272E+02  0.00000000000E+00 0.  1.
</event>
<event>
 7    1  0.5373252E-013  0.5052887E+02  0.7816164E-02  0.1300439E+00
        -11   -1    0    0    0    0  0.00000000000E+00  0.00000000000E+00  0.45593999997E+02  0.45594000000E+02  0.51100000000E-03 0.  1.
         11   -1    0    0    0    0 -0.00000000000E+00 -0.00000000000E+00 -0.45593999997E+02  0.45594000000E+02  0.51100000000E-03 0. -1.
    9900012    2    1    2    0    0  0.17134623180E+01 -0.22972318991E+02 -0.33503752169E+02  0.50528870615E+02  0.30000032722E+02 0.  0.
        -12    1    1    2    0    0 -0.17134623180E+01  0.22972318991E+02  0.33503752169E+02  0.40659129385E+02  0.00000000000E+00 0.  1.
         11    1    3    3    0    0 -0.21993968021E+01 -0.21425793757E+02 -0.65114984744E+01  0.22501146572E+02  0.51100000000E-03 0. -1.
        -11    1    3    3    0    0  0.18683610836E+01 -0.38930105081E+01 -0.18051091520E+02  0.18560393564E+02  0.51100000000E-03 0.  1.
        -12    1    3    3    0    0  0.20444980365E+01  0.23464852737E+01 -0.89411621747E+01  0.94673304788E+01  0.00000000000E+00 0.  1.
</event>
<event>
 7    1  0.5373252E-013  0.5052886E+02  0.7816164E-02  0.1300439E+00
        -11   -1    0    0    0    0  0.00000000000E+00  0.00000000000E+00  0.45593999997E+02  0.45594000000E+02  0.51100000000E-03 0.  1.
         11   -1    0    0    0    0 -0.00000000000E+00 -0.00000000000E+00 -0.45593999997E+02  0.45594000000E+02  0.51100000000E-03 0. -1.
    9900012    2    1    2    0    0 -0.14229145303E+02 -0.17405761889E+02 -0.33878263648E+02  0.50528857476E+02  0.29999992785E+02 0.  0.
        -12    1    1    2    0    0  0.14229145303E+02  0.17405761889E+02  0.33878263648E+02  0.40659142524E+02  0.00000000000E+00 0.  1.
         11    1    3    3    0    0 -0.53176445337E+00  0.23384780724E+01 -0.12954428539E+02  0.13174538784E+02  0.51100000000E-03 0. -1.
        -11    1    3    3    0    0 -0.13283066675E+02 -0.26333744774E+01 -0.67453319928E+01  0.15128583059E+02  0.51100000000E-03 0.  1.
        -12    1    3    3    0    0 -0.41431417497E+00 -0.17110865484E+02 -0.14178503116E+02  0.22225735633E+02  0.00000000000E+00 0.  1.
</event>
<event>
 7    1  0.5373252E-013  0.5052884E+02  0.7816164E-02  0.1300439E+00
        -11   -1    0    0    0    0  0.00000000000E+00  0.00000000000E+00  0.45593999997E+02  0.45594000000E+02  0.51100000000E-03 0.  1.
         11   -1    0    0    0    0 -0.00000000000E+00 -0.00000000000E+00 -0.45593999997E+02  0.45594000000E+02  0.51100000000E-03 0. -1.
    9900012    2    1    2    0    0  0.39781558660E+02 -0.30438976830E+01 -0.78312995968E+01  0.50528843886E+02  0.29999951475E+02 0.  0.
        -12    1    1    2    0    0 -0.39781558660E+02  0.30438976830E+01  0.78312995968E+01  0.40659156114E+02  0.00000000000E+00 0.  1.
         11    1    3    3    0    0  0.30219550290E+02 -0.27465939125E+01  0.39710220409E+01  0.30602843237E+02  0.51100000000E-03 0. -1.
        -11    1    3    3    0    0  0.34454532272E+01 -0.16258087612E+01  0.23326651889E+01  0.44671835885E+01  0.51100000000E-03 0.  1.
        -12    1    3    3    0    0  0.61165551431E+01  0.13285049907E+01 -0.14134986827E+02  0.15458817061E+02  0.00000000000E+00 0.  1.
</event>
<event>
 7    1  0.5373252E-013  0.5052886E+02  0.7816164E-02  0.1300439E+00
        -11   -1    0    0    0    0  0.00000000000E+00  0.00000000000E+00  0.45593999997E+02  0.45594000000E+02  0.51100000000E-03 0.  1.
         11   -1    0    0    0    0 -0.00000000000E+00 -0.00000000000E+00 -0.45593999997E+02  0.45594000000E+02  0.51100000000E-03 0. -1.
    9900012    2    1    2    0    0 -0.13721854542E+02  0.35431273892E+02 -0.14474157742E+02  0.50528859526E+02  0.29999999016E+02 0.  0.
        -12    1    1    2    0    0  0.13721854542E+02 -0.35431273892E+02  0.14474157742E+02  0.40659140474E+02  0.00000000000E+00 0.  1.
         11    1    3    3    0    0  0.39747444185E+01  0.42969385812E+01 -0.38989910943E+01  0.70330936420E+01  0.51100000000E-03 0. -1.
        -11    1    3    3    0    0 -0.92658534531E+01  0.32106641297E+02 -0.10433834961E+02  0.35007961493E+02  0.51100000000E-03 0.  1.
        -12    1    3    3    0    0 -0.84307455076E+01 -0.97230598627E+00 -0.14133168679E+00  0.84878043916E+01  0.00000000000E+00 0.  1.
</event>
<event>
 7    1  0.5373252E-013  0.5052885E+02  0.7816164E-02  0.1300439E+00
        -11   -1    0    0    0    0  0.00000000000E+00  0.00000000000E+00  0.45593999997E+02  0.45594000000E+02  0.51100000000E-03 0.  1.
         11   -1    0    0    0    0 -0.00000000000E+00 -0.00000000000E+00 -0.45593999997E+02  0.45594000000E+02  0.51100000000E-03 0. -1.
    9900012    2    1    2    0    0 -0.30060573565E+02  0.84936632735E+00 -0.27364333113E+02  0.50528853022E+02  0.29999979246E+02 0.  0.
        -12    1    1    2    0    0  0.30060573565E+02 -0.84936632735E+00  0.27364333113E+02  0.40659146978E+02  0.00000000000E+00 0.  1.
         11    1    3    3    0    0 -0.17959015843E+02  0.96812669992E+01 -0.53247309749E+01  0.21085680947E+02  0.51100000000E-03 0. -1.
        -11    1    3    3    0    0  0.13799958634E+01 -0.98583668688E+00  0.72724452147E+00  0.18453041514E+01  0.51100000000E-03 0.  1.
        -12    1    3    3    0    0 -0.13481553586E+02 -0.78460639850E+01 -0.22766846660E+02  0.27597867924E+02  0.00000000000E+00 0.  1.
</event>
<event>
 7    1  0.5373252E-013  0.5052885E+02  0.7816164E-02  0.1300439E+00
        -11   -1    0    0    0    0  0.00000000000E+00  0.00000000000E+00  0.45593999997E+02  0.45594000000E+02  0.51100000000E-03 0.  1.
         11   -1    0    0    0    0 -0.00000000000E+00 -0.00000000000E+00 -0.45593999997E+02  0.45594000000E+02  0.51100000000E-03 0. -1.
    9900012    2    1    2    0    0 -0.88200984755E+01 -0.56066540629E+01 -0.39292970946E+02  0.50528852534E+02  0.29999977764E+02 0.  0.
        -12    1    1    2    0    0  0.88200984755E+01  0.56066540629E+01  0.39292970946E+02  0.40659147466E+02  0.00000000000E+00 0.  1.
         11    1    3    3    0    0 -0.63545170296E+01 -0.12919318164E+02 -0.29635480603E+02  0.32947691563E+02  0.51100000000E-03 0. -1.
        -11    1    3    3    0    0 -0.32558276410E+01 -0.22195872553E+01  0.67000521193E-01  0.39409986733E+01  0.51100000000E-03 0.  1.
         12    1    3    3    0    0  0.79024619506E+00  0.95322513560E+01 -0.97244908634E+01  0.13640162298E+02  0.00000000000E+00 0. -1.
</event>
<event>
 7    1  0.5373252E-013  0.5052885E+02  0.7816164E-02  0.1300439E+00
        -11   -1    0    0    0    0  0.00000000000E+00  0.00000000000E+00  0.45593999997E+02  0.45594000000E+02  0.51100000000E-03 0.  1.
         11   -1    0    0    0    0 -0.00000000000E+00 -0.00000000000E+00 -0.45593999997E+02  0.45594000000E+02  0.51100000000E-03 0. -1.
    9900012    2    1    2    0    0 -0.23786090039E+02 -0.19385080245E+02 -0.26675966840E+02  0.50528848234E+02  0.29999964693E+02 0.  0.
        -12    1    1    2    0    0  0.23786090039E+02  0.19385080245E+02  0.26675966840E+02  0.40659151766E+02  0.00000000000E+00 0.  1.
         11    1    3    3    0    0 -0.12685699511E+02  0.18040368664E+01 -0.64720813982E+01  0.14355116126E+02  0.51100000000E-03 0. -1.
        -11    1    3    3    0    0 -0.33045046800E+01 -0.71290138194E+01 -0.18385785209E+02  0.19994491422E+02  0.51100000000E-03 0.  1.
        -12    1    3    3    0    0 -0.77958858477E+01 -0.14060103292E+02 -0.18181002335E+01  0.16179240687E+02  0.00000000000E+00 0.  1.
</event>
<event>
 7    1  0.8560077E-013  0.5052885E+02  0.7816164E-02  0.1300439E+00
        -11   -1    0    0    0    0  0.00000000000E+00  0.00000000000E+00  0.45593999997E+02  0.45594000000E+02  0.51100000000E-03 0. -1.
         11   -1    0    0    0    0 -0.00000000000E+00 -0.00000000000E+00 -0.45593999997E+02  0.45594000000E+02  0.51100000000E-03 0.  1.
    9900012    2    1    2    0    0  0.28603921520E+02  0.14871790069E+02  0.24775236080E+02  0.50528846185E+02  0.29999958463E+02 0.  0.
        -12    1    1    2    0    0 -0.28603921520E+02 -0.14871790069E+02 -0.24775236080E+02  0.40659153815E+02  0.00000000000E+00 0.  1.
         11    1    3    3    0    0  0.42603223117E+01 -0.69279406862E+00  0.10666879192E+02  0.11507068340E+02  0.51100000000E-03 0. -1.
        -11    1    3    3    0    0 -0.40729623144E+01  0.36998051556E+01  0.31227688139E+01  0.63268685406E+01  0.51100000000E-03 0.  1.
         12    1    3    3    0    0  0.28416561523E+02  0.11864778982E+02  0.10985588073E+02  0.32694909304E+02  0.00000000000E+00 0. -1.
</event>
<event>
 7    1  0.5373252E-013  0.5052887E+02  0.7816164E-02  0.1300439E+00
        -11   -1    0    0    0    0  0.00000000000E+00  0.00000000000E+00  0.45593999997E+02  0.45594000000E+02  0.51100000000E-03 0.  1.
         11   -1    0    0    0    0 -0.00000000000E+00 -0.00000000000E+00 -0.45593999997E+02  0.45594000000E+02  0.51100000000E-03 0. -1.
    9900012    2    1    2    0    0  0.25961459492E+02 -0.28663621304E+02 -0.12552456650E+02  0.50528871465E+02  0.30000035305E+02 0.  0.
        -12    1    1    2    0    0 -0.25961459492E+02  0.28663621304E+02  0.12552456650E+02  0.40659128535E+02  0.00000000000E+00 0.  1.
         11    1    3    3    0    0  0.14832845827E+02 -0.11231436409E+02 -0.91320288972E+01  0.20725646701E+02  0.51100000000E-03 0. -1.
        -11    1    3    3    0    0  0.13968960897E+02 -0.10359807770E+02  0.53389273331E+01  0.18192350890E+02  0.51100000000E-03 0.  1.
        -12    1    3    3    0    0 -0.28403472311E+01 -0.70723771252E+01 -0.87593550864E+01  0.11610873874E+02  0.00000000000E+00 0.  1.
</event>
<event>
 7    1  0.5373252E-013  0.5052886E+02  0.7816164E-02  0.1300439E+00
        -11   -1    0    0    0    0  0.00000000000E+00  0.00000000000E+00  0.45593999997E+02  0.45594000000E+02  0.51100000000E-03 0.  1.
         11   -1    0    0    0    0 -0.00000000000E+00 -0.00000000000E+00 -0.45593999997E+02  0.45594000000E+02  0.51100000000E-03 0. -1.
    9900012    2    1    2    0    0  0.29116982307E+02  0.22403992243E+02 -0.17419189221E+02  0.50528859819E+02  0.29999999907E+02 0.  0.
        -12    1    1    2    0    0 -0.29116982307E+02 -0.22403992243E+02  0.17419189221E+02  0.40659140181E+02  0.00000000000E+00 0.  1.
         11    1    3    3    0    0  0.12476919730E+02  0.89310374794E+01  0.18122585054E+01  0.15450606382E+02  0.51100000000E-03 0. -1.
        -11    1    3    3    0    0 -0.26936682762E+01  0.16562845734E+01  0.22296678580E+01  0.38691790328E+01  0.51100000000E-03 0.  1.
         12    1    3    3    0    0  0.19333730853E+02  0.11816670190E+02 -0.21461115584E+02  0.31209074405E+02  0.00000000000E+00 0. -1.
</event>
<event>
 7    1  0.5373252E-013  0.5052886E+02  0.7816164E-02  0.1300439E+00
        -11   -1    0    0    0    0  0.00000000000E+00  0.00000000000E+00  0.45593999997E+02  0.45594000000E+02  0.51100000000E-03 0. -1.
         11   -1    0    0    0    0 -0.00000000000E+00 -0.00000000000E+00 -0.45593999997E+02  0.45594000000E+02  0.51100000000E-03 0.  1.
    9900012    2    1    2    0    0 -0.78409263408E+01 -0.35190778628E+02  0.18796142114E+02  0.50528856075E+02  0.29999988526E+02 0.  0.
        -12    1    1    2    0    0  0.78409263408E+01  0.35190778628E+02 -0.18796142114E+02  0.40659143925E+02  0.00000000000E+00 0.  1.
         11    1    3    3    0    0 -0.41081819161E+01  0.55661538390E+00 -0.29170033344E+01  0.50691111702E+01  0.51100000000E-03 0. -1.
        -11    1    3    3    0    0  0.46837400161E+01 -0.46351795596E+01  0.81781247486E+01  0.10502572768E+02  0.51100000000E-03 0.  1.
         12    1    3    3    0    0 -0.84164844408E+01 -0.31112214452E+02  0.13535020700E+02  0.34957172137E+02  0.00000000000E+00 0. -1.
</event>
<event>
 7    1  0.5373252E-013  0.5052885E+02  0.7816164E-02  0.1300439E+00
        -11   -1    0    0    0    0  0.00000000000E+00  0.00000000000E+00  0.45593999997E+02  0.45594000000E+02  0.51100000000E-03 0. -1.
         11   -1    0    0    0    0 -0.00000000000E+00 -0.00000000000E+00 -0.45593999997E+02  0.45594000000E+02  0.51100000000E-03 0.  1.
    9900012    2    1    2    0    0 -0.26991751216E+01  0.86762019156E+00  0.40560180394E+02  0.50528849188E+02  0.29999967593E+02 0.  0.
        -12    1    1    2    0    0  0.26991751216E+01 -0.86762019156E+00 -0.40560180394E+02  0.40659150812E+02  0.00000000000E+00 0.  1.
         11    1    3    3    0    0 -0.16667480199E+01 -0.13304603891E+02  0.22044413156E+02  0.25802067462E+02  0.51100000000E-03 0. -1.
        -11    1    3    3    0    0  0.31923394219E+01  0.27644519094E+01  0.46848396594E+01  0.63072139840E+01  0.51100000000E-03 0.  1.
        -12    1    3    3    0    0 -0.42247665235E+01  0.11407772173E+02  0.13830927579E+02  0.18419567743E+02  0.00000000000E+00 0.  1.
</event>
<event>
 7    1  0.5373252E-013  0.5052886E+02  0.7816164E-02  0.1300439E+00
        -11   -1    0    0    0    0  0.00000000000E+00  0.00000000000E+00  0.45593999997E+02  0.45594000000E+02  0.51100000000E-03 0. -1.
         11   -1    0    0    0    0 -0.00000000000E+00 -0.00000000000E+00 -0.45593999997E+02  0.45594000000E+02  0.51100000000E-03 0.  1.
    9900012    2    1    2    0    0 -0.18345779633E+00 -0.40268236753E+02  0.56214624164E+01  0.50528863417E+02  0.30000010843E+02 0.  0.
        -12    1    1    2    0    0  0.18345779633E+00  0.40268236753E+02 -0.56214624164E+01  0.40659136583E+02  0.00000000000E+00 0.  1.
         11    1    3    3    0    0 -0.72337237055E+01 -0.17714937226E+02  0.62399135450E+01  0.20126655979E+02  0.51100000000E-03 0. -1.
        -11    1    3    3    0    0  0.30176472052E+01 -0.20727086381E+02  0.65770890893E+01  0.21953961047E+02  0.51100000000E-03 0.  1.
        -12    1    3    3    0    0  0.40326187040E+01 -0.18262131458E+01 -0.71955402178E+01  0.84482463916E+01  0.00000000000E+00 0.  1.
</event>
<event>
 7    1  0.5373252E-013  0.5052887E+02  0.7816164E-02  0.1300439E+00
        -11   -1    0    0    0    0  0.00000000000E+00  0.00000000000E+00  0.45593999997E+02  0.45594000000E+02  0.51100000000E-03 0. -1.
         11   -1    0    0    0    0 -0.00000000000E+00 -0.00000000000E+00 -0.45593999997E+02  0.45594000000E+02  0.51100000000E-03 0.  1.
    9900012    2    1    2    0    0  0.16914021465E+02 -0.29662428627E+02  0.22073092321E+02  0.50528865740E+02  0.30000017903E+02 0.  0.
        -12    1    1    2    0    0 -0.16914021465E+02  0.29662428627E+02 -0.22073092321E+02  0.40659134260E+02  0.00000000000E+00 0.  1.
         11    1    3    3    0    0 -0.15033225769E+01 -0.14422488437E+02  0.10473618270E+02  0.17887560801E+02  0.51100000000E-03 0. -1.
        -11    1    3    3    0    0  0.11091389054E+02 -0.28607944919E+01  0.13967085486E+02  0.18063292433E+02  0.51100000000E-03 0.  1.
         12    1    3    3    0    0  0.73259549880E+01 -0.12379145698E+02 -0.23676114358E+01  0.14578012506E+02  0.00000000000E+00 0. -1.
</event>
<event>
 7    1  0.5373252E-013  0.5052887E+02  0.7816164E-02  0.1300439E+00
        -11   -1    0    0    0    0  0.00000000000E+00  0.00000000000E+00  0.45593999997E+02  0.45594000000E+02  0.51100000000E-03 0. -1.
         11   -1    0    0    0    0 -0.00000000000E+00 -0.00000000000E+00 -0.45593999997E+02  0.45594000000E+02  0.51100000000E-03 0.  1.
    9900012    2    1    2    0    0  0.39185095214E+02  0.92586325967E+01 -0.56542973435E+01  0.50528867657E+02  0.30000023730E+02 0.  0.
        -12    1    1    2    0    0 -0.39185095214E+02 -0.92586325967E+01  0.56542973435E+01  0.40659132343E+02  0.00000000000E+00 0.  1.
         11    1    3    3    0    0  0.84216761105E+01  0.41009295292E+01  0.62293574587E+01  0.11249317585E+02  0.51100000000E-03 0. -1.
        -11    1    3    3    0    0  0.26527644426E+02  0.10641553858E+02 -0.41275203268E+01  0.28878971790E+02  0.51100000000E-03 0.  1.
        -12    1    3    3    0    0  0.42357746769E+01 -0.54838507908E+01 -0.77561344754E+01  0.10400578282E+02  0.00000000000E+00 0.  1.
</event>
<event>
 7    1  0.5373252E-013  0.5052886E+02  0.7816164E-02  0.1300439E+00
        -11   -1    0    0    0    0  0.00000000000E+00  0.00000000000E+00  0.45593999997E+02  0.45594000000E+02  0.51100000000E-03 0.  1.
         11   -1    0    0    0    0 -0.00000000000E+00 -0.00000000000E+00 -0.45593999997E+02  0.45594000000E+02  0.51100000000E-03 0. -1.
    9900012    2    1    2    0    0  0.31284319141E+02  0.23925880264E+02 -0.10099958823E+02  0.50528861559E+02  0.30000005194E+02 0.  0.
        -12    1    1    2    0    0 -0.31284319141E+02 -0.23925880264E+02  0.10099958823E+02  0.40659138441E+02  0.00000000000E+00 0.  1.
         11    1    3    3    0    0  0.25830951921E+02  0.11707131018E+02 -0.17882123024E+02  0.33527083349E+02  0.51100000000E-03 0. -1.
        -11    1    3    3    0    0  0.37301569927E+00  0.23791362722E+01  0.50517306731E+01  0.55963750025E+01  0.51100000000E-03 0.  1.
        -12    1    3    3    0    0  0.50803515210E+01  0.98396129744E+01  0.27304335280E+01  0.11405403207E+02  0.00000000000E+00 0.  1.
</event>
<event>
 7    1  0.5373252E-013  0.5052887E+02  0.7816164E-02  0.1300439E+00
        -11   -1    0    0    0    0  0.00000000000E+00  0.00000000000E+00  0.45593999997E+02  0.45594000000E+02  0.51100000000E-03 0.  1.
         11   -1    0    0    0    0 -0.00000000000E+00 -0.00000000000E+00 -0.45593999997E+02  0.45594000000E+02  0.51100000000E-03 0. -1.
    9900012    2    1    2    0    0 -0.10476506327E+02 -0.26727886983E+02 -0.28792847270E+02  0.50528865955E+02  0.30000018557E+02 0.  0.
        -12    1    1    2    0    0  0.10476506327E+02  0.26727886983E+02  0.28792847270E+02  0.40659134045E+02  0.00000000000E+00 0.  1.
         11    1    3    3    0    0 -0.23854618551E+01 -0.13847274210E+01 -0.14731086607E+02  0.14987088148E+02  0.51100000000E-03 0. -1.
        -11    1    3    3    0    0  0.37049862762E+01  0.85033435219E-01  0.83407776052E+00  0.37986629179E+01  0.51100000000E-03 0.  1.
        -12    1    3    3    0    0 -0.11796030748E+02 -0.25428192997E+02 -0.14895838424E+02  0.31743114889E+02  0.00000000000E+00 0.  1.
</event>
<event>
 7    1  0.5373252E-013  0.5052887E+02  0.7816164E-02  0.1300439E+00
        -11   -1    0    0    0    0  0.00000000000E+00  0.00000000000E+00  0.45593999997E+02  0.45594000000E+02  0.51100000000E-03 0.  1.
         11   -1    0    0    0    0 -0.00000000000E+00 -0.00000000000E+00 -0.45593999997E+02  0.45594000000E+02  0.51100000000E-03 0. -1.
    9900012    2    1    2    0    0  0.53144828153E+01  0.79246729102E+01 -0.39523675342E+02  0.50528867190E+02  0.30000022309E+02 0.  0.
        -12    1    1    2    0    0 -0.53144828153E+01 -0.79246729102E+01  0.39523675342E+02  0.40659132810E+02  0.00000000000E+00 0.  1.
         11    1    3    3    0    0 -0.12134862222E+01  0.87092838950E+01 -0.18084582686E+02  0.20109110024E+02  0.51100000000E-03 0. -1.
        -11    1    3    3    0    0 -0.56001487469E+01 -0.71622804322E+00  0.16048694285E+00  0.56480443445E+01  0.51100000000E-03 0.  1.
         12    1    3    3    0    0  0.12128117784E+02 -0.68382941579E-01 -0.21599579599E+02  0.24771712821E+02  0.00000000000E+00 0. -1.
</event>
<event>
 7    1  0.5373252E-013  0.5052886E+02  0.7816164E-02  0.1300439E+00
        -11   -1    0    0    0    0  0.00000000000E+00  0.00000000000E+00  0.45593999997E+02  0.45594000000E+02  0.51100000000E-03 0.  1.
         11   -1    0    0    0    0 -0.00000000000E+00 -0.00000000000E+00 -0.45593999997E+02  0.45594000000E+02  0.51100000000E-03 0. -1.
    9900012    2    1    2    0    0 -0.16220965919E+02 -0.13587032817E+02 -0.34719424865E+02  0.50528860080E+02  0.30000000699E+02 0.  0.
        -12    1    1    2    0    0  0.16220965919E+02  0.13587032817E+02  0.34719424865E+02  0.40659139920E+02  0.00000000000E+00 0.  1.
         11    1    3    3    0    0 -0.89559657228E+01  0.15236007568E+01 -0.10791127904E+02  0.14105995994E+02  0.51100000000E-03 0. -1.
        -11    1    3    3    0    0 -0.13710409180E+02 -0.98895124438E+01 -0.85359656840E+01  0.18937805751E+02  0.51100000000E-03 0.  1.
         12    1    3    3    0    0  0.64454089837E+01 -0.52211211297E+01 -0.15392331277E+02  0.17485058335E+02  0.00000000000E+00 0. -1.
</event>
<event>
 7    1  0.5373252E-013  0.5052886E+02  0.7816164E-02  0.1300439E+00
        -11   -1    0    0    0    0  0.00000000000E+00  0.00000000000E+00  0.45593999997E+02  0.45594000000E+02  0.51100000000E-03 0.  1.
         11   -1    0    0    0    0 -0.00000000000E+00 -0.00000000000E+00 -0.45593999997E+02  0.45594000000E+02  0.51100000000E-03 0. -1.
    9900012    2    1    2    0    0  0.23634339156E+02 -0.33066244339E+02  0.10987845227E+01  0.50528857984E+02  0.29999994329E+02 0.  0.
        -12    1    1    2    0    0 -0.23634339156E+02  0.33066244339E+02 -0.10987845227E+01  0.40659142016E+02  0.00000000000E+00 0.  1.
         11    1    3    3    0    0  0.18040863675E+02 -0.23582896377E+02 -0.44014355360E+00  0.29695445615E+02  0.51100000000E-03 0. -1.
        -11    1    3    3    0    0  0.23000958883E+01 -0.12990626033E+02  0.57955350605E+01  0.14409546583E+02  0.51100000000E-03 0.  1.
        -12    1    3    3    0    0  0.32933795929E+01  0.35072780717E+01 -0.42566069842E+01  0.64238657857E+01  0.00000000000E+00 0.  1.
</event>
<event>
 7    1  0.5373252E-013  0.5052888E+02  0.7816164E-02  0.1300439E+00
        -11   -1    0    0    0    0  0.00000000000E+00  0.00000000000E+00  0.45593999997E+02  0.45594000000E+02  0.51100000000E-03 0.  1.
         11   -1    0    0    0    0 -0.00000000000E+00 -0.00000000000E+00 -0.45593999997E+02  0.45594000000E+02  0.51100000000E-03 0. -1.
    9900012    2    1    2    0    0 -0.29398155099E+02  0.26999315664E+02 -0.77426889046E+01  0.50528882929E+02  0.30000070151E+02 0.  0.
        -12    1    1    2    0    0  0.29398155099E+02 -0.26999315664E+02  0.77426889046E+01  0.40659117071E+02  0.00000000000E+00 0.  1.
         11    1    3    3    0    0 -0.80527847108E+01  0.20709200883E+02 -0.53023416062E+01  0.22843668041E+02  0.51100000000E-03 0.  1.
        -11    1    3    3    0    0 -0.11363267705E+02  0.85834398015E+01 -0.76810236697E+01  0.16180155025E+02  0.51100000000E-03 0. -1.
        -12    1    3    3    0    0 -0.99821026825E+01 -0.22933250207E+01  0.52406763713E+01  0.11505059863E+02  0.00000000000E+00 0.  1.
</event>
<event>
 7    1  0.5373252E-013  0.5052885E+02  0.7816164E-02  0.1300439E+00
        -11   -1    0    0    0    0  0.00000000000E+00  0.00000000000E+00  0.45593999997E+02  0.45594000000E+02  0.51100000000E-03 0.  1.
         11   -1    0    0    0    0 -0.00000000000E+00 -0.00000000000E+00 -0.45593999997E+02  0.45594000000E+02  0.51100000000E-03 0. -1.
    9900012    2    1    2    0    0 -0.20950224862E+02 -0.33339113982E+02 -0.10136964609E+02  0.50528849808E+02  0.29999969477E+02 0.  0.
        -12    1    1    2    0    0  0.20950224862E+02  0.33339113982E+02  0.10136964609E+02  0.40659150192E+02  0.00000000000E+00 0.  1.
         11    1    3    3    0    0 -0.73439263708E+01 -0.21629469850E+02 -0.35576387457E+00  0.22844994829E+02  0.51100000000E-03 0. -1.
        -11    1    3    3    0    0  0.23434839974E+01 -0.93371613201E+00  0.34880004150E+01  0.43046358983E+01  0.51100000000E-03 0.  1.
         12    1    3    3    0    0 -0.15949782488E+02 -0.10775927999E+02 -0.13269201150E+02  0.23379219081E+02  0.00000000000E+00 0. -1.
</event>
<event>
 7    1  0.5373252E-013  0.5052886E+02  0.7816164E-02  0.1300439E+00
        -11   -1    0    0    0    0  0.00000000000E+00  0.00000000000E+00  0.45593999997E+02  0.45594000000E+02  0.51100000000E-03 0.  1.
         11   -1    0    0    0    0 -0.00000000000E+00 -0.00000000000E+00 -0.45593999997E+02  0.45594000000E+02  0.51100000000E-03 0. -1.
    9900012    2    1    2    0    0  0.34999768474E+02  0.84866862262E+01 -0.18872145754E+02  0.50528861769E+02  0.30000005834E+02 0.  0.
        -12    1    1    2    0    0 -0.34999768474E+02 -0.84866862262E+01  0.18872145754E+02  0.40659138231E+02  0.00000000000E+00 0.  1.
         11    1    3    3    0    0  0.21146353781E+02  0.11403211319E+02 -0.11775372867E+02  0.26755577233E+02  0.51100000000E-03 0. -1.
        -11    1    3    3    0    0  0.72958312327E+01 -0.10888939529E+01 -0.12878720921E+02  0.14841707996E+02  0.51100000000E-03 0.  1.
         12    1    3    3    0    0  0.65575834599E+01 -0.18276311401E+01  0.57819480348E+01  0.89315765403E+01  0.00000000000E+00 0. -1.
</event>
<event>
 7    1  0.5373252E-013  0.5052886E+02  0.7816164E-02  0.1300439E+00
        -11   -1    0    0    0    0  0.00000000000E+00  0.00000000000E+00  0.45593999997E+02  0.45594000000E+02  0.51100000000E-03 0.  1.
         11   -1    0    0    0    0 -0.00000000000E+00 -0.00000000000E+00 -0.45593999997E+02  0.45594000000E+02  0.51100000000E-03 0. -1.
    9900012    2    1    2    0    0 -0.35552388598E+02 -0.25275015178E+01 -0.19565409294E+02  0.50528857858E+02  0.29999993944E+02 0.  0.
        -12    1    1    2    0    0  0.35552388598E+02  0.25275015178E+01  0.19565409294E+02  0.40659142142E+02  0.00000000000E+00 0.  1.
         11    1    3    3    0    0 -0.69043958572E+01 -0.17759482823E+01  0.20684302841E+01  0.74231447888E+01  0.51100000000E-03 0. -1.
        -11    1    3    3    0    0 -0.10304069974E+01  0.81380535275E+01 -0.58676718735E+01  0.10085595038E+02  0.51100000000E-03 0.  1.
         12    1    3    3    0    0 -0.27617585743E+02 -0.88896067630E+01 -0.15766167704E+02  0.33020118031E+02  0.00000000000E+00 0. -1.
</event>
<event>
 7    1  0.5373252E-013  0.5052886E+02  0.7816164E-02  0.1300439E+00
        -11   -1    0    0    0    0  0.00000000000E+00  0.00000000000E+00  0.45593999997E+02  0.45594000000E+02  0.51100000000E-03 0. -1.
         11   -1    0    0    0    0 -0.00000000000E+00 -0.00000000000E+00 -0.45593999997E+02  0.45594000000E+02  0.51100000000E-03 0.  1.
    9900012    2    1    2    0    0 -0.21343785047E+02  0.30061486262E+02  0.17143955611E+02  0.50528864121E+02  0.30000012982E+02 0.  0.
        -12    1    1    2    0    0  0.21343785047E+02 -0.30061486262E+02 -0.17143955611E+02  0.40659135879E+02  0.00000000000E+00 0.  1.
         11    1    3    3    0    0 -0.77608871684E+01  0.25293326776E+01  0.48038768130E+01  0.94713318034E+01  0.51100000000E-03 0. -1.
        -11    1    3    3    0    0 -0.17992977947E+02  0.14768090409E+02  0.14437268659E+02  0.27391211662E+02  0.51100000000E-03 0.  1.
        -12    1    3    3    0    0  0.44100800677E+01  0.12764063175E+02 -0.20971898609E+01  0.13666320656E+02  0.00000000000E+00 0.  1.
</event>
<event>
 7    1  0.5373252E-013  0.5052886E+02  0.7816164E-02  0.1300439E+00
        -11   -1    0    0    0    0  0.00000000000E+00  0.00000000000E+00  0.45593999997E+02  0.45594000000E+02  0.51100000000E-03 0.  1.
         11   -1    0    0    0    0 -0.00000000000E+00 -0.00000000000E+00 -0.45593999997E+02  0.45594000000E+02  0.51100000000E-03 0. -1.
    9900012    2    1    2    0    0  0.38695869789E+02 -0.62599844314E+01 -0.10798496407E+02  0.50528864883E+02  0.30000015298E+02 0.  0.
        -12    1    1    2    0    0 -0.38695869789E+02  0.62599844314E+01  0.10798496407E+02  0.40659135117E+02  0.00000000000E+00 0.  1.
         11    1    3    3    0    0  0.20925719689E+02 -0.47336415970E+01 -0.13886554184E+02  0.25556398311E+02  0.51100000000E-03 0. -1.
        -11    1    3    3    0    0  0.21339314799E+01  0.30667471539E+01 -0.54242302454E+01  0.65864159968E+01  0.51100000000E-03 0.  1.
        -12    1    3    3    0    0  0.15636218620E+02 -0.45930899883E+01  0.85122880223E+01  0.18386050575E+02  0.00000000000E+00 0.  1.
</event>
<event>
 7    1  0.5373252E-013  0.5052885E+02  0.7816164E-02  0.1300439E+00
        -11   -1    0    0    0    0  0.00000000000E+00  0.00000000000E+00  0.45593999997E+02  0.45594000000E+02  0.51100000000E-03 0.  1.
         11   -1    0    0    0    0 -0.00000000000E+00 -0.00000000000E+00 -0.45593999997E+02  0.45594000000E+02  0.51100000000E-03 0. -1.
    9900012    2    1    2    0    0  0.66927690558E+01  0.23264446344E+02 -0.32667087266E+02  0.50528853283E+02  0.29999980040E+02 0.  0.
        -12    1    1    2    0    0 -0.66927690558E+01 -0.23264446344E+02  0.32667087266E+02  0.40659146717E+02  0.00000000000E+00 0.  1.
         11    1    3    3    0    0  0.48135467525E+01  0.12599044775E+02 -0.25046266271E+02  0.28446820841E+02  0.51100000000E-03 0. -1.
        -11    1    3    3    0    0  0.47565846623E+01  0.14581161319E+02 -0.35498020840E+01  0.15742822433E+02  0.51100000000E-03 0.  1.
        -12    1    3    3    0    0 -0.28773623591E+01 -0.39157597504E+01 -0.40710189103E+01  0.63392100088E+01  0.00000000000E+00 0.  1.
</event>
<event>
 7    1  0.5373252E-013  0.5052886E+02  0.7816164E-02  0.1300439E+00
        -11   -1    0    0    0    0  0.00000000000E+00  0.00000000000E+00  0.45593999997E+02  0.45594000000E+02  0.51100000000E-03 0. -1.
         11   -1    0    0    0    0 -0.00000000000E+00 -0.00000000000E+00 -0.45593999997E+02  0.45594000000E+02  0.51100000000E-03 0.  1.
    9900012    2    1    2    0    0  0.33114906537E+02 -0.14990949174E+00  0.23591230119E+02  0.50528860236E+02  0.30000001174E+02 0.  0.
        -12    1    1    2    0    0 -0.33114906537E+02  0.14990949174E+00 -0.23591230119E+02  0.40659139764E+02  0.00000000000E+00 0.  1.
         11    1    3    3    0    0  0.11766770364E+02 -0.12837124273E+02  0.15347967398E+02  0.23212254262E+02  0.51100000000E-03 0. -1.
        -11    1    3    3    0    0  0.74090907075E+01  0.43085844918E+00  0.32032291741E+01  0.80833743893E+01  0.51100000000E-03 0.  1.
        -12    1    3    3    0    0  0.13939045466E+02  0.12256356332E+02  0.50400335469E+01  0.19233231585E+02  0.00000000000E+00 0.  1.
</event>
<event>
 7    1  0.5373252E-013  0.5052885E+02  0.7816164E-02  0.1300439E+00
        -11   -1    0    0    0    0  0.00000000000E+00  0.00000000000E+00  0.45593999997E+02  0.45594000000E+02  0.51100000000E-03 0.  1.
         11   -1    0    0    0    0 -0.00000000000E+00 -0.00000000000E+00 -0.45593999997E+02  0.45594000000E+02  0.51100000000E-03 0. -1.
    9900012    2    1    2    0    0 -0.49757617945E+01 -0.15216609038E+02 -0.37374631169E+02  0.50528850340E+02  0.29999971094E+02 0.  0.
        -12    1    1    2    0    0  0.49757617945E+01  0.15216609038E+02  0.37374631169E+02  0.40659149660E+02  0.00000000000E+00 0.  1.
         11    1    3    3    0    0  0.93561652552E+01 -0.34300292263E+01 -0.59145950811E+01  0.11588156195E+02  0.51100000000E-03 0. -1.
        -11    1    3    3    0    0 -0.32821762662E+01 -0.33602261137E+01 -0.16603112727E+00  0.47001454418E+01  0.51100000000E-03 0.  1.
         12    1    3    3    0    0 -0.11049750783E+02 -0.84263536975E+01 -0.31294004961E+02  0.34240548703E+02  0.00000000000E+00 0. -1.
</event>
<event>
 7    1  0.5373252E-013  0.5052886E+02  0.7816164E-02  0.1300439E+00
        -11   -1    0    0    0    0  0.00000000000E+00  0.00000000000E+00  0.45593999997E+02  0.45594000000E+02  0.51100000000E-03 0.  1.
         11   -1    0    0    0    0 -0.00000000000E+00 -0.00000000000E+00 -0.45593999997E+02  0.45594000000E+02  0.51100000000E-03 0. -1.
    9900012    2    1    2    0    0 -0.34988972761E+02 -0.24055422393E+01 -0.20570635238E+02  0.50528857333E+02  0.29999992348E+02 0.  0.
        -12    1    1    2    0    0  0.34988972761E+02  0.24055422393E+01  0.20570635238E+02  0.40659142667E+02  0.00000000000E+00 0.  1.
         11    1    3    3    0    0 -0.58691330402E+01 -0.85840117504E+01 -0.13880554462E+01  0.10490885499E+02  0.51100000000E-03 0. -1.
        -11    1    3    3    0    0  0.17293867107E+01  0.32431058723E+01 -0.43127738122E+01  0.56664391209E+01  0.51100000000E-03 0.  1.
         12    1    3    3    0    0 -0.30849226432E+02  0.29353636388E+01 -0.14869805980E+02  0.34371532712E+02  0.00000000000E+00 0. -1.
</event>
<event>
 7    1  0.5373252E-013  0.5052886E+02  0.7816164E-02  0.1300439E+00
        -11   -1    0    0    0    0  0.00000000000E+00  0.00000000000E+00  0.45593999997E+02  0.45594000000E+02  0.51100000000E-03 0.  1.
         11   -1    0    0    0    0 -0.00000000000E+00 -0.00000000000E+00 -0.45593999997E+02  0.45594000000E+02  0.51100000000E-03 0. -1.
    9900012    2    1    2    0    0 -0.35350637451E+02 -0.39177126964E+01 -0.19701504358E+02  0.50528864311E+02  0.30000013560E+02 0.  0.
        -12    1    1    2    0    0  0.35350637451E+02  0.39177126964E+01  0.19701504358E+02  0.40659135689E+02  0.00000000000E+00 0.  1.
         11    1    3    3    0    0 -0.40173035240E+01  0.47575283659E+01 -0.30292311452E+01  0.69245249186E+01  0.51100000000E-03 0. -1.
        -11    1    3    3    0    0  0.16317393356E+01 -0.55159162471E+01  0.13405340920E+01  0.59063471975E+01  0.51100000000E-03 0.  1.
        -12    1    3    3    0    0 -0.32965073263E+02 -0.31593248153E+01 -0.18012807305E+02  0.37697992195E+02  0.00000000000E+00 0.  1.
</event>
<event>
 7    1  0.5373252E-013  0.5052885E+02  0.7816164E-02  0.1300439E+00
        -11   -1    0    0    0    0  0.00000000000E+00  0.00000000000E+00  0.45593999997E+02  0.45594000000E+02  0.51100000000E-03 0.  1.
         11   -1    0    0    0    0 -0.00000000000E+00 -0.00000000000E+00 -0.45593999997E+02  0.45594000000E+02  0.51100000000E-03 0. -1.
    9900012    2    1    2    0    0  0.17880613575E+02 -0.46407721177E+01 -0.36220345394E+02  0.50528849392E+02  0.29999968212E+02 0.  0.
        -12    1    1    2    0    0 -0.17880613575E+02  0.46407721177E+01  0.36220345394E+02  0.40659150608E+02  0.00000000000E+00 0.  1.
         11    1    3    3    0    0  0.35827090909E+01 -0.58517285516E+01 -0.16388108749E+02  0.17766503317E+02  0.51100000000E-03 0. -1.
        -11    1    3    3    0    0 -0.17062456830E+01 -0.71342374901E+01 -0.25299524933E+01  0.77594638201E+01  0.51100000000E-03 0.  1.
         12    1    3    3    0    0  0.16004150167E+02  0.83451939240E+01 -0.17302284152E+02  0.25002882255E+02  0.00000000000E+00 0. -1.
</event>
<event>
 7    1  0.5373252E-013  0.5052889E+02  0.7816164E-02  0.1300439E+00
        -11   -1    0    0    0    0  0.00000000000E+00  0.00000000000E+00  0.45593999997E+02  0.45594000000E+02  0.51100000000E-03 0.  1.
         11   -1    0    0    0    0 -0.00000000000E+00 -0.00000000000E+00 -0.45593999997E+02  0.45594000000E+02  0.51100000000E-03 0. -1.
    9900012    2    1    2    0    0  0.18656540298E+02 -0.27144871357E+02 -0.23838044008E+02  0.50528894267E+02  0.30000104614E+02 0.  0.
        -12    1    1    2    0    0 -0.18656540298E+02  0.27144871357E+02  0.23838044008E+02  0.40659105733E+02  0.00000000000E+00 0.  1.
         11    1    3    3    0    0 -0.21002877593E+01 -0.13045810163E+02 -0.12217146205E+02  0.17996194963E+02  0.51100000000E-03 0. -1.
        -11    1    3    3    0    0  0.10903902816E+02 -0.16926721786E+02 -0.75790192792E+01  0.21513961526E+02  0.51100000000E-03 0.  1.
        -12    1    3    3    0    0  0.98529252411E+01  0.28276605920E+01 -0.40418785237E+01  0.11018737778E+02  0.00000000000E+00 0.  1.
</event>
<event>
 7    1  0.5373252E-013  0.5052886E+02  0.7816164E-02  0.1300439E+00
        -11   -1    0    0    0    0  0.00000000000E+00  0.00000000000E+00  0.45593999997E+02  0.45594000000E+02  0.51100000000E-03 0.  1.
         11   -1    0    0    0    0 -0.00000000000E+00 -0.00000000000E+00 -0.45593999997E+02  0.45594000000E+02  0.51100000000E-03 0. -1.
    9900012    2    1    2    0    0 -0.94782846536E+01  0.96832448241E+01 -0.38334871333E+02  0.50528862399E+02  0.30000007749E+02 0.  0.
        -12    1    1    2    0    0  0.94782846536E+01 -0.96832448241E+01  0.38334871333E+02  0.40659137601E+02  0.00000000000E+00 0.  1.
         11    1    3    3    0    0  0.58288181071E+00  0.45398183889E+01 -0.15915641916E+02  0.16560717378E+02  0.51100000000E-03 0. -1.
        -11    1    3    3    0    0  0.38083556907E+01  0.50964583806E+01  0.12979514233E+01  0.64932379635E+01  0.51100000000E-03 0.  1.
         12    1    3    3    0    0 -0.13869522155E+02  0.46968054602E-01 -0.23717180840E+02  0.27474907057E+02  0.00000000000E+00 0. -1.
</event>
<event>
 7    1  0.5373252E-013  0.5052887E+02  0.7816164E-02  0.1300439E+00
        -11   -1    0    0    0    0  0.00000000000E+00  0.00000000000E+00  0.45593999997E+02  0.45594000000E+02  0.51100000000E-03 0.  1.
         11   -1    0    0    0    0 -0.00000000000E+00 -0.00000000000E+00 -0.45593999997E+02  0.45594000000E+02  0.51100000000E-03 0. -1.
    9900012    2    1    2    0    0  0.33390131264E+01 -0.38394651941E+02  0.12956342602E+02  0.50528866709E+02  0.30000020849E+02 0.  0.
        -12    1    1    2    0    0 -0.33390131264E+01  0.38394651941E+02 -0.12956342602E+02  0.40659133291E+02  0.00000000000E+00 0.  1.
         11    1    3    3    0    0  0.11773225621E+02 -0.11982631818E+02  0.10895978610E+02  0.20022853366E+02  0.51100000000E-03 0.  1.
        -11    1    3    3    0    0  0.30429039604E+01 -0.34392911846E+01  0.14606020822E+01  0.48188532939E+01  0.51100000000E-03 0. -1.
         12    1    3    3    0    0 -0.11477116455E+02 -0.22972728939E+02  0.59976190931E+00  0.25687160049E+02  0.00000000000E+00 0. -1.
</event>
<event>
 7    1  0.5373252E-013  0.5052887E+02  0.7816164E-02  0.1300439E+00
        -11   -1    0    0    0    0  0.00000000000E+00  0.00000000000E+00  0.45593999997E+02  0.45594000000E+02  0.51100000000E-03 0. -1.
         11   -1    0    0    0    0 -0.00000000000E+00 -0.00000000000E+00 -0.45593999997E+02  0.45594000000E+02  0.51100000000E-03 0.  1.
    9900012    2    1    2    0    0 -0.34136193853E+02 -0.22069918574E+02  0.89677186241E+00  0.50528865277E+02  0.30000016496E+02 0.  0.
        -12    1    1    2    0    0  0.34136193853E+02  0.22069918574E+02 -0.89677186241E+00  0.40659134723E+02  0.00000000000E+00 0.  1.
         11    1    3    3    0    0 -0.25277162483E+02 -0.23249882130E+02  0.33959039652E+01  0.34511217398E+02  0.51100000000E-03 0. -1.
        -11    1    3    3    0    0 -0.40827250868E+01 -0.44124592072E+01 -0.54298681792E+01  0.81007350959E+01  0.51100000000E-03 0.  1.
         12    1    3    3    0    0 -0.47763062828E+01  0.55924227631E+01  0.29307360763E+01  0.79169127833E+01  0.00000000000E+00 0. -1.
</event>
<event>
 7    1  0.5373252E-013  0.5052886E+02  0.7816164E-02  0.1300439E+00
        -11   -1    0    0    0    0  0.00000000000E+00  0.00000000000E+00  0.45593999997E+02  0.45594000000E+02  0.51100000000E-03 0. -1.
         11   -1    0    0    0    0 -0.00000000000E+00 -0.00000000000E+00 -0.45593999997E+02  0.45594000000E+02  0.51100000000E-03 0.  1.
    9900012    2    1    2    0    0 -0.77103187860E+01  0.39250817198E+02 -0.72862870026E+01  0.50528860256E+02  0.30000001233E+02 0.  0.
        -12    1    1    2    0    0  0.77103187860E+01 -0.39250817198E+02  0.72862870026E+01  0.40659139744E+02  0.00000000000E+00 0.  1.
         11    1    3    3    0    0 -0.62494578837E+00  0.76818619926E+01 -0.41490052813E+01  0.87530455270E+01  0.51100000000E-03 0. -1.
        -11    1    3    3    0    0  0.48720727745E+01  0.28444159685E+02 -0.49650223616E+01  0.29282396770E+02  0.51100000000E-03 0.  1.
        -12    1    3    3    0    0 -0.11957445772E+02  0.31247955205E+01  0.18277406404E+01  0.12493417958E+02  0.00000000000E+00 0.  1.
</event>
<event>
 7    1  0.5373252E-013  0.5052886E+02  0.7816164E-02  0.1300439E+00
        -11   -1    0    0    0    0  0.00000000000E+00  0.00000000000E+00  0.45593999997E+02  0.45594000000E+02  0.51100000000E-03 0.  1.
         11   -1    0    0    0    0 -0.00000000000E+00 -0.00000000000E+00 -0.45593999997E+02  0.45594000000E+02  0.51100000000E-03 0. -1.
    9900012    2    1    2    0    0 -0.14303656600E+02 -0.37134605538E+02  0.83422123750E+01  0.50528855544E+02  0.29999986911E+02 0.  0.
        -12    1    1    2    0    0  0.14303656600E+02  0.37134605538E+02 -0.83422123750E+01  0.40659144456E+02  0.00000000000E+00 0.  1.
         11    1    3    3    0    0 -0.41914395597E+01 -0.10933802980E+02  0.41356109122E+01  0.12418514044E+02  0.51100000000E-03 0. -1.
        -11    1    3    3    0    0 -0.71196156382E+01 -0.27305798643E+00  0.90982512663E+01  0.11556022839E+02  0.51100000000E-03 0.  1.
        -12    1    3    3    0    0 -0.29926014020E+01 -0.25927744571E+02 -0.48916498035E+01  0.26554318660E+02  0.00000000000E+00 0.  1.
</event>
<event>
 7    1  0.5373252E-013  0.5052886E+02  0.7816164E-02  0.1300439E+00
        -11   -1    0    0    0    0  0.00000000000E+00  0.00000000000E+00  0.45593999997E+02  0.45594000000E+02  0.51100000000E-03 0.  1.
         11   -1    0    0    0    0 -0.00000000000E+00 -0.00000000000E+00 -0.45593999997E+02  0.45594000000E+02  0.51100000000E-03 0. -1.
    9900012    2    1    2    0    0 -0.21216753853E+02  0.10958836317E+02 -0.32907736418E+02  0.50528857687E+02  0.29999993427E+02 0.  0.
        -12    1    1    2    0    0  0.21216753853E+02 -0.10958836317E+02  0.32907736418E+02  0.40659142313E+02  0.00000000000E+00 0.  1.
         11    1    3    3    0    0  0.39479862885E+01 -0.19068655381E+01 -0.32587959973E+01  0.54628274298E+01  0.51100000000E-03 0. -1.
        -11    1    3    3    0    0 -0.17754392636E+02  0.22129958715E+01 -0.75094756138E+01  0.19403814904E+02  0.51100000000E-03 0.  1.
        -12    1    3    3    0    0 -0.74103475055E+01  0.10652705983E+02 -0.22139464806E+02  0.25662215353E+02  0.00000000000E+00 0.  1.
</event>
<event>
 7    1  0.5373252E-013  0.5052886E+02  0.7816164E-02  0.1300439E+00
        -11   -1    0    0    0    0  0.00000000000E+00  0.00000000000E+00  0.45593999997E+02  0.45594000000E+02  0.51100000000E-03 0.  1.
         11   -1    0    0    0    0 -0.00000000000E+00 -0.00000000000E+00 -0.45593999997E+02  0.45594000000E+02  0.51100000000E-03 0. -1.
    9900012    2    1    2    0    0 -0.18096345771E+02 -0.33617143264E+02 -0.13984833633E+02  0.50528860520E+02  0.30000002036E+02 0.  0.
        -12    1    1    2    0    0  0.18096345771E+02  0.33617143264E+02  0.13984833633E+02  0.40659139480E+02  0.00000000000E+00 0.  1.
         11    1    3    3    0    0 -0.17329785107E+02 -0.85173478108E+01 -0.11806463723E+02  0.22633144976E+02  0.51100000000E-03 0. -1.
        -11    1    3    3    0    0  0.30685818157E+00  0.13048209903E+01  0.22909725826E+00  0.13598549831E+01  0.51100000000E-03 0.  1.
        -12    1    3    3    0    0 -0.10734188453E+01 -0.26404616444E+02 -0.24074671691E+01  0.26535860561E+02  0.00000000000E+00 0.  1.
</event>
<event>
 7    1  0.5373252E-013  0.5052886E+02  0.7816164E-02  0.1300439E+00
        -11   -1    0    0    0    0  0.00000000000E+00  0.00000000000E+00  0.45593999997E+02  0.45594000000E+02  0.51100000000E-03 0. -1.
         11   -1    0    0    0    0 -0.00000000000E+00 -0.00000000000E+00 -0.45593999997E+02  0.45594000000E+02  0.51100000000E-03 0.  1.
    9900012    2    1    2    0    0  0.36687121663E+02 -0.16806976234E+02  0.49745872455E+01  0.50528857556E+02  0.29999993028E+02 0.  0.
        -12    1    1    2    0    0 -0.36687121663E+02  0.16806976234E+02 -0.49745872455E+01  0.40659142444E+02  0.00000000000E+00 0.  1.
         11    1    3    3    0    0  0.75875333383E+01 -0.53579791825E+01  0.31843717142E+01  0.98193088634E+01  0.51100000000E-03 0. -1.
        -11    1    3    3    0    0  0.31124623197E+02 -0.36563363374E+01 -0.27622612480E+01  0.31460150223E+02  0.51100000000E-03 0.  1.
        -12    1    3    3    0    0 -0.20250348727E+01 -0.77926607136E+01  0.45524767793E+01  0.92493984702E+01  0.00000000000E+00 0.  1.
</event>
<event>
 7    1  0.5373252E-013  0.5052887E+02  0.7816164E-02  0.1300439E+00
        -11   -1    0    0    0    0  0.00000000000E+00  0.00000000000E+00  0.45593999997E+02  0.45594000000E+02  0.51100000000E-03 0.  1.
         11   -1    0    0    0    0 -0.00000000000E+00 -0.00000000000E+00 -0.45593999997E+02  0.45594000000E+02  0.51100000000E-03 0. -1.
    9900012    2    1    2    0    0 -0.14047768164E+02  0.94747940542E+01 -0.36960161261E+02  0.50528867776E+02  0.30000024092E+02 0.  0.
        -12    1    1    2    0    0  0.14047768164E+02 -0.94747940542E+01  0.36960161261E+02  0.40659132224E+02  0.00000000000E+00 0.  1.
         11    1    3    3    0    0 -0.29516237469E+01  0.79456965921E+01 -0.77137212286E+01  0.11460701223E+02  0.51100000000E-03 0.  1.
        -11    1    3    3    0    0 -0.15116705420E+02  0.69901748147E+01 -0.27357955889E+02  0.32028660250E+02  0.51100000000E-03 0. -1.
        -12    1    3    3    0    0  0.40205610028E+01 -0.54610773526E+01 -0.18884841431E+01  0.70395063028E+01  0.00000000000E+00 0.  1.
</event>
<event>
 7    1  0.5373252E-013  0.5052885E+02  0.7816164E-02  0.1300439E+00
        -11   -1    0    0    0    0  0.00000000000E+00  0.00000000000E+00  0.45593999997E+02  0.45594000000E+02  0.51100000000E-03 0. -1.
         11   -1    0    0    0    0 -0.00000000000E+00 -0.00000000000E+00 -0.45593999997E+02  0.45594000000E+02  0.51100000000E-03 0.  1.
    9900012    2    1    2    0    0  0.39940293881E+02 -0.10007861571E+01 -0.75457141483E+01  0.50528850350E+02  0.29999971125E+02 0.  0.
        -12    1    1    2    0    0 -0.39940293881E+02  0.10007861571E+01  0.75457141483E+01  0.40659149650E+02  0.00000000000E+00 0.  1.
         11    1    3    3    0    0  0.22912400104E+02 -0.91280167751E+01 -0.11074891989E+02  0.27036124012E+02  0.51100000000E-03 0. -1.
        -11    1    3    3    0    0  0.10853687764E+02 -0.22800566818E+01  0.23283668727E+01  0.11332364674E+02  0.51100000000E-03 0.  1.
        -12    1    3    3    0    0  0.61742060138E+01  0.10407287300E+02  0.12008109675E+01  0.12160361665E+02  0.00000000000E+00 0.  1.
</event>
<event>
 7    1  0.8612625E-013  0.5052888E+02  0.7816164E-02  0.1300439E+00
        -11   -1    0    0    0    0  0.00000000000E+00  0.00000000000E+00  0.45593999997E+02  0.45594000000E+02  0.51100000000E-03 0. -1.
         11   -1    0    0    0    0 -0.00000000000E+00 -0.00000000000E+00 -0.45593999997E+02  0.45594000000E+02  0.51100000000E-03 0.  1.
    9900012    2    1    2    0    0 -0.14885483410E+02  0.34873945118E+02 -0.14676307980E+02  0.50528884412E+02  0.30000074660E+02 0.  0.
        -12    1    1    2    0    0  0.14885483410E+02 -0.34873945118E+02  0.14676307980E+02  0.40659115588E+02  0.00000000000E+00 0.  1.
         11    1    3    3    0    0 -0.47036096707E+00  0.17954964463E+02 -0.25907095687E+01  0.18147004288E+02  0.51100000000E-03 0. -1.
        -11    1    3    3    0    0 -0.18574014707E+01  0.97784637232E+01 -0.14648839805E+02  0.17710358577E+02  0.51100000000E-03 0.  1.
        -12    1    3    3    0    0 -0.12557720972E+02  0.71405169319E+01  0.25632413941E+01  0.14671521547E+02  0.00000000000E+00 0.  1.
</event>
<event>
 7    1  0.5373252E-013  0.5052886E+02  0.7816164E-02  0.1300439E+00
        -11   -1    0    0    0    0  0.00000000000E+00  0.00000000000E+00  0.45593999997E+02  0.45594000000E+02  0.51100000000E-03 0. -1.
         11   -1    0    0    0    0 -0.00000000000E+00 -0.00000000000E+00 -0.45593999997E+02  0.45594000000E+02  0.51100000000E-03 0.  1.
    9900012    2    1    2    0    0 -0.10111156290E+02 -0.19739630748E+02  0.34077518378E+02  0.50528858809E+02  0.29999996835E+02 0.  0.
        -12    1    1    2    0    0  0.10111156290E+02  0.19739630748E+02 -0.34077518378E+02  0.40659141191E+02  0.00000000000E+00 0.  1.
         11    1    3    3    0    0 -0.25924527336E+01 -0.51945846575E+01  0.59434465161E+00  0.58359032519E+01  0.51100000000E-03 0.  1.
        -11    1    3    3    0    0 -0.10851732076E+02 -0.14748094776E+02  0.36081717141E+02  0.40461793098E+02  0.51100000000E-03 0. -1.
         12    1    3    3    0    0  0.33330285188E+01  0.20304868541E+00 -0.25985434146E+01  0.42311624589E+01  0.00000000000E+00 0. -1.
</event>
<event>
 7    1  0.5373252E-013  0.5052886E+02  0.7816164E-02  0.1300439E+00
        -11   -1    0    0    0    0  0.00000000000E+00  0.00000000000E+00  0.45593999997E+02  0.45594000000E+02  0.51100000000E-03 0.  1.
         11   -1    0    0    0    0 -0.00000000000E+00 -0.00000000000E+00 -0.45593999997E+02  0.45594000000E+02  0.51100000000E-03 0. -1.
    9900012    2    1    2    0    0  0.33006033061E+02 -0.15198382950E+02 -0.18242164398E+02  0.50528860503E+02  0.30000001986E+02 0.  0.
        -12    1    1    2    0    0 -0.33006033061E+02  0.15198382950E+02  0.18242164398E+02  0.40659139497E+02  0.00000000000E+00 0.  1.
         11    1    3    3    0    0  0.12958938845E+02  0.17952222336E+01  0.26534484488E+00  0.13085386009E+02  0.51100000000E-03 0. -1.
        -11    1    3    3    0    0 -0.21203675991E+01 -0.16349148799E+01  0.21813323234E+01  0.34535657495E+01  0.51100000000E-03 0.  1.
        -12    1    3    3    0    0  0.22167461815E+02 -0.15358690304E+02 -0.20688841566E+02  0.33989908745E+02  0.00000000000E+00 0.  1.
</event>
<event>
 7    1  0.5373252E-013  0.5052886E+02  0.7816164E-02  0.1300439E+00
        -11   -1    0    0    0    0  0.00000000000E+00  0.00000000000E+00  0.45593999997E+02  0.45594000000E+02  0.51100000000E-03 0.  1.
         11   -1    0    0    0    0 -0.00000000000E+00 -0.00000000000E+00 -0.45593999997E+02  0.45594000000E+02  0.51100000000E-03 0. -1.
    9900012    2    1    2    0    0 -0.30930513930E+02  0.14387583750E+02 -0.22123880531E+02  0.50528863907E+02  0.30000012330E+02 0.  0.
        -12    1    1    2    0    0  0.30930513930E+02 -0.14387583750E+02  0.22123880531E+02  0.40659136093E+02  0.00000000000E+00 0.  1.
         11    1    3    3    0    0 -0.26963853106E+01 -0.51320770943E+01  0.57772427624E+00  0.58260170482E+01  0.51100000000E-03 0.  1.
        -11    1    3    3    0    0 -0.16064071793E+02  0.20634246618E+02 -0.17206991673E+02  0.31303467839E+02  0.51100000000E-03 0. -1.
         12    1    3    3    0    0 -0.12170056827E+02 -0.11145857741E+01 -0.54946131340E+01  0.13399379019E+02  0.00000000000E+00 0. -1.
</event>
<event>
 7    1  0.5373252E-013  0.5052886E+02  0.7816164E-02  0.1300439E+00
        -11   -1    0    0    0    0  0.00000000000E+00  0.00000000000E+00  0.45593999997E+02  0.45594000000E+02  0.51100000000E-03 0.  1.
         11   -1    0    0    0    0 -0.00000000000E+00 -0.00000000000E+00 -0.45593999997E+02  0.45594000000E+02  0.51100000000E-03 0. -1.
    9900012    2    1    2    0    0 -0.14949330848E+01  0.79694099909E+01 -0.39842432591E+02  0.50528858896E+02  0.29999997100E+02 0.  0.
        -12    1    1    2    0    0  0.14949330848E+01 -0.79694099909E+01  0.39842432591E+02  0.40659141104E+02  0.00000000000E+00 0.  1.
         11    1    3    3    0    0 -0.90091817707E+01  0.61827048362E+00 -0.71770204060E+01  0.11535043855E+02  0.51100000000E-03 0. -1.
        -11    1    3    3    0    0  0.68044484406E+00  0.48810200322E+01  0.58119186526E+00  0.49623730196E+01  0.51100000000E-03 0.  1.
        -12    1    3    3    0    0  0.68338038418E+01  0.24701194751E+01 -0.33246604050E+02  0.34031442021E+02  0.00000000000E+00 0.  1.
</event>
<event>
 7    1  0.5373252E-013  0.5052884E+02  0.7816164E-02  0.1300439E+00
        -11   -1    0    0    0    0  0.00000000000E+00  0.00000000000E+00  0.45593999997E+02  0.45594000000E+02  0.51100000000E-03 0.  1.
         11   -1    0    0    0    0 -0.00000000000E+00 -0.00000000000E+00 -0.45593999997E+02  0.45594000000E+02  0.51100000000E-03 0. -1.
    9900012    2    1    2    0    0  0.21418419761E+02  0.33968297895E+02 -0.63697038537E+01  0.50528842432E+02  0.29999947056E+02 0.  0.
        -12    1    1    2    0    0 -0.21418419761E+02 -0.33968297895E+02  0.63697038537E+01  0.40659157568E+02  0.00000000000E+00 0.  1.
         11    1    3    3    0    0  0.11907387169E+02  0.10376753285E+02  0.53464220683E+00  0.15803440147E+02  0.51100000000E-03 0. -1.
        -11    1    3    3    0    0  0.12935167452E+02  0.26231332041E+02 -0.78860981574E+01  0.30291779117E+02  0.51100000000E-03 0.  1.
        -12    1    3    3    0    0 -0.34241348599E+01 -0.26397874304E+01  0.98175209686E+00  0.44336231681E+01  0.00000000000E+00 0.  1.
</event>
<event>
 7    1  0.9010327E-013  0.5052884E+02  0.7816164E-02  0.1300439E+00
        -11   -1    0    0    0    0  0.00000000000E+00  0.00000000000E+00  0.45593999997E+02  0.45594000000E+02  0.51100000000E-03 0.  1.
         11   -1    0    0    0    0 -0.00000000000E+00 -0.00000000000E+00 -0.45593999997E+02  0.45594000000E+02  0.51100000000E-03 0. -1.
    9900012    2    1    2    0    0  0.32615466931E+02 -0.78686792507E+01  0.22966982510E+02  0.50528842582E+02  0.29999947514E+02 0.  0.
        -12    1    1    2    0    0 -0.32615466931E+02  0.78686792507E+01 -0.22966982510E+02  0.40659157418E+02  0.00000000000E+00 0.  1.
         11    1    3    3    0    0  0.15809461758E+02 -0.65121510874E+01  0.14742009161E+02  0.22575961269E+02  0.51100000000E-03 0. -1.
        -11    1    3    3    0    0  0.17458506445E+02  0.47501258945E+01  0.11041757735E+02  0.21196309996E+02  0.51100000000E-03 0.  1.
        -12    1    3    3    0    0 -0.65250127134E+00 -0.61066540578E+01 -0.28167843864E+01  0.67565713176E+01  0.00000000000E+00 0.  1.
</event>
<event>
 7    1  0.5373252E-013  0.5052881E+02  0.7816164E-02  0.1300439E+00
        -11   -1    0    0    0    0  0.00000000000E+00  0.00000000000E+00  0.45593999997E+02  0.45594000000E+02  0.51100000000E-03 0.  1.
         11   -1    0    0    0    0 -0.00000000000E+00 -0.00000000000E+00 -0.45593999997E+02  0.45594000000E+02  0.51100000000E-03 0. -1.
    9900012    2    1    2    0    0  0.39742052655E+02 -0.64875378506E+01  0.56258764548E+01  0.50528814292E+02  0.29999861521E+02 0.  0.
        -12    1    1    2    0    0 -0.39742052655E+02  0.64875378506E+01 -0.56258764548E+01  0.40659185708E+02  0.00000000000E+00 0.  1.
         11    1    3    3    0    0  0.31976029268E+02 -0.12315636952E+02  0.11249777462E+02  0.36065202820E+02  0.51100000000E-03 0. -1.
        -11    1    3    3    0    0  0.74023525200E+01  0.23772243486E+00 -0.16297528500E+01  0.75833653083E+01  0.51100000000E-03 0.  1.
        -12    1    3    3    0    0  0.36367086722E+00  0.55903766663E+01 -0.39941481569E+01  0.68802461635E+01  0.00000000000E+00 0.  1.
</event>
<event>
 7    1  0.5373252E-013  0.5052888E+02  0.7816164E-02  0.1300439E+00
        -11   -1    0    0    0    0  0.00000000000E+00  0.00000000000E+00  0.45593999997E+02  0.45594000000E+02  0.51100000000E-03 0. -1.
         11   -1    0    0    0    0 -0.00000000000E+00 -0.00000000000E+00 -0.45593999997E+02  0.45594000000E+02  0.51100000000E-03 0.  1.
    9900012    2    1    2    0    0 -0.18104990570E+02 -0.30933306788E+02 -0.19196458964E+02  0.50528878156E+02  0.30000055643E+02 0.  0.
        -12    1    1    2    0    0  0.18104990570E+02  0.30933306788E+02  0.19196458964E+02  0.40659121844E+02  0.00000000000E+00 0.  1.
         11    1    3    3    0    0 -0.28128157422E+01  0.22714055895E+01 -0.11813188481E+01  0.38035155098E+01  0.51100000000E-03 0.  1.
        -11    1    3    3    0    0 -0.45601019083E+01 -0.30857505496E+02 -0.88644528529E+01  0.32427745828E+02  0.51100000000E-03 0. -1.
         12    1    3    3    0    0 -0.10732072920E+02 -0.23472068813E+01 -0.91506872626E+01  0.14297616818E+02  0.00000000000E+00 0. -1.
</event>
<event>
 7    1  0.5373252E-013  0.5052885E+02  0.7816164E-02  0.1300439E+00
        -11   -1    0    0    0    0  0.00000000000E+00  0.00000000000E+00  0.45593999997E+02  0.45594000000E+02  0.51100000000E-03 0.  1.
         11   -1    0    0    0    0 -0.00000000000E+00 -0.00000000000E+00 -0.45593999997E+02  0.45594000000E+02  0.51100000000E-03 0. -1.
    9900012    2    1    2    0    0 -0.10097807848E+02  0.37633414811E+02  0.11615787829E+02  0.50528853912E+02  0.29999981952E+02 0.  0.
        -12    1    1    2    0    0  0.10097807848E+02 -0.37633414811E+02 -0.11615787829E+02  0.40659146088E+02  0.00000000000E+00 0.  1.
         11    1    3    3    0    0  0.62210144275E+00 -0.35381143751E+01 -0.19451020456E+01  0.40851787923E+01  0.51100000000E-03 0. -1.
        -11    1    3    3    0    0 -0.54202314465E+00  0.13269712766E+00 -0.14676541659E+01  0.15701613384E+01  0.51100000000E-03 0.  1.
         12    1    3    3    0    0 -0.10177886146E+02  0.41038832059E+02  0.15028544040E+02  0.44873513782E+02  0.00000000000E+00 0. -1.
</event>
<event>
 7    1  0.7740899E-013  0.5052886E+02  0.7816164E-02  0.1300439E+00
        -11   -1    0    0    0    0  0.00000000000E+00  0.00000000000E+00  0.45593999997E+02  0.45594000000E+02  0.51100000000E-03 0. -1.
         11   -1    0    0    0    0 -0.00000000000E+00 -0.00000000000E+00 -0.45593999997E+02  0.45594000000E+02  0.51100000000E-03 0.  1.
    9900012    2    1    2    0    0  0.15171188603E+02  0.26794736994E+02  0.26552638171E+02  0.50528862183E+02  0.30000007092E+02 0.  0.
        -12    1    1    2    0    0 -0.15171188603E+02 -0.26794736994E+02 -0.26552638171E+02  0.40659137817E+02  0.00000000000E+00 0.  1.
         11    1    3    3    0    0  0.66789008253E+01  0.57424599969E+01  0.11123099965E+02  0.14188266848E+02  0.51100000000E-03 0. -1.
        -11    1    3    3    0    0  0.67082599688E+01 -0.37358858543E+01  0.14102353243E+01  0.78068148983E+01  0.51100000000E-03 0.  1.
        -12    1    3    3    0    0  0.17840278087E+01  0.24788162851E+02  0.14019302882E+02  0.28533780437E+02  0.00000000000E+00 0.  1.
</event>
<event>
 7    1  0.5373252E-013  0.5052886E+02  0.7816164E-02  0.1300439E+00
        -11   -1    0    0    0    0  0.00000000000E+00  0.00000000000E+00  0.45593999997E+02  0.45594000000E+02  0.51100000000E-03 0.  1.
         11   -1    0    0    0    0 -0.00000000000E+00 -0.00000000000E+00 -0.45593999997E+02  0.45594000000E+02  0.51100000000E-03 0. -1.
    9900012    2    1    2    0    0  0.23330820843E+02  0.33248463047E+02 -0.18379814172E+01  0.50528859922E+02  0.30000000220E+02 0.  0.
        -12    1    1    2    0    0 -0.23330820843E+02 -0.33248463047E+02  0.18379814172E+01  0.40659140078E+02  0.00000000000E+00 0.  1.
         11    1    3    3    0    0  0.22501685251E+02  0.19639547514E+02  0.30361921739E+01  0.30020928181E+02  0.51100000000E-03 0. -1.
        -11    1    3    3    0    0  0.26580466284E+01  0.14754784556E+02  0.20023088529E+00  0.14993631043E+02  0.51100000000E-03 0.  1.
        -12    1    3    3    0    0 -0.18289110366E+01 -0.11458690234E+01 -0.50744044764E+01  0.55143006981E+01  0.00000000000E+00 0.  1.
</event>
<event>
 7    1  0.5373252E-013  0.5052886E+02  0.7816164E-02  0.1300439E+00
        -11   -1    0    0    0    0  0.00000000000E+00  0.00000000000E+00  0.45593999997E+02  0.45594000000E+02  0.51100000000E-03 0.  1.
         11   -1    0    0    0    0 -0.00000000000E+00 -0.00000000000E+00 -0.45593999997E+02  0.45594000000E+02  0.51100000000E-03 0. -1.
    9900012    2    1    2    0    0 -0.15900462584E+02 -0.99149337915E+01 -0.36083726715E+02  0.50528856427E+02  0.29999989595E+02 0.  0.
        -12    1    1    2    0    0  0.15900462584E+02  0.99149337915E+01  0.36083726715E+02  0.40659143573E+02  0.00000000000E+00 0.  1.
         11    1    3    3    0    0 -0.14861792664E+02 -0.63497003985E+01 -0.23862558892E+02  0.28820362480E+02  0.51100000000E-03 0. -1.
        -11    1    3    3    0    0 -0.68696909812E+01 -0.78027101954E+01 -0.51135168846E+01  0.11585464849E+02  0.51100000000E-03 0.  1.
         12    1    3    3    0    0  0.58310210612E+01  0.42374768024E+01 -0.71076509381E+01  0.10123029098E+02  0.00000000000E+00 0. -1.
</event>
<event>
 7    1  0.5373252E-013  0.5052886E+02  0.7816164E-02  0.1300439E+00
        -11   -1    0    0    0    0  0.00000000000E+00  0.00000000000E+00  0.45593999997E+02  0.45594000000E+02  0.51100000000E-03 0.  1.
         11   -1    0    0    0    0 -0.00000000000E+00 -0.00000000000E+00 -0.45593999997E+02  0.45594000000E+02  0.51100000000E-03 0. -1.
    9900012    2    1    2    0    0 -0.38741661215E+02 -0.92992617623E+01 -0.81100793683E+01  0.50528856251E+02  0.29999989061E+02 0.  0.
        -12    1    1    2    0    0  0.38741661215E+02  0.92992617623E+01  0.81100793683E+01  0.40659143749E+02  0.00000000000E+00 0.  1.
         11    1    3    3    0    0 -0.33786486716E+02 -0.17473844361E+00 -0.15731566482E+02  0.37269818921E+02  0.51100000000E-03 0.  1.
        -11    1    3    3    0    0 -0.45245452283E+01 -0.73720542760E+01  0.47516911735E+01  0.98690051697E+01  0.51100000000E-03 0. -1.
        -12    1    3    3    0    0 -0.43062927051E+00 -0.17524690427E+01  0.28697959401E+01  0.33900321609E+01  0.00000000000E+00 0.  1.
</event>
<event>
 7    1  0.5373252E-013  0.5052886E+02  0.7816164E-02  0.1300439E+00
        -11   -1    0    0    0    0  0.00000000000E+00  0.00000000000E+00  0.45593999997E+02  0.45594000000E+02  0.51100000000E-03 0.  1.
         11   -1    0    0    0    0 -0.00000000000E+00 -0.00000000000E+00 -0.45593999997E+02  0.45594000000E+02  0.51100000000E-03 0. -1.
    9900012    2    1    2    0    0  0.77125375295E+01 -0.10386259464E+02 -0.38546182210E+02  0.50528858546E+02  0.29999996035E+02 0.  0.
        -12    1    1    2    0    0 -0.77125375295E+01  0.10386259464E+02  0.38546182210E+02  0.40659141454E+02  0.00000000000E+00 0.  1.
         11    1    3    3    0    0  0.11411197033E+02  0.91164476311E+00 -0.11714102550E+02  0.16378849554E+02  0.51100000000E-03 0. -1.
        -11    1    3    3    0    0  0.27727890214E+01 -0.12272208566E+02 -0.99393536844E+01  0.16033908256E+02  0.51100000000E-03 0.  1.
         12    1    3    3    0    0 -0.64714485249E+01  0.97430433855E+00 -0.16892725976E+02  0.18116100735E+02  0.00000000000E+00 0. -1.
</event>
<event>
 7    1  0.5373252E-013  0.5052886E+02  0.7816164E-02  0.1300439E+00
        -11   -1    0    0    0    0  0.00000000000E+00  0.00000000000E+00  0.45593999997E+02  0.45594000000E+02  0.51100000000E-03 0.  1.
         11   -1    0    0    0    0 -0.00000000000E+00 -0.00000000000E+00 -0.45593999997E+02  0.45594000000E+02  0.51100000000E-03 0. -1.
    9900012    2    1    2    0    0  0.54620540054E+01 -0.43777535000E+01 -0.40052054326E+02  0.50528858157E+02  0.29999994853E+02 0.  0.
        -12    1    1    2    0    0 -0.54620540054E+01  0.43777535000E+01  0.40052054326E+02  0.40659141843E+02  0.00000000000E+00 0.  1.
         11    1    3    3    0    0 -0.34951959047E+01  0.41181805836E+01 -0.14084510953E+02  0.15084735820E+02  0.51100000000E-03 0. -1.
        -11    1    3    3    0    0  0.60062364159E+01  0.57243148249E+01 -0.42615259308E+01  0.93275537853E+01  0.51100000000E-03 0.  1.
        -12    1    3    3    0    0  0.29510134942E+01 -0.14220248908E+02 -0.21706017443E+02  0.26116568551E+02  0.00000000000E+00 0.  1.
</event>
<event>
 7    1  0.5373252E-013  0.5052888E+02  0.7816164E-02  0.1300439E+00
        -11   -1    0    0    0    0  0.00000000000E+00  0.00000000000E+00  0.45593999997E+02  0.45594000000E+02  0.51100000000E-03 0.  1.
         11   -1    0    0    0    0 -0.00000000000E+00 -0.00000000000E+00 -0.45593999997E+02  0.45594000000E+02  0.51100000000E-03 0. -1.
    9900012    2    1    2    0    0  0.29468465312E+01 -0.38662431299E+02  0.12235054468E+02  0.50528879790E+02  0.30000060609E+02 0.  0.
        -12    1    1    2    0    0 -0.29468465312E+01  0.38662431299E+02 -0.12235054468E+02  0.40659120210E+02  0.00000000000E+00 0.  1.
         11    1    3    3    0    0 -0.23517673380E+01 -0.22938064971E+02  0.12562330032E+01  0.23092504322E+02  0.51100000000E-03 0. -1.
        -11    1    3    3    0    0 -0.54654772994E+01  0.14470961949E+00  0.48412542633E+01  0.73027478450E+01  0.51100000000E-03 0.  1.
        -12    1    3    3    0    0  0.10764091169E+02 -0.15869075947E+02  0.61375672019E+01  0.20133627623E+02  0.00000000000E+00 0.  1.
</event>
<event>
 7    1  0.5373252E-013  0.5052886E+02  0.7816164E-02  0.1300439E+00
        -11   -1    0    0    0    0  0.00000000000E+00  0.00000000000E+00  0.45593999997E+02  0.45594000000E+02  0.51100000000E-03 0. -1.
         11   -1    0    0    0    0 -0.00000000000E+00 -0.00000000000E+00 -0.45593999997E+02  0.45594000000E+02  0.51100000000E-03 0.  1.
    9900012    2    1    2    0    0 -0.12595450619E+02 -0.14670219057E+02  0.35767377792E+02  0.50528855670E+02  0.29999987296E+02 0.  0.
        -12    1    1    2    0    0  0.12595450619E+02  0.14670219057E+02 -0.35767377792E+02  0.40659144330E+02  0.00000000000E+00 0.  1.
         11    1    3    3    0    0  0.70408822093E+01 -0.10563640190E+02  0.95900950482E+01  0.15910199233E+02  0.51100000000E-03 0.  1.
        -11    1    3    3    0    0 -0.47407008890E+01 -0.59035727179E+01  0.74461125723E+01  0.10619369494E+02  0.51100000000E-03 0. -1.
        -12    1    3    3    0    0 -0.14895631939E+02  0.17969938504E+01  0.18731170172E+02  0.23999286943E+02  0.00000000000E+00 0.  1.
</event>
<event>
 7    1  0.5373252E-013  0.5052888E+02  0.7816164E-02  0.1300439E+00
        -11   -1    0    0    0    0  0.00000000000E+00  0.00000000000E+00  0.45593999997E+02  0.45594000000E+02  0.51100000000E-03 0.  1.
         11   -1    0    0    0    0 -0.00000000000E+00 -0.00000000000E+00 -0.45593999997E+02  0.45594000000E+02  0.51100000000E-03 0. -1.
    9900012    2    1    2    0    0  0.45379097016E+01  0.14271156693E+01 -0.40379880601E+02  0.50528879978E+02  0.30000061181E+02 0.  0.
        -12    1    1    2    0    0 -0.45379097016E+01 -0.14271156693E+01  0.40379880601E+02  0.40659120022E+02  0.00000000000E+00 0.  1.
         11    1    3    3    0    0  0.25773400976E+01  0.10657873227E+02 -0.16132573858E+02  0.19506226781E+02  0.51100000000E-03 0. -1.
        -11    1    3    3    0    0  0.79519076528E+01 -0.28138691756E+01 -0.48472495626E+01  0.97286444914E+01  0.51100000000E-03 0.  1.
        -12    1    3    3    0    0 -0.59913380489E+01 -0.64168883824E+01 -0.19400057181E+02  0.21294008705E+02  0.00000000000E+00 0.  1.
</event>
<event>
 7    1  0.5471473E-013  0.5052886E+02  0.7816164E-02  0.1300439E+00
        -11   -1    0    0    0    0  0.00000000000E+00  0.00000000000E+00  0.45593999997E+02  0.45594000000E+02  0.51100000000E-03 0. -1.
         11   -1    0    0    0    0 -0.00000000000E+00 -0.00000000000E+00 -0.45593999997E+02  0.45594000000E+02  0.51100000000E-03 0.  1.
    9900012    2    1    2    0    0 -0.11965043053E+02 -0.39835108456E+01  0.38654040010E+02  0.50528862983E+02  0.30000009522E+02 0.  0.
        -12    1    1    2    0    0  0.11965043053E+02  0.39835108456E+01 -0.38654040010E+02  0.40659137017E+02  0.00000000000E+00 0.  1.
         11    1    3    3    0    0 -0.56133162597E+01 -0.38659751505E+01  0.17638638374E+02  0.18909697175E+02  0.51100000000E-03 0. -1.
        -11    1    3    3    0    0 -0.14252308165E+02  0.25532653509E+01  0.91924254731E+01  0.17150747456E+02  0.51100000000E-03 0.  1.
        -12    1    3    3    0    0  0.79005813718E+01 -0.26708010459E+01  0.11822976163E+02  0.14468418351E+02  0.00000000000E+00 0.  1.
</event>
<event>
 7    1  0.5373252E-013  0.5052887E+02  0.7816164E-02  0.1300439E+00
        -11   -1    0    0    0    0  0.00000000000E+00  0.00000000000E+00  0.45593999997E+02  0.45594000000E+02  0.51100000000E-03 0.  1.
         11   -1    0    0    0    0 -0.00000000000E+00 -0.00000000000E+00 -0.45593999997E+02  0.45594000000E+02  0.51100000000E-03 0. -1.
    9900012    2    1    2    0    0  0.86948970711E+01 -0.34827808353E+02 -0.19094170418E+02  0.50528870475E+02  0.30000032296E+02 0.  0.
        -12    1    1    2    0    0 -0.86948970711E+01  0.34827808353E+02  0.19094170418E+02  0.40659129525E+02  0.00000000000E+00 0.  1.
         11    1    3    3    0    0  0.60435383969E+01 -0.29910757110E+02 -0.86357592478E+01  0.31713626177E+02  0.51100000000E-03 0. -1.
        -11    1    3    3    0    0  0.22570503387E+01 -0.90529801651E+01 -0.11218842765E+02  0.14591544104E+02  0.51100000000E-03 0.  1.
        -12    1    3    3    0    0  0.39430833555E+00  0.41359289221E+01  0.76043159456E+00  0.42237001932E+01  0.00000000000E+00 0.  1.
</event>
<event>
 7    1  0.5373252E-013  0.5052886E+02  0.7816164E-02  0.1300439E+00
        -11   -1    0    0    0    0  0.00000000000E+00  0.00000000000E+00  0.45593999997E+02  0.45594000000E+02  0.51100000000E-03 0.  1.
         11   -1    0    0    0    0 -0.00000000000E+00 -0.00000000000E+00 -0.45593999997E+02  0.45594000000E+02  0.51100000000E-03 0. -1.
    9900012    2    1    2    0    0  0.27247105519E+02 -0.27280841420E+02 -0.12904146529E+02  0.50528855083E+02  0.29999985510E+02 0.  0.
        -12    1    1    2    0    0 -0.27247105519E+02  0.27280841420E+02  0.12904146529E+02  0.40659144917E+02  0.00000000000E+00 0.  1.
         11    1    3    3    0    0  0.14208978472E+02 -0.26740445142E+02 -0.60826160071E+01  0.30885995101E+02  0.51100000000E-03 0.  1.
        -11    1    3    3    0    0  0.13556309348E+02 -0.18389906833E+01 -0.10682435026E+01  0.13722119162E+02  0.51100000000E-03 0. -1.
        -12    1    3    3    0    0 -0.51818230029E+00  0.12985944057E+01 -0.57532870192E+01  0.59207408196E+01  0.00000000000E+00 0.  1.
</event>
<event>
 7    1  0.5373252E-013  0.5052886E+02  0.7816164E-02  0.1300439E+00
        -11   -1    0    0    0    0  0.00000000000E+00  0.00000000000E+00  0.45593999997E+02  0.45594000000E+02  0.51100000000E-03 0.  1.
         11   -1    0    0    0    0 -0.00000000000E+00 -0.00000000000E+00 -0.45593999997E+02  0.45594000000E+02  0.51100000000E-03 0. -1.
    9900012    2    1    2    0    0 -0.45026385449E+01  0.32739226347E+02 -0.23686177075E+02  0.50528859821E+02  0.29999999911E+02 0.  0.
        -12    1    1    2    0    0  0.45026385449E+01 -0.32739226347E+02  0.23686177075E+02  0.40659140179E+02  0.00000000000E+00 0.  1.
         11    1    3    3    0    0 -0.71930731385E+01 -0.14077058246E+01 -0.49625445707E+01  0.88514849455E+01  0.51100000000E-03 0. -1.
        -11    1    3    3    0    0 -0.15091869512E+01  0.55557710205E+01  0.20242206280E+01  0.61025983235E+01  0.51100000000E-03 0.  1.
        -12    1    3    3    0    0  0.41996215449E+01  0.28591161152E+02 -0.20747853132E+02  0.35574776552E+02  0.00000000000E+00 0.  1.
</event>
<event>
 7    1  0.5373252E-013  0.5052885E+02  0.7816164E-02  0.1300439E+00
        -11   -1    0    0    0    0  0.00000000000E+00  0.00000000000E+00  0.45593999997E+02  0.45594000000E+02  0.51100000000E-03 0.  1.
         11   -1    0    0    0    0 -0.00000000000E+00 -0.00000000000E+00 -0.45593999997E+02  0.45594000000E+02  0.51100000000E-03 0. -1.
    9900012    2    1    2    0    0 -0.39806552811E+02  0.10875351385E+01  0.82110731311E+01  0.50528854641E+02  0.29999984166E+02 0.  0.
        -12    1    1    2    0    0  0.39806552811E+02 -0.10875351385E+01 -0.82110731311E+01  0.40659145359E+02  0.00000000000E+00 0.  1.
         11    1    3    3    0    0 -0.50440934443E+01  0.63967206261E+01 -0.16626867847E+01  0.83141710981E+01  0.51100000000E-03 0. -1.
        -11    1    3    3    0    0 -0.17002630023E+02 -0.12144898759E+02  0.26479801681E+00  0.20896365996E+02  0.51100000000E-03 0.  1.
         12    1    3    3    0    0 -0.17759829344E+02  0.68357132715E+01  0.96089618989E+01  0.21318317547E+02  0.00000000000E+00 0. -1.
</event>
<event>
 7    1  0.5373252E-013  0.5052886E+02  0.7816164E-02  0.1300439E+00
        -11   -1    0    0    0    0  0.00000000000E+00  0.00000000000E+00  0.45593999997E+02  0.45594000000E+02  0.51100000000E-03 0. -1.
         11   -1    0    0    0    0 -0.00000000000E+00 -0.00000000000E+00 -0.45593999997E+02  0.45594000000E+02  0.51100000000E-03 0.  1.
    9900012    2    1    2    0    0  0.14336832423E+02 -0.36164717311E+02  0.11820924668E+02  0.50528858320E+02  0.29999995350E+02 0.  0.
        -12    1    1    2    0    0 -0.14336832423E+02  0.36164717311E+02 -0.11820924668E+02  0.40659141680E+02  0.00000000000E+00 0.  1.
         11    1    3    3    0    0  0.43127189227E+01 -0.24346923129E+00 -0.15819450824E+01  0.46001491582E+01  0.51100000000E-03 0. -1.
        -11    1    3    3    0    0 -0.31840686472E+01 -0.21255425250E+02 -0.96784743907E+00  0.21514370190E+02  0.51100000000E-03 0.  1.
         12    1    3    3    0    0  0.13208182147E+02 -0.14665822830E+02  0.14370717190E+02  0.24414338972E+02  0.00000000000E+00 0. -1.
</event>
<event>
 7    1  0.5373252E-013  0.5052886E+02  0.7816164E-02  0.1300439E+00
        -11   -1    0    0    0    0  0.00000000000E+00  0.00000000000E+00  0.45593999997E+02  0.45594000000E+02  0.51100000000E-03 0.  1.
         11   -1    0    0    0    0 -0.00000000000E+00 -0.00000000000E+00 -0.45593999997E+02  0.45594000000E+02  0.51100000000E-03 0. -1.
    9900012    2    1    2    0    0  0.24553658469E+02 -0.31289504296E+02 -0.84410046309E+01  0.50528858562E+02  0.29999996085E+02 0.  0.
        -12    1    1    2    0    0 -0.24553658469E+02  0.31289504296E+02  0.84410046309E+01  0.40659141438E+02  0.00000000000E+00 0.  1.
         11    1    3    3    0    0  0.55173253751E+01 -0.75847296931E+01 -0.69518732352E+01  0.11674653980E+02  0.51100000000E-03 0. -1.
        -11    1    3    3    0    0  0.15333460683E+02 -0.98082677127E+00 -0.34494241047E+01  0.15747239904E+02  0.51100000000E-03 0.  1.
         12    1    3    3    0    0  0.37028724116E+01 -0.22723947831E+02  0.19602927091E+01  0.23106964678E+02  0.00000000000E+00 0. -1.
</event>
<event>
 7    1  0.5373252E-013  0.5052885E+02  0.7816164E-02  0.1300439E+00
        -11   -1    0    0    0    0  0.00000000000E+00  0.00000000000E+00  0.45593999997E+02  0.45594000000E+02  0.51100000000E-03 0.  1.
         11   -1    0    0    0    0 -0.00000000000E+00 -0.00000000000E+00 -0.45593999997E+02  0.45594000000E+02  0.51100000000E-03 0. -1.
    9900012    2    1    2    0    0 -0.24727932800E+02  0.18181815106E+02 -0.26666777872E+02  0.50528854618E+02  0.29999984098E+02 0.  0.
        -12    1    1    2    0    0  0.24727932800E+02 -0.18181815106E+02  0.26666777872E+02  0.40659145382E+02  0.00000000000E+00 0.  1.
         11    1    3    3    0    0 -0.11259754555E+02  0.16663727911E+02 -0.16514982489E+02  0.26023192491E+02  0.51100000000E-03 0. -1.
        -11    1    3    3    0    0 -0.12083701637E+02  0.78732008469E+01 -0.28034080194E+01  0.14692250801E+02  0.51100000000E-03 0.  1.
         12    1    3    3    0    0 -0.13844766079E+01 -0.63551136521E+01 -0.73483873637E+01  0.98134113262E+01  0.00000000000E+00 0. -1.
</event>
<event>
 7    1  0.5373252E-013  0.5052886E+02  0.7816164E-02  0.1300439E+00
        -11   -1    0    0    0    0  0.00000000000E+00  0.00000000000E+00  0.45593999997E+02  0.45594000000E+02  0.51100000000E-03 0. -1.
         11   -1    0    0    0    0 -0.00000000000E+00 -0.00000000000E+00 -0.45593999997E+02  0.45594000000E+02  0.51100000000E-03 0.  1.
    9900012    2    1    2    0    0  0.36270269587E+02 -0.74955517039E+01 -0.16776466623E+02  0.50528861008E+02  0.30000003520E+02 0.  0.
        -12    1    1    2    0    0 -0.36270269587E+02  0.74955517039E+01  0.16776466623E+02  0.40659138992E+02  0.00000000000E+00 0.  1.
         11    1    3    3    0    0  0.10560516318E+02 -0.16460008288E+01  0.16315595585E+01  0.10811836591E+02  0.51100000000E-03 0. -1.
        -11    1    3    3    0    0  0.28894666689E+02 -0.93288671224E+01 -0.14799012561E+02  0.33777807772E+02  0.51100000000E-03 0.  1.
         12    1    3    3    0    0 -0.31849134199E+01  0.34793162472E+01 -0.36090136199E+01  0.59392166444E+01  0.00000000000E+00 0. -1.
</event>
<event>
 7    1  0.5373252E-013  0.5052886E+02  0.7816164E-02  0.1300439E+00
        -11   -1    0    0    0    0  0.00000000000E+00  0.00000000000E+00  0.45593999997E+02  0.45594000000E+02  0.51100000000E-03 0.  1.
         11   -1    0    0    0    0 -0.00000000000E+00 -0.00000000000E+00 -0.45593999997E+02  0.45594000000E+02  0.51100000000E-03 0. -1.
    9900012    2    1    2    0    0 -0.14580858809E+02 -0.36927737978E+02 -0.87696478038E+01  0.50528855907E+02  0.29999988014E+02 0.  0.
        -12    1    1    2    0    0  0.14580858809E+02  0.36927737978E+02  0.87696478038E+01  0.40659144093E+02  0.00000000000E+00 0.  1.
         11    1    3    3    0    0 -0.14898340184E+02 -0.16500167945E+02 -0.12264177849E+01  0.22264774495E+02  0.51100000000E-03 0.  1.
        -11    1    3    3    0    0 -0.39345935195E+01 -0.64032247648E+01 -0.10890418724E+02  0.13231913460E+02  0.51100000000E-03 0. -1.
         12    1    3    3    0    0  0.42520748950E+01 -0.14024345268E+02  0.33471887054E+01  0.15032167952E+02  0.00000000000E+00 0. -1.
</event>
<event>
 7    1  0.5373252E-013  0.5052890E+02  0.7816164E-02  0.1300439E+00
        -11   -1    0    0    0    0  0.00000000000E+00  0.00000000000E+00  0.45593999997E+02  0.45594000000E+02  0.51100000000E-03 0. -1.
         11   -1    0    0    0    0 -0.00000000000E+00 -0.00000000000E+00 -0.45593999997E+02  0.45594000000E+02  0.51100000000E-03 0.  1.
    9900012    2    1    2    0    0 -0.22279517549E+02  0.22895000863E+02 -0.25151633606E+02  0.50528897208E+02  0.30000113555E+02 0.  0.
        -12    1    1    2    0    0  0.22279517549E+02 -0.22895000863E+02  0.25151633606E+02  0.40659102792E+02  0.00000000000E+00 0.  1.
         11    1    3    3    0    0  0.75402363427E+00  0.14747486412E+02 -0.98487147647E+01  0.17749763094E+02  0.51100000000E-03 0. -1.
        -11    1    3    3    0    0 -0.53991493392E+01 -0.24982144148E+01  0.15692319162E+01  0.61525911547E+01  0.51100000000E-03 0.  1.
         12    1    3    3    0    0 -0.17634391844E+02  0.10645728867E+02 -0.16872150757E+02  0.26626542960E+02  0.00000000000E+00 0. -1.
</event>
<event>
 7    1  0.5373252E-013  0.5052884E+02  0.7816164E-02  0.1300439E+00
        -11   -1    0    0    0    0  0.00000000000E+00  0.00000000000E+00  0.45593999997E+02  0.45594000000E+02  0.51100000000E-03 0.  1.
         11   -1    0    0    0    0 -0.00000000000E+00 -0.00000000000E+00 -0.45593999997E+02  0.45594000000E+02  0.51100000000E-03 0. -1.
    9900012    2    1    2    0    0  0.14481790894E+02 -0.19836306621E+02 -0.32403179021E+02  0.50528839426E+02  0.29999937921E+02 0.  0.
        -12    1    1    2    0    0 -0.14481790894E+02  0.19836306621E+02  0.32403179021E+02  0.40659160574E+02  0.00000000000E+00 0.  1.
         11    1    3    3    0    0  0.15769738837E+02 -0.11639234420E+02 -0.25925078376E+02  0.32500248152E+02  0.51100000000E-03 0. -1.
        -11    1    3    3    0    0  0.40517219499E+01 -0.10048939349E+02 -0.59268042291E+01  0.12350086697E+02  0.51100000000E-03 0.  1.
         12    1    3    3    0    0 -0.53396698935E+01  0.18518671471E+01 -0.55129641646E+00  0.56785045778E+01  0.00000000000E+00 0. -1.
</event>
<event>
 7    1  0.5373252E-013  0.5052886E+02  0.7816164E-02  0.1300439E+00
        -11   -1    0    0    0    0  0.00000000000E+00  0.00000000000E+00  0.45593999997E+02  0.45594000000E+02  0.51100000000E-03 0. -1.
         11   -1    0    0    0    0 -0.00000000000E+00 -0.00000000000E+00 -0.45593999997E+02  0.45594000000E+02  0.51100000000E-03 0.  1.
    9900012    2    1    2    0    0 -0.34779158982E+02  0.93953758199E+00  0.21040265140E+02  0.50528863419E+02  0.30000010849E+02 0.  0.
        -12    1    1    2    0    0  0.34779158982E+02 -0.93953758199E+00 -0.21040265140E+02  0.40659136581E+02  0.00000000000E+00 0.  1.
         11    1    3    3    0    0 -0.10533248604E+02  0.37345828554E+01 -0.36199825562E+01  0.11747370311E+02  0.51100000000E-03 0. -1.
        -11    1    3    3    0    0  0.25089523106E+01  0.50764794438E+00  0.55764914849E+00  0.26198322401E+01  0.51100000000E-03 0.  1.
         12    1    3    3    0    0 -0.26754862688E+02 -0.33026932178E+01  0.24102598548E+02  0.36161660868E+02  0.00000000000E+00 0. -1.
</event>
<event>
 7    1  0.5373252E-013  0.5052889E+02  0.7816164E-02  0.1300439E+00
        -11   -1    0    0    0    0  0.00000000000E+00  0.00000000000E+00  0.45593999997E+02  0.45594000000E+02  0.51100000000E-03 0.  1.
         11   -1    0    0    0    0 -0.00000000000E+00 -0.00000000000E+00 -0.45593999997E+02  0.45594000000E+02  0.51100000000E-03 0. -1.
    9900012    2    1    2    0    0  0.68681583752E+01  0.13146512535E+01 -0.40053259411E+02  0.50528886670E+02  0.30000081521E+02 0.  0.
        -12    1    1    2    0    0 -0.68681583752E+01 -0.13146512535E+01  0.40053259411E+02  0.40659113330E+02  0.00000000000E+00 0.  1.
         11    1    3    3    0    0  0.39044293327E+00  0.78641584970E+01 -0.60896852084E+01  0.99539791415E+01  0.51100000000E-03 0. -1.
        -11    1    3    3    0    0 -0.51962828987E+01 -0.78453504394E+01 -0.91670993928E+01  0.13137221587E+02  0.51100000000E-03 0.  1.
         12    1    3    3    0    0  0.11673998341E+02  0.12958431959E+01 -0.24796474810E+02  0.27437685942E+02  0.00000000000E+00 0. -1.
</event>
<event>
 7    1  0.5373252E-013  0.5052884E+02  0.7816164E-02  0.1300439E+00
        -11   -1    0    0    0    0  0.00000000000E+00  0.00000000000E+00  0.45593999997E+02  0.45594000000E+02  0.51100000000E-03 0.  1.
         11   -1    0    0    0    0 -0.00000000000E+00 -0.00000000000E+00 -0.45593999997E+02  0.45594000000E+02  0.51100000000E-03 0. -1.
    9900012    2    1    2    0    0  0.39310053874E+01 -0.30075035108E+02 -0.27077790710E+02  0.50528840025E+02  0.29999939741E+02 0.  0.
        -12    1    1    2    0    0 -0.39310053874E+01  0.30075035108E+02  0.27077790710E+02  0.40659159975E+02  0.00000000000E+00 0.  1.
         11    1    3    3    0    0 -0.59193629032E+01 -0.99601739811E+01 -0.14653367044E+02  0.18680607295E+02  0.51100000000E-03 0. -1.
        -11    1    3    3    0    0  0.74328200106E+01 -0.20607206723E+02 -0.16264161837E+02  0.27284184846E+02  0.51100000000E-03 0.  1.
        -12    1    3    3    0    0  0.24175482799E+01  0.49234559539E+00  0.38397381708E+01  0.45640478844E+01  0.00000000000E+00 0.  1.
</event>
<event>
 7    1  0.5373252E-013  0.5052886E+02  0.7816164E-02  0.1300439E+00
        -11   -1    0    0    0    0  0.00000000000E+00  0.00000000000E+00  0.45593999997E+02  0.45594000000E+02  0.51100000000E-03 0. -1.
         11   -1    0    0    0    0 -0.00000000000E+00 -0.00000000000E+00 -0.45593999997E+02  0.45594000000E+02  0.51100000000E-03 0.  1.
    9900012    2    1    2    0    0 -0.28220419026E+02  0.28121565852E+02 -0.81210270356E+01  0.50528860855E+02  0.30000003054E+02 0.  0.
        -12    1    1    2    0    0  0.28220419026E+02 -0.28121565852E+02  0.81210270356E+01  0.40659139145E+02  0.00000000000E+00 0.  1.
         11    1    3    3    0    0 -0.11916040709E+02  0.25497127432E+01 -0.81372012729E+01  0.14652887295E+02  0.51100000000E-03 0. -1.
        -11    1    3    3    0    0 -0.61711869268E+01  0.14374452069E+02 -0.92351435978E+01  0.18165800227E+02  0.51100000000E-03 0.  1.
        -12    1    3    3    0    0 -0.10133191389E+02  0.11197401040E+02  0.92513178351E+01  0.17710173333E+02  0.00000000000E+00 0.  1.
</event>
<event>
 7    1  0.5373252E-013  0.5052886E+02  0.7816164E-02  0.1300439E+00
        -11   -1    0    0    0    0  0.00000000000E+00  0.00000000000E+00  0.45593999997E+02  0.45594000000E+02  0.51100000000E-03 0.  1.
         11   -1    0    0    0    0 -0.00000000000E+00 -0.00000000000E+00 -0.45593999997E+02  0.45594000000E+02  0.51100000000E-03 0. -1.
    9900012    2    1    2    0    0 -0.18913224323E+02  0.35131696501E+02  0.78243066530E+01  0.50528856773E+02  0.29999990649E+02 0.  0.
        -12    1    1    2    0    0  0.18913224323E+02 -0.35131696501E+02 -0.78243066530E+01  0.40659143227E+02  0.00000000000E+00 0.  1.
         11    1    3    3    0    0 -0.23356394456E+01  0.15509609963E+01  0.39621466200E+01  0.48537920980E+01  0.51100000000E-03 0. -1.
        -11    1    3    3    0    0  0.39630300101E+01  0.10243484846E+02  0.89550821383E+01  0.14171382608E+02  0.51100000000E-03 0.  1.
         12    1    3    3    0    0 -0.20540614887E+02  0.23337250659E+02 -0.50929221053E+01  0.31503682068E+02  0.00000000000E+00 0. -1.
</event>
<event>
 7    1  0.5373252E-013  0.5052886E+02  0.7816164E-02  0.1300439E+00
        -11   -1    0    0    0    0  0.00000000000E+00  0.00000000000E+00  0.45593999997E+02  0.45594000000E+02  0.51100000000E-03 0.  1.
         11   -1    0    0    0    0 -0.00000000000E+00 -0.00000000000E+00 -0.45593999997E+02  0.45594000000E+02  0.51100000000E-03 0. -1.
    9900012    2    1    2    0    0  0.34351284349E+02  0.12391775683E+02 -0.17877318154E+02  0.50528863937E+02  0.30000012423E+02 0.  0.
        -12    1    1    2    0    0 -0.34351284349E+02 -0.12391775683E+02  0.17877318154E+02  0.40659136063E+02  0.00000000000E+00 0.  1.
         11    1    3    3    0    0  0.30116056002E+02  0.30820626963E+01 -0.22501753747E+01  0.30356864611E+02  0.51100000000E-03 0. -1.
        -11    1    3    3    0    0 -0.71726941524E+00 -0.97444972265E+00 -0.76181333401E+00  0.14298207905E+01  0.51100000000E-03 0.  1.
        -12    1    3    3    0    0  0.49524977628E+01  0.10284162710E+02 -0.14865329445E+02  0.18742178535E+02  0.00000000000E+00 0.  1.
</event>
<event>
 7    1  0.5373252E-013  0.5052885E+02  0.7816164E-02  0.1300439E+00
        -11   -1    0    0    0    0  0.00000000000E+00  0.00000000000E+00  0.45593999997E+02  0.45594000000E+02  0.51100000000E-03 0.  1.
         11   -1    0    0    0    0 -0.00000000000E+00 -0.00000000000E+00 -0.45593999997E+02  0.45594000000E+02  0.51100000000E-03 0. -1.
    9900012    2    1    2    0    0 -0.31514547172E+02  0.12757427198E+02 -0.22299053422E+02  0.50528850775E+02  0.29999972417E+02 0.  0.
        -12    1    1    2    0    0  0.31514547172E+02 -0.12757427198E+02  0.22299053422E+02  0.40659149225E+02  0.00000000000E+00 0.  1.
         11    1    3    3    0    0 -0.44390382727E+01 -0.27318752017E+00  0.14776459957E+01  0.46864837733E+01  0.51100000000E-03 0. -1.
        -11    1    3    3    0    0 -0.17703344084E+01  0.99513539639E+01  0.11697112883E+01  0.10175055498E+02  0.51100000000E-03 0.  1.
         12    1    3    3    0    0 -0.25305174491E+02  0.30792607541E+01 -0.24946410706E+02  0.35667311504E+02  0.00000000000E+00 0. -1.
</event>
<event>
 7    1  0.5373252E-013  0.5052886E+02  0.7816164E-02  0.1300439E+00
        -11   -1    0    0    0    0  0.00000000000E+00  0.00000000000E+00  0.45593999997E+02  0.45594000000E+02  0.51100000000E-03 0.  1.
         11   -1    0    0    0    0 -0.00000000000E+00 -0.00000000000E+00 -0.45593999997E+02  0.45594000000E+02  0.51100000000E-03 0. -1.
    9900012    2    1    2    0    0  0.18825577032E+02 -0.22071003777E+01 -0.35970707582E+02  0.50528862692E+02  0.30000008639E+02 0.  0.
        -12    1    1    2    0    0 -0.18825577032E+02  0.22071003777E+01  0.35970707582E+02  0.40659137308E+02  0.00000000000E+00 0.  1.
         11    1    3    3    0    0  0.28221906012E+01 -0.53450985225E+00  0.26940239805E+01  0.39380485066E+01  0.51100000000E-03 0.  1.
        -11    1    3    3    0    0 -0.21590173674E+01  0.59250394362E+01 -0.91722975836E+01  0.11130969928E+02  0.51100000000E-03 0. -1.
         12    1    3    3    0    0  0.18162403798E+02 -0.75976299617E+01 -0.29492433979E+02  0.35459844258E+02  0.00000000000E+00 0. -1.
</event>
<event>
 7    1  0.5373252E-013  0.5052886E+02  0.7816164E-02  0.1300439E+00
        -11   -1    0    0    0    0  0.00000000000E+00  0.00000000000E+00  0.45593999997E+02  0.45594000000E+02  0.51100000000E-03 0. -1.
         11   -1    0    0    0    0 -0.00000000000E+00 -0.00000000000E+00 -0.45593999997E+02  0.45594000000E+02  0.51100000000E-03 0.  1.
    9900012    2    1    2    0    0 -0.33267945601E+02  0.92812246092E+01  0.21453861879E+02  0.50528861738E+02  0.30000005737E+02 0.  0.
        -12    1    1    2    0    0  0.33267945601E+02 -0.92812246092E+01 -0.21453861879E+02  0.40659138262E+02  0.00000000000E+00 0.  1.
         11    1    3    3    0    0 -0.24901197543E+02 -0.24013128496E+01  0.34641102819E+01  0.25255415316E+02  0.51100000000E-03 0. -1.
        -11    1    3    3    0    0  0.12005904625E+01 -0.80369373112E+00  0.38875995282E+01  0.41473812732E+01  0.51100000000E-03 0.  1.
        -12    1    3    3    0    0 -0.95673385204E+01  0.12486231190E+02  0.14102152069E+02  0.21126065149E+02  0.00000000000E+00 0.  1.
</event>
<event>
 7    1  0.5373252E-013  0.5052886E+02  0.7816164E-02  0.1300439E+00
        -11   -1    0    0    0    0  0.00000000000E+00  0.00000000000E+00  0.45593999997E+02  0.45594000000E+02  0.51100000000E-03 0. -1.
         11   -1    0    0    0    0 -0.00000000000E+00 -0.00000000000E+00 -0.45593999997E+02  0.45594000000E+02  0.51100000000E-03 0.  1.
    9900012    2    1    2    0    0 -0.28878443273E+00  0.20115952462E+02  0.35333143325E+02  0.50528856414E+02  0.29999989556E+02 0.  0.
        -12    1    1    2    0    0  0.28878443273E+00 -0.20115952462E+02 -0.35333143325E+02  0.40659143586E+02  0.00000000000E+00 0.  1.
         11    1    3    3    0    0  0.78664057413E+01  0.96104807528E+01  0.16308421300E+02  0.20498933757E+02  0.51100000000E-03 0. -1.
        -11    1    3    3    0    0 -0.31257889135E+00  0.86451108216E+01 -0.74247853987E+00  0.86825642136E+01  0.51100000000E-03 0.  1.
        -12    1    3    3    0    0 -0.78426112827E+01  0.18603608875E+01  0.19767200565E+02  0.21347358444E+02  0.00000000000E+00 0.  1.
</event>
<event>
 7    1  0.9047236E-013  0.5052886E+02  0.7816164E-02  0.1300439E+00
        -11   -1    0    0    0    0  0.00000000000E+00  0.00000000000E+00  0.45593999997E+02  0.45594000000E+02  0.51100000000E-03 0. -1.
         11   -1    0    0    0    0 -0.00000000000E+00 -0.00000000000E+00 -0.45593999997E+02  0.45594000000E+02  0.51100000000E-03 0.  1.
    9900012    2    1    2    0    0 -0.20459001599E+02 -0.12191412311E+02  0.32953975338E+02  0.50528858701E+02  0.29999996509E+02 0.  0.
        -12    1    1    2    0    0  0.20459001599E+02  0.12191412311E+02 -0.32953975338E+02  0.40659141299E+02  0.00000000000E+00 0.  1.
         11    1    3    3    0    0 -0.21382520817E+02 -0.56385017143E+01  0.27234207309E+02  0.35081433067E+02  0.51100000000E-03 0. -1.
        -11    1    3    3    0    0 -0.17183905636E+01  0.27545149607E+01 -0.12966626478E+01  0.34959337925E+01  0.51100000000E-03 0.  1.
        -12    1    3    3    0    0  0.26419097811E+01 -0.93074255573E+01  0.70164306768E+01  0.11951491842E+02  0.00000000000E+00 0.  1.
</event>
<event>
 7    1  0.5373252E-013  0.5052887E+02  0.7816164E-02  0.1300439E+00
        -11   -1    0    0    0    0  0.00000000000E+00  0.00000000000E+00  0.45593999997E+02  0.45594000000E+02  0.51100000000E-03 0.  1.
         11   -1    0    0    0    0 -0.00000000000E+00 -0.00000000000E+00 -0.45593999997E+02  0.45594000000E+02  0.51100000000E-03 0. -1.
    9900012    2    1    2    0    0 -0.46844969331E+01  0.22686290094E+02 -0.33414856139E+02  0.50528869653E+02  0.30000029798E+02 0.  0.
        -12    1    1    2    0    0  0.46844969331E+01 -0.22686290094E+02  0.33414856139E+02  0.40659130347E+02  0.00000000000E+00 0.  1.
         11    1    3    3    0    0  0.29012200286E+01  0.66990786934E+01 -0.15081020030E+02  0.16755055905E+02  0.51100000000E-03 0. -1.
        -11    1    3    3    0    0 -0.57637160535E+00  0.11231631134E+02  0.22910058555E+01  0.11477388651E+02  0.51100000000E-03 0.  1.
         12    1    3    3    0    0 -0.70093453563E+01  0.47555802664E+01 -0.20624841965E+02  0.22296425096E+02  0.00000000000E+00 0. -1.
</event>
<event>
 7    1  0.5373252E-013  0.5052873E+02  0.7816164E-02  0.1300439E+00
        -11   -1    0    0    0    0  0.00000000000E+00  0.00000000000E+00  0.45593999997E+02  0.45594000000E+02  0.51100000000E-03 0.  1.
         11   -1    0    0    0    0 -0.00000000000E+00 -0.00000000000E+00 -0.45593999997E+02  0.45594000000E+02  0.51100000000E-03 0. -1.
    9900012    2    1    2    0    0  0.33125275548E+02 -0.23201498641E+02 -0.41931751624E+01  0.50528731225E+02  0.29999609029E+02 0.  0.
        -12    1    1    2    0    0 -0.33125275548E+02  0.23201498641E+02  0.41931751624E+01  0.40659268775E+02  0.00000000000E+00 0.  1.
         11    1    3    3    0    0 -0.62387317030E+00 -0.31838188441E+01 -0.62507052776E+00  0.33040329282E+01  0.51100000000E-03 0. -1.
        -11    1    3    3    0    0  0.25290284204E+02 -0.90284819107E+01 -0.13607490428E+02  0.30104414240E+02  0.51100000000E-03 0.  1.
         12    1    3    3    0    0  0.84588645145E+01 -0.10989197887E+02  0.10039385793E+02  0.17120284057E+02  0.00000000000E+00 0. -1.
</event>
<event>
 7    1  0.5373252E-013  0.5052886E+02  0.7816164E-02  0.1300439E+00
        -11   -1    0    0    0    0  0.00000000000E+00  0.00000000000E+00  0.45593999997E+02  0.45594000000E+02  0.51100000000E-03 0. -1.
         11   -1    0    0    0    0 -0.00000000000E+00 -0.00000000000E+00 -0.45593999997E+02  0.45594000000E+02  0.51100000000E-03 0.  1.
    9900012    2    1    2    0    0  0.19054272255E+02 -0.15442816640E+01  0.35884752695E+02  0.50528861138E+02  0.30000003915E+02 0.  0.
        -12    1    1    2    0    0 -0.19054272255E+02  0.15442816640E+01 -0.35884752695E+02  0.40659138862E+02  0.00000000000E+00 0.  1.
         11    1    3    3    0    0  0.44255343772E+01 -0.87394501935E+01  0.10052121314E+02  0.14035971195E+02  0.51100000000E-03 0. -1.
        -11    1    3    3    0    0  0.14006736864E+02 -0.10820291002E+00  0.57983598211E+01  0.15159860234E+02  0.51100000000E-03 0.  1.
        -12    1    3    3    0    0  0.62200101431E+00  0.73033714395E+01  0.20034271560E+02  0.21333029709E+02  0.00000000000E+00 0.  1.
</event>
<event>
 7    1  0.5373252E-013  0.5052886E+02  0.7816164E-02  0.1300439E+00
        -11   -1    0    0    0    0  0.00000000000E+00  0.00000000000E+00  0.45593999997E+02  0.45594000000E+02  0.51100000000E-03 0.  1.
         11   -1    0    0    0    0 -0.00000000000E+00 -0.00000000000E+00 -0.45593999997E+02  0.45594000000E+02  0.51100000000E-03 0. -1.
    9900012    2    1    2    0    0  0.38278950601E+02  0.80867943367E+01 -0.11067575936E+02  0.50528861558E+02  0.30000005192E+02 0.  0.
        -12    1    1    2    0    0 -0.38278950601E+02 -0.80867943367E+01  0.11067575936E+02  0.40659138442E+02  0.00000000000E+00 0.  1.
         11    1    3    3    0    0  0.28344886748E+02  0.18214204364E+02 -0.10771851639E+02  0.35372625481E+02  0.51100000000E-03 0. -1.
        -11    1    3    3    0    0  0.27974236724E+01 -0.56905021392E+00  0.12713999937E+01  0.31250368884E+01  0.51100000000E-03 0.  1.
         12    1    3    3    0    0  0.71366401798E+01 -0.95583598138E+01 -0.15671242911E+01  0.12031199189E+02  0.00000000000E+00 0. -1.
</event>
<event>
 7    1  0.5373252E-013  0.5052885E+02  0.7816164E-02  0.1300439E+00
        -11   -1    0    0    0    0  0.00000000000E+00  0.00000000000E+00  0.45593999997E+02  0.45594000000E+02  0.51100000000E-03 0.  1.
         11   -1    0    0    0    0 -0.00000000000E+00 -0.00000000000E+00 -0.45593999997E+02  0.45594000000E+02  0.51100000000E-03 0. -1.
    9900012    2    1    2    0    0  0.21308796320E+02 -0.15652382017E+02 -0.30888577604E+02  0.50528854782E+02  0.29999984597E+02 0.  0.
        -12    1    1    2    0    0 -0.21308796320E+02  0.15652382017E+02  0.30888577604E+02  0.40659145218E+02  0.00000000000E+00 0.  1.
         11    1    3    3    0    0 -0.33147769942E+01  0.27440286020E+00 -0.20450174019E-01  0.33261782757E+01  0.51100000000E-03 0.  1.
        -11    1    3    3    0    0  0.12926259707E+02 -0.18259967837E+02 -0.13488836331E+02  0.26123998952E+02  0.51100000000E-03 0. -1.
         12    1    3    3    0    0  0.11697313607E+02  0.23331829599E+01 -0.17379291099E+02  0.21078677555E+02  0.00000000000E+00 0. -1.
</event>
<event>
 7    1  0.5373252E-013  0.5052885E+02  0.7816164E-02  0.1300439E+00
        -11   -1    0    0    0    0  0.00000000000E+00  0.00000000000E+00  0.45593999997E+02  0.45594000000E+02  0.51100000000E-03 0.  1.
         11   -1    0    0    0    0 -0.00000000000E+00 -0.00000000000E+00 -0.45593999997E+02  0.45594000000E+02  0.51100000000E-03 0. -1.
    9900012    2    1    2    0    0 -0.23017455675E+02 -0.34317761300E+01 -0.33340452973E+02  0.50528853949E+02  0.29999982063E+02 0.  0.
        -12    1    1    2    0    0  0.23017455675E+02  0.34317761300E+01  0.33340452973E+02  0.40659146051E+02  0.00000000000E+00 0.  1.
         11    1    3    3    0    0 -0.23988423734E+02 -0.49565204952E+01 -0.25717997491E+02  0.35516573087E+02  0.51100000000E-03 0. -1.
        -11    1    3    3    0    0 -0.30484415243E+01 -0.10566428897E+01  0.23253128951E+01  0.39770051854E+01  0.51100000000E-03 0.  1.
         12    1    3    3    0    0  0.40194095835E+01  0.25813872549E+01 -0.99477683775E+01  0.11035275676E+02  0.00000000000E+00 0. -1.
</event>
<event>
 7    1  0.5373252E-013  0.5052891E+02  0.7816164E-02  0.1300439E+00
        -11   -1    0    0    0    0  0.00000000000E+00  0.00000000000E+00  0.45593999997E+02  0.45594000000E+02  0.51100000000E-03 0.  1.
         11   -1    0    0    0    0 -0.00000000000E+00 -0.00000000000E+00 -0.45593999997E+02  0.45594000000E+02  0.51100000000E-03 0. -1.
    9900012    2    1    2    0    0 -0.22533849964E+02  0.33023549317E+02 -0.74049163632E+01  0.50528905199E+02  0.30000137842E+02 0.  0.
        -12    1    1    2    0    0  0.22533849964E+02 -0.33023549317E+02  0.74049163632E+01  0.40659094801E+02  0.00000000000E+00 0.  1.
         11    1    3    3    0    0 -0.61186031696E+01  0.15265148412E+02 -0.73863240989E+01  0.18028306763E+02  0.51100000000E-03 0. -1.
        -11    1    3    3    0    0  0.42423060771E+01 -0.11255065729E+01 -0.97521565405E+00  0.44961062854E+01  0.51100000000E-03 0.  1.
         12    1    3    3    0    0 -0.20657552872E+02  0.18883907478E+02  0.95662338978E+00  0.28004492150E+02  0.00000000000E+00 0. -1.
</event>
<event>
 7    1  0.5373252E-013  0.5052886E+02  0.7816164E-02  0.1300439E+00
        -11   -1    0    0    0    0  0.00000000000E+00  0.00000000000E+00  0.45593999997E+02  0.45594000000E+02  0.51100000000E-03 0.  1.
         11   -1    0    0    0    0 -0.00000000000E+00 -0.00000000000E+00 -0.45593999997E+02  0.45594000000E+02  0.51100000000E-03 0. -1.
    9900012    2    1    2    0    0 -0.70372736116E+01 -0.39851374222E+02 -0.39383313525E+01  0.50528859562E+02  0.29999999126E+02 0.  0.
        -12    1    1    2    0    0  0.70372736116E+01  0.39851374222E+02  0.39383313525E+01  0.40659140438E+02  0.00000000000E+00 0.  1.
         11    1    3    3    0    0 -0.13786361452E+02 -0.13505594686E+02 -0.89776476973E+01  0.21285276798E+02  0.51100000000E-03 0. -1.
        -11    1    3    3    0    0  0.16160576739E+01 -0.11940703892E+00 -0.91973657822E+00  0.18632809988E+01  0.51100000000E-03 0.  1.
        -12    1    3    3    0    0  0.51330301666E+01 -0.26226372497E+02  0.59590529230E+01  0.27380301766E+02  0.00000000000E+00 0.  1.
</event>
<event>
 7    1  0.5373252E-013  0.5052889E+02  0.7816164E-02  0.1300439E+00
        -11   -1    0    0    0    0  0.00000000000E+00  0.00000000000E+00  0.45593999997E+02  0.45594000000E+02  0.51100000000E-03 0. -1.
         11   -1    0    0    0    0 -0.00000000000E+00 -0.00000000000E+00 -0.45593999997E+02  0.45594000000E+02  0.51100000000E-03 0.  1.
    9900012    2    1    2    0    0  0.35775394927E+02  0.17794495389E+02  0.75259842666E+01  0.50528888013E+02  0.30000085605E+02 0.  0.
        -12    1    1    2    0    0 -0.35775394927E+02 -0.17794495389E+02 -0.75259842666E+01  0.40659111987E+02  0.00000000000E+00 0.  1.
         11    1    3    3    0    0  0.16158200287E+01 -0.34415095678E+01 -0.19319575400E+01  0.42646597365E+01  0.51100000000E-03 0.  1.
        -11    1    3    3    0    0  0.16127985092E+02  0.95501892703E+01 -0.61277633428E+01  0.19719723681E+02  0.51100000000E-03 0. -1.
         12    1    3    3    0    0  0.18031589807E+02  0.11685815687E+02  0.15585705149E+02  0.26544504596E+02  0.00000000000E+00 0. -1.
</event>
<event>
 7    1  0.5373252E-013  0.5052887E+02  0.7816164E-02  0.1300439E+00
        -11   -1    0    0    0    0  0.00000000000E+00  0.00000000000E+00  0.45593999997E+02  0.45594000000E+02  0.51100000000E-03 0.  1.
         11   -1    0    0    0    0 -0.00000000000E+00 -0.00000000000E+00 -0.45593999997E+02  0.45594000000E+02  0.51100000000E-03 0. -1.
    9900012    2    1    2    0    0  0.11608830847E+02  0.38952812608E+02 -0.10385421027E+01  0.50528866543E+02  0.30000020346E+02 0.  0.
        -12    1    1    2    0    0 -0.11608830847E+02 -0.38952812608E+02  0.10385421027E+01  0.40659133457E+02  0.00000000000E+00 0.  1.
         11    1    3    3    0    0 -0.58462663054E+01  0.11630324830E+02  0.21368135684E+01  0.13191256871E+02  0.51100000000E-03 0. -1.
        -11    1    3    3    0    0  0.67513950834E+01  0.23967594042E+02  0.20071759400E+01  0.24981105965E+02  0.51100000000E-03 0.  1.
        -12    1    3    3    0    0  0.10703702069E+02  0.33548937371E+01 -0.51825316111E+01  0.12356503707E+02  0.00000000000E+00 0.  1.
</event>
<event>
 7    1  0.5373252E-013  0.5052885E+02  0.7816164E-02  0.1300439E+00
        -11   -1    0    0    0    0  0.00000000000E+00  0.00000000000E+00  0.45593999997E+02  0.45594000000E+02  0.51100000000E-03 0.  1.
         11   -1    0    0    0    0 -0.00000000000E+00 -0.00000000000E+00 -0.45593999997E+02  0.45594000000E+02  0.51100000000E-03 0. -1.
    9900012    2    1    2    0    0 -0.20428876788E+02 -0.14559135628E+02 -0.31997800998E+02  0.50528847208E+02  0.29999961574E+02 0.  0.
        -12    1    1    2    0    0  0.20428876788E+02  0.14559135628E+02  0.31997800998E+02  0.40659152792E+02  0.00000000000E+00 0.  1.
         11    1    3    3    0    0 -0.11746898871E+02 -0.14834927146E+02 -0.93775247732E+01  0.21118775240E+02  0.51100000000E-03 0. -1.
        -11    1    3    3    0    0  0.41856503272E+01 -0.33438993997E+01 -0.53517233186E+01  0.75724681972E+01  0.51100000000E-03 0.  1.
         12    1    3    3    0    0 -0.12867628245E+02  0.36196909182E+01 -0.17268552906E+02  0.21837603771E+02  0.00000000000E+00 0. -1.
</event>
<event>
 7    1  0.5373252E-013  0.5052887E+02  0.7816164E-02  0.1300439E+00
        -11   -1    0    0    0    0  0.00000000000E+00  0.00000000000E+00  0.45593999997E+02  0.45594000000E+02  0.51100000000E-03 0. -1.
         11   -1    0    0    0    0 -0.00000000000E+00 -0.00000000000E+00 -0.45593999997E+02  0.45594000000E+02  0.51100000000E-03 0.  1.
    9900012    2    1    2    0    0 -0.20526626868E+02 -0.16869461999E+01  0.35056764118E+02  0.50528869310E+02  0.30000028754E+02 0.  0.
        -12    1    1    2    0    0  0.20526626868E+02  0.16869461999E+01 -0.35056764118E+02  0.40659130690E+02  0.00000000000E+00 0.  1.
         11    1    3    3    0    0 -0.13230832427E+02 -0.54754277259E+01  0.98183572264E+01  0.17361894320E+02  0.51100000000E-03 0. -1.
        -11    1    3    3    0    0  0.29713924411E+01 -0.15796446572E+01 -0.17527571763E+01  0.37942862652E+01  0.51100000000E-03 0.  1.
         12    1    3    3    0    0 -0.10267186883E+02  0.53681261832E+01  0.26991164067E+02  0.29372688725E+02  0.00000000000E+00 0. -1.
</event>
<event>
 7    1  0.5373252E-013  0.5052886E+02  0.7816164E-02  0.1300439E+00
        -11   -1    0    0    0    0  0.00000000000E+00  0.00000000000E+00  0.45593999997E+02  0.45594000000E+02  0.51100000000E-03 0.  1.
         11   -1    0    0    0    0 -0.00000000000E+00 -0.00000000000E+00 -0.45593999997E+02  0.45594000000E+02  0.51100000000E-03 0. -1.
    9900012    2    1    2    0    0  0.22456971284E+02  0.15761739690E+02 -0.30006960180E+02  0.50528860110E+02  0.30000000792E+02 0.  0.
        -12    1    1    2    0    0 -0.22456971284E+02 -0.15761739690E+02  0.30006960180E+02  0.40659139890E+02  0.00000000000E+00 0.  1.
         11    1    3    3    0    0  0.25062891407E+01 -0.55834090451E+01 -0.62281855789E+01  0.87319091663E+01  0.51100000000E-03 0. -1.
        -11    1    3    3    0    0  0.12421257678E+02  0.76119527461E+01 -0.16141517046E+01  0.14657249159E+02  0.51100000000E-03 0.  1.
         12    1    3    3    0    0  0.75294244652E+01  0.13733195989E+02 -0.22164622897E+02  0.27139701785E+02  0.00000000000E+00 0. -1.
</event>
<event>
 7    1  0.5373252E-013  0.5052886E+02  0.7816164E-02  0.1300439E+00
        -11   -1    0    0    0    0  0.00000000000E+00  0.00000000000E+00  0.45593999997E+02  0.45594000000E+02  0.51100000000E-03 0.  1.
         11   -1    0    0    0    0 -0.00000000000E+00 -0.00000000000E+00 -0.45593999997E+02  0.45594000000E+02  0.51100000000E-03 0. -1.
    9900012    2    1    2    0    0 -0.80203429075E+01  0.12914899452E+02 -0.37710016112E+02  0.50528857813E+02  0.29999993808E+02 0.  0.
        -12    1    1    2    0    0  0.80203429075E+01 -0.12914899452E+02  0.37710016112E+02  0.40659142187E+02  0.00000000000E+00 0.  1.
         11    1    3    3    0    0 -0.12940911312E+02  0.56218138591E+01 -0.26533149614E+02  0.30051289579E+02  0.51100000000E-03 0. -1.
        -11    1    3    3    0    0 -0.17518436139E+01 -0.24982882225E+01  0.12589332076E+01  0.33008049280E+01  0.51100000000E-03 0.  1.
        -12    1    3    3    0    0  0.66724120187E+01  0.97913738158E+01 -0.12435799705E+02  0.17176763306E+02  0.00000000000E+00 0.  1.
</event>
<event>
 7    1  0.5373252E-013  0.5052888E+02  0.7816164E-02  0.1300439E+00
        -11   -1    0    0    0    0  0.00000000000E+00  0.00000000000E+00  0.45593999997E+02  0.45594000000E+02  0.51100000000E-03 0.  1.
         11   -1    0    0    0    0 -0.00000000000E+00 -0.00000000000E+00 -0.45593999997E+02  0.45594000000E+02  0.51100000000E-03 0. -1.
    9900012    2    1    2    0    0  0.36808776154E+02  0.70115005185E+01 -0.15783428484E+02  0.50528883480E+02  0.30000071825E+02 0.  0.
        -12    1    1    2    0    0 -0.36808776154E+02 -0.70115005185E+01  0.15783428484E+02  0.40659116520E+02  0.00000000000E+00 0.  1.
         11    1    3    3    0    0  0.34669410798E+02  0.15333982410E+01 -0.12963088956E+02  0.37045391492E+02  0.51100000000E-03 0. -1.
        -11    1    3    3    0    0  0.62185369442E+01  0.64411168907E+01 -0.24121336745E+01  0.92723555610E+01  0.51100000000E-03 0.  1.
        -12    1    3    3    0    0 -0.40791715877E+01 -0.96301461320E+00 -0.40820585320E+00  0.42111364269E+01  0.00000000000E+00 0.  1.
</event>
<event>
 7    1  0.5373252E-013  0.5052886E+02  0.7816164E-02  0.1300439E+00
        -11   -1    0    0    0    0  0.00000000000E+00  0.00000000000E+00  0.45593999997E+02  0.45594000000E+02  0.51100000000E-03 0.  1.
         11   -1    0    0    0    0 -0.00000000000E+00 -0.00000000000E+00 -0.45593999997E+02  0.45594000000E+02  0.51100000000E-03 0. -1.
    9900012    2    1    2    0    0 -0.35267415686E+01 -0.81998484586E+01 -0.39667239685E+02  0.50528864187E+02  0.30000013184E+02 0.  0.
        -12    1    1    2    0    0  0.35267415686E+01  0.81998484586E+01  0.39667239685E+02  0.40659135813E+02  0.00000000000E+00 0.  1.
         11    1    3    3    0    0 -0.47425745476E+01 -0.10281798296E+02 -0.17804357887E+02  0.21099823449E+02  0.51100000000E-03 0. -1.
        -11    1    3    3    0    0 -0.74604769456E+01  0.87651028118E+00 -0.18637656177E+02  0.20094507074E+02  0.51100000000E-03 0.  1.
        -12    1    3    3    0    0  0.86763099245E+01  0.12054395560E+01 -0.32252256205E+01  0.93345336645E+01  0.00000000000E+00 0.  1.
</event>
<event>
 7    1  0.5373252E-013  0.5052885E+02  0.7816164E-02  0.1300439E+00
        -11   -1    0    0    0    0  0.00000000000E+00  0.00000000000E+00  0.45593999997E+02  0.45594000000E+02  0.51100000000E-03 0.  1.
         11   -1    0    0    0    0 -0.00000000000E+00 -0.00000000000E+00 -0.45593999997E+02  0.45594000000E+02  0.51100000000E-03 0. -1.
    9900012    2    1    2    0    0 -0.12128749071E+02  0.26641100154E+02 -0.28218990201E+02  0.50528853681E+02  0.29999981249E+02 0.  0.
        -12    1    1    2    0    0  0.12128749071E+02 -0.26641100154E+02  0.28218990201E+02  0.40659146319E+02  0.00000000000E+00 0.  1.
         11    1    3    3    0    0  0.28659023662E+01  0.11290596425E+02  0.20704979242E+01  0.11831226730E+02  0.51100000000E-03 0. -1.
        -11    1    3    3    0    0 -0.69271993271E+00 -0.10182836354E+01  0.20554287757E+00  0.12486034611E+01  0.51100000000E-03 0.  1.
         12    1    3    3    0    0 -0.14301931505E+02  0.16368787364E+02 -0.30495031002E+02  0.37449023490E+02  0.00000000000E+00 0. -1.
</event>
<event>
 7    1  0.5373252E-013  0.5052886E+02  0.7816164E-02  0.1300439E+00
        -11   -1    0    0    0    0  0.00000000000E+00  0.00000000000E+00  0.45593999997E+02  0.45594000000E+02  0.51100000000E-03 0.  1.
         11   -1    0    0    0    0 -0.00000000000E+00 -0.00000000000E+00 -0.45593999997E+02  0.45594000000E+02  0.51100000000E-03 0. -1.
    9900012    2    1    2    0    0 -0.15321426180E+01  0.40477728890E+02 -0.35173518334E+01  0.50528858825E+02  0.29999996886E+02 0.  0.
        -12    1    1    2    0    0  0.15321426180E+01 -0.40477728890E+02  0.35173518334E+01  0.40659141175E+02  0.00000000000E+00 0.  1.
         11    1    3    3    0    0  0.10108403219E+02  0.30025287576E+02 -0.44522642890E+01  0.31992504860E+02  0.51100000000E-03 0. -1.
        -11    1    3    3    0    0 -0.27522954730E+01 -0.17489794036E+01  0.10950880894E+01  0.34399531261E+01  0.51100000000E-03 0.  1.
        -12    1    3    3    0    0 -0.88882503639E+01  0.12201420718E+02 -0.16017563375E+00  0.15096400840E+02  0.00000000000E+00 0.  1.
</event>
<event>
 7    1  0.5373252E-013  0.5052887E+02  0.7816164E-02  0.1300439E+00
        -11   -1    0    0    0    0  0.00000000000E+00  0.00000000000E+00  0.45593999997E+02  0.45594000000E+02  0.51100000000E-03 0. -1.
         11   -1    0    0    0    0 -0.00000000000E+00 -0.00000000000E+00 -0.45593999997E+02  0.45594000000E+02  0.51100000000E-03 0.  1.
    9900012    2    1    2    0    0  0.13897477841E+02  0.28513461439E+02  0.25436334402E+02  0.50528874562E+02  0.30000044719E+02 0.  0.
        -12    1    1    2    0    0 -0.13897477841E+02 -0.28513461439E+02 -0.25436334402E+02  0.40659125438E+02  0.00000000000E+00 0.  1.
         11    1    3    3    0    0 -0.23453931184E+01  0.77843939602E+01  0.77389719848E+01  0.11224497577E+02  0.51100000000E-03 0. -1.
        -11    1    3    3    0    0  0.14769030127E+02  0.11645699526E+02 -0.60606327396E+00  0.18817913840E+02  0.51100000000E-03 0.  1.
        -12    1    3    3    0    0  0.14738408324E+01  0.90833679531E+01  0.18303425691E+02  0.20486463145E+02  0.00000000000E+00 0.  1.
</event>
<event>
 7    1  0.5373252E-013  0.5052877E+02  0.7816164E-02  0.1300439E+00
        -11   -1    0    0    0    0  0.00000000000E+00  0.00000000000E+00  0.45593999997E+02  0.45594000000E+02  0.51100000000E-03 0.  1.
         11   -1    0    0    0    0 -0.00000000000E+00 -0.00000000000E+00 -0.45593999997E+02  0.45594000000E+02  0.51100000000E-03 0. -1.
    9900012    2    1    2    0    0 -0.24373617003E+02  0.20554820346E+02 -0.25230908634E+02  0.50528774777E+02  0.29999741412E+02 0.  0.
        -12    1    1    2    0    0  0.24373617003E+02 -0.20554820346E+02  0.25230908634E+02  0.40659225223E+02  0.00000000000E+00 0.  1.
         11    1    3    3    0    0 -0.99009711221E+01 -0.48117843412E+00 -0.15926359163E+02  0.18759255803E+02  0.51100000000E-03 0. -1.
        -11    1    3    3    0    0 -0.17753679962E+01  0.10774758275E+02 -0.10821735746E+02  0.15373916619E+02  0.51100000000E-03 0.  1.
        -12    1    3    3    0    0 -0.12697277884E+02  0.10261240505E+02  0.15171862752E+01  0.16395602354E+02  0.00000000000E+00 0.  1.
</event>
<event>
 7    1  0.5373252E-013  0.5052886E+02  0.7816164E-02  0.1300439E+00
        -11   -1    0    0    0    0  0.00000000000E+00  0.00000000000E+00  0.45593999997E+02  0.45594000000E+02  0.51100000000E-03 0.  1.
         11   -1    0    0    0    0 -0.00000000000E+00 -0.00000000000E+00 -0.45593999997E+02  0.45594000000E+02  0.51100000000E-03 0. -1.
    9900012    2    1    2    0    0  0.11507599827E+02  0.22137620611E+02 -0.32103992345E+02  0.50528862963E+02  0.30000009463E+02 0.  0.
        -12    1    1    2    0    0 -0.11507599827E+02 -0.22137620611E+02  0.32103992345E+02  0.40659137037E+02  0.00000000000E+00 0.  1.
         11    1    3    3    0    0  0.62569515762E+01 -0.40140314322E+01 -0.11553786848E+02  0.13738700163E+02  0.51100000000E-03 0. -1.
        -11    1    3    3    0    0 -0.26304279597E+01  0.48449747250E+01  0.85261631172E+00  0.55785200702E+01  0.51100000000E-03 0.  1.
        -12    1    3    3    0    0  0.78810762102E+01  0.21306677318E+02 -0.21402821809E+02  0.31211642730E+02  0.00000000000E+00 0.  1.
</event>
<event>
 7    1  0.5373252E-013  0.5052897E+02  0.7816164E-02  0.1300438E+00
        -11   -1    0    0    0    0  0.00000000000E+00  0.00000000000E+00  0.45593999997E+02  0.45594000000E+02  0.51100000000E-03 0.  1.
         11   -1    0    0    0    0 -0.00000000000E+00 -0.00000000000E+00 -0.45593999997E+02  0.45594000000E+02  0.51100000000E-03 0. -1.
    9900012    2    1    2    0    0  0.16310643823E+02  0.12816788621E+02 -0.34969264089E+02  0.50528971440E+02  0.30000339188E+02 0.  0.
        -12    1    1    2    0    0 -0.16310643823E+02 -0.12816788621E+02  0.34969264089E+02  0.40659028560E+02  0.00000000000E+00 0.  1.
         11    1    3    3    0    0  0.13147646157E+00 -0.63384108819E+00 -0.88943411059E+01  0.89178665921E+01  0.51100000000E-03 0. -1.
        -11    1    3    3    0    0  0.74454590505E+01  0.43553608371E+01 -0.27593605119E+02  0.28910397303E+02  0.51100000000E-03 0.  1.
        -12    1    3    3    0    0  0.87337083114E+01  0.90952688726E+01  0.15186821357E+01  0.12700707546E+02  0.00000000000E+00 0.  1.
</event>
<event>
 7    1  0.5373252E-013  0.5052885E+02  0.7816164E-02  0.1300439E+00
        -11   -1    0    0    0    0  0.00000000000E+00  0.00000000000E+00  0.45593999997E+02  0.45594000000E+02  0.51100000000E-03 0. -1.
         11   -1    0    0    0    0 -0.00000000000E+00 -0.00000000000E+00 -0.45593999997E+02  0.45594000000E+02  0.51100000000E-03 0.  1.
    9900012    2    1    2    0    0  0.22324975663E+02 -0.30558815796E+02 -0.14863413524E+02  0.50528845769E+02  0.29999957199E+02 0.  0.
        -12    1    1    2    0    0 -0.22324975663E+02  0.30558815796E+02  0.14863413524E+02  0.40659154231E+02  0.00000000000E+00 0.  1.
         11    1    3    3    0    0  0.19664419502E+02 -0.22371269846E+02 -0.91916724368E+01  0.31171300123E+02  0.51100000000E-03 0. -1.
        -11    1    3    3    0    0  0.85269588126E+01 -0.77363784498E+00 -0.49167836803E+01  0.98733127230E+01  0.51100000000E-03 0.  1.
         12    1    3    3    0    0 -0.58664026517E+01 -0.74139081048E+01 -0.75495740707E+00  0.94842329233E+01  0.00000000000E+00 0. -1.
</event>
<event>
 7    1  0.5373252E-013  0.5052886E+02  0.7816164E-02  0.1300439E+00
        -11   -1    0    0    0    0  0.00000000000E+00  0.00000000000E+00  0.45593999997E+02  0.45594000000E+02  0.51100000000E-03 0. -1.
         11   -1    0    0    0    0 -0.00000000000E+00 -0.00000000000E+00 -0.45593999997E+02  0.45594000000E+02  0.51100000000E-03 0.  1.
    9900012    2    1    2    0    0 -0.29044423411E+02 -0.21574386471E+02  0.18550823928E+02  0.50528858946E+02  0.29999997252E+02 0.  0.
        -12    1    1    2    0    0  0.29044423411E+02  0.21574386471E+02 -0.18550823928E+02  0.40659141054E+02  0.00000000000E+00 0.  1.
         11    1    3    3    0    0 -0.21657760066E+02 -0.51969991725E+01  0.12965862443E+02  0.25771708532E+02  0.51100000000E-03 0. -1.
        -11    1    3    3    0    0 -0.46463044326E+01  0.12660571698E+01 -0.21807689984E+01  0.52864732406E+01  0.51100000000E-03 0.  1.
         12    1    3    3    0    0 -0.27403589118E+01 -0.17643444468E+02  0.77657304834E+01  0.19470677174E+02  0.00000000000E+00 0. -1.
</event>
<event>
 7    1  0.5373252E-013  0.5052886E+02  0.7816164E-02  0.1300439E+00
        -11   -1    0    0    0    0  0.00000000000E+00  0.00000000000E+00  0.45593999997E+02  0.45594000000E+02  0.51100000000E-03 0.  1.
         11   -1    0    0    0    0 -0.00000000000E+00 -0.00000000000E+00 -0.45593999997E+02  0.45594000000E+02  0.51100000000E-03 0. -1.
    9900012    2    1    2    0    0 -0.31741846780E+02  0.24429165851E+02 -0.69883037881E+01  0.50528863622E+02  0.30000011465E+02 0.  0.
        -12    1    1    2    0    0  0.31741846780E+02 -0.24429165851E+02  0.69883037881E+01  0.40659136378E+02  0.00000000000E+00 0.  1.
         11    1    3    3    0    0 -0.84482050114E+01 -0.46977394623E+01 -0.38152459773E+00  0.96740108151E+01  0.51100000000E-03 0. -1.
        -11    1    3    3    0    0 -0.14955662166E+02  0.13905912902E+02 -0.10654445314E+02  0.23033962961E+02  0.51100000000E-03 0.  1.
        -12    1    3    3    0    0 -0.83379796025E+01  0.15220992412E+02  0.40476661240E+01  0.17820889846E+02  0.00000000000E+00 0.  1.
</event>
<event>
 7    1  0.5373252E-013  0.5052886E+02  0.7816164E-02  0.1300439E+00
        -11   -1    0    0    0    0  0.00000000000E+00  0.00000000000E+00  0.45593999997E+02  0.45594000000E+02  0.51100000000E-03 0.  1.
         11   -1    0    0    0    0 -0.00000000000E+00 -0.00000000000E+00 -0.45593999997E+02  0.45594000000E+02  0.51100000000E-03 0. -1.
    9900012    2    1    2    0    0  0.14549675907E+02  0.10614295243E+02 -0.36452833044E+02  0.50528863641E+02  0.30000011523E+02 0.  0.
        -12    1    1    2    0    0 -0.14549675907E+02 -0.10614295243E+02  0.36452833044E+02  0.40659136359E+02  0.00000000000E+00 0.  1.
         11    1    3    3    0    0  0.28633714598E+01  0.36788911936E+01 -0.31754938905E+01  0.56406469700E+01  0.51100000000E-03 0. -1.
        -11    1    3    3    0    0  0.78098435321E+01  0.73157449394E+01 -0.37586149727E+02  0.39079821284E+02  0.51100000000E-03 0.  1.
        -12    1    3    3    0    0  0.38764609147E+01 -0.38034088984E+00  0.43088105734E+01  0.58083953871E+01  0.00000000000E+00 0.  1.
</event>
<event>
 7    1  0.5373252E-013  0.5052886E+02  0.7816164E-02  0.1300439E+00
        -11   -1    0    0    0    0  0.00000000000E+00  0.00000000000E+00  0.45593999997E+02  0.45594000000E+02  0.51100000000E-03 0. -1.
         11   -1    0    0    0    0 -0.00000000000E+00 -0.00000000000E+00 -0.45593999997E+02  0.45594000000E+02  0.51100000000E-03 0.  1.
    9900012    2    1    2    0    0 -0.38522748103E+01  0.39594500287E+02  0.84024550419E+01  0.50528859270E+02  0.29999998236E+02 0.  0.
        -12    1    1    2    0    0  0.38522748103E+01 -0.39594500287E+02 -0.84024550419E+01  0.40659140730E+02  0.00000000000E+00 0.  1.
         11    1    3    3    0    0  0.14472655420E+01  0.15868375492E+02 -0.51607285847E+01  0.16749120517E+02  0.51100000000E-03 0. -1.
        -11    1    3    3    0    0 -0.98267470128E+01  0.21723789668E+02  0.57437007923E+01  0.24525050325E+02  0.51100000000E-03 0.  1.
        -12    1    3    3    0    0  0.45272066605E+01  0.20023351275E+01  0.78194828342E+01  0.92546884283E+01  0.00000000000E+00 0.  1.
</event>
<event>
 7    1  0.5373252E-013  0.5052886E+02  0.7816164E-02  0.1300439E+00
        -11   -1    0    0    0    0  0.00000000000E+00  0.00000000000E+00  0.45593999997E+02  0.45594000000E+02  0.51100000000E-03 0. -1.
         11   -1    0    0    0    0 -0.00000000000E+00 -0.00000000000E+00 -0.45593999997E+02  0.45594000000E+02  0.51100000000E-03 0.  1.
    9900012    2    1    2    0    0 -0.18502413499E+02 -0.15189516186E+01 -0.36173461985E+02  0.50528857470E+02  0.29999992765E+02 0.  0.
        -12    1    1    2    0    0  0.18502413499E+02  0.15189516186E+01  0.36173461985E+02  0.40659142530E+02  0.00000000000E+00 0.  1.
         11    1    3    3    0    0 -0.21581486663E+01 -0.16033786819E+00  0.47455180326E+00  0.22155165476E+01  0.51100000000E-03 0. -1.
        -11    1    3    3    0    0 -0.27230509814E+01  0.29504344838E+01 -0.33428209812E+02  0.33668461233E+02  0.51100000000E-03 0.  1.
        -12    1    3    3    0    0 -0.13621213851E+02 -0.43090482342E+01 -0.32198039761E+01  0.14644879689E+02  0.00000000000E+00 0.  1.
</event>
<event>
 7    1  0.5373252E-013  0.5052886E+02  0.7816164E-02  0.1300439E+00
        -11   -1    0    0    0    0  0.00000000000E+00  0.00000000000E+00  0.45593999997E+02  0.45594000000E+02  0.51100000000E-03 0. -1.
         11   -1    0    0    0    0 -0.00000000000E+00 -0.00000000000E+00 -0.45593999997E+02  0.45594000000E+02  0.51100000000E-03 0.  1.
    9900012    2    1    2    0    0 -0.14658225964E+02  0.36270699633E+02  0.11078748707E+02  0.50528856954E+02  0.29999991198E+02 0.  0.
        -12    1    1    2    0    0  0.14658225964E+02 -0.36270699633E+02 -0.11078748707E+02  0.40659143046E+02  0.00000000000E+00 0.  1.
         11    1    3    3    0    0 -0.11527505430E+02  0.99428693735E+01 -0.36321911318E+01  0.15650458316E+02  0.51100000000E-03 0. -1.
        -11    1    3    3    0    0 -0.12586167691E+01 -0.12420593042E+01 -0.19329172252E+01  0.26197321899E+01  0.51100000000E-03 0.  1.
        -12    1    3    3    0    0 -0.18721037647E+01  0.27569889564E+02  0.16643857064E+02  0.32258666449E+02  0.00000000000E+00 0.  1.
</event>
<event>
 7    1  0.5373252E-013  0.5052887E+02  0.7816164E-02  0.1300439E+00
        -11   -1    0    0    0    0  0.00000000000E+00  0.00000000000E+00  0.45593999997E+02  0.45594000000E+02  0.51100000000E-03 0. -1.
         11   -1    0    0    0    0 -0.00000000000E+00 -0.00000000000E+00 -0.45593999997E+02  0.45594000000E+02  0.51100000000E-03 0.  1.
    9900012    2    1    2    0    0 -0.39892273202E+02  0.70825979557E+01 -0.34071251248E+01  0.50528866258E+02  0.30000019477E+02 0.  0.
        -12    1    1    2    0    0  0.39892273202E+02 -0.70825979557E+01  0.34071251248E+01  0.40659133742E+02  0.00000000000E+00 0.  1.
         11    1    3    3    0    0 -0.24757499992E+02  0.62075457057E+01 -0.12446099309E+02  0.28396704347E+02  0.51100000000E-03 0. -1.
        -11    1    3    3    0    0  0.44488206395E+00  0.37403285324E+01 -0.23880831521E+00  0.37742558543E+01  0.51100000000E-03 0.  1.
         12    1    3    3    0    0 -0.15579655275E+02 -0.28652762823E+01  0.92777824993E+01  0.18357906056E+02  0.00000000000E+00 0. -1.
</event>
<event>
 7    1  0.5373252E-013  0.5052884E+02  0.7816164E-02  0.1300439E+00
        -11   -1    0    0    0    0  0.00000000000E+00  0.00000000000E+00  0.45593999997E+02  0.45594000000E+02  0.51100000000E-03 0.  1.
         11   -1    0    0    0    0 -0.00000000000E+00 -0.00000000000E+00 -0.45593999997E+02  0.45594000000E+02  0.51100000000E-03 0. -1.
    9900012    2    1    2    0    0  0.29522331933E+02 -0.24080270779E+02 -0.14203500631E+02  0.50528844159E+02  0.29999952306E+02 0.  0.
        -12    1    1    2    0    0 -0.29522331933E+02  0.24080270779E+02  0.14203500631E+02  0.40659155841E+02  0.00000000000E+00 0.  1.
         11    1    3    3    0    0 -0.40716863534E+01 -0.40783467761E+01 -0.42008535832E+00  0.57782362496E+01  0.51100000000E-03 0. -1.
        -11    1    3    3    0    0  0.96867858865E+01 -0.14334153429E+02 -0.17394735175E+01  0.17387568654E+02  0.51100000000E-03 0.  1.
        -12    1    3    3    0    0  0.23907232400E+02 -0.56677705738E+01 -0.12043941755E+02  0.27363039255E+02  0.00000000000E+00 0.  1.
</event>
<event>
 7    1  0.5373252E-013  0.5052885E+02  0.7816164E-02  0.1300439E+00
        -11   -1    0    0    0    0  0.00000000000E+00  0.00000000000E+00  0.45593999997E+02  0.45594000000E+02  0.51100000000E-03 0.  1.
         11   -1    0    0    0    0 -0.00000000000E+00 -0.00000000000E+00 -0.45593999997E+02  0.45594000000E+02  0.51100000000E-03 0. -1.
    9900012    2    1    2    0    0  0.46735939036E+01 -0.20705179083E+02 -0.34678808935E+02  0.50528847156E+02  0.29999961415E+02 0.  0.
        -12    1    1    2    0    0 -0.46735939036E+01  0.20705179083E+02  0.34678808935E+02  0.40659152844E+02  0.00000000000E+00 0.  1.
         11    1    3    3    0    0 -0.20722739532E+01 -0.20458458700E+02 -0.24371758888E+02  0.31887701129E+02  0.51100000000E-03 0. -1.
        -11    1    3    3    0    0  0.80262423925E+01 -0.33385490388E+01 -0.12057616912E+02  0.14864474511E+02  0.51100000000E-03 0.  1.
        -12    1    3    3    0    0 -0.12803745357E+01  0.30918286556E+01  0.17505668657E+01  0.37766715159E+01  0.00000000000E+00 0.  1.
</event>
<event>
 7    1  0.5373252E-013  0.5052886E+02  0.7816164E-02  0.1300439E+00
        -11   -1    0    0    0    0  0.00000000000E+00  0.00000000000E+00  0.45593999997E+02  0.45594000000E+02  0.51100000000E-03 0. -1.
         11   -1    0    0    0    0 -0.00000000000E+00 -0.00000000000E+00 -0.45593999997E+02  0.45594000000E+02  0.51100000000E-03 0.  1.
    9900012    2    1    2    0    0  0.28495898228E+02 -0.92822457229E+00  0.28987712920E+02  0.50528864286E+02  0.30000013484E+02 0.  0.
        -12    1    1    2    0    0 -0.28495898228E+02  0.92822457229E+00 -0.28987712920E+02  0.40659135714E+02  0.00000000000E+00 0.  1.
         11    1    3    3    0    0  0.14145663392E+02  0.85102168633E-01  0.24963108632E+02  0.28692574441E+02  0.51100000000E-03 0. -1.
        -11    1    3    3    0    0  0.66140464569E+01 -0.81232384559E+01  0.43049816759E+01  0.11325435137E+02  0.51100000000E-03 0.  1.
         12    1    3    3    0    0  0.77361883788E+01  0.71099117149E+01 -0.28037738789E+00  0.10510854709E+02  0.00000000000E+00 0. -1.
</event>
<event>
 7    1  0.5373252E-013  0.5052886E+02  0.7816164E-02  0.1300439E+00
        -11   -1    0    0    0    0  0.00000000000E+00  0.00000000000E+00  0.45593999997E+02  0.45594000000E+02  0.51100000000E-03 0. -1.
         11   -1    0    0    0    0 -0.00000000000E+00 -0.00000000000E+00 -0.45593999997E+02  0.45594000000E+02  0.51100000000E-03 0.  1.
    9900012    2    1    2    0    0 -0.22256990776E+02  0.24095033255E+02  0.24025425581E+02  0.50528863999E+02  0.30000012612E+02 0.  0.
        -12    1    1    2    0    0  0.22256990776E+02 -0.24095033255E+02 -0.24025425581E+02  0.40659136001E+02  0.00000000000E+00 0.  1.
         11    1    3    3    0    0 -0.54644485547E+01  0.64260044303E+01  0.40069156256E+01  0.93385814788E+01  0.51100000000E-03 0. -1.
        -11    1    3    3    0    0 -0.11479036403E+02  0.13967338157E+02 -0.20465307807E+01  0.18194589868E+02  0.51100000000E-03 0.  1.
         12    1    3    3    0    0 -0.53135058184E+01  0.37016906673E+01  0.22065040736E+02  0.22995692653E+02  0.00000000000E+00 0. -1.
</event>
<event>
 7    1  0.5373252E-013  0.5052886E+02  0.7816164E-02  0.1300439E+00
        -11   -1    0    0    0    0  0.00000000000E+00  0.00000000000E+00  0.45593999997E+02  0.45594000000E+02  0.51100000000E-03 0.  1.
         11   -1    0    0    0    0 -0.00000000000E+00 -0.00000000000E+00 -0.45593999997E+02  0.45594000000E+02  0.51100000000E-03 0. -1.
    9900012    2    1    2    0    0 -0.35614481900E+02  0.52038853256E+01 -0.18912789664E+02  0.50528863802E+02  0.30000012014E+02 0.  0.
        -12    1    1    2    0    0  0.35614481900E+02 -0.52038853256E+01  0.18912789664E+02  0.40659136198E+02  0.00000000000E+00 0.  1.
         11    1    3    3    0    0 -0.20248893142E+02  0.57762265328E+01 -0.47523334148E+01  0.21586272017E+02  0.51100000000E-03 0. -1.
        -11    1    3    3    0    0  0.83657375463E+00 -0.43161297747E+01  0.27821415224E+01  0.52028015137E+01  0.51100000000E-03 0.  1.
         12    1    3    3    0    0 -0.16202162512E+02  0.37437885675E+01 -0.16942597771E+02  0.23739790272E+02  0.00000000000E+00 0. -1.
</event>
<event>
 7    1  0.5373252E-013  0.5052888E+02  0.7816164E-02  0.1300439E+00
        -11   -1    0    0    0    0  0.00000000000E+00  0.00000000000E+00  0.45593999997E+02  0.45594000000E+02  0.51100000000E-03 0. -1.
         11   -1    0    0    0    0 -0.00000000000E+00 -0.00000000000E+00 -0.45593999997E+02  0.45594000000E+02  0.51100000000E-03 0.  1.
    9900012    2    1    2    0    0 -0.23227841631E+02  0.19191112510E+02  0.27300786947E+02  0.50528875635E+02  0.30000047980E+02 0.  0.
        -12    1    1    2    0    0  0.23227841631E+02 -0.19191112510E+02 -0.27300786947E+02  0.40659124365E+02  0.00000000000E+00 0.  1.
         11    1    3    3    0    0 -0.39172810418E+01  0.20281449580E+01  0.70448529300E+01  0.83119441647E+01  0.51100000000E-03 0. -1.
        -11    1    3    3    0    0 -0.32786255402E+01 -0.62864830250E+01 -0.38974427291E+00  0.71007855280E+01  0.51100000000E-03 0.  1.
        -12    1    3    3    0    0 -0.16031935049E+02  0.23449450577E+02  0.20645678290E+02  0.35116145942E+02  0.00000000000E+00 0.  1.
</event>
<event>
 7    1  0.5373252E-013  0.5052886E+02  0.7816164E-02  0.1300439E+00
        -11   -1    0    0    0    0  0.00000000000E+00  0.00000000000E+00  0.45593999997E+02  0.45594000000E+02  0.51100000000E-03 0.  1.
         11   -1    0    0    0    0 -0.00000000000E+00 -0.00000000000E+00 -0.45593999997E+02  0.45594000000E+02  0.51100000000E-03 0. -1.
    9900012    2    1    2    0    0  0.21787711368E+02  0.32916987658E+02 -0.97433768293E+01  0.50528857914E+02  0.29999994116E+02 0.  0.
        -12    1    1    2    0    0 -0.21787711368E+02 -0.32916987658E+02  0.97433768293E+01  0.40659142086E+02  0.00000000000E+00 0.  1.
         11    1    3    3    0    0  0.43964457183E+01  0.12765466287E+02 -0.25308246941E+01  0.13736482023E+02  0.51100000000E-03 0. -1.
        -11    1    3    3    0    0 -0.34938650570E+01  0.57044591322E+01  0.52505996097E+01  0.85039251849E+01  0.51100000000E-03 0.  1.
        -12    1    3    3    0    0  0.20885130707E+02  0.14447062239E+02 -0.12463151745E+02  0.28288450706E+02  0.00000000000E+00 0.  1.
</event>
<event>
 7    1  0.5373252E-013  0.5052886E+02  0.7816164E-02  0.1300439E+00
        -11   -1    0    0    0    0  0.00000000000E+00  0.00000000000E+00  0.45593999997E+02  0.45594000000E+02  0.51100000000E-03 0.  1.
         11   -1    0    0    0    0 -0.00000000000E+00 -0.00000000000E+00 -0.45593999997E+02  0.45594000000E+02  0.51100000000E-03 0. -1.
    9900012    2    1    2    0    0 -0.26349348917E+02 -0.27490841908E+02 -0.14252405235E+02  0.50528860411E+02  0.30000001704E+02 0.  0.
        -12    1    1    2    0    0  0.26349348917E+02  0.27490841908E+02  0.14252405235E+02  0.40659139589E+02  0.00000000000E+00 0.  1.
         11    1    3    3    0    0 -0.56831450802E+01 -0.11237515823E+02 -0.92526825558E+01  0.15626645021E+02  0.51100000000E-03 0. -1.
        -11    1    3    3    0    0 -0.96684538170E+00 -0.14282228254E+02  0.60098067008E+00  0.14327526371E+02  0.51100000000E-03 0.  1.
        -12    1    3    3    0    0 -0.19699358455E+02 -0.19710978308E+01 -0.56007033495E+01  0.20574689018E+02  0.00000000000E+00 0.  1.
</event>
<event>
 7    1  0.5373252E-013  0.5052888E+02  0.7816164E-02  0.1300439E+00
        -11   -1    0    0    0    0  0.00000000000E+00  0.00000000000E+00  0.45593999997E+02  0.45594000000E+02  0.51100000000E-03 0.  1.
         11   -1    0    0    0    0 -0.00000000000E+00 -0.00000000000E+00 -0.45593999997E+02  0.45594000000E+02  0.51100000000E-03 0. -1.
    9900012    2    1    2    0    0 -0.45528595888E+01 -0.25585762346E+02 -0.31269863968E+02  0.50528878540E+02  0.30000056811E+02 0.  0.
        -12    1    1    2    0    0  0.45528595888E+01  0.25585762346E+02  0.31269863968E+02  0.40659121460E+02  0.00000000000E+00 0.  1.
         11    1    3    3    0    0  0.39630491680E+01 -0.31392957169E+01 -0.76537873632E+01  0.91728620162E+01  0.51100000000E-03 0. -1.
        -11    1    3    3    0    0  0.26200218438E+01 -0.22468302432E+02 -0.13705199694E+02  0.26448471176E+02  0.51100000000E-03 0.  1.
        -12    1    3    3    0    0 -0.11135930601E+02  0.21835803395E-01 -0.99108769118E+01  0.14907545348E+02  0.00000000000E+00 0.  1.
</event>
<event>
 7    1  0.5373252E-013  0.5052886E+02  0.7816164E-02  0.1300439E+00
        -11   -1    0    0    0    0  0.00000000000E+00  0.00000000000E+00  0.45593999997E+02  0.45594000000E+02  0.51100000000E-03 0.  1.
         11   -1    0    0    0    0 -0.00000000000E+00 -0.00000000000E+00 -0.45593999997E+02  0.45594000000E+02  0.51100000000E-03 0. -1.
    9900012    2    1    2    0    0 -0.12922718309E+02  0.24148229182E+02 -0.30050494666E+02  0.50528857722E+02  0.29999993533E+02 0.  0.
        -12    1    1    2    0    0  0.12922718309E+02 -0.24148229182E+02  0.30050494666E+02  0.40659142278E+02  0.00000000000E+00 0.  1.
         11    1    3    3    0    0 -0.13064285124E+02  0.27641361569E+01 -0.11799055163E+02  0.17819475231E+02  0.51100000000E-03 0. -1.
        -11    1    3    3    0    0  0.42319801098E+01  0.13799139341E+00 -0.73488470173E+01  0.84814061345E+01  0.51100000000E-03 0.  1.
         12    1    3    3    0    0 -0.40904132944E+01  0.21246101631E+02 -0.10902592485E+02  0.24227976357E+02  0.00000000000E+00 0. -1.
</event>
<event>
 7    1  0.5373252E-013  0.5052887E+02  0.7816164E-02  0.1300439E+00
        -11   -1    0    0    0    0  0.00000000000E+00  0.00000000000E+00  0.45593999997E+02  0.45594000000E+02  0.51100000000E-03 0.  1.
         11   -1    0    0    0    0 -0.00000000000E+00 -0.00000000000E+00 -0.45593999997E+02  0.45594000000E+02  0.51100000000E-03 0. -1.
    9900012    2    1    2    0    0 -0.49411664019E+01  0.40175777926E+02 -0.38284418745E+01  0.50528865423E+02  0.30000016941E+02 0.  0.
        -12    1    1    2    0    0  0.49411664019E+01 -0.40175777926E+02  0.38284418745E+01  0.40659134577E+02  0.00000000000E+00 0.  1.
         11    1    3    3    0    0  0.42840208641E+01  0.36047707171E+02 -0.61598666031E+01  0.36820293099E+02  0.51100000000E-03 0. -1.
        -11    1    3    3    0    0 -0.76940867546E+01  0.63564209553E+01 -0.23203786476E+00  0.99828302690E+01  0.51100000000E-03 0.  1.
        -12    1    3    3    0    0 -0.15311005114E+01 -0.22283502010E+01  0.25634625934E+01  0.37257420552E+01  0.00000000000E+00 0.  1.
</event>
<event>
 7    1  0.5373252E-013  0.5052886E+02  0.7816164E-02  0.1300439E+00
        -11   -1    0    0    0    0  0.00000000000E+00  0.00000000000E+00  0.45593999997E+02  0.45594000000E+02  0.51100000000E-03 0.  1.
         11   -1    0    0    0    0 -0.00000000000E+00 -0.00000000000E+00 -0.45593999997E+02  0.45594000000E+02  0.51100000000E-03 0. -1.
    9900012    2    1    2    0    0 -0.24045166042E+02  0.24620839443E+01 -0.32694553082E+02  0.50528859963E+02  0.30000000342E+02 0.  0.
        -12    1    1    2    0    0  0.24045166042E+02 -0.24620839443E+01  0.32694553082E+02  0.40659140037E+02  0.00000000000E+00 0.  1.
         11    1    3    3    0    0 -0.15391133165E+02 -0.91966676003E+01 -0.19984217935E+02  0.26848363857E+02  0.51100000000E-03 0. -1.
        -11    1    3    3    0    0 -0.10633754932E+01  0.26148687422E+01 -0.11465477477E+02  0.11807856707E+02  0.51100000000E-03 0.  1.
        -12    1    3    3    0    0 -0.75906573838E+01  0.90438828024E+01 -0.12448576695E+01  0.11872639398E+02  0.00000000000E+00 0.  1.
</event>
<event>
 7    1  0.5373252E-013  0.5052885E+02  0.7816164E-02  0.1300439E+00
        -11   -1    0    0    0    0  0.00000000000E+00  0.00000000000E+00  0.45593999997E+02  0.45594000000E+02  0.51100000000E-03 0. -1.
         11   -1    0    0    0    0 -0.00000000000E+00 -0.00000000000E+00 -0.45593999997E+02  0.45594000000E+02  0.51100000000E-03 0.  1.
    9900012    2    1    2    0    0  0.17703298208E+02 -0.23251362715E+02  0.28268949589E+02  0.50528854087E+02  0.29999982481E+02 0.  0.
        -12    1    1    2    0    0 -0.17703298208E+02  0.23251362715E+02 -0.28268949589E+02  0.40659145913E+02  0.00000000000E+00 0.  1.
         11    1    3    3    0    0  0.92147553180E+01 -0.10885809108E+02  0.42922956701E+01  0.14894171944E+02  0.51100000000E-03 0. -1.
        -11    1    3    3    0    0  0.10803637710E+02  0.21947919561E+01  0.66107890426E+01  0.12854502384E+02  0.51100000000E-03 0.  1.
        -12    1    3    3    0    0 -0.23150948206E+01 -0.14560345564E+02  0.17365864876E+02  0.22780179759E+02  0.00000000000E+00 0.  1.
</event>
<event>
 7    1  0.5373252E-013  0.5052886E+02  0.7816164E-02  0.1300439E+00
        -11   -1    0    0    0    0  0.00000000000E+00  0.00000000000E+00  0.45593999997E+02  0.45594000000E+02  0.51100000000E-03 0.  1.
         11   -1    0    0    0    0 -0.00000000000E+00 -0.00000000000E+00 -0.45593999997E+02  0.45594000000E+02  0.51100000000E-03 0. -1.
    9900012    2    1    2    0    0 -0.15723587531E+02  0.61070374615E+01 -0.36995110655E+02  0.50528864203E+02  0.30000013231E+02 0.  0.
        -12    1    1    2    0    0  0.15723587531E+02 -0.61070374615E+01  0.36995110655E+02  0.40659135797E+02  0.00000000000E+00 0.  1.
         11    1    3    3    0    0 -0.88607155973E+01 -0.51022454425E+01 -0.65187793170E+01  0.12125991650E+02  0.51100000000E-03 0. -1.
        -11    1    3    3    0    0 -0.21389895971E+01 -0.52130649413E+01 -0.40751255461E+01  0.69539895784E+01  0.51100000000E-03 0.  1.
         12    1    3    3    0    0 -0.47238823362E+01  0.16422347845E+02 -0.26401205792E+02  0.31448882975E+02  0.00000000000E+00 0. -1.
</event>
<event>
 7    1  0.7035469E-013  0.5052885E+02  0.7816164E-02  0.1300439E+00
        -11   -1    0    0    0    0  0.00000000000E+00  0.00000000000E+00  0.45593999997E+02  0.45594000000E+02  0.51100000000E-03 0. -1.
         11   -1    0    0    0    0 -0.00000000000E+00 -0.00000000000E+00 -0.45593999997E+02  0.45594000000E+02  0.51100000000E-03 0.  1.
    9900012    2    1    2    0    0  0.30039349420E+02  0.23554385349E+02  0.13999819567E+02  0.50528849361E+02  0.29999968118E+02 0.  0.
        -12    1    1    2    0    0 -0.30039349420E+02 -0.23554385349E+02 -0.13999819567E+02  0.40659150639E+02  0.00000000000E+00 0.  1.
         11    1    3    3    0    0  0.21357858400E+02  0.10337931601E+02  0.59007443961E+01  0.24450965828E+02  0.51100000000E-03 0. -1.
        -11    1    3    3    0    0  0.10915007778E+02  0.16458499692E+02  0.35563386223E+01  0.20066568007E+02  0.51100000000E-03 0.  1.
        -12    1    3    3    0    0 -0.22335167582E+01 -0.32420459438E+01  0.45427365483E+01  0.60113155264E+01  0.00000000000E+00 0.  1.
</event>
<event>
 7    1  0.5373252E-013  0.5052887E+02  0.7816164E-02  0.1300439E+00
        -11   -1    0    0    0    0  0.00000000000E+00  0.00000000000E+00  0.45593999997E+02  0.45594000000E+02  0.51100000000E-03 0. -1.
         11   -1    0    0    0    0 -0.00000000000E+00 -0.00000000000E+00 -0.45593999997E+02  0.45594000000E+02  0.51100000000E-03 0.  1.
    9900012    2    1    2    0    0 -0.32776945088E+02 -0.22951255992E+02 -0.72164135784E+01  0.50528869342E+02  0.30000028853E+02 0.  0.
        -12    1    1    2    0    0  0.32776945088E+02  0.22951255992E+02  0.72164135784E+01  0.40659130658E+02  0.00000000000E+00 0.  1.
         11    1    3    3    0    0 -0.30870354611E+01 -0.88844052197E+01 -0.92939971534E+00  0.94512553737E+01  0.51100000000E-03 0. -1.
        -11    1    3    3    0    0 -0.27787634563E+02 -0.18433067571E+02 -0.10246142357E+02  0.34884295151E+02  0.51100000000E-03 0.  1.
        -12    1    3    3    0    0 -0.19022750635E+01  0.43662167988E+01  0.39591284937E+01  0.61933188180E+01  0.00000000000E+00 0.  1.
</event>
<event>
 7    1  0.5373252E-013  0.5052887E+02  0.7816164E-02  0.1300439E+00
        -11   -1    0    0    0    0  0.00000000000E+00  0.00000000000E+00  0.45593999997E+02  0.45594000000E+02  0.51100000000E-03 0.  1.
         11   -1    0    0    0    0 -0.00000000000E+00 -0.00000000000E+00 -0.45593999997E+02  0.45594000000E+02  0.51100000000E-03 0. -1.
    9900012    2    1    2    0    0 -0.73557038830E+01 -0.53659395477E+01 -0.39626576001E+02  0.50528865572E+02  0.30000017394E+02 0.  0.
        -12    1    1    2    0    0  0.73557038830E+01  0.53659395477E+01  0.39626576001E+02  0.40659134428E+02  0.00000000000E+00 0.  1.
         11    1    3    3    0    0  0.29417341267E+00  0.77918182457E+01 -0.13905586374E+02  0.15942531237E+02  0.51100000000E-03 0. -1.
        -11    1    3    3    0    0 -0.80290327145E+01  0.61571871714E+00 -0.43332455128E+01  0.91444788153E+01  0.51100000000E-03 0.  1.
         12    1    3    3    0    0  0.37915541876E+00 -0.13773476511E+02 -0.21387744114E+02  0.25441855520E+02  0.00000000000E+00 0. -1.
</event>
<event>
 7    1  0.5373252E-013  0.5052872E+02  0.7816164E-02  0.1300439E+00
        -11   -1    0    0    0    0  0.00000000000E+00  0.00000000000E+00  0.45593999997E+02  0.45594000000E+02  0.51100000000E-03 0.  1.
         11   -1    0    0    0    0 -0.00000000000E+00 -0.00000000000E+00 -0.45593999997E+02  0.45594000000E+02  0.51100000000E-03 0. -1.
    9900012    2    1    2    0    0 -0.18813583082E+02  0.22119288218E+00 -0.36044103403E+02  0.50528717852E+02  0.29999568379E+02 0.  0.
        -12    1    1    2    0    0  0.18813583082E+02 -0.22119288218E+00  0.36044103403E+02  0.40659282148E+02  0.00000000000E+00 0.  1.
         11    1    3    3    0    0 -0.85964669738E+01  0.10772665612E+01 -0.18040780624E+02  0.20013233458E+02  0.51100000000E-03 0. -1.
        -11    1    3    3    0    0 -0.83300301564E+01 -0.71972585115E+01  0.34167303302E+00  0.11013930870E+02  0.51100000000E-03 0.  1.
         12    1    3    3    0    0 -0.18870859519E+01  0.63411848325E+01 -0.18344995812E+02  0.19501553523E+02  0.00000000000E+00 0. -1.
</event>
<event>
 7    1  0.5373252E-013  0.5052882E+02  0.7816164E-02  0.1300439E+00
        -11   -1    0    0    0    0  0.00000000000E+00  0.00000000000E+00  0.45593999997E+02  0.45594000000E+02  0.51100000000E-03 0. -1.
         11   -1    0    0    0    0 -0.00000000000E+00 -0.00000000000E+00 -0.45593999997E+02  0.45594000000E+02  0.51100000000E-03 0.  1.
    9900012    2    1    2    0    0  0.19764225555E+02  0.34156203326E+02 -0.97927481359E+01  0.50528822027E+02  0.29999885032E+02 0.  0.
        -12    1    1    2    0    0 -0.19764225555E+02 -0.34156203326E+02  0.97927481359E+01  0.40659177973E+02  0.00000000000E+00 0.  1.
         11    1    3    3    0    0  0.16722971726E+02  0.20040091984E+02 -0.30472899613E+01  0.26278299915E+02  0.51100000000E-03 0. -1.
        -11    1    3    3    0    0  0.49926751966E+01 -0.22698485644E+01  0.16616237498E+01  0.57306205486E+01  0.51100000000E-03 0.  1.
         12    1    3    3    0    0 -0.19514213675E+01  0.16385959907E+02 -0.84070819244E+01  0.18519901563E+02  0.00000000000E+00 0. -1.
</event>
<event>
 7    1  0.5373252E-013  0.5052886E+02  0.7816164E-02  0.1300439E+00
        -11   -1    0    0    0    0  0.00000000000E+00  0.00000000000E+00  0.45593999997E+02  0.45594000000E+02  0.51100000000E-03 0. -1.
         11   -1    0    0    0    0 -0.00000000000E+00 -0.00000000000E+00 -0.45593999997E+02  0.45594000000E+02  0.51100000000E-03 0.  1.
    9900012    2    1    2    0    0 -0.24276394898E+02 -0.13481138017E+02  0.29699855014E+02  0.50528858108E+02  0.29999994707E+02 0.  0.
        -12    1    1    2    0    0  0.24276394898E+02  0.13481138017E+02 -0.29699855014E+02  0.40659141892E+02  0.00000000000E+00 0.  1.
         11    1    3    3    0    0 -0.14431863389E+02 -0.90065681363E+01  0.51434168938E+01  0.17772216747E+02  0.51100000000E-03 0. -1.
        -11    1    3    3    0    0 -0.82764214264E+01  0.65269696830E+01  0.11155284797E+02  0.15347340617E+02  0.51100000000E-03 0.  1.
         12    1    3    3    0    0 -0.15681100824E+01 -0.11001539564E+02  0.13401153324E+02  0.17409300745E+02  0.00000000000E+00 0. -1.
</event>
<event>
 7    1  0.5373252E-013  0.5052885E+02  0.7816164E-02  0.1300439E+00
        -11   -1    0    0    0    0  0.00000000000E+00  0.00000000000E+00  0.45593999997E+02  0.45594000000E+02  0.51100000000E-03 0.  1.
         11   -1    0    0    0    0 -0.00000000000E+00 -0.00000000000E+00 -0.45593999997E+02  0.45594000000E+02  0.51100000000E-03 0. -1.
    9900012    2    1    2    0    0 -0.84747013272E+01  0.64180733802E+01 -0.39244795863E+02  0.50528853048E+02  0.29999979325E+02 0.  0.
        -12    1    1    2    0    0  0.84747013272E+01 -0.64180733802E+01  0.39244795863E+02  0.40659146952E+02  0.00000000000E+00 0.  1.
         11    1    3    3    0    0  0.26672762003E+01  0.32583860590E+01 -0.17980566482E+01  0.45786952300E+01  0.51100000000E-03 0.  1.
        -11    1    3    3    0    0 -0.18208956555E+02  0.23008955153E+01 -0.32353254991E+02  0.37196684365E+02  0.51100000000E-03 0. -1.
         12    1    3    3    0    0  0.70669790279E+01  0.85879180581E+00 -0.50934842244E+01  0.87534734529E+01  0.00000000000E+00 0. -1.
</event>
<event>
 7    1  0.5373252E-013  0.5052887E+02  0.7816164E-02  0.1300439E+00
        -11   -1    0    0    0    0  0.00000000000E+00  0.00000000000E+00  0.45593999997E+02  0.45594000000E+02  0.51100000000E-03 0. -1.
         11   -1    0    0    0    0 -0.00000000000E+00 -0.00000000000E+00 -0.45593999997E+02  0.45594000000E+02  0.51100000000E-03 0.  1.
    9900012    2    1    2    0    0 -0.87146021798E+01 -0.20264568588E+02 -0.34155060795E+02  0.50528865613E+02  0.30000017518E+02 0.  0.
        -12    1    1    2    0    0  0.87146021798E+01  0.20264568588E+02  0.34155060795E+02  0.40659134387E+02  0.00000000000E+00 0.  1.
         11    1    3    3    0    0  0.14842811608E+01 -0.10340845190E+02 -0.62746375418E+01  0.12186354925E+02  0.51100000000E-03 0. -1.
        -11    1    3    3    0    0  0.26444680593E+01 -0.83517420756E+01 -0.22829139612E+02  0.24452288701E+02  0.51100000000E-03 0.  1.
        -12    1    3    3    0    0 -0.12843351400E+02 -0.15719813218E+01 -0.50512836408E+01  0.13890221988E+02  0.00000000000E+00 0.  1.
</event>
<event>
 7    1  0.5373252E-013  0.5052887E+02  0.7816164E-02  0.1300439E+00
        -11   -1    0    0    0    0  0.00000000000E+00  0.00000000000E+00  0.45593999997E+02  0.45594000000E+02  0.51100000000E-03 0. -1.
         11   -1    0    0    0    0 -0.00000000000E+00 -0.00000000000E+00 -0.45593999997E+02  0.45594000000E+02  0.51100000000E-03 0.  1.
    9900012    2    1    2    0    0  0.27685131718E+02  0.61709213060E+01  0.29131053271E+02  0.50528867537E+02  0.30000023365E+02 0.  0.
        -12    1    1    2    0    0 -0.27685131718E+02 -0.61709213060E+01 -0.29131053271E+02  0.40659132463E+02  0.00000000000E+00 0.  1.
         11    1    3    3    0    0  0.93215446870E+01  0.65846758477E+01  0.14871908941E+02  0.18746275022E+02  0.51100000000E-03 0. -1.
        -11    1    3    3    0    0  0.10815221990E+02 -0.90024649437E+01  0.76086904211E+00  0.14092278869E+02  0.51100000000E-03 0.  1.
         12    1    3    3    0    0  0.75483650402E+01  0.85887104020E+01  0.13498275288E+02  0.17690313646E+02  0.00000000000E+00 0. -1.
</event>
<event>
 7    1  0.5373252E-013  0.5052886E+02  0.7816164E-02  0.1300439E+00
        -11   -1    0    0    0    0  0.00000000000E+00  0.00000000000E+00  0.45593999997E+02  0.45594000000E+02  0.51100000000E-03 0. -1.
         11   -1    0    0    0    0 -0.00000000000E+00 -0.00000000000E+00 -0.45593999997E+02  0.45594000000E+02  0.51100000000E-03 0.  1.
    9900012    2    1    2    0    0  0.15111895113E+02 -0.36282405356E+02  0.10410716260E+02  0.50528864183E+02  0.30000013171E+02 0.  0.
        -12    1    1    2    0    0 -0.15111895113E+02  0.36282405356E+02 -0.10410716260E+02  0.40659135817E+02  0.00000000000E+00 0.  1.
         11    1    3    3    0    0  0.34998120256E+01  0.20261931395E+01 -0.16705142761E+01  0.43754726671E+01  0.51100000000E-03 0.  1.
        -11    1    3    3    0    0  0.14233052701E+02 -0.13566525217E+02  0.54617075874E+01  0.20407367436E+02  0.51100000000E-03 0. -1.
        -12    1    3    3    0    0 -0.26209696131E+01 -0.24742073278E+02  0.66195229491E+01  0.25746024080E+02  0.00000000000E+00 0.  1.
</event>
<event>
 7    1  0.5373252E-013  0.5052887E+02  0.7816164E-02  0.1300439E+00
        -11   -1    0    0    0    0  0.00000000000E+00  0.00000000000E+00  0.45593999997E+02  0.45594000000E+02  0.51100000000E-03 0. -1.
         11   -1    0    0    0    0 -0.00000000000E+00 -0.00000000000E+00 -0.45593999997E+02  0.45594000000E+02  0.51100000000E-03 0.  1.
    9900012    2    1    2    0    0 -0.14961593277E+02  0.21541744626E+02  0.31068772042E+02  0.50528872721E+02  0.30000039123E+02 0.  0.
        -12    1    1    2    0    0  0.14961593277E+02 -0.21541744626E+02 -0.31068772042E+02  0.40659127279E+02  0.00000000000E+00 0.  1.
         11    1    3    3    0    0  0.30825375000E+01  0.13953950007E+02  0.78417766523E+01  0.16300558873E+02  0.51100000000E-03 0. -1.
        -11    1    3    3    0    0 -0.16457979696E+02  0.10691625103E+02  0.13302037634E+02  0.23709073126E+02  0.51100000000E-03 0.  1.
        -12    1    3    3    0    0 -0.15861510807E+01 -0.31038304843E+01  0.99249577552E+01  0.10519240722E+02  0.00000000000E+00 0.  1.
</event>
<event>
 7    1  0.5373252E-013  0.5052886E+02  0.7816164E-02  0.1300439E+00
        -11   -1    0    0    0    0  0.00000000000E+00  0.00000000000E+00  0.45593999997E+02  0.45594000000E+02  0.51100000000E-03 0.  1.
         11   -1    0    0    0    0 -0.00000000000E+00 -0.00000000000E+00 -0.45593999997E+02  0.45594000000E+02  0.51100000000E-03 0. -1.
    9900012    2    1    2    0    0 -0.24667656242E+02 -0.74479195461E+00 -0.32312809337E+02  0.50528860476E+02  0.30000001904E+02 0.  0.
        -12    1    1    2    0    0  0.24667656242E+02  0.74479195461E+00  0.32312809337E+02  0.40659139524E+02  0.00000000000E+00 0.  1.
         11    1    3    3    0    0 -0.50771089723E+01 -0.85591435133E+01 -0.15848059009E+02  0.18713549845E+02  0.51100000000E-03 0. -1.
        -11    1    3    3    0    0 -0.20742636113E+01  0.84308813700E+01 -0.15891501569E+01  0.88265354861E+01  0.51100000000E-03 0.  1.
         12    1    3    3    0    0 -0.17516283659E+02 -0.61652981129E+00 -0.14875600172E+02  0.22988775145E+02  0.00000000000E+00 0. -1.
</event>
<event>
 7    1  0.5373252E-013  0.5052886E+02  0.7816164E-02  0.1300439E+00
        -11   -1    0    0    0    0  0.00000000000E+00  0.00000000000E+00  0.45593999997E+02  0.45594000000E+02  0.51100000000E-03 0.  1.
         11   -1    0    0    0    0 -0.00000000000E+00 -0.00000000000E+00 -0.45593999997E+02  0.45594000000E+02  0.51100000000E-03 0. -1.
    9900012    2    1    2    0    0  0.23969811206E+02  0.12639767950E+01 -0.32817927506E+02  0.50528857702E+02  0.29999993471E+02 0.  0.
        -12    1    1    2    0    0 -0.23969811206E+02 -0.12639767950E+01  0.32817927506E+02  0.40659142298E+02  0.00000000000E+00 0.  1.
         11    1    3    3    0    0  0.12163146373E+02  0.45150677717E+01 -0.14704735362E+02  0.19610130265E+02  0.51100000000E-03 0. -1.
        -11    1    3    3    0    0  0.75928716209E+01  0.80057327758E+01 -0.26753150516E+01  0.11353447389E+02  0.51100000000E-03 0.  1.
        -12    1    3    3    0    0  0.42137932126E+01 -0.11256823753E+02 -0.15437877093E+02  0.19565280048E+02  0.00000000000E+00 0.  1.
</event>
<event>
 7    1  0.5373252E-013  0.5052888E+02  0.7816164E-02  0.1300439E+00
        -11   -1    0    0    0    0  0.00000000000E+00  0.00000000000E+00  0.45593999997E+02  0.45594000000E+02  0.51100000000E-03 0. -1.
         11   -1    0    0    0    0 -0.00000000000E+00 -0.00000000000E+00 -0.45593999997E+02  0.45594000000E+02  0.51100000000E-03 0.  1.
    9900012    2    1    2    0    0  0.21374028456E+02 -0.31069263069E+02  0.15199212378E+02  0.50528877322E+02  0.30000053106E+02 0.  0.
        -12    1    1    2    0    0 -0.21374028456E+02  0.31069263069E+02 -0.15199212378E+02  0.40659122678E+02  0.00000000000E+00 0.  1.
         11    1    3    3    0    0  0.21781118705E+01 -0.70881198322E+00  0.84825084310E+01  0.87863266096E+01  0.51100000000E-03 0. -1.
        -11    1    3    3    0    0  0.16804572199E+02 -0.19352036281E+02  0.13111394059E+02  0.28788949432E+02  0.51100000000E-03 0.  1.
        -12    1    3    3    0    0  0.23913443867E+01 -0.11008414805E+02 -0.63946901115E+01  0.12953601280E+02  0.00000000000E+00 0.  1.
</event>
<event>
 7    1  0.5373252E-013  0.5052885E+02  0.7816164E-02  0.1300439E+00
        -11   -1    0    0    0    0  0.00000000000E+00  0.00000000000E+00  0.45593999997E+02  0.45594000000E+02  0.51100000000E-03 0.  1.
         11   -1    0    0    0    0 -0.00000000000E+00 -0.00000000000E+00 -0.45593999997E+02  0.45594000000E+02  0.51100000000E-03 0. -1.
    9900012    2    1    2    0    0 -0.28567858806E+02  0.20702659538E+02 -0.20209996712E+02  0.50528848068E+02  0.29999964187E+02 0.  0.
        -12    1    1    2    0    0  0.28567858806E+02 -0.20702659538E+02  0.20209996712E+02  0.40659151932E+02  0.00000000000E+00 0.  1.
         11    1    3    3    0    0 -0.12773614357E+02  0.23218826653E+01 -0.13265613618E+02  0.18561596585E+02  0.51100000000E-03 0. -1.
        -11    1    3    3    0    0 -0.84592119875E+01  0.11786829935E+02 -0.13746185762E+02  0.19986126454E+02  0.51100000000E-03 0.  1.
         12    1    3    3    0    0 -0.73350324614E+01  0.65939469375E+01  0.68018026676E+01  0.11981125029E+02  0.00000000000E+00 0. -1.
</event>
<event>
 7    1  0.5373252E-013  0.5052883E+02  0.7816164E-02  0.1300439E+00
        -11   -1    0    0    0    0  0.00000000000E+00  0.00000000000E+00  0.45593999997E+02  0.45594000000E+02  0.51100000000E-03 0.  1.
         11   -1    0    0    0    0 -0.00000000000E+00 -0.00000000000E+00 -0.45593999997E+02  0.45594000000E+02  0.51100000000E-03 0. -1.
    9900012    2    1    2    0    0 -0.39381090911E+02 -0.98519362302E+01 -0.22884525245E+01  0.50528831492E+02  0.29999913803E+02 0.  0.
        -12    1    1    2    0    0  0.39381090911E+02  0.98519362302E+01  0.22884525245E+01  0.40659168508E+02  0.00000000000E+00 0.  1.
         11    1    3    3    0    0 -0.26080778984E+02 -0.71800630944E+01  0.80018813457E+01  0.28209757953E+02  0.51100000000E-03 0.  1.
        -11    1    3    3    0    0 -0.14985344842E+02 -0.11494734586E+01 -0.38854015083E+01  0.15523472369E+02  0.51100000000E-03 0. -1.
        -12    1    3    3    0    0  0.16850329146E+01 -0.15223996772E+01 -0.64049323620E+01  0.67956011700E+01  0.00000000000E+00 0.  1.
</event>
<event>
 7    1  0.5373252E-013  0.5052886E+02  0.7816164E-02  0.1300439E+00
        -11   -1    0    0    0    0  0.00000000000E+00  0.00000000000E+00  0.45593999997E+02  0.45594000000E+02  0.51100000000E-03 0. -1.
         11   -1    0    0    0    0 -0.00000000000E+00 -0.00000000000E+00 -0.45593999997E+02  0.45594000000E+02  0.51100000000E-03 0.  1.
    9900012    2    1    2    0    0 -0.14690940291E+02  0.36738479378E+02  0.93608686399E+01  0.50528862585E+02  0.30000008314E+02 0.  0.
        -12    1    1    2    0    0  0.14690940291E+02 -0.36738479378E+02 -0.93608686399E+01  0.40659137415E+02  0.00000000000E+00 0.  1.
         11    1    3    3    0    0 -0.11470830976E+02  0.11089570139E+02  0.42343854923E+01  0.16507227202E+02  0.51100000000E-03 0. -1.
        -11    1    3    3    0    0 -0.95308875652E+00  0.90432824449E+01  0.12708469259E+02  0.15626724760E+02  0.51100000000E-03 0.  1.
         12    1    3    3    0    0 -0.22670205577E+01  0.16605626794E+02 -0.75819861111E+01  0.18394910623E+02  0.00000000000E+00 0. -1.
</event>
<event>
 7    1  0.5373252E-013  0.5052885E+02  0.7816164E-02  0.1300439E+00
        -11   -1    0    0    0    0  0.00000000000E+00  0.00000000000E+00  0.45593999997E+02  0.45594000000E+02  0.51100000000E-03 0.  1.
         11   -1    0    0    0    0 -0.00000000000E+00 -0.00000000000E+00 -0.45593999997E+02  0.45594000000E+02  0.51100000000E-03 0. -1.
    9900012    2    1    2    0    0 -0.82381582476E+01 -0.23389400203E+02 -0.32221656667E+02  0.50528850335E+02  0.29999971077E+02 0.  0.
        -12    1    1    2    0    0  0.82381582476E+01  0.23389400203E+02  0.32221656667E+02  0.40659149665E+02  0.00000000000E+00 0.  1.
         11    1    3    3    0    0 -0.57335644492E-01 -0.44958890750E+01  0.33255196209E+01  0.55924401616E+01  0.51100000000E-03 0. -1.
        -11    1    3    3    0    0 -0.21802567750E+01 -0.58872921951E+01  0.34921815701E+00  0.62877406576E+01  0.51100000000E-03 0.  1.
         12    1    3    3    0    0 -0.60005658281E+01 -0.13006218933E+02 -0.35896394445E+02  0.38648669515E+02  0.00000000000E+00 0. -1.
</event>
<event>
 7    1  0.5373252E-013  0.5052886E+02  0.7816164E-02  0.1300439E+00
        -11   -1    0    0    0    0  0.00000000000E+00  0.00000000000E+00  0.45593999997E+02  0.45594000000E+02  0.51100000000E-03 0. -1.
         11   -1    0    0    0    0 -0.00000000000E+00 -0.00000000000E+00 -0.45593999997E+02  0.45594000000E+02  0.51100000000E-03 0.  1.
    9900012    2    1    2    0    0  0.22791359253E+02 -0.33170844380E+02  0.57805215756E+01  0.50528863226E+02  0.30000010262E+02 0.  0.
        -12    1    1    2    0    0 -0.22791359253E+02  0.33170844380E+02 -0.57805215756E+01  0.40659136774E+02  0.00000000000E+00 0.  1.
         11    1    3    3    0    0  0.41151973101E+01 -0.16141623191E+02  0.13359717360E+01  0.16711423306E+02  0.51100000000E-03 0. -1.
        -11    1    3    3    0    0  0.57651372734E+01 -0.17290284924E+02 -0.36342740606E+01  0.18584905400E+02  0.51100000000E-03 0.  1.
         12    1    3    3    0    0  0.12911024670E+02  0.26106373508E+00  0.80788239002E+01  0.15232534520E+02  0.00000000000E+00 0. -1.
</event>
<event>
 7    1  0.5373252E-013  0.5052888E+02  0.7816164E-02  0.1300439E+00
        -11   -1    0    0    0    0  0.00000000000E+00  0.00000000000E+00  0.45593999997E+02  0.45594000000E+02  0.51100000000E-03 0.  1.
         11   -1    0    0    0    0 -0.00000000000E+00 -0.00000000000E+00 -0.45593999997E+02  0.45594000000E+02  0.51100000000E-03 0. -1.
    9900012    2    1    2    0    0  0.56987389336E+01  0.19951134747E+02 -0.34966274290E+02  0.50528883668E+02  0.30000072399E+02 0.  0.
        -12    1    1    2    0    0 -0.56987389336E+01 -0.19951134747E+02  0.34966274290E+02  0.40659116332E+02  0.00000000000E+00 0.  1.
         11    1    3    3    0    0  0.41437523536E+01  0.14672929910E+02 -0.92723856365E+01  0.17844962633E+02  0.51100000000E-03 0. -1.
        -11    1    3    3    0    0 -0.72480090607E+01 -0.44143518675E+00 -0.33503829205E+01  0.79970973699E+01  0.51100000000E-03 0.  1.
         12    1    3    3    0    0  0.88029956408E+01  0.57196400232E+01 -0.22343505733E+02  0.24686823666E+02  0.00000000000E+00 0. -1.
</event>
<event>
 7    1  0.5373252E-013  0.5052886E+02  0.7816164E-02  0.1300439E+00
        -11   -1    0    0    0    0  0.00000000000E+00  0.00000000000E+00  0.45593999997E+02  0.45594000000E+02  0.51100000000E-03 0.  1.
         11   -1    0    0    0    0 -0.00000000000E+00 -0.00000000000E+00 -0.45593999997E+02  0.45594000000E+02  0.51100000000E-03 0. -1.
    9900012    2    1    2    0    0  0.11043489311E+02 -0.67294128121E-01 -0.39130587465E+02  0.50528855149E+02  0.29999985711E+02 0.  0.
        -12    1    1    2    0    0 -0.11043489311E+02  0.67294128121E-01  0.39130587465E+02  0.40659144851E+02  0.00000000000E+00 0.  1.
         11    1    3    3    0    0  0.12966991319E+02  0.16058030539E+01 -0.23588226757E+02  0.26965272279E+02  0.51100000000E-03 0. -1.
        -11    1    3    3    0    0  0.37718510134E+01 -0.67465157032E+01 -0.13679341926E+02  0.15711993189E+02  0.51100000000E-03 0.  1.
        -12    1    3    3    0    0 -0.56953530211E+01  0.50734185212E+01 -0.18630187827E+01  0.78515896805E+01  0.00000000000E+00 0.  1.
</event>
<event>
 7    1  0.5373252E-013  0.5052887E+02  0.7816164E-02  0.1300439E+00
        -11   -1    0    0    0    0  0.00000000000E+00  0.00000000000E+00  0.45593999997E+02  0.45594000000E+02  0.51100000000E-03 0.  1.
         11   -1    0    0    0    0 -0.00000000000E+00 -0.00000000000E+00 -0.45593999997E+02  0.45594000000E+02  0.51100000000E-03 0. -1.
    9900012    2    1    2    0    0  0.22776006053E+02  0.31031393124E+02 -0.13094710670E+02  0.50528865006E+02  0.30000015672E+02 0.  0.
        -12    1    1    2    0    0 -0.22776006053E+02 -0.31031393124E+02  0.13094710670E+02  0.40659134994E+02  0.00000000000E+00 0.  1.
         11    1    3    3    0    0  0.69256366515E+01  0.20120881090E+02  0.71339400906E+00  0.21291388638E+02  0.51100000000E-03 0. -1.
        -11    1    3    3    0    0  0.77550860620E+01  0.13803753376E+02 -0.42737238488E+01  0.16399685451E+02  0.51100000000E-03 0.  1.
        -12    1    3    3    0    0  0.80952833392E+01 -0.28932413422E+01 -0.95343808306E+01  0.12837790917E+02  0.00000000000E+00 0.  1.
</event>
<event>
 7    1  0.5373252E-013  0.5052886E+02  0.7816164E-02  0.1300439E+00
        -11   -1    0    0    0    0  0.00000000000E+00  0.00000000000E+00  0.45593999997E+02  0.45594000000E+02  0.51100000000E-03 0.  1.
         11   -1    0    0    0    0 -0.00000000000E+00 -0.00000000000E+00 -0.45593999997E+02  0.45594000000E+02  0.51100000000E-03 0. -1.
    9900012    2    1    2    0    0  0.30479858929E+01  0.21182615489E+02 -0.34571264923E+02  0.50528858649E+02  0.29999996351E+02 0.  0.
        -12    1    1    2    0    0 -0.30479858929E+01 -0.21182615489E+02  0.34571264923E+02  0.40659141351E+02  0.00000000000E+00 0.  1.
         11    1    3    3    0    0 -0.18726413720E+01  0.52930953748E+00 -0.27328080160E+02  0.27397279423E+02  0.51100000000E-03 0. -1.
        -11    1    3    3    0    0 -0.10207382089E+01  0.17426202875E+01  0.23028531164E-01  0.20196936728E+01  0.51100000000E-03 0.  1.
         12    1    3    3    0    0  0.59413654738E+01  0.18910685664E+02 -0.72662132944E+01  0.21111885553E+02  0.00000000000E+00 0. -1.
</event>
<event>
 7    1  0.5373252E-013  0.5052886E+02  0.7816164E-02  0.1300439E+00
        -11   -1    0    0    0    0  0.00000000000E+00  0.00000000000E+00  0.45593999997E+02  0.45594000000E+02  0.51100000000E-03 0.  1.
         11   -1    0    0    0    0 -0.00000000000E+00 -0.00000000000E+00 -0.45593999997E+02  0.45594000000E+02  0.51100000000E-03 0. -1.
    9900012    2    1    2    0    0 -0.11319643950E+01 -0.21032095198E+02 -0.34778373992E+02  0.50528859953E+02  0.30000000314E+02 0.  0.
        -12    1    1    2    0    0  0.11319643950E+01  0.21032095198E+02  0.34778373992E+02  0.40659140047E+02  0.00000000000E+00 0.  1.
         11    1    3    3    0    0  0.10199926121E+02 -0.87120274902E+01 -0.21452848188E+02  0.25301434969E+02  0.51100000000E-03 0.  1.
        -11    1    3    3    0    0 -0.35059599738E+01 -0.23902310371E+01 -0.11742509973E+02  0.12485651784E+02  0.51100000000E-03 0. -1.
        -12    1    3    3    0    0 -0.78259305417E+01 -0.99298366711E+01 -0.15830158309E+01  0.12741773200E+02  0.00000000000E+00 0.  1.
</event>
<event>
 7    1  0.5373252E-013  0.5052883E+02  0.7816164E-02  0.1300439E+00
        -11   -1    0    0    0    0  0.00000000000E+00  0.00000000000E+00  0.45593999997E+02  0.45594000000E+02  0.51100000000E-03 0.  1.
         11   -1    0    0    0    0 -0.00000000000E+00 -0.00000000000E+00 -0.45593999997E+02  0.45594000000E+02  0.51100000000E-03 0. -1.
    9900012    2    1    2    0    0  0.19579203130E+01  0.22729544028E+02 -0.33655644036E+02  0.50528831303E+02  0.29999913229E+02 0.  0.
        -12    1    1    2    0    0 -0.19579203130E+01 -0.22729544028E+02  0.33655644036E+02  0.40659168697E+02  0.00000000000E+00 0.  1.
         11    1    3    3    0    0  0.72402060507E+01 -0.14403604984E+01 -0.13391872331E+02  0.15291745055E+02  0.51100000000E-03 0. -1.
        -11    1    3    3    0    0  0.41158253302E+01  0.13481827700E+02 -0.13349372003E+02  0.19414052370E+02  0.51100000000E-03 0.  1.
        -12    1    3    3    0    0 -0.93981110679E+01  0.10688076826E+02 -0.69143997013E+01  0.15823033878E+02  0.00000000000E+00 0.  1.
</event>
<event>
 7    1  0.5373252E-013  0.5052887E+02  0.7816164E-02  0.1300439E+00
        -11   -1    0    0    0    0  0.00000000000E+00  0.00000000000E+00  0.45593999997E+02  0.45594000000E+02  0.51100000000E-03 0.  1.
         11   -1    0    0    0    0 -0.00000000000E+00 -0.00000000000E+00 -0.45593999997E+02  0.45594000000E+02  0.51100000000E-03 0. -1.
    9900012    2    1    2    0    0  0.26827098615E+02 -0.30318812897E+02 -0.37737862248E+01  0.50528866979E+02  0.30000021668E+02 0.  0.
        -12    1    1    2    0    0 -0.26827098615E+02  0.30318812897E+02  0.37737862248E+01  0.40659133021E+02  0.00000000000E+00 0.  1.
         11    1    3    3    0    0 -0.16218076958E+01 -0.80551491631E+01 -0.85573431829E+01  0.11863549673E+02  0.51100000000E-03 0. -1.
        -11    1    3    3    0    0  0.15067445779E+02 -0.44687547147E+01 -0.71205961252E+00  0.15732282738E+02  0.51100000000E-03 0.  1.
        -12    1    3    3    0    0  0.13381460532E+02 -0.17794909019E+02  0.54956165707E+01  0.22933034567E+02  0.00000000000E+00 0.  1.
</event>
<event>
 7    1  0.5373252E-013  0.5052885E+02  0.7816164E-02  0.1300439E+00
        -11   -1    0    0    0    0  0.00000000000E+00  0.00000000000E+00  0.45593999997E+02  0.45594000000E+02  0.51100000000E-03 0.  1.
         11   -1    0    0    0    0 -0.00000000000E+00 -0.00000000000E+00 -0.45593999997E+02  0.45594000000E+02  0.51100000000E-03 0. -1.
    9900012    2    1    2    0    0  0.82345124026E+01 -0.14519125449E+02 -0.37074977562E+02  0.50528853925E+02  0.29999981990E+02 0.  0.
        -12    1    1    2    0    0 -0.82345124026E+01  0.14519125449E+02  0.37074977562E+02  0.40659146075E+02  0.00000000000E+00 0.  1.
         11    1    3    3    0    0  0.99516039673E+01 -0.37236031817E+01 -0.13507589262E+02  0.17185884036E+02  0.51100000000E-03 0. -1.
        -11    1    3    3    0    0  0.20538793028E+01 -0.92070208747E+01 -0.10495525594E-01  0.94333326028E+01  0.51100000000E-03 0.  1.
        -12    1    3    3    0    0 -0.37709708676E+01 -0.15885013931E+01 -0.23556892774E+02  0.23909637286E+02  0.00000000000E+00 0.  1.
</event>
<event>
 7    1  0.5373252E-013  0.5052886E+02  0.7816164E-02  0.1300439E+00
        -11   -1    0    0    0    0  0.00000000000E+00  0.00000000000E+00  0.45593999997E+02  0.45594000000E+02  0.51100000000E-03 0.  1.
         11   -1    0    0    0    0 -0.00000000000E+00 -0.00000000000E+00 -0.45593999997E+02  0.45594000000E+02  0.51100000000E-03 0. -1.
    9900012    2    1    2    0    0 -0.20007286635E+02  0.17889355135E+02 -0.30542516381E+02  0.50528857701E+02  0.29999993468E+02 0.  0.
        -12    1    1    2    0    0  0.20007286635E+02 -0.17889355135E+02  0.30542516381E+02  0.40659142299E+02  0.00000000000E+00 0.  1.
         11    1    3    3    0    0 -0.22939588528E+01  0.18358422212E+02 -0.20031057664E+02  0.27267878259E+02  0.51100000000E-03 0. -1.
        -11    1    3    3    0    0  0.87447525429E+00 -0.15859699626E+01 -0.22525512458E+01  0.28903278480E+01  0.51100000000E-03 0.  1.
        -12    1    3    3    0    0 -0.18587803036E+02  0.11169028851E+01 -0.82589074706E+01  0.20370651594E+02  0.00000000000E+00 0.  1.
</event>
<event>
 7    1  0.5373252E-013  0.5052886E+02  0.7816164E-02  0.1300439E+00
        -11   -1    0    0    0    0  0.00000000000E+00  0.00000000000E+00  0.45593999997E+02  0.45594000000E+02  0.51100000000E-03 0.  1.
         11   -1    0    0    0    0 -0.00000000000E+00 -0.00000000000E+00 -0.45593999997E+02  0.45594000000E+02  0.51100000000E-03 0. -1.
    9900012    2    1    2    0    0  0.10334032794E+02 -0.12070376137E+02 -0.37425656774E+02  0.50528855902E+02  0.29999987999E+02 0.  0.
        -12    1    1    2    0    0 -0.10334032794E+02  0.12070376137E+02  0.37425656774E+02  0.40659144098E+02  0.00000000000E+00 0.  1.
         11    1    3    3    0    0  0.98429389788E+01 -0.15011375778E+02 -0.90148917267E+01  0.20087138263E+02  0.51100000000E-03 0. -1.
        -11    1    3    3    0    0  0.47049433267E+01 -0.32532708524E+00 -0.74806168937E+01  0.88431871399E+01  0.51100000000E-03 0.  1.
         12    1    3    3    0    0 -0.42138495116E+01  0.32663267266E+01 -0.20930148153E+02  0.21598530499E+02  0.00000000000E+00 0. -1.
</event>
<event>
 7    1  0.5373252E-013  0.5052892E+02  0.7816164E-02  0.1300439E+00
        -11   -1    0    0    0    0  0.00000000000E+00  0.00000000000E+00  0.45593999997E+02  0.45594000000E+02  0.51100000000E-03 0.  1.
         11   -1    0    0    0    0 -0.00000000000E+00 -0.00000000000E+00 -0.45593999997E+02  0.45594000000E+02  0.51100000000E-03 0. -1.
    9900012    2    1    2    0    0 -0.50102370226E+01  0.37809747228E+02 -0.14088347135E+02  0.50528917553E+02  0.30000175393E+02 0.  0.
        -12    1    1    2    0    0  0.50102370226E+01 -0.37809747228E+02  0.14088347135E+02  0.40659082447E+02  0.00000000000E+00 0.  1.
         11    1    3    3    0    0  0.14905813886E+01  0.17632429969E+01  0.25086837595E+01  0.34094505728E+01  0.51100000000E-03 0. -1.
        -11    1    3    3    0    0 -0.62916364861E+00  0.71440573168E+01 -0.16097052859E+02  0.17622386695E+02  0.51100000000E-03 0.  1.
         12    1    3    3    0    0 -0.58716547626E+01  0.28902446914E+02 -0.49997803520E+00  0.29497080285E+02  0.00000000000E+00 0. -1.
</event>
<event>
 7    1  0.5373252E-013  0.5052886E+02  0.7816164E-02  0.1300439E+00
        -11   -1    0    0    0    0  0.00000000000E+00  0.00000000000E+00  0.45593999997E+02  0.45594000000E+02  0.51100000000E-03 0. -1.
         11   -1    0    0    0    0 -0.00000000000E+00 -0.00000000000E+00 -0.45593999997E+02  0.45594000000E+02  0.51100000000E-03 0.  1.
    9900012    2    1    2    0    0 -0.19608741215E+02 -0.21054302720E+02  0.28729419960E+02  0.50528856302E+02  0.29999989215E+02 0.  0.
        -12    1    1    2    0    0  0.19608741215E+02  0.21054302720E+02 -0.28729419960E+02  0.40659143698E+02  0.00000000000E+00 0.  1.
         11    1    3    3    0    0  0.14136066108E+01 -0.15286915312E+02  0.12073876431E+02  0.19531168827E+02  0.51100000000E-03 0. -1.
        -11    1    3    3    0    0 -0.45595363773E+01  0.12554299706E-01  0.12150007055E+02  0.12977372665E+02  0.51100000000E-03 0.  1.
         12    1    3    3    0    0 -0.16462811448E+02 -0.57799417074E+01  0.45055364731E+01  0.18020314810E+02  0.00000000000E+00 0. -1.
</event>
<event>
 7    1  0.5373252E-013  0.5052891E+02  0.7816164E-02  0.1300439E+00
        -11   -1    0    0    0    0  0.00000000000E+00  0.00000000000E+00  0.45593999997E+02  0.45594000000E+02  0.51100000000E-03 0. -1.
         11   -1    0    0    0    0 -0.00000000000E+00 -0.00000000000E+00 -0.45593999997E+02  0.45594000000E+02  0.51100000000E-03 0.  1.
    9900012    2    1    2    0    0  0.34743265969E+02  0.12067285013E+02  0.17333435820E+02  0.50528906366E+02  0.30000141391E+02 0.  0.
        -12    1    1    2    0    0 -0.34743265969E+02 -0.12067285013E+02 -0.17333435820E+02  0.40659093634E+02  0.00000000000E+00 0.  1.
         11    1    3    3    0    0  0.24386270660E+02  0.98844195912E+00  0.17496458748E+02  0.30029873180E+02  0.51100000000E-03 0. -1.
        -11    1    3    3    0    0  0.19948200330E+01  0.67969532108E+01  0.59832633543E+01  0.92723956204E+01  0.51100000000E-03 0.  1.
         12    1    3    3    0    0  0.83621752756E+01  0.42818898428E+01 -0.61462862825E+01  0.11226637566E+02  0.00000000000E+00 0. -1.
</event>
<event>
 7    1  0.5373252E-013  0.5052886E+02  0.7816164E-02  0.1300439E+00
        -11   -1    0    0    0    0  0.00000000000E+00  0.00000000000E+00  0.45593999997E+02  0.45594000000E+02  0.51100000000E-03 0.  1.
         11   -1    0    0    0    0 -0.00000000000E+00 -0.00000000000E+00 -0.45593999997E+02  0.45594000000E+02  0.51100000000E-03 0. -1.
    9900012    2    1    2    0    0  0.28387782020E+02 -0.27633315813E+02 -0.91487281677E+01  0.50528861569E+02  0.30000005226E+02 0.  0.
        -12    1    1    2    0    0 -0.28387782020E+02  0.27633315813E+02  0.91487281677E+01  0.40659138431E+02  0.00000000000E+00 0.  1.
         11    1    3    3    0    0  0.16464140940E+02 -0.15935752107E+02  0.77747622995E+00  0.22926417113E+02  0.51100000000E-03 0. -1.
        -11    1    3    3    0    0  0.16544423557E+02 -0.48517702319E+01 -0.48596939838E+01  0.17912963213E+02  0.51100000000E-03 0.  1.
         12    1    3    3    0    0 -0.46207824762E+01 -0.68457934746E+01 -0.50665104139E+01  0.96894812432E+01  0.00000000000E+00 0. -1.
</event>
<event>
 7    1  0.5373252E-013  0.5052887E+02  0.7816164E-02  0.1300439E+00
        -11   -1    0    0    0    0  0.00000000000E+00  0.00000000000E+00  0.45593999997E+02  0.45594000000E+02  0.51100000000E-03 0.  1.
         11   -1    0    0    0    0 -0.00000000000E+00 -0.00000000000E+00 -0.45593999997E+02  0.45594000000E+02  0.51100000000E-03 0. -1.
    9900012    2    1    2    0    0 -0.28523446108E+02  0.14814695534E+00 -0.28975090287E+02  0.50528870858E+02  0.30000033461E+02 0.  0.
        -12    1    1    2    0    0  0.28523446108E+02 -0.14814695534E+00  0.28975090287E+02  0.40659129142E+02  0.00000000000E+00 0.  1.
         11    1    3    3    0    0 -0.99910208049E+00 -0.20536815764E+01 -0.33422984085E+00  0.23081427235E+01  0.51100000000E-03 0.  1.
        -11    1    3    3    0    0 -0.12641348015E+02 -0.60859296585E+01  0.96561990046E+00  0.14063237234E+02  0.51100000000E-03 0. -1.
         12    1    3    3    0    0 -0.14882996013E+02  0.82877581903E+01 -0.29606480346E+02  0.34157490901E+02  0.00000000000E+00 0. -1.
</event>
<event>
 7    1  0.5373252E-013  0.5052886E+02  0.7816164E-02  0.1300439E+00
        -11   -1    0    0    0    0  0.00000000000E+00  0.00000000000E+00  0.45593999997E+02  0.45594000000E+02  0.51100000000E-03 0.  1.
         11   -1    0    0    0    0 -0.00000000000E+00 -0.00000000000E+00 -0.45593999997E+02  0.45594000000E+02  0.51100000000E-03 0. -1.
    9900012    2    1    2    0    0 -0.16993376281E+02  0.14140170809E+02 -0.34123986505E+02  0.50528859294E+02  0.29999998311E+02 0.  0.
        -12    1    1    2    0    0  0.16993376281E+02 -0.14140170809E+02  0.34123986505E+02  0.40659140706E+02  0.00000000000E+00 0.  1.
         11    1    3    3    0    0 -0.21189563228E+02  0.61264397190E+01 -0.30907324284E+02  0.37970956639E+02  0.51100000000E-03 0. -1.
        -11    1    3    3    0    0 -0.18387043742E+00  0.65010630767E+01  0.63183546396E+00  0.65342823461E+01  0.51100000000E-03 0.  1.
        -12    1    3    3    0    0  0.43800573839E+01  0.15126680138E+01 -0.38484976846E+01  0.60236203096E+01  0.00000000000E+00 0.  1.
</event>
<event>
 7    1  0.5373252E-013  0.5052886E+02  0.7816164E-02  0.1300439E+00
        -11   -1    0    0    0    0  0.00000000000E+00  0.00000000000E+00  0.45593999997E+02  0.45594000000E+02  0.51100000000E-03 0.  1.
         11   -1    0    0    0    0 -0.00000000000E+00 -0.00000000000E+00 -0.45593999997E+02  0.45594000000E+02  0.51100000000E-03 0. -1.
    9900012    2    1    2    0    0 -0.13525692763E+02  0.35681866106E+02 -0.14036585463E+02  0.50528860007E+02  0.30000000476E+02 0.  0.
        -12    1    1    2    0    0  0.13525692763E+02 -0.35681866106E+02  0.14036585463E+02  0.40659139993E+02  0.00000000000E+00 0.  1.
         11    1    3    3    0    0 -0.11279049872E+02  0.26985691968E+02 -0.88348305440E+01  0.30553212074E+02  0.51100000000E-03 0. -1.
        -11    1    3    3    0    0 -0.97173828005E+01  0.54450252071E+01 -0.30231586290E+01  0.11541893967E+02  0.51100000000E-03 0.  1.
        -12    1    3    3    0    0  0.74707399091E+01  0.32511489308E+01 -0.21785962896E+01  0.84337539656E+01  0.00000000000E+00 0.  1.
</event>
<event>
 7    1  0.5373252E-013  0.5052886E+02  0.7816164E-02  0.1300439E+00
        -11   -1    0    0    0    0  0.00000000000E+00  0.00000000000E+00  0.45593999997E+02  0.45594000000E+02  0.51100000000E-03 0. -1.
         11   -1    0    0    0    0 -0.00000000000E+00 -0.00000000000E+00 -0.45593999997E+02  0.45594000000E+02  0.51100000000E-03 0.  1.
    9900012    2    1    2    0    0 -0.26516562833E+02 -0.29179923484E+02 -0.99282072806E+01  0.50528864017E+02  0.30000012667E+02 0.  0.
        -12    1    1    2    0    0  0.26516562833E+02  0.29179923484E+02  0.99282072806E+01  0.40659135983E+02  0.00000000000E+00 0.  1.
         11    1    3    3    0    0 -0.16354154603E+02 -0.20241881501E+02  0.49233140265E+01  0.26484545696E+02  0.51100000000E-03 0. -1.
        -11    1    3    3    0    0  0.26067815663E+01 -0.10871127485E+00 -0.72538653877E-01  0.26100556303E+01  0.51100000000E-03 0.  1.
        -12    1    3    3    0    0 -0.12769189797E+02 -0.88293307085E+01 -0.14778982653E+02  0.21434262691E+02  0.00000000000E+00 0.  1.
</event>
<event>
 7    1  0.5373252E-013  0.5052886E+02  0.7816164E-02  0.1300439E+00
        -11   -1    0    0    0    0  0.00000000000E+00  0.00000000000E+00  0.45593999997E+02  0.45594000000E+02  0.51100000000E-03 0. -1.
         11   -1    0    0    0    0 -0.00000000000E+00 -0.00000000000E+00 -0.45593999997E+02  0.45594000000E+02  0.51100000000E-03 0.  1.
    9900012    2    1    2    0    0  0.17995034927E+02 -0.69703277615E+01  0.35787697513E+02  0.50528855340E+02  0.29999986293E+02 0.  0.
        -12    1    1    2    0    0 -0.17995034927E+02  0.69703277615E+01 -0.35787697513E+02  0.40659144660E+02  0.00000000000E+00 0.  1.
         11    1    3    3    0    0  0.13177366480E+02 -0.10627648601E+01  0.10758950841E+02  0.17044866674E+02  0.51100000000E-03 0. -1.
        -11    1    3    3    0    0  0.46019409108E+00 -0.10318151681E+02  0.32315421610E+01  0.10822148479E+02  0.51100000000E-03 0.  1.
         12    1    3    3    0    0  0.43574743564E+01  0.44105887792E+01  0.21797204511E+02  0.22661840187E+02  0.00000000000E+00 0. -1.
</event>
<event>
 7    1  0.5373252E-013  0.5052882E+02  0.7816164E-02  0.1300439E+00
        -11   -1    0    0    0    0  0.00000000000E+00  0.00000000000E+00  0.45593999997E+02  0.45594000000E+02  0.51100000000E-03 0. -1.
         11   -1    0    0    0    0 -0.00000000000E+00 -0.00000000000E+00 -0.45593999997E+02  0.45594000000E+02  0.51100000000E-03 0.  1.
    9900012    2    1    2    0    0 -0.10411707871E+02 -0.31088938762E+02  0.24046689205E+02  0.50528818554E+02  0.29999874477E+02 0.  0.
        -12    1    1    2    0    0  0.10411707871E+02  0.31088938762E+02 -0.24046689205E+02  0.40659181446E+02  0.00000000000E+00 0.  1.
         11    1    3    3    0    0 -0.43348999428E+01  0.29136815641E+00  0.66332512933E+01  0.79294562170E+01  0.51100000000E-03 0.  1.
        -11    1    3    3    0    0  0.68074356459E+01 -0.47791911695E+01  0.46521734512E-01  0.83176927595E+01  0.51100000000E-03 0. -1.
         12    1    3    3    0    0 -0.12884243574E+02 -0.26601115748E+02  0.17366916177E+02  0.34281669578E+02  0.00000000000E+00 0. -1.
</event>
<event>
 7    1  0.5373252E-013  0.5052888E+02  0.7816164E-02  0.1300439E+00
        -11   -1    0    0    0    0  0.00000000000E+00  0.00000000000E+00  0.45593999997E+02  0.45594000000E+02  0.51100000000E-03 0.  1.
         11   -1    0    0    0    0 -0.00000000000E+00 -0.00000000000E+00 -0.45593999997E+02  0.45594000000E+02  0.51100000000E-03 0. -1.
    9900012    2    1    2    0    0 -0.38158470992E+02  0.45431844586E+01 -0.13283635333E+02  0.50528875549E+02  0.30000047718E+02 0.  0.
        -12    1    1    2    0    0  0.38158470992E+02 -0.45431844586E+01  0.13283635333E+02  0.40659124451E+02  0.00000000000E+00 0.  1.
         11    1    3    3    0    0 -0.23620631774E+02  0.21115125972E+00 -0.12165941008E+02  0.26570452596E+02  0.51100000000E-03 0. -1.
        -11    1    3    3    0    0 -0.12486312529E+01 -0.28890212773E+01 -0.70434292899E+01  0.77146237996E+01  0.51100000000E-03 0.  1.
        -12    1    3    3    0    0 -0.13289207965E+02  0.72210544762E+01  0.59257349644E+01  0.16243799154E+02  0.00000000000E+00 0.  1.
</event>
<event>
 7    1  0.5373252E-013  0.5052887E+02  0.7816164E-02  0.1300439E+00
        -11   -1    0    0    0    0  0.00000000000E+00  0.00000000000E+00  0.45593999997E+02  0.45594000000E+02  0.51100000000E-03 0.  1.
         11   -1    0    0    0    0 -0.00000000000E+00 -0.00000000000E+00 -0.45593999997E+02  0.45594000000E+02  0.51100000000E-03 0. -1.
    9900012    2    1    2    0    0 -0.11636256596E+02 -0.22959139153E+02 -0.31474445516E+02  0.50528865002E+02  0.30000015661E+02 0.  0.
        -12    1    1    2    0    0  0.11636256596E+02  0.22959139153E+02  0.31474445516E+02  0.40659134998E+02  0.00000000000E+00 0.  1.
         11    1    3    3    0    0 -0.46338383084E+01 -0.22629317096E+02 -0.85288318626E+01  0.24623148111E+02  0.51100000000E-03 0. -1.
        -11    1    3    3    0    0 -0.27127409041E+01 -0.34537302816E+01 -0.31329004067E+01  0.53946530278E+01  0.51100000000E-03 0.  1.
        -12    1    3    3    0    0 -0.42896773836E+01  0.31239082239E+01 -0.19812713246E+02  0.20511063864E+02  0.00000000000E+00 0.  1.
</event>
<event>
 7    1  0.5373252E-013  0.5052881E+02  0.7816164E-02  0.1300439E+00
        -11   -1    0    0    0    0  0.00000000000E+00  0.00000000000E+00  0.45593999997E+02  0.45594000000E+02  0.51100000000E-03 0.  1.
         11   -1    0    0    0    0 -0.00000000000E+00 -0.00000000000E+00 -0.45593999997E+02  0.45594000000E+02  0.51100000000E-03 0. -1.
    9900012    2    1    2    0    0 -0.30342607131E+02  0.16552021626E+02  0.21413235124E+02  0.50528808347E+02  0.29999843450E+02 0.  0.
        -12    1    1    2    0    0  0.30342607131E+02 -0.16552021626E+02 -0.21413235124E+02  0.40659191653E+02  0.00000000000E+00 0.  1.
         11    1    3    3    0    0 -0.32392448096E+02  0.12312706353E+02  0.23992342586E+02  0.42148617230E+02  0.51100000000E-03 0. -1.
        -11    1    3    3    0    0 -0.14079030715E+00  0.14490681108E+01 -0.42255249413E+01  0.44693043744E+01  0.51100000000E-03 0.  1.
        -12    1    3    3    0    0  0.21906312716E+01  0.27902471626E+01  0.16464174795E+01  0.39108867425E+01  0.00000000000E+00 0.  1.
</event>
<event>
 7    1  0.5373252E-013  0.5052885E+02  0.7816164E-02  0.1300439E+00
        -11   -1    0    0    0    0  0.00000000000E+00  0.00000000000E+00  0.45593999997E+02  0.45594000000E+02  0.51100000000E-03 0.  1.
         11   -1    0    0    0    0 -0.00000000000E+00 -0.00000000000E+00 -0.45593999997E+02  0.45594000000E+02  0.51100000000E-03 0. -1.
    9900012    2    1    2    0    0 -0.22705689316E+02 -0.59151416743E+01 -0.33205864215E+02  0.50528847936E+02  0.29999963786E+02 0.  0.
        -12    1    1    2    0    0  0.22705689316E+02  0.59151416743E+01  0.33205864215E+02  0.40659152064E+02  0.00000000000E+00 0.  1.
         11    1    3    3    0    0  0.53591652669E+01  0.30129550628E+01 -0.15518913799E+01  0.63408924990E+01  0.51100000000E-03 0. -1.
        -11    1    3    3    0    0 -0.14340712981E+00 -0.15964258201E+01 -0.42089886638E+00  0.16571955590E+01  0.51100000000E-03 0.  1.
        -12    1    3    3    0    0 -0.27921447453E+02 -0.73316709170E+01 -0.31233073968E+02  0.42530759878E+02  0.00000000000E+00 0.  1.
</event>
<event>
 7    1  0.5373252E-013  0.5052886E+02  0.7816164E-02  0.1300439E+00
        -11   -1    0    0    0    0  0.00000000000E+00  0.00000000000E+00  0.45593999997E+02  0.45594000000E+02  0.51100000000E-03 0. -1.
         11   -1    0    0    0    0 -0.00000000000E+00 -0.00000000000E+00 -0.45593999997E+02  0.45594000000E+02  0.51100000000E-03 0.  1.
    9900012    2    1    2    0    0  0.30518524595E+02  0.75735453105E+01  0.25776480510E+02  0.50528857369E+02  0.29999992458E+02 0.  0.
        -12    1    1    2    0    0 -0.30518524595E+02 -0.75735453105E+01 -0.25776480510E+02  0.40659142631E+02  0.00000000000E+00 0.  1.
         11    1    3    3    0    0  0.12612590617E+02  0.27590266553E+01  0.12800756249E+02  0.18181007425E+02  0.51100000000E-03 0. -1.
        -11    1    3    3    0    0  0.14503444874E+02 -0.14339128502E+01  0.18348507418E+02  0.23432322634E+02  0.51100000000E-03 0.  1.
        -12    1    3    3    0    0  0.34024891030E+01  0.62484315054E+01 -0.53727831566E+01  0.89155273103E+01  0.00000000000E+00 0.  1.
</event>
<event>
 7    1  0.5373252E-013  0.5052896E+02  0.7816164E-02  0.1300438E+00
        -11   -1    0    0    0    0  0.00000000000E+00  0.00000000000E+00  0.45593999997E+02  0.45594000000E+02  0.51100000000E-03 0.  1.
         11   -1    0    0    0    0 -0.00000000000E+00 -0.00000000000E+00 -0.45593999997E+02  0.45594000000E+02  0.51100000000E-03 0. -1.
    9900012    2    1    2    0    0  0.33699173026E+02 -0.22481959154E+02 -0.34763657926E+01  0.50528955875E+02  0.30000291877E+02 0.  0.
        -12    1    1    2    0    0 -0.33699173026E+02  0.22481959154E+02  0.34763657926E+01  0.40659044125E+02  0.00000000000E+00 0.  1.
         11    1    3    3    0    0  0.92756265655E+01 -0.11414124328E+00 -0.78713903477E+01  0.12165897528E+02  0.51100000000E-03 0. -1.
        -11    1    3    3    0    0  0.10377448940E+02  0.10683113487E+01  0.35747792134E+01  0.11027773226E+02  0.51100000000E-03 0.  1.
        -12    1    3    3    0    0  0.14046097520E+02 -0.23436129259E+02  0.82024534169E+00  0.27335285121E+02  0.00000000000E+00 0.  1.
</event>
<event>
 7    1  0.5373252E-013  0.5052887E+02  0.7816164E-02  0.1300439E+00
        -11   -1    0    0    0    0  0.00000000000E+00  0.00000000000E+00  0.45593999997E+02  0.45594000000E+02  0.51100000000E-03 0.  1.
         11   -1    0    0    0    0 -0.00000000000E+00 -0.00000000000E+00 -0.45593999997E+02  0.45594000000E+02  0.51100000000E-03 0. -1.
    9900012    2    1    2    0    0 -0.32591013553E+02  0.46433832254E+01 -0.23862717454E+02  0.50528874868E+02  0.30000045649E+02 0.  0.
        -12    1    1    2    0    0  0.32591013553E+02 -0.46433832254E+01  0.23862717454E+02  0.40659125132E+02  0.00000000000E+00 0.  1.
         11    1    3    3    0    0 -0.62078175861E+01  0.94036500727E+01 -0.36611869807E+01  0.11847781406E+02  0.51100000000E-03 0. -1.
        -11    1    3    3    0    0 -0.40519289442E+00 -0.53640097133E+01  0.57673848226E+00  0.54101209805E+01  0.51100000000E-03 0.  1.
         12    1    3    3    0    0 -0.25978003073E+02  0.60374286606E+00 -0.20778268955E+02  0.33270972482E+02  0.00000000000E+00 0. -1.
</event>
<event>
 7    1  0.5373252E-013  0.5052886E+02  0.7816164E-02  0.1300439E+00
        -11   -1    0    0    0    0  0.00000000000E+00  0.00000000000E+00  0.45593999997E+02  0.45594000000E+02  0.51100000000E-03 0.  1.
         11   -1    0    0    0    0 -0.00000000000E+00 -0.00000000000E+00 -0.45593999997E+02  0.45594000000E+02  0.51100000000E-03 0. -1.
    9900012    2    1    2    0    0 -0.36400080475E+02 -0.10834620057E+02 -0.14519331727E+02  0.50528857804E+02  0.29999993780E+02 0.  0.
        -12    1    1    2    0    0  0.36400080475E+02  0.10834620057E+02  0.14519331727E+02  0.40659142196E+02  0.00000000000E+00 0.  1.
         11    1    3    3    0    0 -0.29836409908E+02 -0.16197477006E+02 -0.93981600139E+01  0.35226339995E+02  0.51100000000E-03 0. -1.
        -11    1    3    3    0    0 -0.91544459117E+01  0.41299103863E+01 -0.74615236915E+00  0.10070590021E+02  0.51100000000E-03 0.  1.
        -12    1    3    3    0    0  0.25907753449E+01  0.12329465627E+01 -0.43750193438E+01  0.52319277874E+01  0.00000000000E+00 0.  1.
</event>
<event>
 7    1  0.5373252E-013  0.5052885E+02  0.7816164E-02  0.1300439E+00
        -11   -1    0    0    0    0  0.00000000000E+00  0.00000000000E+00  0.45593999997E+02  0.45594000000E+02  0.51100000000E-03 0.  1.
         11   -1    0    0    0    0 -0.00000000000E+00 -0.00000000000E+00 -0.45593999997E+02  0.45594000000E+02  0.51100000000E-03 0. -1.
    9900012    2    1    2    0    0  0.40585699596E+02  0.20321692062E+01  0.13557522700E+01  0.50528846201E+02  0.29999958513E+02 0.  0.
        -12    1    1    2    0    0 -0.40585699596E+02 -0.20321692062E+01 -0.13557522700E+01  0.40659153799E+02  0.00000000000E+00 0.  1.
         11    1    3    3    0    0  0.49736116750E+01  0.52120664190E+01  0.68836537867E+00  0.72371469935E+01  0.51100000000E-03 0. -1.
        -11    1    3    3    0    0  0.10587754547E+02 -0.53781142863E+01  0.10945020541E+02  0.16149864845E+02  0.51100000000E-03 0.  1.
        -12    1    3    3    0    0  0.25024333375E+02  0.21982170736E+01 -0.10277633649E+02  0.27141834363E+02  0.00000000000E+00 0.  1.
</event>
<event>
 7    1  0.5373252E-013  0.5052886E+02  0.7816164E-02  0.1300439E+00
        -11   -1    0    0    0    0  0.00000000000E+00  0.00000000000E+00  0.45593999997E+02  0.45594000000E+02  0.51100000000E-03 0.  1.
         11   -1    0    0    0    0 -0.00000000000E+00 -0.00000000000E+00 -0.45593999997E+02  0.45594000000E+02  0.51100000000E-03 0. -1.
    9900012    2    1    2    0    0  0.16768463341E+02 -0.36430458978E+02 -0.66937259623E+01  0.50528859928E+02  0.30000000236E+02 0.  0.
        -12    1    1    2    0    0 -0.16768463341E+02  0.36430458978E+02  0.66937259623E+01  0.40659140072E+02  0.00000000000E+00 0.  1.
         11    1    3    3    0    0  0.18719294200E+02 -0.17666201362E+02 -0.77480431635E+01  0.26880082199E+02  0.51100000000E-03 0. -1.
        -11    1    3    3    0    0 -0.33052428342E+00 -0.25478529538E+01 -0.55097867051E+01  0.60793544700E+01  0.51100000000E-03 0.  1.
        -12    1    3    3    0    0 -0.16203065746E+01 -0.16216404662E+02  0.65641039063E+01  0.17569423259E+02  0.00000000000E+00 0.  1.
</event>
<event>
 7    1  0.5373252E-013  0.5052887E+02  0.7816164E-02  0.1300439E+00
        -11   -1    0    0    0    0  0.00000000000E+00  0.00000000000E+00  0.45593999997E+02  0.45594000000E+02  0.51100000000E-03 0. -1.
         11   -1    0    0    0    0 -0.00000000000E+00 -0.00000000000E+00 -0.45593999997E+02  0.45594000000E+02  0.51100000000E-03 0.  1.
    9900012    2    1    2    0    0  0.31878434817E+02  0.13827004811E+02 -0.21112657776E+02  0.50528868347E+02  0.30000025828E+02 0.  0.
        -12    1    1    2    0    0 -0.31878434817E+02 -0.13827004811E+02  0.21112657776E+02  0.40659131653E+02  0.00000000000E+00 0.  1.
         11    1    3    3    0    0 -0.13002533024E+01  0.67110574609E+01 -0.63511197436E+01  0.93308988395E+01  0.51100000000E-03 0. -1.
        -11    1    3    3    0    0  0.15706291319E+02 -0.32389219207E+01 -0.13301509336E+02  0.20835267051E+02  0.51100000000E-03 0.  1.
        -12    1    3    3    0    0  0.17472396800E+02  0.10354869270E+02 -0.14600286965E+01  0.20362702457E+02  0.00000000000E+00 0.  1.
</event>
<event>
 7    1  0.5373252E-013  0.5052886E+02  0.7816164E-02  0.1300439E+00
        -11   -1    0    0    0    0  0.00000000000E+00  0.00000000000E+00  0.45593999997E+02  0.45594000000E+02  0.51100000000E-03 0.  1.
         11   -1    0    0    0    0 -0.00000000000E+00 -0.00000000000E+00 -0.45593999997E+02  0.45594000000E+02  0.51100000000E-03 0. -1.
    9900012    2    1    2    0    0  0.22741818902E+02  0.18993671941E+02 -0.27842693594E+02  0.50528862192E+02  0.30000007118E+02 0.  0.
        -12    1    1    2    0    0 -0.22741818902E+02 -0.18993671941E+02  0.27842693594E+02  0.40659137808E+02  0.00000000000E+00 0.  1.
         11    1    3    3    0    0 -0.37045486483E+00  0.13159415295E+02 -0.16525642301E+02  0.21128282027E+02  0.51100000000E-03 0. -1.
        -11    1    3    3    0    0  0.84756591033E+01  0.87795277332E+01 -0.49110261323E+01  0.13154280003E+02  0.51100000000E-03 0.  1.
        -12    1    3    3    0    0  0.14636614664E+02 -0.29452710878E+01 -0.64060251605E+01  0.16246300162E+02  0.00000000000E+00 0.  1.
</event>
<event>
 7    1  0.5373252E-013  0.5052886E+02  0.7816164E-02  0.1300439E+00
        -11   -1    0    0    0    0  0.00000000000E+00  0.00000000000E+00  0.45593999997E+02  0.45594000000E+02  0.51100000000E-03 0.  1.
         11   -1    0    0    0    0 -0.00000000000E+00 -0.00000000000E+00 -0.45593999997E+02  0.45594000000E+02  0.51100000000E-03 0. -1.
    9900012    2    1    2    0    0  0.50018855343E+01 -0.24479143373E+02 -0.32076756457E+02  0.50528860511E+02  0.30000002010E+02 0.  0.
        -12    1    1    2    0    0 -0.50018855343E+01  0.24479143373E+02  0.32076756457E+02  0.40659139489E+02  0.00000000000E+00 0.  1.
         11    1    3    3    0    0 -0.52866863755E+01 -0.13882530587E+02 -0.18067374829E+02  0.23390248862E+02  0.51100000000E-03 0. -1.
        -11    1    3    3    0    0 -0.14299671191E+01  0.20431679925E+01 -0.87788604460E+01  0.91262112839E+01  0.51100000000E-03 0.  1.
        -12    1    3    3    0    0  0.11718539029E+02 -0.12639780778E+02 -0.52305211816E+01  0.18012400365E+02  0.00000000000E+00 0.  1.
</event>
<event>
 7    1  0.5373252E-013  0.5052886E+02  0.7816164E-02  0.1300439E+00
        -11   -1    0    0    0    0  0.00000000000E+00  0.00000000000E+00  0.45593999997E+02  0.45594000000E+02  0.51100000000E-03 0.  1.
         11   -1    0    0    0    0 -0.00000000000E+00 -0.00000000000E+00 -0.45593999997E+02  0.45594000000E+02  0.51100000000E-03 0. -1.
    9900012    2    1    2    0    0 -0.28040923373E+02  0.25030792263E+02 -0.15502637345E+02  0.50528859458E+02  0.29999998809E+02 0.  0.
        -12    1    1    2    0    0  0.28040923373E+02 -0.25030792263E+02  0.15502637345E+02  0.40659140542E+02  0.00000000000E+00 0.  1.
         11    1    3    3    0    0 -0.12625105782E+02  0.13792613547E+02 -0.58468245117E+01  0.19591192960E+02  0.51100000000E-03 0. -1.
        -11    1    3    3    0    0 -0.21049406712E+02  0.65004626216E+01 -0.73499245707E+01  0.23224016205E+02  0.51100000000E-03 0.  1.
        -12    1    3    3    0    0  0.56335891207E+01  0.47377160945E+01 -0.23058882624E+01  0.77136502936E+01  0.00000000000E+00 0.  1.
</event>
<event>
 7    1  0.5373252E-013  0.5052887E+02  0.7816164E-02  0.1300439E+00
        -11   -1    0    0    0    0  0.00000000000E+00  0.00000000000E+00  0.45593999997E+02  0.45594000000E+02  0.51100000000E-03 0.  1.
         11   -1    0    0    0    0 -0.00000000000E+00 -0.00000000000E+00 -0.45593999997E+02  0.45594000000E+02  0.51100000000E-03 0. -1.
    9900012    2    1    2    0    0 -0.38139695315E+02 -0.96992697689E+01 -0.10220226487E+02  0.50528865452E+02  0.30000017028E+02 0.  0.
        -12    1    1    2    0    0  0.38139695315E+02  0.96992697689E+01  0.10220226487E+02  0.40659134548E+02  0.00000000000E+00 0.  1.
         11    1    3    3    0    0 -0.39613630785E+01  0.55480347964E+01 -0.15307390682E+01  0.69868626649E+01  0.51100000000E-03 0. -1.
        -11    1    3    3    0    0 -0.21749729854E+02 -0.42554823769E+01  0.41689358552E+01  0.22550829373E+02  0.51100000000E-03 0.  1.
        -12    1    3    3    0    0 -0.12428602382E+02 -0.10991822188E+02 -0.12858423274E+02  0.20991173414E+02  0.00000000000E+00 0.  1.
</event>
<event>
 7    1  0.5373252E-013  0.5052886E+02  0.7816164E-02  0.1300439E+00
        -11   -1    0    0    0    0  0.00000000000E+00  0.00000000000E+00  0.45593999997E+02  0.45594000000E+02  0.51100000000E-03 0.  1.
         11   -1    0    0    0    0 -0.00000000000E+00 -0.00000000000E+00 -0.45593999997E+02  0.45594000000E+02  0.51100000000E-03 0. -1.
    9900012    2    1    2    0    0  0.27734559362E+02  0.28825324475E+02  0.72842624983E+01  0.50528860877E+02  0.30000003122E+02 0.  0.
        -12    1    1    2    0    0 -0.27734559362E+02 -0.28825324475E+02 -0.72842624983E+01  0.40659139123E+02  0.00000000000E+00 0.  1.
         11    1    3    3    0    0 -0.32773134586E+01  0.11036042689E+02  0.34324288969E+01  0.12013184013E+02  0.51100000000E-03 0. -1.
        -11    1    3    3    0    0 -0.13623057323E+00  0.44112486808E+01  0.72171187646E+00  0.44719729412E+01  0.51100000000E-03 0.  1.
         12    1    3    3    0    0  0.31148103394E+02  0.13378033105E+02  0.31301217249E+01  0.34043703923E+02  0.00000000000E+00 0. -1.
</event>
<event>
 7    1  0.5373252E-013  0.5052887E+02  0.7816164E-02  0.1300439E+00
        -11   -1    0    0    0    0  0.00000000000E+00  0.00000000000E+00  0.45593999997E+02  0.45594000000E+02  0.51100000000E-03 0.  1.
         11   -1    0    0    0    0 -0.00000000000E+00 -0.00000000000E+00 -0.45593999997E+02  0.45594000000E+02  0.51100000000E-03 0. -1.
    9900012    2    1    2    0    0  0.46253244690E+00 -0.24222021384E+02 -0.32653406877E+02  0.50528865272E+02  0.30000016479E+02 0.  0.
        -12    1    1    2    0    0 -0.46253244690E+00  0.24222021384E+02  0.32653406877E+02  0.40659134728E+02  0.00000000000E+00 0.  1.
         11    1    3    3    0    0 -0.18980721238E+01 -0.54029241160E+01 -0.17664694078E+02  0.18569751854E+02  0.51100000000E-03 0.  1.
        -11    1    3    3    0    0 -0.91542980190E+01 -0.57692827379E+01 -0.55654985484E+01  0.12168014213E+02  0.51100000000E-03 0. -1.
         12    1    3    3    0    0  0.11514902590E+02 -0.13049814530E+02 -0.94232142507E+01  0.19791099205E+02  0.00000000000E+00 0. -1.
</event>
<event>
 7    1  0.5373252E-013  0.5052886E+02  0.7816164E-02  0.1300439E+00
        -11   -1    0    0    0    0  0.00000000000E+00  0.00000000000E+00  0.45593999997E+02  0.45594000000E+02  0.51100000000E-03 0.  1.
         11   -1    0    0    0    0 -0.00000000000E+00 -0.00000000000E+00 -0.45593999997E+02  0.45594000000E+02  0.51100000000E-03 0. -1.
    9900012    2    1    2    0    0 -0.40562857127E+02 -0.18214818748E+01  0.21218442934E+01  0.50528863293E+02  0.30000010465E+02 0.  0.
        -12    1    1    2    0    0  0.40562857127E+02  0.18214818748E+01 -0.21218442934E+01  0.40659136707E+02  0.00000000000E+00 0.  1.
         11    1    3    3    0    0 -0.72840169700E+01  0.22789524436E+01  0.43585161506E+01  0.87890381018E+01  0.51100000000E-03 0. -1.
        -11    1    3    3    0    0 -0.38990571278E+01  0.83640396033E+01 -0.33191938117E+01  0.98069797997E+01  0.51100000000E-03 0.  1.
         12    1    3    3    0    0 -0.29379783030E+02 -0.12464473922E+02  0.10825219545E+01  0.31932845391E+02  0.00000000000E+00 0. -1.
</event>
<event>
 7    1  0.5373252E-013  0.5052886E+02  0.7816164E-02  0.1300439E+00
        -11   -1    0    0    0    0  0.00000000000E+00  0.00000000000E+00  0.45593999997E+02  0.45594000000E+02  0.51100000000E-03 0.  1.
         11   -1    0    0    0    0 -0.00000000000E+00 -0.00000000000E+00 -0.45593999997E+02  0.45594000000E+02  0.51100000000E-03 0. -1.
    9900012    2    1    2    0    0  0.15643573466E+01  0.40118044253E+02 -0.64234936771E+01  0.50528856384E+02  0.29999989464E+02 0.  0.
        -12    1    1    2    0    0 -0.15643573466E+01 -0.40118044253E+02  0.64234936771E+01  0.40659143616E+02  0.00000000000E+00 0.  1.
         11    1    3    3    0    0 -0.67759732816E+01  0.56221856631E+01 -0.78065705665E+01  0.11767129209E+02  0.51100000000E-03 0. -1.
        -11    1    3    3    0    0  0.33578894721E+01  0.22863510883E+02 -0.63068042623E+01  0.23953941886E+02  0.51100000000E-03 0.  1.
        -12    1    3    3    0    0  0.49824411561E+01  0.11632347707E+02  0.76898811517E+01  0.14807785289E+02  0.00000000000E+00 0.  1.
</event>
<event>
 7    1  0.5373252E-013  0.5052886E+02  0.7816164E-02  0.1300439E+00
        -11   -1    0    0    0    0  0.00000000000E+00  0.00000000000E+00  0.45593999997E+02  0.45594000000E+02  0.51100000000E-03 0.  1.
         11   -1    0    0    0    0 -0.00000000000E+00 -0.00000000000E+00 -0.45593999997E+02  0.45594000000E+02  0.51100000000E-03 0. -1.
    9900012    2    1    2    0    0 -0.32853434458E+02 -0.39986620936E+01 -0.23618383051E+02  0.50528862378E+02  0.30000007684E+02 0.  0.
        -12    1    1    2    0    0  0.32853434458E+02  0.39986620936E+01  0.23618383051E+02  0.40659137622E+02  0.00000000000E+00 0.  1.
         11    1    3    3    0    0 -0.16851946345E+02  0.32880787884E+01 -0.42992045096E+01  0.17699794275E+02  0.51100000000E-03 0. -1.
        -11    1    3    3    0    0 -0.12396129724E+02 -0.66876788247E+01 -0.96887917986E+00  0.14118350021E+02  0.51100000000E-03 0.  1.
        -12    1    3    3    0    0 -0.36053583894E+01 -0.59906205717E+00 -0.18350299362E+02  0.18710718081E+02  0.00000000000E+00 0.  1.
</event>
<event>
 7    1  0.5373252E-013  0.5052885E+02  0.7816164E-02  0.1300439E+00
        -11   -1    0    0    0    0  0.00000000000E+00  0.00000000000E+00  0.45593999997E+02  0.45594000000E+02  0.51100000000E-03 0. -1.
         11   -1    0    0    0    0 -0.00000000000E+00 -0.00000000000E+00 -0.45593999997E+02  0.45594000000E+02  0.51100000000E-03 0.  1.
    9900012    2    1    2    0    0  0.14313212002E+02 -0.34546168276E+02  0.15964350721E+02  0.50528852513E+02  0.29999977699E+02 0.  0.
        -12    1    1    2    0    0 -0.14313212002E+02  0.34546168276E+02 -0.15964350721E+02  0.40659147487E+02  0.00000000000E+00 0.  1.
         11    1    3    3    0    0 -0.28616482258E+01 -0.14833973007E+02  0.22258503027E+01  0.15270566315E+02  0.51100000000E-03 0. -1.
        -11    1    3    3    0    0 -0.36757679808E+01 -0.46349881583E+01 -0.34459726046E+00  0.59256335534E+01  0.51100000000E-03 0.  1.
         12    1    3    3    0    0  0.20850628209E+02 -0.15077207111E+02  0.14083097679E+02  0.29332652645E+02  0.00000000000E+00 0. -1.
</event>
<event>
 7    1  0.5373252E-013  0.5052886E+02  0.7816164E-02  0.1300439E+00
        -11   -1    0    0    0    0  0.00000000000E+00  0.00000000000E+00  0.45593999997E+02  0.45594000000E+02  0.51100000000E-03 0. -1.
         11   -1    0    0    0    0 -0.00000000000E+00 -0.00000000000E+00 -0.45593999997E+02  0.45594000000E+02  0.51100000000E-03 0.  1.
    9900012    2    1    2    0    0 -0.22950088848E+02 -0.24431219087E+00 -0.33561870445E+02  0.50528863089E+02  0.30000009845E+02 0.  0.
        -12    1    1    2    0    0  0.22950088848E+02  0.24431219087E+00  0.33561870445E+02  0.40659136911E+02  0.00000000000E+00 0.  1.
         11    1    3    3    0    0 -0.70047403181E+01  0.15918419348E+01 -0.82470177383E-01  0.71838116109E+01  0.51100000000E-03 0. -1.
        -11    1    3    3    0    0  0.35352199291E+01  0.44761708835E+01 -0.25426605919E+01  0.62449186442E+01  0.51100000000E-03 0.  1.
        -12    1    3    3    0    0 -0.19480568459E+02 -0.63123250092E+01 -0.30936739676E+02  0.37100132834E+02  0.00000000000E+00 0.  1.
</event>
<event>
 7    1  0.5373252E-013  0.5052885E+02  0.7816164E-02  0.1300439E+00
        -11   -1    0    0    0    0  0.00000000000E+00  0.00000000000E+00  0.45593999997E+02  0.45594000000E+02  0.51100000000E-03 0.  1.
         11   -1    0    0    0    0 -0.00000000000E+00 -0.00000000000E+00 -0.45593999997E+02  0.45594000000E+02  0.51100000000E-03 0. -1.
    9900012    2    1    2    0    0 -0.36401919602E+02 -0.67317691861E+01 -0.16815166800E+02  0.50528852178E+02  0.29999976682E+02 0.  0.
        -12    1    1    2    0    0  0.36401919602E+02  0.67317691861E+01  0.16815166800E+02  0.40659147822E+02  0.00000000000E+00 0.  1.
         11    1    3    3    0    0 -0.30810269158E+02 -0.69501545256E+01 -0.63573774181E+01  0.32217907775E+02  0.51100000000E-03 0. -1.
        -11    1    3    3    0    0 -0.23537290439E+01 -0.61698235145E+01 -0.87252476494E+01  0.10942427035E+02  0.51100000000E-03 0.  1.
        -12    1    3    3    0    0 -0.32379214005E+01  0.63882088540E+01 -0.17325417320E+01  0.73685173686E+01  0.00000000000E+00 0.  1.
</event>
<event>
 7    1  0.5373252E-013  0.5052884E+02  0.7816164E-02  0.1300439E+00
        -11   -1    0    0    0    0  0.00000000000E+00  0.00000000000E+00  0.45593999997E+02  0.45594000000E+02  0.51100000000E-03 0.  1.
         11   -1    0    0    0    0 -0.00000000000E+00 -0.00000000000E+00 -0.45593999997E+02  0.45594000000E+02  0.51100000000E-03 0. -1.
    9900012    2    1    2    0    0 -0.39343640019E+02 -0.86205994953E+01  0.55615237890E+01  0.50528839993E+02  0.29999939643E+02 0.  0.
        -12    1    1    2    0    0  0.39343640019E+02  0.86205994953E+01 -0.55615237890E+01  0.40659160007E+02  0.00000000000E+00 0.  1.
         11    1    3    3    0    0 -0.10084138168E+02  0.41670249937E+01  0.85574859316E+01  0.13866668872E+02  0.51100000000E-03 0. -1.
        -11    1    3    3    0    0 -0.27555744390E+01  0.27347310242E+01  0.35464691791E+01  0.52582685518E+01  0.51100000000E-03 0.  1.
         12    1    3    3    0    0 -0.26503927413E+02 -0.15522355513E+02 -0.65424313217E+01  0.31403902569E+02  0.00000000000E+00 0. -1.
</event>
<event>
 7    1  0.5373252E-013  0.5052886E+02  0.7816164E-02  0.1300439E+00
        -11   -1    0    0    0    0  0.00000000000E+00  0.00000000000E+00  0.45593999997E+02  0.45594000000E+02  0.51100000000E-03 0. -1.
         11   -1    0    0    0    0 -0.00000000000E+00 -0.00000000000E+00 -0.45593999997E+02  0.45594000000E+02  0.51100000000E-03 0.  1.
    9900012    2    1    2    0    0 -0.62522717701E+01 -0.36794393034E+02  0.16132187478E+02  0.50528859160E+02  0.29999997903E+02 0.  0.
        -12    1    1    2    0    0  0.62522717701E+01  0.36794393034E+02 -0.16132187478E+02  0.40659140840E+02  0.00000000000E+00 0.  1.
         11    1    3    3    0    0  0.47094703308E+01 -0.15666908633E+01  0.64705642279E+01  0.81548655873E+01  0.51100000000E-03 0. -1.
        -11    1    3    3    0    0 -0.11577298658E+02 -0.12922180481E+02  0.10061917051E+02  0.20056389695E+02  0.51100000000E-03 0.  1.
         12    1    3    3    0    0  0.61555655667E+00 -0.22305521690E+02 -0.40029380048E+00  0.22317603878E+02  0.00000000000E+00 0. -1.
</event>
<event>
 7    1  0.5373252E-013  0.5052892E+02  0.7816164E-02  0.1300439E+00
        -11   -1    0    0    0    0  0.00000000000E+00  0.00000000000E+00  0.45593999997E+02  0.45594000000E+02  0.51100000000E-03 0.  1.
         11   -1    0    0    0    0 -0.00000000000E+00 -0.00000000000E+00 -0.45593999997E+02  0.45594000000E+02  0.51100000000E-03 0. -1.
    9900012    2    1    2    0    0  0.21109515546E+02 -0.34152700920E+02  0.64142443542E+01  0.50528915438E+02  0.30000168966E+02 0.  0.
        -12    1    1    2    0    0 -0.21109515546E+02  0.34152700920E+02 -0.64142443542E+01  0.40659084562E+02  0.00000000000E+00 0.  1.
         11    1    3    3    0    0  0.14258016655E+02 -0.15208884276E+02 -0.50895168409E+00  0.20853302662E+02  0.51100000000E-03 0. -1.
        -11    1    3    3    0    0  0.18281989814E+01 -0.20893311509E+02  0.10249143383E+02  0.23343472700E+02  0.51100000000E-03 0.  1.
        -12    1    3    3    0    0  0.50232999098E+01  0.19494948647E+01 -0.33259473444E+01  0.63321400766E+01  0.00000000000E+00 0.  1.
</event>
<event>
 7    1  0.5373252E-013  0.5052883E+02  0.7816164E-02  0.1300439E+00
        -11   -1    0    0    0    0  0.00000000000E+00  0.00000000000E+00  0.45593999997E+02  0.45594000000E+02  0.51100000000E-03 0.  1.
         11   -1    0    0    0    0 -0.00000000000E+00 -0.00000000000E+00 -0.45593999997E+02  0.45594000000E+02  0.51100000000E-03 0. -1.
    9900012    2    1    2    0    0 -0.13465282436E+02 -0.36978474347E+02 -0.10219920200E+02  0.50528829263E+02  0.29999907029E+02 0.  0.
        -12    1    1    2    0    0  0.13465282436E+02  0.36978474347E+02  0.10219920200E+02  0.40659170737E+02  0.00000000000E+00 0.  1.
         11    1    3    3    0    0 -0.16641530690E+02 -0.16589287155E+02 -0.12112193924E+02  0.26435775645E+02  0.51100000000E-03 0. -1.
        -11    1    3    3    0    0 -0.41309633061E+01 -0.11155475002E+02  0.29928120262E+01  0.12266474817E+02  0.51100000000E-03 0.  1.
        -12    1    3    3    0    0  0.73072115603E+01 -0.92337121893E+01 -0.11005383017E+01  0.11826578801E+02  0.00000000000E+00 0.  1.
</event>
<event>
 7    1  0.5373252E-013  0.5052887E+02  0.7816164E-02  0.1300439E+00
        -11   -1    0    0    0    0  0.00000000000E+00  0.00000000000E+00  0.45593999997E+02  0.45594000000E+02  0.51100000000E-03 0.  1.
         11   -1    0    0    0    0 -0.00000000000E+00 -0.00000000000E+00 -0.45593999997E+02  0.45594000000E+02  0.51100000000E-03 0. -1.
    9900012    2    1    2    0    0  0.27248409915E+02  0.18061491927E+02 -0.24175844846E+02  0.50528870551E+02  0.30000032528E+02 0.  0.
        -12    1    1    2    0    0 -0.27248409915E+02 -0.18061491927E+02  0.24175844846E+02  0.40659129449E+02  0.00000000000E+00 0.  1.
         11    1    3    3    0    0 -0.21277363834E+01  0.33080559330E+01 -0.10263030843E+02  0.10990918912E+02  0.51100000000E-03 0. -1.
        -11    1    3    3    0    0  0.27724199434E+01  0.86594435526E+01 -0.44540738217E+00  0.91033325205E+01  0.51100000000E-03 0.  1.
        -12    1    3    3    0    0  0.26603726355E+02  0.60939924416E+01 -0.13467406620E+02  0.30434619119E+02  0.00000000000E+00 0.  1.
</event>
<event>
 7    1  0.5373252E-013  0.5052886E+02  0.7816164E-02  0.1300439E+00
        -11   -1    0    0    0    0  0.00000000000E+00  0.00000000000E+00  0.45593999997E+02  0.45594000000E+02  0.51100000000E-03 0.  1.
         11   -1    0    0    0    0 -0.00000000000E+00 -0.00000000000E+00 -0.45593999997E+02  0.45594000000E+02  0.51100000000E-03 0. -1.
    9900012    2    1    2    0    0 -0.91073542798E+01  0.10795192006E+02 -0.38127232909E+02  0.50528856358E+02  0.29999989385E+02 0.  0.
        -12    1    1    2    0    0  0.91073542798E+01 -0.10795192006E+02  0.38127232909E+02  0.40659143642E+02  0.00000000000E+00 0.  1.
         11    1    3    3    0    0 -0.69027654483E+01 -0.36766943383E+01 -0.14175588676E+02  0.16189921762E+02  0.51100000000E-03 0. -1.
        -11    1    3    3    0    0 -0.42884581131E+01 -0.40832968488E+01 -0.52928637278E+01  0.79422032740E+01  0.51100000000E-03 0.  1.
        -12    1    3    3    0    0  0.20838692816E+01  0.18555183193E+02 -0.18658780505E+02  0.26396731321E+02  0.00000000000E+00 0.  1.
</event>
<event>
 7    1  0.5373252E-013  0.5052888E+02  0.7816164E-02  0.1300439E+00
        -11   -1    0    0    0    0  0.00000000000E+00  0.00000000000E+00  0.45593999997E+02  0.45594000000E+02  0.51100000000E-03 0. -1.
         11   -1    0    0    0    0 -0.00000000000E+00 -0.00000000000E+00 -0.45593999997E+02  0.45594000000E+02  0.51100000000E-03 0.  1.
    9900012    2    1    2    0    0 -0.33174816081E+02 -0.23411550950E+02  0.21200707840E+01  0.50528882449E+02  0.30000068692E+02 0.  0.
        -12    1    1    2    0    0  0.33174816081E+02  0.23411550950E+02 -0.21200707840E+01  0.40659117551E+02  0.00000000000E+00 0.  1.
         11    1    3    3    0    0  0.49899037665E+00 -0.14189018959E+02 -0.17805278167E+00  0.14198906770E+02  0.51100000000E-03 0. -1.
        -11    1    3    3    0    0 -0.16643597186E+02 -0.13903052573E+01 -0.27280730084E+01  0.16922903374E+02  0.51100000000E-03 0.  1.
        -12    1    3    3    0    0 -0.17030209272E+02 -0.78322267334E+01  0.50261965741E+01  0.19407072305E+02  0.00000000000E+00 0.  1.
</event>
<event>
 7    1  0.5373252E-013  0.5052885E+02  0.7816164E-02  0.1300439E+00
        -11   -1    0    0    0    0  0.00000000000E+00  0.00000000000E+00  0.45593999997E+02  0.45594000000E+02  0.51100000000E-03 0.  1.
         11   -1    0    0    0    0 -0.00000000000E+00 -0.00000000000E+00 -0.45593999997E+02  0.45594000000E+02  0.51100000000E-03 0. -1.
    9900012    2    1    2    0    0  0.25494937805E+02 -0.19624603983E+02 -0.24860600377E+02  0.50528851137E+02  0.29999973515E+02 0.  0.
        -12    1    1    2    0    0 -0.25494937805E+02  0.19624603983E+02  0.24860600377E+02  0.40659148863E+02  0.00000000000E+00 0.  1.
         11    1    3    3    0    0  0.19861735861E+02  0.14456643876E+01 -0.91531244657E+01  0.21917075186E+02  0.51100000000E-03 0. -1.
        -11    1    3    3    0    0 -0.30571425680E+00 -0.87260896152E+00 -0.48248930966E+01  0.49126877838E+01  0.51100000000E-03 0.  1.
         12    1    3    3    0    0  0.59389162003E+01 -0.20197659409E+02 -0.10882582815E+02  0.23699088167E+02  0.00000000000E+00 0. -1.
</event>
<event>
 7    1  0.5373252E-013  0.5052886E+02  0.7816164E-02  0.1300439E+00
        -11   -1    0    0    0    0  0.00000000000E+00  0.00000000000E+00  0.45593999997E+02  0.45594000000E+02  0.51100000000E-03 0.  1.
         11   -1    0    0    0    0 -0.00000000000E+00 -0.00000000000E+00 -0.45593999997E+02  0.45594000000E+02  0.51100000000E-03 0. -1.
    9900012    2    1    2    0    0  0.31143961629E+02 -0.10659328118E+02 -0.23866246139E+02  0.50528864167E+02  0.30000013122E+02 0.  0.
        -12    1    1    2    0    0 -0.31143961629E+02  0.10659328118E+02  0.23866246139E+02  0.40659135833E+02  0.00000000000E+00 0.  1.
         11    1    3    3    0    0  0.15237234367E+02 -0.98295925085E+00 -0.35005874946E+01  0.15665044944E+02  0.51100000000E-03 0. -1.
        -11    1    3    3    0    0  0.27205440529E+01  0.46934689795E+01  0.14360280369E+01  0.56117900700E+01  0.51100000000E-03 0.  1.
         12    1    3    3    0    0  0.13186183210E+02 -0.14369837847E+02 -0.21801686682E+02  0.29252029153E+02  0.00000000000E+00 0. -1.
</event>
<event>
 7    1  0.5373252E-013  0.5052885E+02  0.7816164E-02  0.1300439E+00
        -11   -1    0    0    0    0  0.00000000000E+00  0.00000000000E+00  0.45593999997E+02  0.45594000000E+02  0.51100000000E-03 0.  1.
         11   -1    0    0    0    0 -0.00000000000E+00 -0.00000000000E+00 -0.45593999997E+02  0.45594000000E+02  0.51100000000E-03 0. -1.
    9900012    2    1    2    0    0 -0.28037863760E+02  0.28155526819E+02 -0.86203853071E+01  0.50528849277E+02  0.29999967863E+02 0.  0.
        -12    1    1    2    0    0  0.28037863760E+02 -0.28155526819E+02  0.86203853071E+01  0.40659150723E+02  0.00000000000E+00 0.  1.
         11    1    3    3    0    0  0.18306115600E+00  0.76331169901E+01 -0.87250445711E+01  0.11594153242E+02  0.51100000000E-03 0. -1.
        -11    1    3    3    0    0 -0.41397442218E+01  0.12656501476E+02  0.22724088153E+01  0.13508825039E+02  0.51100000000E-03 0.  1.
        -12    1    3    3    0    0 -0.24081180694E+02  0.78659083524E+01 -0.21677495512E+01  0.25425870996E+02  0.00000000000E+00 0.  1.
</event>
<event>
 7    1  0.5373252E-013  0.5052891E+02  0.7816164E-02  0.1300439E+00
        -11   -1    0    0    0    0  0.00000000000E+00  0.00000000000E+00  0.45593999997E+02  0.45594000000E+02  0.51100000000E-03 0.  1.
         11   -1    0    0    0    0 -0.00000000000E+00 -0.00000000000E+00 -0.45593999997E+02  0.45594000000E+02  0.51100000000E-03 0. -1.
    9900012    2    1    2    0    0 -0.69846672160E+00 -0.17005006944E+02 -0.36925644111E+02  0.50528913562E+02  0.30000163264E+02 0.  0.
        -12    1    1    2    0    0  0.69846672160E+00  0.17005006944E+02  0.36925644111E+02  0.40659086438E+02  0.00000000000E+00 0.  1.
         11    1    3    3    0    0  0.33450418273E+01 -0.17602009888E+01  0.69596990825E+00  0.38434342354E+01  0.51100000000E-03 0. -1.
        -11    1    3    3    0    0  0.19365581159E+01  0.40810738943E+01 -0.17796409461E+02  0.18360762823E+02  0.51100000000E-03 0.  1.
        -12    1    3    3    0    0 -0.59800666647E+01 -0.19325879849E+02 -0.19825204558E+02  0.28324716504E+02  0.00000000000E+00 0.  1.
</event>
<event>
 7    1  0.5373252E-013  0.5052881E+02  0.7816164E-02  0.1300439E+00
        -11   -1    0    0    0    0  0.00000000000E+00  0.00000000000E+00  0.45593999997E+02  0.45594000000E+02  0.51100000000E-03 0.  1.
         11   -1    0    0    0    0 -0.00000000000E+00 -0.00000000000E+00 -0.45593999997E+02  0.45594000000E+02  0.51100000000E-03 0. -1.
    9900012    2    1    2    0    0  0.37559332273E+02 -0.14782597321E+02 -0.48929586687E+01  0.50528810770E+02  0.29999850815E+02 0.  0.
        -12    1    1    2    0    0 -0.37559332273E+02  0.14782597321E+02  0.48929586687E+01  0.40659189230E+02  0.00000000000E+00 0.  1.
         11    1    3    3    0    0  0.18296610148E+02 -0.16968738738E+02  0.39655651280E+01  0.25267167319E+02  0.51100000000E-03 0. -1.
        -11    1    3    3    0    0  0.80526584804E+01 -0.18048420707E+01 -0.10385192401E+02  0.13264802485E+02  0.51100000000E-03 0.  1.
        -12    1    3    3    0    0  0.11210063645E+02  0.39909834883E+01  0.15266686043E+01  0.11996840966E+02  0.00000000000E+00 0.  1.
</event>
<event>
 7    1  0.5373252E-013  0.5052885E+02  0.7816164E-02  0.1300439E+00
        -11   -1    0    0    0    0  0.00000000000E+00  0.00000000000E+00  0.45593999997E+02  0.45594000000E+02  0.51100000000E-03 0. -1.
         11   -1    0    0    0    0 -0.00000000000E+00 -0.00000000000E+00 -0.45593999997E+02  0.45594000000E+02  0.51100000000E-03 0.  1.
    9900012    2    1    2    0    0  0.36570456297E+02  0.15924557171E+02  0.78852149520E+01  0.50528850849E+02  0.29999972641E+02 0.  0.
        -12    1    1    2    0    0 -0.36570456297E+02 -0.15924557171E+02 -0.78852149520E+01  0.40659149151E+02  0.00000000000E+00 0.  1.
         11    1    3    3    0    0  0.12741063969E+02  0.34117926558E+00 -0.14732045070E+01  0.12830488928E+02  0.51100000000E-03 0. -1.
        -11    1    3    3    0    0  0.17465147727E+02 -0.35995696692E+00 -0.12581134934E+01  0.17514103002E+02  0.51100000000E-03 0.  1.
         12    1    3    3    0    0  0.63642446008E+01  0.15943334872E+02  0.10616532952E+02  0.20184258919E+02  0.00000000000E+00 0. -1.
</event>
<event>
 7    1  0.5373252E-013  0.5052885E+02  0.7816164E-02  0.1300439E+00
        -11   -1    0    0    0    0  0.00000000000E+00  0.00000000000E+00  0.45593999997E+02  0.45594000000E+02  0.51100000000E-03 0.  1.
         11   -1    0    0    0    0 -0.00000000000E+00 -0.00000000000E+00 -0.45593999997E+02  0.45594000000E+02  0.51100000000E-03 0. -1.
    9900012    2    1    2    0    0 -0.14407010749E+02  0.37156002410E+02 -0.80644759007E+01  0.50528852870E+02  0.29999978783E+02 0.  0.
        -12    1    1    2    0    0  0.14407010749E+02 -0.37156002410E+02  0.80644759007E+01  0.40659147130E+02  0.00000000000E+00 0.  1.
         11    1    3    3    0    0 -0.38535021942E+01  0.17453539519E+02 -0.13270199773E+02  0.22261485197E+02  0.51100000000E-03 0. -1.
        -11    1    3    3    0    0 -0.94302825087E+01  0.58280414058E+01 -0.37644993781E+01  0.11707593717E+02  0.51100000000E-03 0.  1.
         12    1    3    3    0    0 -0.11232260464E+01  0.13874421485E+02  0.89702232502E+01  0.16559773955E+02  0.00000000000E+00 0. -1.
</event>
<event>
 7    1  0.5373252E-013  0.5052886E+02  0.7816164E-02  0.1300439E+00
        -11   -1    0    0    0    0  0.00000000000E+00  0.00000000000E+00  0.45593999997E+02  0.45594000000E+02  0.51100000000E-03 0.  1.
         11   -1    0    0    0    0 -0.00000000000E+00 -0.00000000000E+00 -0.45593999997E+02  0.45594000000E+02  0.51100000000E-03 0. -1.
    9900012    2    1    2    0    0  0.37232369304E+02 -0.89309737787E-01 -0.16337331915E+02  0.50528859400E+02  0.29999998633E+02 0.  0.
        -12    1    1    2    0    0 -0.37232369304E+02  0.89309737787E-01  0.16337331915E+02  0.40659140600E+02  0.00000000000E+00 0.  1.
         11    1    3    3    0    0  0.12272406039E+02 -0.44758789111E+01 -0.10996216728E+02  0.17075193253E+02  0.51100000000E-03 0. -1.
        -11    1    3    3    0    0  0.74269887436E+01 -0.77123084051E+01  0.20579133622E+01  0.10902975300E+02  0.51100000000E-03 0.  1.
         12    1    3    3    0    0  0.17532974521E+02  0.12098877578E+02 -0.73990285490E+01  0.22550690847E+02  0.00000000000E+00 0. -1.
</event>
<event>
 7    1  0.5373252E-013  0.5052886E+02  0.7816164E-02  0.1300439E+00
        -11   -1    0    0    0    0  0.00000000000E+00  0.00000000000E+00  0.45593999997E+02  0.45594000000E+02  0.51100000000E-03 0.  1.
         11   -1    0    0    0    0 -0.00000000000E+00 -0.00000000000E+00 -0.45593999997E+02  0.45594000000E+02  0.51100000000E-03 0. -1.
    9900012    2    1    2    0    0  0.28646727529E+02 -0.19479239585E+02 -0.21285908889E+02  0.50528859697E+02  0.29999999536E+02 0.  0.
        -12    1    1    2    0    0 -0.28646727529E+02  0.19479239585E+02  0.21285908889E+02  0.40659140303E+02  0.00000000000E+00 0.  1.
         11    1    3    3    0    0  0.12074967699E+02 -0.25242724502E+01 -0.10350126431E+02  0.16102854210E+02  0.51100000000E-03 0. -1.
        -11    1    3    3    0    0  0.49404567846E+01 -0.11081459634E+02  0.56086194111E+01  0.13366505632E+02  0.51100000000E-03 0.  1.
         12    1    3    3    0    0  0.11631303045E+02 -0.58735075007E+01 -0.16544401870E+02  0.21059499855E+02  0.00000000000E+00 0. -1.
</event>
<event>
 7    1  0.5373252E-013  0.5052886E+02  0.7816164E-02  0.1300439E+00
        -11   -1    0    0    0    0  0.00000000000E+00  0.00000000000E+00  0.45593999997E+02  0.45594000000E+02  0.51100000000E-03 0. -1.
         11   -1    0    0    0    0 -0.00000000000E+00 -0.00000000000E+00 -0.45593999997E+02  0.45594000000E+02  0.51100000000E-03 0.  1.
    9900012    2    1    2    0    0 -0.35539486387E+02 -0.19128203458E+02  0.49216202415E+01  0.50528860732E+02  0.30000002681E+02 0.  0.
        -12    1    1    2    0    0  0.35539486387E+02  0.19128203458E+02 -0.49216202415E+01  0.40659139268E+02  0.00000000000E+00 0.  1.
         11    1    3    3    0    0 -0.12403224020E+02 -0.56679035742E+01 -0.84177943919E+01  0.16025740535E+02  0.51100000000E-03 0.  1.
        -11    1    3    3    0    0 -0.10638474611E+02 -0.15803550787E+02  0.70114114654E+01  0.20299981540E+02  0.51100000000E-03 0. -1.
        -12    1    3    3    0    0 -0.12497787756E+02  0.23432509040E+01  0.63280031681E+01  0.14203138656E+02  0.00000000000E+00 0.  1.
</event>
<event>
 7    1  0.5373252E-013  0.5052888E+02  0.7816164E-02  0.1300439E+00
        -11   -1    0    0    0    0  0.00000000000E+00  0.00000000000E+00  0.45593999997E+02  0.45594000000E+02  0.51100000000E-03 0.  1.
         11   -1    0    0    0    0 -0.00000000000E+00 -0.00000000000E+00 -0.45593999997E+02  0.45594000000E+02  0.51100000000E-03 0. -1.
    9900012    2    1    2    0    0 -0.30438705658E+02 -0.15946047842E+02 -0.21734135283E+02  0.50528881953E+02  0.30000067184E+02 0.  0.
        -12    1    1    2    0    0  0.30438705658E+02  0.15946047842E+02  0.21734135283E+02  0.40659118047E+02  0.00000000000E+00 0.  1.
         11    1    3    3    0    0 -0.21869782500E+02 -0.66475458962E+01 -0.11265228413E+02  0.25482986962E+02  0.51100000000E-03 0. -1.
        -11    1    3    3    0    0 -0.14692070705E+01 -0.92546222297E+01  0.29842225901E+01  0.98342354435E+01  0.51100000000E-03 0.  1.
         12    1    3    3    0    0 -0.70997160872E+01 -0.43879715898E-01 -0.13453129459E+02  0.15211659548E+02  0.00000000000E+00 0. -1.
</event>
<event>
 7    1  0.5373252E-013  0.5052888E+02  0.7816164E-02  0.1300439E+00
        -11   -1    0    0    0    0  0.00000000000E+00  0.00000000000E+00  0.45593999997E+02  0.45594000000E+02  0.51100000000E-03 0. -1.
         11   -1    0    0    0    0 -0.00000000000E+00 -0.00000000000E+00 -0.45593999997E+02  0.45594000000E+02  0.51100000000E-03 0.  1.
    9900012    2    1    2    0    0 -0.21821580223E+02 -0.33575288356E+02  0.70485673668E+01  0.50528884743E+02  0.30000075664E+02 0.  0.
        -12    1    1    2    0    0  0.21821580223E+02  0.33575288356E+02 -0.70485673668E+01  0.40659115257E+02  0.00000000000E+00 0.  1.
         11    1    3    3    0    0  0.23880703323E+01 -0.64529575023E+01 -0.25394010091E+01  0.73343096597E+01  0.51100000000E-03 0. -1.
        -11    1    3    3    0    0 -0.79180101406E+01  0.24303866902E+01  0.78663565615E+00  0.83198834107E+01  0.51100000000E-03 0.  1.
         12    1    3    3    0    0 -0.16291640414E+02 -0.29552717543E+02  0.88013327198E+01  0.34874691672E+02  0.00000000000E+00 0. -1.
</event>
<event>
 7    1  0.5373252E-013  0.5052885E+02  0.7816164E-02  0.1300439E+00
        -11   -1    0    0    0    0  0.00000000000E+00  0.00000000000E+00  0.45593999997E+02  0.45594000000E+02  0.51100000000E-03 0.  1.
         11   -1    0    0    0    0 -0.00000000000E+00 -0.00000000000E+00 -0.45593999997E+02  0.45594000000E+02  0.51100000000E-03 0. -1.
    9900012    2    1    2    0    0 -0.32945825760E+01  0.29882162531E+02 -0.27374591944E+02  0.50528853477E+02  0.29999980628E+02 0.  0.
        -12    1    1    2    0    0  0.32945825760E+01 -0.29882162531E+02  0.27374591944E+02  0.40659146523E+02  0.00000000000E+00 0.  1.
         11    1    3    3    0    0  0.37434076514E+01  0.69628270191E+01 -0.12184612991E+02  0.14524422706E+02  0.51100000000E-03 0. -1.
        -11    1    3    3    0    0  0.68978492459E+01  0.12769451293E+02 -0.28183954765E+01  0.14784538000E+02  0.51100000000E-03 0.  1.
         12    1    3    3    0    0 -0.13935839473E+02  0.10149884218E+02 -0.12371583477E+02  0.21219892771E+02  0.00000000000E+00 0. -1.
</event>
<event>
 7    1  0.5373252E-013  0.5052886E+02  0.7816164E-02  0.1300439E+00
        -11   -1    0    0    0    0  0.00000000000E+00  0.00000000000E+00  0.45593999997E+02  0.45594000000E+02  0.51100000000E-03 0. -1.
         11   -1    0    0    0    0 -0.00000000000E+00 -0.00000000000E+00 -0.45593999997E+02  0.45594000000E+02  0.51100000000E-03 0.  1.
    9900012    2    1    2    0    0 -0.36630716905E+01  0.40466373559E+02  0.14900984475E+01  0.50528857404E+02  0.29999992565E+02 0.  0.
        -12    1    1    2    0    0  0.36630716905E+01 -0.40466373559E+02 -0.14900984475E+01  0.40659142596E+02  0.00000000000E+00 0.  1.
         11    1    3    3    0    0 -0.23582941717E+01  0.20144518766E+01  0.16687307850E+01  0.35219640057E+01  0.51100000000E-03 0. -1.
        -11    1    3    3    0    0 -0.34923228630E+01  0.39302355459E+02 -0.67486971581E+01  0.40030193320E+02  0.51100000000E-03 0.  1.
        -12    1    3    3    0    0  0.21875453443E+01 -0.85043377625E+00  0.65700648206E+01  0.69767000787E+01  0.00000000000E+00 0.  1.
</event>
<event>
 7    1  0.5373252E-013  0.5052887E+02  0.7816164E-02  0.1300439E+00
        -11   -1    0    0    0    0  0.00000000000E+00  0.00000000000E+00  0.45593999997E+02  0.45594000000E+02  0.51100000000E-03 0.  1.
         11   -1    0    0    0    0 -0.00000000000E+00 -0.00000000000E+00 -0.45593999997E+02  0.45594000000E+02  0.51100000000E-03 0. -1.
    9900012    2    1    2    0    0 -0.37886921431E+02 -0.13816946838E+02 -0.51805643279E+01  0.50528867173E+02  0.30000022260E+02 0.  0.
        -12    1    1    2    0    0  0.37886921431E+02  0.13816946838E+02  0.51805643279E+01  0.40659132827E+02  0.00000000000E+00 0.  1.
         11    1    3    3    0    0  0.48311490931E+01 -0.22422913904E+01 -0.25218315478E+01  0.58930049089E+01  0.51100000000E-03 0. -1.
        -11    1    3    3    0    0 -0.26538879443E+01 -0.45762370638E+00  0.10550964501E+01  0.28923639913E+01  0.51100000000E-03 0.  1.
         12    1    3    3    0    0 -0.40064182580E+02 -0.11117031742E+02 -0.37138292302E+01  0.41743498273E+02  0.00000000000E+00 0. -1.
</event>
<event>
 7    1  0.5373252E-013  0.5052890E+02  0.7816164E-02  0.1300439E+00
        -11   -1    0    0    0    0  0.00000000000E+00  0.00000000000E+00  0.45593999997E+02  0.45594000000E+02  0.51100000000E-03 0.  1.
         11   -1    0    0    0    0 -0.00000000000E+00 -0.00000000000E+00 -0.45593999997E+02  0.45594000000E+02  0.51100000000E-03 0. -1.
    9900012    2    1    2    0    0 -0.26792616299E+02 -0.24416785861E+02 -0.18415726659E+02  0.50528896366E+02  0.30000110994E+02 0.  0.
        -12    1    1    2    0    0  0.26792616299E+02  0.24416785861E+02  0.18415726659E+02  0.40659103634E+02  0.00000000000E+00 0.  1.
         11    1    3    3    0    0 -0.24668541873E+02 -0.20543503675E+02 -0.12054701988E+02  0.34291228349E+02  0.51100000000E-03 0. -1.
        -11    1    3    3    0    0 -0.35917365949E+01 -0.65140822193E+01  0.16988045509E+01  0.76301884702E+01  0.51100000000E-03 0.  1.
         12    1    3    3    0    0  0.14676621696E+01  0.26408000331E+01 -0.80598292224E+01  0.86074795471E+01  0.00000000000E+00 0. -1.
</event>
<event>
 7    1  0.5373252E-013  0.5052887E+02  0.7816164E-02  0.1300439E+00
        -11   -1    0    0    0    0  0.00000000000E+00  0.00000000000E+00  0.45593999997E+02  0.45594000000E+02  0.51100000000E-03 0.  1.
         11   -1    0    0    0    0 -0.00000000000E+00 -0.00000000000E+00 -0.45593999997E+02  0.45594000000E+02  0.51100000000E-03 0. -1.
    9900012    2    1    2    0    0 -0.31198974139E+02 -0.32997952734E+01 -0.25863098632E+02  0.50528874247E+02  0.30000043761E+02 0.  0.
        -12    1    1    2    0    0  0.31198974139E+02  0.32997952734E+01  0.25863098632E+02  0.40659125753E+02  0.00000000000E+00 0.  1.
         11    1    3    3    0    0 -0.69184896639E+01 -0.11803664544E+02 -0.12300965152E+02  0.18398525480E+02  0.51100000000E-03 0. -1.
        -11    1    3    3    0    0 -0.13447606409E+02  0.18652744142E+01 -0.40806405948E-01  0.13576414556E+02  0.51100000000E-03 0.  1.
         12    1    3    3    0    0 -0.10832878066E+02  0.66385948564E+01 -0.13521327074E+02  0.18553934211E+02  0.00000000000E+00 0. -1.
</event>
<event>
 7    1  0.5373252E-013  0.5052884E+02  0.7816164E-02  0.1300439E+00
        -11   -1    0    0    0    0  0.00000000000E+00  0.00000000000E+00  0.45593999997E+02  0.45594000000E+02  0.51100000000E-03 0.  1.
         11   -1    0    0    0    0 -0.00000000000E+00 -0.00000000000E+00 -0.45593999997E+02  0.45594000000E+02  0.51100000000E-03 0. -1.
    9900012    2    1    2    0    0 -0.37977947858E+02  0.31440997881E+01 -0.14175941489E+02  0.50528841079E+02  0.29999942945E+02 0.  0.
        -12    1    1    2    0    0  0.37977947858E+02 -0.31440997881E+01  0.14175941489E+02  0.40659158921E+02  0.00000000000E+00 0.  1.
         11    1    3    3    0    0  0.35881570915E+01  0.82482430454E+00 -0.15370849022E+01  0.39897163689E+01  0.51100000000E-03 0. -1.
        -11    1    3    3    0    0 -0.21373024472E+02 -0.60671540979E+01 -0.10487055565E+02  0.24568167792E+02  0.51100000000E-03 0.  1.
         12    1    3    3    0    0 -0.20193080478E+02  0.83864295815E+01 -0.21518010221E+01  0.21970956919E+02  0.00000000000E+00 0. -1.
</event>
<event>
 7    1  0.5373252E-013  0.5052885E+02  0.7816164E-02  0.1300439E+00
        -11   -1    0    0    0    0  0.00000000000E+00  0.00000000000E+00  0.45593999997E+02  0.45594000000E+02  0.51100000000E-03 0.  1.
         11   -1    0    0    0    0 -0.00000000000E+00 -0.00000000000E+00 -0.45593999997E+02  0.45594000000E+02  0.51100000000E-03 0. -1.
    9900012    2    1    2    0    0  0.29144426749E+02  0.17549023774E+02 -0.22266585487E+02  0.50528847584E+02  0.29999962716E+02 0.  0.
        -12    1    1    2    0    0 -0.29144426749E+02 -0.17549023774E+02  0.22266585487E+02  0.40659152416E+02  0.00000000000E+00 0.  1.
         11    1    3    3    0    0  0.40458601806E+01  0.16440793318E+02 -0.13628130229E+02  0.21734640630E+02  0.51100000000E-03 0. -1.
        -11    1    3    3    0    0  0.81662237951E+01  0.16568186762E+01  0.22805664782E+01  0.86390533579E+01  0.51100000000E-03 0.  1.
        -12    1    3    3    0    0  0.16932342773E+02 -0.54858821934E+00 -0.10919021736E+02  0.20155153596E+02  0.00000000000E+00 0.  1.
</event>
<event>
 7    1  0.5373252E-013  0.5052886E+02  0.7816164E-02  0.1300439E+00
        -11   -1    0    0    0    0  0.00000000000E+00  0.00000000000E+00  0.45593999997E+02  0.45594000000E+02  0.51100000000E-03 0.  1.
         11   -1    0    0    0    0 -0.00000000000E+00 -0.00000000000E+00 -0.45593999997E+02  0.45594000000E+02  0.51100000000E-03 0. -1.
    9900012    2    1    2    0    0 -0.16483691243E+02 -0.50541674078E+01 -0.36822664664E+02  0.50528864273E+02  0.30000013443E+02 0.  0.
        -12    1    1    2    0    0  0.16483691243E+02  0.50541674078E+01  0.36822664664E+02  0.40659135727E+02  0.00000000000E+00 0.  1.
         11    1    3    3    0    0 -0.13550229026E+02 -0.82916753813E+01 -0.24955580953E+02  0.29582792435E+02  0.51100000000E-03 0. -1.
        -11    1    3    3    0    0 -0.31845006607E+01  0.24244832714E+01 -0.16119706434E+02  0.16609157094E+02  0.51100000000E-03 0.  1.
        -12    1    3    3    0    0  0.25103844432E+00  0.81302470211E+00  0.42526227234E+01  0.43369147437E+01  0.00000000000E+00 0.  1.
</event>
<event>
 7    1  0.5373252E-013  0.5052886E+02  0.7816164E-02  0.1300439E+00
        -11   -1    0    0    0    0  0.00000000000E+00  0.00000000000E+00  0.45593999997E+02  0.45594000000E+02  0.51100000000E-03 0.  1.
         11   -1    0    0    0    0 -0.00000000000E+00 -0.00000000000E+00 -0.45593999997E+02  0.45594000000E+02  0.51100000000E-03 0. -1.
    9900012    2    1    2    0    0  0.92535695506E+01 -0.17217655164E+02 -0.35652343920E+02  0.50528858029E+02  0.29999994466E+02 0.  0.
        -12    1    1    2    0    0 -0.92535695506E+01  0.17217655164E+02  0.35652343920E+02  0.40659141971E+02  0.00000000000E+00 0.  1.
         11    1    3    3    0    0 -0.35504264233E+01  0.61698760759E+00 -0.44215108635E+01  0.57040301606E+01  0.51100000000E-03 0. -1.
        -11    1    3    3    0    0  0.57207659029E+01 -0.22374044606E+02 -0.18619974369E+02  0.29665273980E+02  0.51100000000E-03 0.  1.
         12    1    3    3    0    0  0.70832300711E+01  0.45394018345E+01 -0.12610858688E+02  0.15159553889E+02  0.00000000000E+00 0. -1.
</event>
<event>
 7    1  0.5373252E-013  0.5052884E+02  0.7816164E-02  0.1300439E+00
        -11   -1    0    0    0    0  0.00000000000E+00  0.00000000000E+00  0.45593999997E+02  0.45594000000E+02  0.51100000000E-03 0.  1.
         11   -1    0    0    0    0 -0.00000000000E+00 -0.00000000000E+00 -0.45593999997E+02  0.45594000000E+02  0.51100000000E-03 0. -1.
    9900012    2    1    2    0    0  0.23906731597E+02  0.29973674786E+01 -0.32751354773E+02  0.50528840307E+02  0.29999940598E+02 0.  0.
        -12    1    1    2    0    0 -0.23906731597E+02 -0.29973674786E+01  0.32751354773E+02  0.40659159693E+02  0.00000000000E+00 0.  1.
         11    1    3    3    0    0  0.24978291982E+02  0.54571499318E+01 -0.30488050411E+02  0.39789656618E+02  0.51100000000E-03 0. -1.
        -11    1    3    3    0    0 -0.76664852765E-01  0.36575461433E+01  0.91929498932E+00  0.37720849445E+01  0.51100000000E-03 0.  1.
        -12    1    3    3    0    0 -0.99489553209E+00 -0.61173285965E+01 -0.31825993519E+01  0.69670987443E+01  0.00000000000E+00 0.  1.
</event>
<event>
 7    1  0.5373252E-013  0.5052886E+02  0.7816164E-02  0.1300439E+00
        -11   -1    0    0    0    0  0.00000000000E+00  0.00000000000E+00  0.45593999997E+02  0.45594000000E+02  0.51100000000E-03 0. -1.
         11   -1    0    0    0    0 -0.00000000000E+00 -0.00000000000E+00 -0.45593999997E+02  0.45594000000E+02  0.51100000000E-03 0.  1.
    9900012    2    1    2    0    0  0.10534512739E+02  0.47864124438E+01  0.38977945965E+02  0.50528856202E+02  0.29999988912E+02 0.  0.
        -12    1    1    2    0    0 -0.10534512739E+02 -0.47864124438E+01 -0.38977945965E+02  0.40659143798E+02  0.00000000000E+00 0.  1.
         11    1    3    3    0    0 -0.12903954228E+01  0.69462052355E+01  0.25445166773E+02  0.26407790515E+02  0.51100000000E-03 0. -1.
        -11    1    3    3    0    0  0.48561037130E+01 -0.42830620345E+01  0.15309465544E+02  0.16622457675E+02  0.51100000000E-03 0.  1.
         12    1    3    3    0    0  0.69688044489E+01  0.21232692428E+01 -0.17766863520E+01  0.74986080120E+01  0.00000000000E+00 0. -1.
</event>
<event>
 7    1  0.5373252E-013  0.5052888E+02  0.7816164E-02  0.1300439E+00
        -11   -1    0    0    0    0  0.00000000000E+00  0.00000000000E+00  0.45593999997E+02  0.45594000000E+02  0.51100000000E-03 0.  1.
         11   -1    0    0    0    0 -0.00000000000E+00 -0.00000000000E+00 -0.45593999997E+02  0.45594000000E+02  0.51100000000E-03 0. -1.
    9900012    2    1    2    0    0  0.39317091213E+02 -0.96535705733E+01 -0.37602178391E+01  0.50528876492E+02  0.30000050585E+02 0.  0.
        -12    1    1    2    0    0 -0.39317091213E+02  0.96535705733E+01  0.37602178391E+01  0.40659123508E+02  0.00000000000E+00 0.  1.
         11    1    3    3    0    0  0.12979258564E+02  0.18783827250E+01  0.72785435949E+01  0.14998889014E+02  0.51100000000E-03 0.  1.
        -11    1    3    3    0    0  0.77633446798E+01  0.45362368596E+01 -0.47883769708E+01  0.10187027031E+02  0.51100000000E-03 0. -1.
         12    1    3    3    0    0  0.18574487968E+02 -0.16068190158E+02 -0.62503844632E+01  0.25342960446E+02  0.00000000000E+00 0. -1.
</event>
<event>
 7    1  0.5373252E-013  0.5052879E+02  0.7816164E-02  0.1300439E+00
        -11   -1    0    0    0    0  0.00000000000E+00  0.00000000000E+00  0.45593999997E+02  0.45594000000E+02  0.51100000000E-03 0.  1.
         11   -1    0    0    0    0 -0.00000000000E+00 -0.00000000000E+00 -0.45593999997E+02  0.45594000000E+02  0.51100000000E-03 0. -1.
    9900012    2    1    2    0    0  0.31953711664E+02 -0.22564836969E+02  0.11088709248E+02  0.50528794040E+02  0.29999799962E+02 0.  0.
        -12    1    1    2    0    0 -0.31953711664E+02  0.22564836969E+02 -0.11088709248E+02  0.40659205960E+02  0.00000000000E+00 0.  1.
         11    1    3    3    0    0  0.14042933811E+02 -0.14702667191E+02  0.37444298824E+01  0.20673489496E+02  0.51100000000E-03 0. -1.
        -11    1    3    3    0    0  0.60694875945E+01 -0.40054999552E-01  0.13180197061E+02  0.14510612629E+02  0.51100000000E-03 0.  1.
         12    1    3    3    0    0  0.11841290259E+02 -0.78221147787E+01 -0.58359176950E+01  0.15344691914E+02  0.00000000000E+00 0. -1.
</event>
<event>
 7    1  0.5373252E-013  0.5052887E+02  0.7816164E-02  0.1300439E+00
        -11   -1    0    0    0    0  0.00000000000E+00  0.00000000000E+00  0.45593999997E+02  0.45594000000E+02  0.51100000000E-03 0.  1.
         11   -1    0    0    0    0 -0.00000000000E+00 -0.00000000000E+00 -0.45593999997E+02  0.45594000000E+02  0.51100000000E-03 0. -1.
    9900012    2    1    2    0    0 -0.19333814025E+02 -0.17637065372E+02 -0.31117552034E+02  0.50528874527E+02  0.30000044611E+02 0.  0.
        -12    1    1    2    0    0  0.19333814025E+02  0.17637065372E+02  0.31117552034E+02  0.40659125473E+02  0.00000000000E+00 0.  1.
         11    1    3    3    0    0 -0.15621865905E+02 -0.65634890268E+01 -0.79327643611E+01  0.18709645460E+02  0.51100000000E-03 0. -1.
        -11    1    3    3    0    0 -0.17120143966E+01 -0.15894921289E+02 -0.13978772667E+02  0.21236421583E+02  0.51100000000E-03 0.  1.
         12    1    3    3    0    0 -0.19999337232E+01  0.48213449440E+01 -0.92060150054E+01  0.10582807484E+02  0.00000000000E+00 0. -1.
</event>
<event>
 7    1  0.5373252E-013  0.5052887E+02  0.7816164E-02  0.1300439E+00
        -11   -1    0    0    0    0  0.00000000000E+00  0.00000000000E+00  0.45593999997E+02  0.45594000000E+02  0.51100000000E-03 0.  1.
         11   -1    0    0    0    0 -0.00000000000E+00 -0.00000000000E+00 -0.45593999997E+02  0.45594000000E+02  0.51100000000E-03 0. -1.
    9900012    2    1    2    0    0 -0.34485946498E+02 -0.21234721001E+02  0.36015281752E+01  0.50528869573E+02  0.30000029555E+02 0.  0.
        -12    1    1    2    0    0  0.34485946498E+02  0.21234721001E+02 -0.36015281752E+01  0.40659130427E+02  0.00000000000E+00 0.  1.
         11    1    3    3    0    0 -0.13694519169E+02 -0.18295691619E+02  0.60206492140E-01  0.22853354506E+02  0.51100000000E-03 0. -1.
        -11    1    3    3    0    0  0.29373176801E+01 -0.20618529265E+01  0.13321546092E+01  0.38280163019E+01  0.51100000000E-03 0.  1.
        -12    1    3    3    0    0 -0.23728745009E+02 -0.87717645595E+00  0.22091670739E+01  0.23847498766E+02  0.00000000000E+00 0.  1.
</event>
<event>
 7    1  0.5373252E-013  0.5052891E+02  0.7816164E-02  0.1300439E+00
        -11   -1    0    0    0    0  0.00000000000E+00  0.00000000000E+00  0.45593999997E+02  0.45594000000E+02  0.51100000000E-03 0.  1.
         11   -1    0    0    0    0 -0.00000000000E+00 -0.00000000000E+00 -0.45593999997E+02  0.45594000000E+02  0.51100000000E-03 0. -1.
    9900012    2    1    2    0    0 -0.17318307143E+02 -0.11971074688E+01 -0.36766897620E+02  0.50528910129E+02  0.30000152827E+02 0.  0.
        -12    1    1    2    0    0  0.17318307143E+02  0.11971074688E+01  0.36766897620E+02  0.40659089871E+02  0.00000000000E+00 0.  1.
         11    1    3    3    0    0 -0.39112809152E+01 -0.48242939920E+01 -0.21154980625E+02  0.22047792099E+02  0.51100000000E-03 0. -1.
        -11    1    3    3    0    0 -0.17511935398E+02  0.51146875220E+01 -0.15766232981E+02  0.24112279289E+02  0.51100000000E-03 0.  1.
         12    1    3    3    0    0  0.41049091704E+01 -0.14875009988E+01  0.15431598680E+00  0.43688387407E+01  0.00000000000E+00 0. -1.
</event>
<event>
 7    1  0.5373252E-013  0.5052885E+02  0.7816164E-02  0.1300439E+00
        -11   -1    0    0    0    0  0.00000000000E+00  0.00000000000E+00  0.45593999997E+02  0.45594000000E+02  0.51100000000E-03 0. -1.
         11   -1    0    0    0    0 -0.00000000000E+00 -0.00000000000E+00 -0.45593999997E+02  0.45594000000E+02  0.51100000000E-03 0.  1.
    9900012    2    1    2    0    0 -0.32128268708E+02  0.23239834567E+02  0.89917310627E+01  0.50528846192E+02  0.29999958485E+02 0.  0.
        -12    1    1    2    0    0  0.32128268708E+02 -0.23239834567E+02 -0.89917310627E+01  0.40659153808E+02  0.00000000000E+00 0.  1.
         11    1    3    3    0    0 -0.25874618788E+01  0.19947235840E+01 -0.51233563449E+01  0.60764020316E+01  0.51100000000E-03 0. -1.
        -11    1    3    3    0    0 -0.22152870711E+02  0.10776769642E+02 -0.97765633073E+00  0.24654497700E+02  0.51100000000E-03 0.  1.
         12    1    3    3    0    0 -0.73879361183E+01  0.10468341340E+02  0.15092743738E+02  0.19797946461E+02  0.00000000000E+00 0. -1.
</event>
<event>
 7    1  0.5373252E-013  0.5052886E+02  0.7816164E-02  0.1300439E+00
        -11   -1    0    0    0    0  0.00000000000E+00  0.00000000000E+00  0.45593999997E+02  0.45594000000E+02  0.51100000000E-03 0.  1.
         11   -1    0    0    0    0 -0.00000000000E+00 -0.00000000000E+00 -0.45593999997E+02  0.45594000000E+02  0.51100000000E-03 0. -1.
    9900012    2    1    2    0    0  0.36477889351E+02 -0.25813095203E+01 -0.17772620366E+02  0.50528860744E+02  0.30000002718E+02 0.  0.
        -12    1    1    2    0    0 -0.36477889351E+02  0.25813095203E+01  0.17772620366E+02  0.40659139256E+02  0.00000000000E+00 0.  1.
         11    1    3    3    0    0  0.14287417298E+02  0.11791914727E+02 -0.71368029869E+01  0.19852292138E+02  0.51100000000E-03 0. -1.
        -11    1    3    3    0    0 -0.45788402097E-01 -0.43843289132E+01 -0.13006618161E+01  0.45734186358E+01  0.51100000000E-03 0.  1.
        -12    1    3    3    0    0  0.22236260455E+02 -0.99888953338E+01 -0.93351555628E+01  0.26103149971E+02  0.00000000000E+00 0.  1.
</event>
<event>
 7    1  0.5373252E-013  0.5052884E+02  0.7816164E-02  0.1300439E+00
        -11   -1    0    0    0    0  0.00000000000E+00  0.00000000000E+00  0.45593999997E+02  0.45594000000E+02  0.51100000000E-03 0.  1.
         11   -1    0    0    0    0 -0.00000000000E+00 -0.00000000000E+00 -0.45593999997E+02  0.45594000000E+02  0.51100000000E-03 0. -1.
    9900012    2    1    2    0    0 -0.29302974702E+02  0.60887074337E+01 -0.27521452400E+02  0.50528843260E+02  0.29999949573E+02 0.  0.
        -12    1    1    2    0    0  0.29302974702E+02 -0.60887074337E+01  0.27521452400E+02  0.40659156740E+02  0.00000000000E+00 0.  1.
         11    1    3    3    0    0 -0.10455575756E+02  0.47760327628E+01 -0.57418935935E+00  0.11509094101E+02  0.51100000000E-03 0. -1.
        -11    1    3    3    0    0 -0.15334213500E+02 -0.24088563465E+00 -0.41314906952E+01  0.15882863255E+02  0.51100000000E-03 0.  1.
         12    1    3    3    0    0 -0.35131854454E+01  0.15535603055E+01 -0.22815772346E+02  0.23136885904E+02  0.00000000000E+00 0. -1.
</event>
<event>
 7    1  0.5373252E-013  0.5052886E+02  0.7816164E-02  0.1300439E+00
        -11   -1    0    0    0    0  0.00000000000E+00  0.00000000000E+00  0.45593999997E+02  0.45594000000E+02  0.51100000000E-03 0.  1.
         11   -1    0    0    0    0 -0.00000000000E+00 -0.00000000000E+00 -0.45593999997E+02  0.45594000000E+02  0.51100000000E-03 0. -1.
    9900012    2    1    2    0    0 -0.97174613638E+01  0.37326374680E+02  0.12863831741E+02  0.50528862415E+02  0.30000007796E+02 0.  0.
        -12    1    1    2    0    0  0.97174613638E+01 -0.37326374680E+02 -0.12863831741E+02  0.40659137585E+02  0.00000000000E+00 0.  1.
         11    1    3    3    0    0  0.49424612324E+01  0.93650612505E+01  0.11198449445E+01  0.10648302598E+02  0.51100000000E-03 0. -1.
        -11    1    3    3    0    0 -0.73443881967E+00 -0.11363111506E+01  0.71737548004E+01  0.73002302435E+01  0.51100000000E-03 0.  1.
         12    1    3    3    0    0 -0.13925483777E+02  0.29097624580E+02  0.45702319965E+01  0.32580329573E+02  0.00000000000E+00 0. -1.
</event>
<event>
 7    1  0.5373252E-013  0.5052886E+02  0.7816164E-02  0.1300439E+00
        -11   -1    0    0    0    0  0.00000000000E+00  0.00000000000E+00  0.45593999997E+02  0.45594000000E+02  0.51100000000E-03 0.  1.
         11   -1    0    0    0    0 -0.00000000000E+00 -0.00000000000E+00 -0.45593999997E+02  0.45594000000E+02  0.51100000000E-03 0. -1.
    9900012    2    1    2    0    0  0.17176303666E+01  0.26097151748E+02 -0.31131241191E+02  0.50528858820E+02  0.29999996868E+02 0.  0.
        -12    1    1    2    0    0 -0.17176303666E+01 -0.26097151748E+02  0.31131241191E+02  0.40659141180E+02  0.00000000000E+00 0.  1.
         11    1    3    3    0    0  0.46009987828E+01  0.24615755136E+01 -0.20575636538E+01  0.56091097564E+01  0.51100000000E-03 0. -1.
        -11    1    3    3    0    0 -0.84151586096E+01  0.18499455440E-01 -0.21591987243E+01  0.86877716388E+01  0.51100000000E-03 0.  1.
         12    1    3    3    0    0  0.55317901934E+01  0.23617076779E+02 -0.26914478813E+02  0.36231977425E+02  0.00000000000E+00 0. -1.
</event>
<event>
 7    1  0.5373252E-013  0.5052886E+02  0.7816164E-02  0.1300439E+00
        -11   -1    0    0    0    0  0.00000000000E+00  0.00000000000E+00  0.45593999997E+02  0.45594000000E+02  0.51100000000E-03 0.  1.
         11   -1    0    0    0    0 -0.00000000000E+00 -0.00000000000E+00 -0.45593999997E+02  0.45594000000E+02  0.51100000000E-03 0. -1.
    9900012    2    1    2    0    0 -0.18392958556E+02 -0.36176614290E+02  0.24732751413E+01  0.50528862824E+02  0.30000009041E+02 0.  0.
        -12    1    1    2    0    0  0.18392958556E+02  0.36176614290E+02 -0.24732751413E+01  0.40659137176E+02  0.00000000000E+00 0.  1.
         11    1    3    3    0    0 -0.77661121278E+01 -0.61291565870E+01  0.76915928291E+01  0.12531546535E+02  0.51100000000E-03 0.  1.
        -11    1    3    3    0    0  0.48011603774E+01 -0.67244358922E+01  0.30958958059E+01  0.88234772136E+01  0.51100000000E-03 0. -1.
         12    1    3    3    0    0 -0.15428006806E+02 -0.23323021811E+02 -0.83142134937E+01  0.29173839076E+02  0.00000000000E+00 0. -1.
</event>
<event>
 7    1  0.5373252E-013  0.5052885E+02  0.7816164E-02  0.1300439E+00
        -11   -1    0    0    0    0  0.00000000000E+00  0.00000000000E+00  0.45593999997E+02  0.45594000000E+02  0.51100000000E-03 0.  1.
         11   -1    0    0    0    0 -0.00000000000E+00 -0.00000000000E+00 -0.45593999997E+02  0.45594000000E+02  0.51100000000E-03 0. -1.
    9900012    2    1    2    0    0  0.26996525823E+02 -0.15627872574E+02 -0.26079178403E+02  0.50528851535E+02  0.29999974725E+02 0.  0.
        -12    1    1    2    0    0 -0.26996525823E+02  0.15627872574E+02  0.26079178403E+02  0.40659148465E+02  0.00000000000E+00 0.  1.
         11    1    3    3    0    0  0.11909166763E+02 -0.21836157265E+01 -0.71366551247E+00  0.12128715899E+02  0.51100000000E-03 0. -1.
        -11    1    3    3    0    0  0.12410755866E+02  0.20118084691E+01 -0.15120371178E+02  0.19664685589E+02  0.51100000000E-03 0.  1.
         12    1    3    3    0    0  0.26766031935E+01 -0.15456065317E+02 -0.10245141713E+02  0.18735450047E+02  0.00000000000E+00 0. -1.
</event>
<event>
 7    1  0.5373252E-013  0.5052887E+02  0.7816164E-02  0.1300439E+00
        -11   -1    0    0    0    0  0.00000000000E+00  0.00000000000E+00  0.45593999997E+02  0.45594000000E+02  0.51100000000E-03 0.  1.
         11   -1    0    0    0    0 -0.00000000000E+00 -0.00000000000E+00 -0.45593999997E+02  0.45594000000E+02  0.51100000000E-03 0. -1.
    9900012    2    1    2    0    0  0.81862527470E+01  0.20234405033E+02 -0.34303337643E+02  0.50528869973E+02  0.30000030769E+02 0.  0.
        -12    1    1    2    0    0 -0.81862527470E+01 -0.20234405033E+02  0.34303337643E+02  0.40659130027E+02  0.00000000000E+00 0.  1.
         11    1    3    3    0    0 -0.21826478264E-01  0.65866554046E+01 -0.15738852496E+02  0.17061535217E+02  0.51100000000E-03 0. -1.
        -11    1    3    3    0    0  0.11486783470E+02  0.41121481203E+01 -0.19852492267E+02  0.23301875593E+02  0.51100000000E-03 0.  1.
        -12    1    3    3    0    0 -0.32787042452E+01  0.95356015083E+01  0.12880071198E+01  0.10165459163E+02  0.00000000000E+00 0.  1.
</event>
<event>
 7    1  0.5373252E-013  0.5052887E+02  0.7816164E-02  0.1300439E+00
        -11   -1    0    0    0    0  0.00000000000E+00  0.00000000000E+00  0.45593999997E+02  0.45594000000E+02  0.51100000000E-03 0.  1.
         11   -1    0    0    0    0 -0.00000000000E+00 -0.00000000000E+00 -0.45593999997E+02  0.45594000000E+02  0.51100000000E-03 0. -1.
    9900012    2    1    2    0    0 -0.26909698318E+02  0.10781889584E+02 -0.28509369638E+02  0.50528866171E+02  0.30000019214E+02 0.  0.
        -12    1    1    2    0    0  0.26909698318E+02 -0.10781889584E+02  0.28509369638E+02  0.40659133829E+02  0.00000000000E+00 0.  1.
         11    1    3    3    0    0 -0.11595046751E+02  0.89023112918E+01 -0.10284162928E+02  0.17873451342E+02  0.51100000000E-03 0. -1.
        -11    1    3    3    0    0 -0.19731695413E+02 -0.32095036257E+01 -0.11173636806E+02  0.22901765808E+02  0.51100000000E-03 0.  1.
         12    1    3    3    0    0  0.44170438462E+01  0.50890819180E+01 -0.70515699044E+01  0.97536490210E+01  0.00000000000E+00 0. -1.
</event>
<event>
 7    1  0.5373252E-013  0.5052885E+02  0.7816164E-02  0.1300439E+00
        -11   -1    0    0    0    0  0.00000000000E+00  0.00000000000E+00  0.45593999997E+02  0.45594000000E+02  0.51100000000E-03 0. -1.
         11   -1    0    0    0    0 -0.00000000000E+00 -0.00000000000E+00 -0.45593999997E+02  0.45594000000E+02  0.51100000000E-03 0.  1.
    9900012    2    1    2    0    0 -0.14968303807E+02  0.34951599954E+02  0.14404929898E+02  0.50528850186E+02  0.29999970627E+02 0.  0.
        -12    1    1    2    0    0  0.14968303807E+02 -0.34951599954E+02 -0.14404929898E+02  0.40659149814E+02  0.00000000000E+00 0.  1.
         11    1    3    3    0    0 -0.92686626311E+00  0.60846752762E+01  0.45199742609E+01  0.76362636064E+01  0.51100000000E-03 0. -1.
        -11    1    3    3    0    0  0.23611903852E+01  0.12862754743E+02 -0.66133659759E+01  0.14654770193E+02  0.51100000000E-03 0.  1.
        -12    1    3    3    0    0 -0.16402627929E+02  0.16004169935E+02  0.16498321613E+02  0.28237816387E+02  0.00000000000E+00 0.  1.
</event>
<event>
 7    1  0.5373252E-013  0.5052886E+02  0.7816164E-02  0.1300439E+00
        -11   -1    0    0    0    0  0.00000000000E+00  0.00000000000E+00  0.45593999997E+02  0.45594000000E+02  0.51100000000E-03 0. -1.
         11   -1    0    0    0    0 -0.00000000000E+00 -0.00000000000E+00 -0.45593999997E+02  0.45594000000E+02  0.51100000000E-03 0.  1.
    9900012    2    1    2    0    0 -0.18056309032E+02  0.35724144860E+02  0.71358708565E+01  0.50528862347E+02  0.30000007589E+02 0.  0.
        -12    1    1    2    0    0  0.18056309032E+02 -0.35724144860E+02 -0.71358708565E+01  0.40659137653E+02  0.00000000000E+00 0.  1.
         11    1    3    3    0    0 -0.38181765570E-01  0.76379123934E+00  0.32610806199E+01  0.33495495183E+01  0.51100000000E-03 0. -1.
        -11    1    3    3    0    0  0.25190504334E+01  0.18140833190E+02 -0.53437323248E+01  0.19078546049E+02  0.51100000000E-03 0.  1.
         12    1    3    3    0    0 -0.20537177700E+02  0.16819520430E+02  0.92185225615E+01  0.28100766780E+02  0.00000000000E+00 0. -1.
</event>
<event>
 7    1  0.5373252E-013  0.5052886E+02  0.7816164E-02  0.1300439E+00
        -11   -1    0    0    0    0  0.00000000000E+00  0.00000000000E+00  0.45593999997E+02  0.45594000000E+02  0.51100000000E-03 0.  1.
         11   -1    0    0    0    0 -0.00000000000E+00 -0.00000000000E+00 -0.45593999997E+02  0.45594000000E+02  0.51100000000E-03 0. -1.
    9900012    2    1    2    0    0  0.28963004237E+02 -0.28428227283E+02  0.24790297950E+01  0.50528864377E+02  0.30000013760E+02 0.  0.
        -12    1    1    2    0    0 -0.28963004237E+02  0.28428227283E+02 -0.24790297950E+01  0.40659135623E+02  0.00000000000E+00 0.  1.
         11    1    3    3    0    0 -0.14856538365E+01 -0.72332422916E+01 -0.25930990580E+01  0.78263097534E+01  0.51100000000E-03 0. -1.
        -11    1    3    3    0    0  0.14419601265E+02 -0.19764473247E+02  0.91174375740E+01  0.26109135787E+02  0.51100000000E-03 0.  1.
         12    1    3    3    0    0  0.16029056808E+02 -0.14305117444E+01 -0.40453087211E+01  0.16593418836E+02  0.00000000000E+00 0. -1.
</event>
<event>
 7    1  0.5373252E-013  0.5052887E+02  0.7816164E-02  0.1300439E+00
        -11   -1    0    0    0    0  0.00000000000E+00  0.00000000000E+00  0.45593999997E+02  0.45594000000E+02  0.51100000000E-03 0. -1.
         11   -1    0    0    0    0 -0.00000000000E+00 -0.00000000000E+00 -0.45593999997E+02  0.45594000000E+02  0.51100000000E-03 0.  1.
    9900012    2    1    2    0    0  0.34073481685E+02 -0.14935015382E+02  0.16404515281E+02  0.50528868674E+02  0.30000026821E+02 0.  0.
        -12    1    1    2    0    0 -0.34073481685E+02  0.14935015382E+02 -0.16404515281E+02  0.40659131326E+02  0.00000000000E+00 0.  1.
         11    1    3    3    0    0  0.34418276967E+02 -0.10044180102E+02  0.16142665654E+02  0.39320338223E+02  0.51100000000E-03 0. -1.
        -11    1    3    3    0    0  0.41441789407E+01  0.46994590876E+00  0.57098474275E+00  0.42096427505E+01  0.51100000000E-03 0.  1.
        -12    1    3    3    0    0 -0.44889742227E+01 -0.53607811880E+01 -0.30913511537E+00  0.69988877000E+01  0.00000000000E+00 0.  1.
</event>
<event>
 7    1  0.5373252E-013  0.5052885E+02  0.7816164E-02  0.1300439E+00
        -11   -1    0    0    0    0  0.00000000000E+00  0.00000000000E+00  0.45593999997E+02  0.45594000000E+02  0.51100000000E-03 0.  1.
         11   -1    0    0    0    0 -0.00000000000E+00 -0.00000000000E+00 -0.45593999997E+02  0.45594000000E+02  0.51100000000E-03 0. -1.
    9900012    2    1    2    0    0 -0.14326299002E+00 -0.33036208482E+02 -0.23701363725E+02  0.50528852965E+02  0.29999979073E+02 0.  0.
        -12    1    1    2    0    0  0.14326299002E+00  0.33036208482E+02  0.23701363725E+02  0.40659147035E+02  0.00000000000E+00 0.  1.
         11    1    3    3    0    0  0.20980327531E+01 -0.27100609062E+02 -0.27323235430E+02  0.38540938593E+02  0.51100000000E-03 0. -1.
        -11    1    3    3    0    0  0.34207708353E+01 -0.28758232732E+01  0.32788942380E+01  0.55428494740E+01  0.51100000000E-03 0.  1.
        -12    1    3    3    0    0 -0.56620665784E+01 -0.30597761469E+01  0.34297746702E+00  0.64450648988E+01  0.00000000000E+00 0.  1.
</event>
<event>
 7    1  0.5373252E-013  0.5052886E+02  0.7816164E-02  0.1300439E+00
        -11   -1    0    0    0    0  0.00000000000E+00  0.00000000000E+00  0.45593999997E+02  0.45594000000E+02  0.51100000000E-03 0. -1.
         11   -1    0    0    0    0 -0.00000000000E+00 -0.00000000000E+00 -0.45593999997E+02  0.45594000000E+02  0.51100000000E-03 0.  1.
    9900012    2    1    2    0    0  0.72676879443E+01 -0.39542623629E+02  0.60603288785E+01  0.50528856408E+02  0.29999989537E+02 0.  0.
        -12    1    1    2    0    0 -0.72676879443E+01  0.39542623629E+02 -0.60603288785E+01  0.40659143592E+02  0.00000000000E+00 0.  1.
         11    1    3    3    0    0 -0.45023836723E+01 -0.79374999535E+01  0.40282931601E+01  0.99750945002E+01  0.51100000000E-03 0. -1.
        -11    1    3    3    0    0 -0.23251552641E+01 -0.16794906443E+01 -0.58795012376E+01  0.65418323802E+01  0.51100000000E-03 0.  1.
         12    1    3    3    0    0  0.14095226881E+02 -0.29925633032E+02  0.79115369559E+01  0.34011929527E+02  0.00000000000E+00 0. -1.
</event>
<event>
 7    1  0.5373252E-013  0.5052886E+02  0.7816164E-02  0.1300439E+00
        -11   -1    0    0    0    0  0.00000000000E+00  0.00000000000E+00  0.45593999997E+02  0.45594000000E+02  0.51100000000E-03 0.  1.
         11   -1    0    0    0    0 -0.00000000000E+00 -0.00000000000E+00 -0.45593999997E+02  0.45594000000E+02  0.51100000000E-03 0. -1.
    9900012    2    1    2    0    0  0.37325783759E+02 -0.74908937359E+01 -0.14277185861E+02  0.50528860089E+02  0.30000000726E+02 0.  0.
        -12    1    1    2    0    0 -0.37325783759E+02  0.74908937359E+01  0.14277185861E+02  0.40659139911E+02  0.00000000000E+00 0.  1.
         11    1    3    3    0    0  0.73554813013E+01 -0.82993504354E+01 -0.10945278966E+01  0.11143622140E+02  0.51100000000E-03 0. -1.
        -11    1    3    3    0    0  0.75780539116E+01 -0.56904635223E+01 -0.12975892149E+02  0.16068044483E+02  0.51100000000E-03 0.  1.
        -12    1    3    3    0    0  0.22392248547E+02  0.64989202218E+01 -0.20676581516E+00  0.23317193466E+02  0.00000000000E+00 0.  1.
</event>
<event>
 7    1  0.5373252E-013  0.5052889E+02  0.7816164E-02  0.1300439E+00
        -11   -1    0    0    0    0  0.00000000000E+00  0.00000000000E+00  0.45593999997E+02  0.45594000000E+02  0.51100000000E-03 0.  1.
         11   -1    0    0    0    0 -0.00000000000E+00 -0.00000000000E+00 -0.45593999997E+02  0.45594000000E+02  0.51100000000E-03 0. -1.
    9900012    2    1    2    0    0  0.35148069545E+02 -0.10272130570E+02 -0.17670884059E+02  0.50528885369E+02  0.30000077566E+02 0.  0.
        -12    1    1    2    0    0 -0.35148069545E+02  0.10272130570E+02  0.17670884059E+02  0.40659114631E+02  0.00000000000E+00 0.  1.
         11    1    3    3    0    0  0.54526821843E+01 -0.10009398853E+02 -0.56136988016E+01  0.12705645316E+02  0.51100000000E-03 0. -1.
        -11    1    3    3    0    0  0.29375715762E+02 -0.59953536612E+01 -0.11262964680E+02  0.32027040383E+02  0.51100000000E-03 0.  1.
        -12    1    3    3    0    0  0.31967159847E+00  0.57326219438E+01 -0.79422057749E+00  0.57961996694E+01  0.00000000000E+00 0.  1.
</event>
<event>
 7    1  0.5373252E-013  0.5052886E+02  0.7816164E-02  0.1300439E+00
        -11   -1    0    0    0    0  0.00000000000E+00  0.00000000000E+00  0.45593999997E+02  0.45594000000E+02  0.51100000000E-03 0.  1.
         11   -1    0    0    0    0 -0.00000000000E+00 -0.00000000000E+00 -0.45593999997E+02  0.45594000000E+02  0.51100000000E-03 0. -1.
    9900012    2    1    2    0    0 -0.41917934595E+01  0.20301190951E+02 -0.34977932984E+02  0.50528864713E+02  0.30000014782E+02 0.  0.
        -12    1    1    2    0    0  0.41917934595E+01 -0.20301190951E+02  0.34977932984E+02  0.40659135287E+02  0.00000000000E+00 0.  1.
         11    1    3    3    0    0 -0.55242829512E+01  0.21903058306E+02 -0.12723211788E+02  0.25925697363E+02  0.51100000000E-03 0. -1.
        -11    1    3    3    0    0  0.39105061268E+01  0.24557025273E+01 -0.55462832676E+01  0.72169101016E+01  0.51100000000E-03 0.  1.
        -12    1    3    3    0    0 -0.25780166351E+01 -0.40575698821E+01 -0.16708437928E+02  0.17386257248E+02  0.00000000000E+00 0.  1.
</event>
<event>
 7    1  0.5373252E-013  0.5052886E+02  0.7816164E-02  0.1300439E+00
        -11   -1    0    0    0    0  0.00000000000E+00  0.00000000000E+00  0.45593999997E+02  0.45594000000E+02  0.51100000000E-03 0. -1.
         11   -1    0    0    0    0 -0.00000000000E+00 -0.00000000000E+00 -0.45593999997E+02  0.45594000000E+02  0.51100000000E-03 0.  1.
    9900012    2    1    2    0    0  0.24890087013E+02  0.25680538999E+02  0.19343187568E+02  0.50528863018E+02  0.30000009630E+02 0.  0.
        -12    1    1    2    0    0 -0.24890087013E+02 -0.25680538999E+02 -0.19343187568E+02  0.40659136982E+02  0.00000000000E+00 0.  1.
         11    1    3    3    0    0  0.14196837352E+02  0.17412388178E+02  0.12004536792E+02  0.25472541230E+02  0.51100000000E-03 0. -1.
        -11    1    3    3    0    0  0.55435352291E+01 -0.92703306685E+00 -0.58909161538E+01  0.81420554245E+01  0.51100000000E-03 0.  1.
         12    1    3    3    0    0  0.51497144319E+01  0.91951838879E+01  0.13229566930E+02  0.16914266364E+02  0.00000000000E+00 0. -1.
</event>
<event>
 7    1  0.5373252E-013  0.5052885E+02  0.7816164E-02  0.1300439E+00
        -11   -1    0    0    0    0  0.00000000000E+00  0.00000000000E+00  0.45593999997E+02  0.45594000000E+02  0.51100000000E-03 0. -1.
         11   -1    0    0    0    0 -0.00000000000E+00 -0.00000000000E+00 -0.45593999997E+02  0.45594000000E+02  0.51100000000E-03 0.  1.
    9900012    2    1    2    0    0  0.39624973163E+01 -0.98196895451E+00  0.40453684244E+02  0.50528853219E+02  0.29999979845E+02 0.  0.
        -12    1    1    2    0    0 -0.39624973163E+01  0.98196895451E+00 -0.40453684244E+02  0.40659146781E+02  0.00000000000E+00 0.  1.
         11    1    3    3    0    0 -0.60092742754E+01  0.15126094026E+01  0.18984559439E+02  0.19970299494E+02  0.51100000000E-03 0. -1.
        -11    1    3    3    0    0 -0.53249073202E+01 -0.35454421551E+01  0.68667326659E+01  0.93849249230E+01  0.51100000000E-03 0.  1.
         12    1    3    3    0    0  0.15296678912E+02  0.10508637980E+01  0.14602392139E+02  0.21173628802E+02  0.00000000000E+00 0. -1.
</event>
<event>
 7    1  0.5373252E-013  0.5052887E+02  0.7816164E-02  0.1300439E+00
        -11   -1    0    0    0    0  0.00000000000E+00  0.00000000000E+00  0.45593999997E+02  0.45594000000E+02  0.51100000000E-03 0. -1.
         11   -1    0    0    0    0 -0.00000000000E+00 -0.00000000000E+00 -0.45593999997E+02  0.45594000000E+02  0.51100000000E-03 0.  1.
    9900012    2    1    2    0    0 -0.57626640745E+01 -0.28907943148E+02  0.28005127131E+02  0.50528872858E+02  0.30000039540E+02 0.  0.
        -12    1    1    2    0    0  0.57626640745E+01  0.28907943148E+02 -0.28005127131E+02  0.40659127142E+02  0.00000000000E+00 0.  1.
         11    1    3    3    0    0 -0.74655444644E+01 -0.15769177981E+02  0.31051743741E+02  0.35617581585E+02  0.51100000000E-03 0.  1.
        -11    1    3    3    0    0 -0.12648468818E+01 -0.53616369572E+01  0.10905842919E+01  0.56157246063E+01  0.51100000000E-03 0. -1.
        -12    1    3    3    0    0  0.29677272716E+01 -0.77771282103E+01 -0.41372009018E+01  0.92955666669E+01  0.00000000000E+00 0.  1.
</event>
<event>
 7    1  0.5373252E-013  0.5052888E+02  0.7816164E-02  0.1300439E+00
        -11   -1    0    0    0    0  0.00000000000E+00  0.00000000000E+00  0.45593999997E+02  0.45594000000E+02  0.51100000000E-03 0.  1.
         11   -1    0    0    0    0 -0.00000000000E+00 -0.00000000000E+00 -0.45593999997E+02  0.45594000000E+02  0.51100000000E-03 0. -1.
    9900012    2    1    2    0    0 -0.11255050824E+02 -0.36965571775E+02 -0.12650470276E+02  0.50528879696E+02  0.30000060324E+02 0.  0.
        -12    1    1    2    0    0  0.11255050824E+02  0.36965571775E+02  0.12650470276E+02  0.40659120304E+02  0.00000000000E+00 0.  1.
         11    1    3    3    0    0  0.83368443337E+00 -0.12376424225E+02 -0.73386147827E+01  0.14412708751E+02  0.51100000000E-03 0.  1.
        -11    1    3    3    0    0  0.38859759183E+01 -0.12037587116E+02 -0.89257832707E+01  0.15481405611E+02  0.51100000000E-03 0. -1.
        -12    1    3    3    0    0 -0.15974711175E+02 -0.12551560433E+02  0.36139277773E+01  0.20634765335E+02  0.00000000000E+00 0.  1.
</event>
<event>
 7    1  0.5373252E-013  0.5052886E+02  0.7816164E-02  0.1300439E+00
        -11   -1    0    0    0    0  0.00000000000E+00  0.00000000000E+00  0.45593999997E+02  0.45594000000E+02  0.51100000000E-03 0. -1.
         11   -1    0    0    0    0 -0.00000000000E+00 -0.00000000000E+00 -0.45593999997E+02  0.45594000000E+02  0.51100000000E-03 0.  1.
    9900012    2    1    2    0    0 -0.20350335833E+02  0.22964908584E+02  0.26676622888E+02  0.50528863223E+02  0.30000010253E+02 0.  0.
        -12    1    1    2    0    0  0.20350335833E+02 -0.22964908584E+02 -0.26676622888E+02  0.40659136777E+02  0.00000000000E+00 0.  1.
         11    1    3    3    0    0 -0.69283470696E+01  0.26287044797E+02  0.21190934703E+02  0.34468339547E+02  0.51100000000E-03 0. -1.
        -11    1    3    3    0    0  0.15538177225E+00 -0.11356689343E+01  0.11915842665E+01  0.16534088269E+01  0.51100000000E-03 0.  1.
        -12    1    3    3    0    0 -0.13577370535E+02 -0.21864672795E+01  0.42941039183E+01  0.14407114849E+02  0.00000000000E+00 0.  1.
</event>
<event>
 7    1  0.5373252E-013  0.5052886E+02  0.7816164E-02  0.1300439E+00
        -11   -1    0    0    0    0  0.00000000000E+00  0.00000000000E+00  0.45593999997E+02  0.45594000000E+02  0.51100000000E-03 0.  1.
         11   -1    0    0    0    0 -0.00000000000E+00 -0.00000000000E+00 -0.45593999997E+02  0.45594000000E+02  0.51100000000E-03 0. -1.
    9900012    2    1    2    0    0 -0.13241050893E+02 -0.21733959791E+02 -0.31709231980E+02  0.50528857981E+02  0.29999994319E+02 0.  0.
        -12    1    1    2    0    0  0.13241050893E+02  0.21733959791E+02  0.31709231980E+02  0.40659142019E+02  0.00000000000E+00 0.  1.
         11    1    3    3    0    0 -0.11961575246E+02 -0.21173201923E+01 -0.24246596751E+02  0.27119361745E+02  0.51100000000E-03 0. -1.
        -11    1    3    3    0    0 -0.31015712504E+01 -0.13693074480E+02 -0.94234721466E+01  0.16909224124E+02  0.51100000000E-03 0.  1.
        -12    1    3    3    0    0  0.18220956036E+01 -0.59235651190E+01  0.19608369181E+01  0.65002721117E+01  0.00000000000E+00 0.  1.
</event>
<event>
 7    1  0.5373252E-013  0.5052887E+02  0.7816164E-02  0.1300439E+00
        -11   -1    0    0    0    0  0.00000000000E+00  0.00000000000E+00  0.45593999997E+02  0.45594000000E+02  0.51100000000E-03 0. -1.
         11   -1    0    0    0    0 -0.00000000000E+00 -0.00000000000E+00 -0.45593999997E+02  0.45594000000E+02  0.51100000000E-03 0.  1.
    9900012    2    1    2    0    0 -0.37978186613E+02  0.14146230227E+02  0.32720853367E+01  0.50528867810E+02  0.30000024194E+02 0.  0.
        -12    1    1    2    0    0  0.37978186613E+02 -0.14146230227E+02 -0.32720853367E+01  0.40659132190E+02  0.00000000000E+00 0.  1.
         11    1    3    3    0    0  0.24212019260E+01  0.25153925972E+01  0.25704242410E+01  0.43354930197E+01  0.51100000000E-03 0. -1.
        -11    1    3    3    0    0 -0.10910669318E+02  0.98226253615E+01  0.65504171737E+01  0.16075902444E+02  0.51100000000E-03 0.  1.
        -12    1    3    3    0    0 -0.29488719220E+02  0.18082122685E+01 -0.58487560780E+01  0.30117472346E+02  0.00000000000E+00 0.  1.
</event>
<event>
 7    1  0.5373252E-013  0.5052887E+02  0.7816164E-02  0.1300439E+00
        -11   -1    0    0    0    0  0.00000000000E+00  0.00000000000E+00  0.45593999997E+02  0.45594000000E+02  0.51100000000E-03 0.  1.
         11   -1    0    0    0    0 -0.00000000000E+00 -0.00000000000E+00 -0.45593999997E+02  0.45594000000E+02  0.51100000000E-03 0. -1.
    9900012    2    1    2    0    0 -0.14366079433E+02 -0.30358702849E+02 -0.22915711184E+02  0.50528869463E+02  0.30000029221E+02 0.  0.
        -12    1    1    2    0    0  0.14366079433E+02  0.30358702849E+02  0.22915711184E+02  0.40659130537E+02  0.00000000000E+00 0.  1.
         11    1    3    3    0    0 -0.77037765989E+01 -0.13462516457E+02 -0.15269546903E+02  0.21765720437E+02  0.51100000000E-03 0. -1.
        -11    1    3    3    0    0 -0.31072757163E+01 -0.20257984292E+02 -0.10120367379E+01  0.20519875939E+02  0.51100000000E-03 0.  1.
         12    1    3    3    0    0 -0.35550271180E+01  0.33617979005E+01 -0.66341275428E+01  0.82432730870E+01  0.00000000000E+00 0. -1.
</event>
<event>
 7    1  0.5373252E-013  0.5052885E+02  0.7816164E-02  0.1300439E+00
        -11   -1    0    0    0    0  0.00000000000E+00  0.00000000000E+00  0.45593999997E+02  0.45594000000E+02  0.51100000000E-03 0. -1.
         11   -1    0    0    0    0 -0.00000000000E+00 -0.00000000000E+00 -0.45593999997E+02  0.45594000000E+02  0.51100000000E-03 0.  1.
    9900012    2    1    2    0    0 -0.25875086623E+01 -0.40313061182E+02 -0.46182389150E+01  0.50528853014E+02  0.29999979221E+02 0.  0.
        -12    1    1    2    0    0  0.25875086623E+01  0.40313061182E+02  0.46182389150E+01  0.40659146986E+02  0.00000000000E+00 0.  1.
         11    1    3    3    0    0 -0.13036994737E+02 -0.16252520973E+02 -0.39913818474E+01  0.21214117919E+02  0.51100000000E-03 0. -1.
        -11    1    3    3    0    0  0.11693227860E+01 -0.11783864037E+00 -0.32948893692E+01  0.34982135354E+01  0.51100000000E-03 0.  1.
         12    1    3    3    0    0  0.92801632887E+01 -0.23942701569E+02  0.26680323016E+01  0.25816521560E+02  0.00000000000E+00 0. -1.
</event>
<event>
 7    1  0.5373252E-013  0.5052886E+02  0.7816164E-02  0.1300439E+00
        -11   -1    0    0    0    0  0.00000000000E+00  0.00000000000E+00  0.45593999997E+02  0.45594000000E+02  0.51100000000E-03 0.  1.
         11   -1    0    0    0    0 -0.00000000000E+00 -0.00000000000E+00 -0.45593999997E+02  0.45594000000E+02  0.51100000000E-03 0. -1.
    9900012    2    1    2    0    0  0.11780778313E+02 -0.22191397319E+02 -0.31967497194E+02  0.50528859213E+02  0.29999998064E+02 0.  0.
        -12    1    1    2    0    0 -0.11780778313E+02  0.22191397319E+02  0.31967497194E+02  0.40659140787E+02  0.00000000000E+00 0.  1.
         11    1    3    3    0    0 -0.58253249383E+01 -0.88730236298E+01 -0.12061963589E+02  0.16067231400E+02  0.51100000000E-03 0. -1.
        -11    1    3    3    0    0  0.79738181375E+01 -0.13479665898E+02 -0.19235114140E+02  0.24804692795E+02  0.51100000000E-03 0.  1.
        -12    1    3    3    0    0  0.96322851142E+01  0.16129220839E+00 -0.67041946589E+00  0.96569350188E+01  0.00000000000E+00 0.  1.
</event>
<event>
 7    1  0.5373252E-013  0.5052886E+02  0.7816164E-02  0.1300439E+00
        -11   -1    0    0    0    0  0.00000000000E+00  0.00000000000E+00  0.45593999997E+02  0.45594000000E+02  0.51100000000E-03 0.  1.
         11   -1    0    0    0    0 -0.00000000000E+00 -0.00000000000E+00 -0.45593999997E+02  0.45594000000E+02  0.51100000000E-03 0. -1.
    9900012    2    1    2    0    0  0.38212363480E+02  0.81599840031E+01 -0.11242577869E+02  0.50528860575E+02  0.30000002204E+02 0.  0.
        -12    1    1    2    0    0 -0.38212363480E+02 -0.81599840031E+01  0.11242577869E+02  0.40659139425E+02  0.00000000000E+00 0.  1.
         11    1    3    3    0    0  0.11469316919E+02 -0.18690374811E+01  0.44183603399E+00  0.11629004731E+02  0.51100000000E-03 0. -1.
        -11    1    3    3    0    0  0.10109245353E+01  0.28365971460E+01  0.61006632484E+01  0.68034068022E+01  0.51100000000E-03 0.  1.
         12    1    3    3    0    0  0.25732122025E+02  0.71924243382E+01 -0.17785077151E+02  0.32096449041E+02  0.00000000000E+00 0. -1.
</event>
<event>
 7    1  0.5373252E-013  0.5052886E+02  0.7816164E-02  0.1300439E+00
        -11   -1    0    0    0    0  0.00000000000E+00  0.00000000000E+00  0.45593999997E+02  0.45594000000E+02  0.51100000000E-03 0. -1.
         11   -1    0    0    0    0 -0.00000000000E+00 -0.00000000000E+00 -0.45593999997E+02  0.45594000000E+02  0.51100000000E-03 0.  1.
    9900012    2    1    2    0    0  0.44303594884E+01  0.15706697308E+02  0.37240268367E+02  0.50528855720E+02  0.29999987446E+02 0.  0.
        -12    1    1    2    0    0 -0.44303594884E+01 -0.15706697308E+02 -0.37240268367E+02  0.40659144280E+02  0.00000000000E+00 0.  1.
         11    1    3    3    0    0 -0.63614978574E+01 -0.30405698000E+01  0.64033902163E+01  0.95245538595E+01  0.51100000000E-03 0. -1.
        -11    1    3    3    0    0  0.38028340755E+01  0.19606643329E+02  0.22234127047E+02  0.29887094463E+02  0.51100000000E-03 0.  1.
         12    1    3    3    0    0  0.69890232704E+01 -0.85937622120E+00  0.86027511036E+01  0.11117207397E+02  0.00000000000E+00 0. -1.
</event>
<event>
 7    1  0.5373252E-013  0.5052887E+02  0.7816164E-02  0.1300439E+00
        -11   -1    0    0    0    0  0.00000000000E+00  0.00000000000E+00  0.45593999997E+02  0.45594000000E+02  0.51100000000E-03 0.  1.
         11   -1    0    0    0    0 -0.00000000000E+00 -0.00000000000E+00 -0.45593999997E+02  0.45594000000E+02  0.51100000000E-03 0. -1.
    9900012    2    1    2    0    0  0.13168184032E+02 -0.18243436179E+02 -0.33866518353E+02  0.50528866958E+02  0.30000021606E+02 0.  0.
        -12    1    1    2    0    0 -0.13168184032E+02  0.18243436179E+02  0.33866518353E+02  0.40659133042E+02  0.00000000000E+00 0.  1.
         11    1    3    3    0    0  0.43334395870E+01 -0.18285401516E+02 -0.20359131721E+02  0.27706115786E+02  0.51100000000E-03 0. -1.
        -11    1    3    3    0    0 -0.23019699699E+01 -0.35712302663E+01  0.81235697785E+00  0.43258150074E+01  0.51100000000E-03 0.  1.
         12    1    3    3    0    0  0.11136714415E+02  0.36131956028E+01 -0.14319743610E+02  0.18496936165E+02  0.00000000000E+00 0. -1.
</event>
<event>
 7    1  0.5373252E-013  0.5052886E+02  0.7816164E-02  0.1300439E+00
        -11   -1    0    0    0    0  0.00000000000E+00  0.00000000000E+00  0.45593999997E+02  0.45594000000E+02  0.51100000000E-03 0.  1.
         11   -1    0    0    0    0 -0.00000000000E+00 -0.00000000000E+00 -0.45593999997E+02  0.45594000000E+02  0.51100000000E-03 0. -1.
    9900012    2    1    2    0    0 -0.24482980385E+02 -0.28823398147E+02 -0.14931882336E+02  0.50528859338E+02  0.29999998443E+02 0.  0.
        -12    1    1    2    0    0  0.24482980385E+02  0.28823398147E+02  0.14931882336E+02  0.40659140662E+02  0.00000000000E+00 0.  1.
         11    1    3    3    0    0 -0.13144965120E+02 -0.10166401221E+02  0.34706660871E+01  0.16976199373E+02  0.51100000000E-03 0. -1.
        -11    1    3    3    0    0 -0.46513356404E+01 -0.32553079111E+01  0.29429163313E+01  0.63947407790E+01  0.51100000000E-03 0.  1.
         12    1    3    3    0    0 -0.66866796245E+01 -0.15401689015E+02 -0.21345464755E+02  0.27157919186E+02  0.00000000000E+00 0. -1.
</event>
<event>
 7    1  0.5373252E-013  0.5052886E+02  0.7816164E-02  0.1300439E+00
        -11   -1    0    0    0    0  0.00000000000E+00  0.00000000000E+00  0.45593999997E+02  0.45594000000E+02  0.51100000000E-03 0. -1.
         11   -1    0    0    0    0 -0.00000000000E+00 -0.00000000000E+00 -0.45593999997E+02  0.45594000000E+02  0.51100000000E-03 0.  1.
    9900012    2    1    2    0    0 -0.19115442259E+02  0.22504893118E+02  0.27951660649E+02  0.50528859821E+02  0.29999999913E+02 0.  0.
        -12    1    1    2    0    0  0.19115442259E+02 -0.22504893118E+02 -0.27951660649E+02  0.40659140179E+02  0.00000000000E+00 0.  1.
         11    1    3    3    0    0 -0.12780558956E+02  0.14204840837E+01  0.79389656549E+01  0.15112499402E+02  0.51100000000E-03 0. -1.
        -11    1    3    3    0    0 -0.58378087912E+01 -0.13108127914E+01  0.80243081657E+01  0.10009383770E+02  0.51100000000E-03 0.  1.
         12    1    3    3    0    0 -0.49707451262E+00  0.22395221826E+02  0.11988386828E+02  0.25406976649E+02  0.00000000000E+00 0. -1.
</event>
<event>
 7    1  0.5373252E-013  0.5052886E+02  0.7816164E-02  0.1300439E+00
        -11   -1    0    0    0    0  0.00000000000E+00  0.00000000000E+00  0.45593999997E+02  0.45594000000E+02  0.51100000000E-03 0.  1.
         11   -1    0    0    0    0 -0.00000000000E+00 -0.00000000000E+00 -0.45593999997E+02  0.45594000000E+02  0.51100000000E-03 0. -1.
    9900012    2    1    2    0    0  0.28030517243E+02  0.28272259550E+02  0.82543831676E+01  0.50528863284E+02  0.30000010440E+02 0.  0.
        -12    1    1    2    0    0 -0.28030517243E+02 -0.28272259550E+02 -0.82543831676E+01  0.40659136716E+02  0.00000000000E+00 0.  1.
         11    1    3    3    0    0  0.82083353311E+01  0.52774193923E+01  0.20283133346E+01  0.99670446771E+01  0.51100000000E-03 0. -1.
        -11    1    3    3    0    0  0.20297906894E+02  0.18564897583E+02 -0.54698415020E+01  0.28046026686E+02  0.51100000000E-03 0.  1.
        -12    1    3    3    0    0 -0.47572498195E+00  0.44299425750E+01  0.11695911335E+02  0.12515791922E+02  0.00000000000E+00 0.  1.
</event>
<event>
 7    1  0.5373252E-013  0.5052883E+02  0.7816164E-02  0.1300439E+00
        -11   -1    0    0    0    0  0.00000000000E+00  0.00000000000E+00  0.45593999997E+02  0.45594000000E+02  0.51100000000E-03 0.  1.
         11   -1    0    0    0    0 -0.00000000000E+00 -0.00000000000E+00 -0.45593999997E+02  0.45594000000E+02  0.51100000000E-03 0. -1.
    9900012    2    1    2    0    0 -0.25020353290E+02 -0.14306801635E+02 -0.28678655620E+02  0.50528832031E+02  0.29999915441E+02 0.  0.
        -12    1    1    2    0    0  0.25020353290E+02  0.14306801635E+02  0.28678655620E+02  0.40659167969E+02  0.00000000000E+00 0.  1.
         11    1    3    3    0    0 -0.80597644804E+01  0.12655196645E+01 -0.17473601875E+02  0.19284400593E+02  0.51100000000E-03 0. -1.
        -11    1    3    3    0    0 -0.18904856870E+02 -0.66599250223E+01 -0.77795177290E+01  0.21500444436E+02  0.51100000000E-03 0.  1.
         12    1    3    3    0    0  0.19442680606E+01 -0.89123962774E+01 -0.34255360158E+01  0.97439870019E+01  0.00000000000E+00 0. -1.
</event>
<event>
 7    1  0.5373252E-013  0.5052886E+02  0.7816164E-02  0.1300439E+00
        -11   -1    0    0    0    0  0.00000000000E+00  0.00000000000E+00  0.45593999997E+02  0.45594000000E+02  0.51100000000E-03 0. -1.
         11   -1    0    0    0    0 -0.00000000000E+00 -0.00000000000E+00 -0.45593999997E+02  0.45594000000E+02  0.51100000000E-03 0.  1.
    9900012    2    1    2    0    0  0.14068823255E+00 -0.29596516503E+01  0.40551030308E+02  0.50528863387E+02  0.30000010752E+02 0.  0.
        -12    1    1    2    0    0 -0.14068823255E+00  0.29596516503E+01 -0.40551030308E+02  0.40659136613E+02  0.00000000000E+00 0.  1.
         11    1    3    3    0    0 -0.86763632164E+01  0.71304712662E+01  0.28979060236E+02  0.31079073853E+02  0.51100000000E-03 0. -1.
        -11    1    3    3    0    0  0.61368481687E+01 -0.17540640411E+01  0.25382578618E+01  0.68687989736E+01  0.51100000000E-03 0.  1.
        -12    1    3    3    0    0  0.26802032803E+01 -0.83360588754E+01  0.90337122104E+01  0.12580990561E+02  0.00000000000E+00 0.  1.
</event>
<event>
 7    1  0.5718469E-013  0.5052887E+02  0.7816164E-02  0.1300439E+00
        -11   -1    0    0    0    0  0.00000000000E+00  0.00000000000E+00  0.45593999997E+02  0.45594000000E+02  0.51100000000E-03 0. -1.
         11   -1    0    0    0    0 -0.00000000000E+00 -0.00000000000E+00 -0.45593999997E+02  0.45594000000E+02  0.51100000000E-03 0.  1.
    9900012    2    1    2    0    0  0.24356269184E+02  0.32438917668E+02  0.27665428423E+01  0.50528868341E+02  0.30000025808E+02 0.  0.
        -12    1    1    2    0    0 -0.24356269184E+02 -0.32438917668E+02 -0.27665428423E+01  0.40659131659E+02  0.00000000000E+00 0.  1.
         11    1    3    3    0    0  0.13891135334E+02  0.22918245277E+02  0.13251774074E+02  0.29896807920E+02  0.51100000000E-03 0. -1.
        -11    1    3    3    0    0  0.34419357419E+01 -0.21636264116E+01 -0.16547364738E+01  0.43893455047E+01  0.51100000000E-03 0.  1.
        -12    1    3    3    0    0  0.70231981079E+01  0.11684298802E+02 -0.88304947579E+01  0.16242714916E+02  0.00000000000E+00 0.  1.
</event>
<event>
 7    1  0.5373252E-013  0.5052885E+02  0.7816164E-02  0.1300439E+00
        -11   -1    0    0    0    0  0.00000000000E+00  0.00000000000E+00  0.45593999997E+02  0.45594000000E+02  0.51100000000E-03 0.  1.
         11   -1    0    0    0    0 -0.00000000000E+00 -0.00000000000E+00 -0.45593999997E+02  0.45594000000E+02  0.51100000000E-03 0. -1.
    9900012    2    1    2    0    0  0.22298710796E+02 -0.24049433770E+02 -0.24032443797E+02  0.50528854379E+02  0.29999983369E+02 0.  0.
        -12    1    1    2    0    0 -0.22298710796E+02  0.24049433770E+02  0.24032443797E+02  0.40659145621E+02  0.00000000000E+00 0.  1.
         11    1    3    3    0    0  0.17326687647E+02 -0.59043443727E+01 -0.21437773472E+02  0.28189599483E+02  0.51100000000E-03 0. -1.
        -11    1    3    3    0    0  0.50972886738E+01 -0.17981726111E+01  0.12456367341E+01  0.55468358275E+01  0.51100000000E-03 0.  1.
         12    1    3    3    0    0 -0.12526552517E+00 -0.16346916786E+02 -0.38403070592E+01  0.16792419068E+02  0.00000000000E+00 0. -1.
</event>
<event>
 7    1  0.5373252E-013  0.5052886E+02  0.7816164E-02  0.1300439E+00
        -11   -1    0    0    0    0  0.00000000000E+00  0.00000000000E+00  0.45593999997E+02  0.45594000000E+02  0.51100000000E-03 0.  1.
         11   -1    0    0    0    0 -0.00000000000E+00 -0.00000000000E+00 -0.45593999997E+02  0.45594000000E+02  0.51100000000E-03 0. -1.
    9900012    2    1    2    0    0  0.35585841212E+01 -0.30505813093E+02 -0.26643909208E+02  0.50528855256E+02  0.29999986037E+02 0.  0.
        -12    1    1    2    0    0 -0.35585841212E+01  0.30505813093E+02  0.26643909208E+02  0.40659144744E+02  0.00000000000E+00 0.  1.
         11    1    3    3    0    0  0.81340307665E+00 -0.14338833861E+01 -0.37612446893E+01  0.41066541130E+01  0.51100000000E-03 0.  1.
        -11    1    3    3    0    0  0.28142159663E+01 -0.17337081171E+02 -0.28448848113E+02  0.33433982028E+02  0.51100000000E-03 0. -1.
         12    1    3    3    0    0 -0.69034921769E-01 -0.11734848536E+02  0.55661835943E+01  0.12988219116E+02  0.00000000000E+00 0. -1.
</event>
<event>
 7    1  0.5373252E-013  0.5052887E+02  0.7816164E-02  0.1300439E+00
        -11   -1    0    0    0    0  0.00000000000E+00  0.00000000000E+00  0.45593999997E+02  0.45594000000E+02  0.51100000000E-03 0. -1.
         11   -1    0    0    0    0 -0.00000000000E+00 -0.00000000000E+00 -0.45593999997E+02  0.45594000000E+02  0.51100000000E-03 0.  1.
    9900012    2    1    2    0    0 -0.56613957249E+01 -0.37019036640E+02  0.15833654598E+02  0.50528867038E+02  0.30000021849E+02 0.  0.
        -12    1    1    2    0    0  0.56613957249E+01  0.37019036640E+02 -0.15833654598E+02  0.40659132962E+02  0.00000000000E+00 0.  1.
         11    1    3    3    0    0 -0.18104734044E+00 -0.18033178220E+02  0.11968778834E+02  0.21644397933E+02  0.51100000000E-03 0. -1.
        -11    1    3    3    0    0 -0.81382393317E+00  0.97242154602E+00  0.78943756915E+01  0.79955663262E+01  0.51100000000E-03 0.  1.
         12    1    3    3    0    0 -0.46665244513E+01 -0.19958279965E+02 -0.40294999275E+01  0.20888902779E+02  0.00000000000E+00 0. -1.
</event>
<event>
 7    1  0.5373252E-013  0.5052885E+02  0.7816164E-02  0.1300439E+00
        -11   -1    0    0    0    0  0.00000000000E+00  0.00000000000E+00  0.45593999997E+02  0.45594000000E+02  0.51100000000E-03 0.  1.
         11   -1    0    0    0    0 -0.00000000000E+00 -0.00000000000E+00 -0.45593999997E+02  0.45594000000E+02  0.51100000000E-03 0. -1.
    9900012    2    1    2    0    0  0.36839254041E+02 -0.11439374501E+02  0.12852089781E+02  0.50528854178E+02  0.29999982760E+02 0.  0.
        -12    1    1    2    0    0 -0.36839254041E+02  0.11439374501E+02 -0.12852089781E+02  0.40659145822E+02  0.00000000000E+00 0.  1.
         11    1    3    3    0    0  0.44601833265E+01 -0.75169911164E+01  0.10418625560E+02  0.13599490783E+02  0.51100000000E-03 0. -1.
        -11    1    3    3    0    0  0.18234998239E+00  0.34167041125E+01 -0.13757793553E+01  0.36878025441E+01  0.51100000000E-03 0.  1.
         12    1    3    3    0    0  0.32196720732E+02 -0.73390874967E+01  0.38092435762E+01  0.33241560851E+02  0.00000000000E+00 0. -1.
</event>
<event>
 7    1  0.5373252E-013  0.5052886E+02  0.7816164E-02  0.1300439E+00
        -11   -1    0    0    0    0  0.00000000000E+00  0.00000000000E+00  0.45593999997E+02  0.45594000000E+02  0.51100000000E-03 0. -1.
         11   -1    0    0    0    0 -0.00000000000E+00 -0.00000000000E+00 -0.45593999997E+02  0.45594000000E+02  0.51100000000E-03 0.  1.
    9900012    2    1    2    0    0 -0.47574886378E+01  0.31476016710E+02  0.25294113243E+02  0.50528862149E+02  0.30000006987E+02 0.  0.
        -12    1    1    2    0    0  0.47574886378E+01 -0.31476016710E+02 -0.25294113243E+02  0.40659137851E+02  0.00000000000E+00 0.  1.
         11    1    3    3    0    0 -0.87487786136E+01  0.38348441931E+01  0.10285467496E+02  0.14037022444E+02  0.51100000000E-03 0.  1.
        -11    1    3    3    0    0  0.74791166669E+01  0.10609261864E+02  0.13978538350E+02  0.19075983804E+02  0.51100000000E-03 0. -1.
        -12    1    3    3    0    0 -0.34878266911E+01  0.17031910653E+02  0.10301073970E+01  0.17415855901E+02  0.00000000000E+00 0.  1.
</event>
<event>
 7    1  0.5373252E-013  0.5052887E+02  0.7816164E-02  0.1300439E+00
        -11   -1    0    0    0    0  0.00000000000E+00  0.00000000000E+00  0.45593999997E+02  0.45594000000E+02  0.51100000000E-03 0. -1.
         11   -1    0    0    0    0 -0.00000000000E+00 -0.00000000000E+00 -0.45593999997E+02  0.45594000000E+02  0.51100000000E-03 0.  1.
    9900012    2    1    2    0    0 -0.63531734705E+01  0.38140656753E+02  0.12573474935E+02  0.50528870857E+02  0.30000033458E+02 0.  0.
        -12    1    1    2    0    0  0.63531734705E+01 -0.38140656753E+02 -0.12573474935E+02  0.40659129143E+02  0.00000000000E+00 0.  1.
         11    1    3    3    0    0  0.88194085307E+00  0.17701622067E+02  0.22444658394E+01  0.17865130020E+02  0.51100000000E-03 0. -1.
        -11    1    3    3    0    0  0.77421182409E+01  0.39631368147E+01  0.23255746471E+01  0.90030631437E+01  0.51100000000E-03 0.  1.
         12    1    3    3    0    0 -0.14977232564E+02  0.16475897871E+02  0.80034344486E+01  0.23660677694E+02  0.00000000000E+00 0. -1.
</event>
<event>
 7    1  0.5373252E-013  0.5052886E+02  0.7816164E-02  0.1300439E+00
        -11   -1    0    0    0    0  0.00000000000E+00  0.00000000000E+00  0.45593999997E+02  0.45594000000E+02  0.51100000000E-03 0. -1.
         11   -1    0    0    0    0 -0.00000000000E+00 -0.00000000000E+00 -0.45593999997E+02  0.45594000000E+02  0.51100000000E-03 0.  1.
    9900012    2    1    2    0    0 -0.35086034883E+02 -0.11451107260E+02  0.17058956363E+02  0.50528859656E+02  0.29999999411E+02 0.  0.
        -12    1    1    2    0    0  0.35086034883E+02  0.11451107260E+02 -0.17058956363E+02  0.40659140344E+02  0.00000000000E+00 0.  1.
         11    1    3    3    0    0 -0.14557191934E+01  0.37870366825E+01  0.63068849146E+01  0.74991708069E+01  0.51100000000E-03 0. -1.
        -11    1    3    3    0    0 -0.57366005246E+01 -0.59965057050E+01 -0.50006243161E+01  0.96888033349E+01  0.51100000000E-03 0.  1.
        -12    1    3    3    0    0 -0.27893715165E+02 -0.92416382379E+01  0.15752695765E+02  0.33340885514E+02  0.00000000000E+00 0.  1.
</event>
<event>
 7    1  0.5373252E-013  0.5052887E+02  0.7816164E-02  0.1300439E+00
        -11   -1    0    0    0    0  0.00000000000E+00  0.00000000000E+00  0.45593999997E+02  0.45594000000E+02  0.51100000000E-03 0.  1.
         11   -1    0    0    0    0 -0.00000000000E+00 -0.00000000000E+00 -0.45593999997E+02  0.45594000000E+02  0.51100000000E-03 0. -1.
    9900012    2    1    2    0    0  0.32806409573E+02 -0.71262327025E+01  0.22937334449E+02  0.50528868022E+02  0.30000024839E+02 0.  0.
        -12    1    1    2    0    0 -0.32806409573E+02  0.71262327025E+01 -0.22937334449E+02  0.40659131978E+02  0.00000000000E+00 0.  1.
         11    1    3    3    0    0  0.16422906105E+02 -0.21215289310E+01  0.14475954350E+02  0.21994680823E+02  0.51100000000E-03 0. -1.
        -11    1    3    3    0    0  0.23055734098E+01 -0.61964011427E+01  0.12238137210E+02  0.13909818780E+02  0.51100000000E-03 0.  1.
         12    1    3    3    0    0  0.14077930059E+02  0.11916973712E+01 -0.37767571108E+01  0.14624368418E+02  0.00000000000E+00 0. -1.
</event>
<event>
 7    1  0.5373252E-013  0.5052886E+02  0.7816164E-02  0.1300439E+00
        -11   -1    0    0    0    0  0.00000000000E+00  0.00000000000E+00  0.45593999997E+02  0.45594000000E+02  0.51100000000E-03 0.  1.
         11   -1    0    0    0    0 -0.00000000000E+00 -0.00000000000E+00 -0.45593999997E+02  0.45594000000E+02  0.51100000000E-03 0. -1.
    9900012    2    1    2    0    0 -0.40229367245E+02  0.23547432711E+01 -0.54054119850E+01  0.50528864697E+02  0.30000014734E+02 0.  0.
        -12    1    1    2    0    0  0.40229367245E+02 -0.23547432711E+01  0.54054119850E+01  0.40659135303E+02  0.00000000000E+00 0.  1.
         11    1    3    3    0    0 -0.23200109813E+02 -0.24111855331E+00 -0.55730041730E+01  0.23861299404E+02  0.51100000000E-03 0. -1.
        -11    1    3    3    0    0 -0.21402937640E+01 -0.40170309854E+01 -0.74129523034E+01  0.86988078176E+01  0.51100000000E-03 0.  1.
         12    1    3    3    0    0 -0.14888963669E+02  0.66128928098E+01  0.75805444914E+01  0.17968757476E+02  0.00000000000E+00 0. -1.
</event>
<event>
 7    1  0.5373254E-013  0.5052886E+02  0.7816164E-02  0.1300439E+00
        -11   -1    0    0    0    0  0.00000000000E+00  0.00000000000E+00  0.45593999997E+02  0.45594000000E+02  0.51100000000E-03 0. -1.
         11   -1    0    0    0    0 -0.00000000000E+00 -0.00000000000E+00 -0.45593999997E+02  0.45594000000E+02  0.51100000000E-03 0.  1.
    9900012    2    1    2    0    0  0.14656492338E+02 -0.35170326480E+02  0.14191580446E+02  0.50528860955E+02  0.30000003358E+02 0.  0.
        -12    1    1    2    0    0 -0.14656492338E+02  0.35170326480E+02 -0.14191580446E+02  0.40659139045E+02  0.00000000000E+00 0.  1.
         11    1    3    3    0    0  0.31240976043E+01 -0.45476004610E+01  0.97566002099E+01  0.11208563856E+02  0.51100000000E-03 0. -1.
        -11    1    3    3    0    0  0.83694022878E+01 -0.24029228759E+02  0.12570800735E+02  0.28380904862E+02  0.51100000000E-03 0.  1.
        -12    1    3    3    0    0  0.31629924464E+01 -0.65934972596E+01 -0.81358204984E+01  0.10939392237E+02  0.00000000000E+00 0.  1.
</event>
<event>
 7    1  0.5373252E-013  0.5052874E+02  0.7816164E-02  0.1300439E+00
        -11   -1    0    0    0    0  0.00000000000E+00  0.00000000000E+00  0.45593999997E+02  0.45594000000E+02  0.51100000000E-03 0.  1.
         11   -1    0    0    0    0 -0.00000000000E+00 -0.00000000000E+00 -0.45593999997E+02  0.45594000000E+02  0.51100000000E-03 0. -1.
    9900012    2    1    2    0    0 -0.87344935237E+01 -0.31427424946E+02 -0.24273471302E+02  0.50528735067E+02  0.29999620707E+02 0.  0.
        -12    1    1    2    0    0  0.87344935237E+01  0.31427424946E+02  0.24273471302E+02  0.40659264933E+02  0.00000000000E+00 0.  1.
         11    1    3    3    0    0 -0.31309951317E+01  0.43330581594E+01 -0.27858693093E+01  0.60282328752E+01  0.51100000000E-03 0. -1.
        -11    1    3    3    0    0 -0.43302044911E+00 -0.75464443209E+01  0.15432963921E+01  0.77147969911E+01  0.51100000000E-03 0.  1.
         12    1    3    3    0    0 -0.51704779429E+01 -0.28214038785E+02 -0.23030898384E+02  0.36785705201E+02  0.00000000000E+00 0. -1.
</event>
<event>
 7    1  0.5373252E-013  0.5052887E+02  0.7816164E-02  0.1300439E+00
        -11   -1    0    0    0    0  0.00000000000E+00  0.00000000000E+00  0.45593999997E+02  0.45594000000E+02  0.51100000000E-03 0.  1.
         11   -1    0    0    0    0 -0.00000000000E+00 -0.00000000000E+00 -0.45593999997E+02  0.45594000000E+02  0.51100000000E-03 0. -1.
    9900012    2    1    2    0    0  0.28496819427E+02  0.20609456289E+02 -0.20404573120E+02  0.50528868059E+02  0.30000024952E+02 0.  0.
        -12    1    1    2    0    0 -0.28496819427E+02 -0.20609456289E+02  0.20404573120E+02  0.40659131941E+02  0.00000000000E+00 0.  1.
         11    1    3    3    0    0  0.13985813535E+02  0.72433789551E+01 -0.39896402006E+01  0.16247669006E+02  0.51100000000E-03 0. -1.
        -11    1    3    3    0    0 -0.50825045906E+00 -0.36384124132E+01  0.27446091864E+01  0.45857652867E+01  0.51100000000E-03 0.  1.
         12    1    3    3    0    0  0.15019256351E+02  0.17004489747E+02 -0.19159542105E+02  0.29695433767E+02  0.00000000000E+00 0. -1.
</event>
<event>
 7    1  0.5373252E-013  0.5052885E+02  0.7816164E-02  0.1300439E+00
        -11   -1    0    0    0    0  0.00000000000E+00  0.00000000000E+00  0.45593999997E+02  0.45594000000E+02  0.51100000000E-03 0.  1.
         11   -1    0    0    0    0 -0.00000000000E+00 -0.00000000000E+00 -0.45593999997E+02  0.45594000000E+02  0.51100000000E-03 0. -1.
    9900012    2    1    2    0    0  0.11203117193E+02 -0.14477959476E+02 -0.36304895387E+02  0.50528848822E+02  0.29999966480E+02 0.  0.
        -12    1    1    2    0    0 -0.11203117193E+02  0.14477959476E+02  0.36304895387E+02  0.40659151178E+02  0.00000000000E+00 0.  1.
         11    1    3    3    0    0  0.16679483502E+01 -0.17405915913E+02 -0.30329871888E+02  0.35009271479E+02  0.51100000000E-03 0. -1.
        -11    1    3    3    0    0  0.70582026866E+00  0.39463806920E+01 -0.52451135320E+01  0.66017663577E+01  0.51100000000E-03 0.  1.
        -12    1    3    3    0    0  0.88293485746E+01 -0.10184242546E+01 -0.72990996664E+00  0.89178109855E+01  0.00000000000E+00 0.  1.
</event>
<event>
 7    1  0.5373252E-013  0.5052885E+02  0.7816164E-02  0.1300439E+00
        -11   -1    0    0    0    0  0.00000000000E+00  0.00000000000E+00  0.45593999997E+02  0.45594000000E+02  0.51100000000E-03 0. -1.
         11   -1    0    0    0    0 -0.00000000000E+00 -0.00000000000E+00 -0.45593999997E+02  0.45594000000E+02  0.51100000000E-03 0.  1.
    9900012    2    1    2    0    0  0.13294796016E+02 -0.38421804767E+02  0.42371161395E+00  0.50528853253E+02  0.29999979948E+02 0.  0.
        -12    1    1    2    0    0 -0.13294796016E+02  0.38421804767E+02 -0.42371161395E+00  0.40659146747E+02  0.00000000000E+00 0.  1.
         11    1    3    3    0    0  0.48019435447E+01 -0.73503459416E+00  0.11124391825E+01  0.49836190522E+01  0.51100000000E-03 0. -1.
        -11    1    3    3    0    0 -0.53724977572E+01 -0.14601433735E+01  0.34278280667E+01  0.65380238863E+01  0.51100000000E-03 0.  1.
         12    1    3    3    0    0  0.13865350228E+02 -0.36226626799E+02 -0.41165556353E+01  0.39007210314E+02  0.00000000000E+00 0. -1.
</event>
<event>
 7    1  0.5373252E-013  0.5052885E+02  0.7816164E-02  0.1300439E+00
        -11   -1    0    0    0    0  0.00000000000E+00  0.00000000000E+00  0.45593999997E+02  0.45594000000E+02  0.51100000000E-03 0.  1.
         11   -1    0    0    0    0 -0.00000000000E+00 -0.00000000000E+00 -0.45593999997E+02  0.45594000000E+02  0.51100000000E-03 0. -1.
    9900012    2    1    2    0    0 -0.36198066560E+02 -0.81283666457E+00 -0.18498794002E+02  0.50528854587E+02  0.29999984004E+02 0.  0.
        -12    1    1    2    0    0  0.36198066560E+02  0.81283666457E+00  0.18498794002E+02  0.40659145413E+02  0.00000000000E+00 0.  1.
         11    1    3    3    0    0 -0.56328711695E+01 -0.66879254492E+01 -0.96286886689E+01  0.13006507224E+02  0.51100000000E-03 0. -1.
        -11    1    3    3    0    0 -0.92941948426E+01 -0.61684674714E+01  0.91568723104E+00  0.11192431911E+02  0.51100000000E-03 0.  1.
        -12    1    3    3    0    0 -0.21271000548E+02  0.12043556256E+02 -0.97857925645E+01  0.26329915452E+02  0.00000000000E+00 0.  1.
</event>
<event>
 7    1  0.5373252E-013  0.5052880E+02  0.7816164E-02  0.1300439E+00
        -11   -1    0    0    0    0  0.00000000000E+00  0.00000000000E+00  0.45593999997E+02  0.45594000000E+02  0.51100000000E-03 0. -1.
         11   -1    0    0    0    0 -0.00000000000E+00 -0.00000000000E+00 -0.45593999997E+02  0.45594000000E+02  0.51100000000E-03 0.  1.
    9900012    2    1    2    0    0 -0.39647178432E+02 -0.20959358599E+01  0.87680382811E+01  0.50528804237E+02  0.29999830959E+02 0.  0.
        -12    1    1    2    0    0  0.39647178432E+02  0.20959358599E+01 -0.87680382811E+01  0.40659195763E+02  0.00000000000E+00 0.  1.
         11    1    3    3    0    0 -0.35580301909E+01 -0.43532704608E+01  0.47209811606E+01  0.73415397516E+01  0.51100000000E-03 0. -1.
        -11    1    3    3    0    0 -0.28048466340E+02 -0.17055027877E+01  0.12601370514E+02  0.30796424190E+02  0.51100000000E-03 0.  1.
        -12    1    3    3    0    0 -0.80406819011E+01  0.39628373886E+01 -0.85543133931E+01  0.12390840296E+02  0.00000000000E+00 0.  1.
</event>
<event>
 7    1  0.5373252E-013  0.5052887E+02  0.7816164E-02  0.1300439E+00
        -11   -1    0    0    0    0  0.00000000000E+00  0.00000000000E+00  0.45593999997E+02  0.45594000000E+02  0.51100000000E-03 0.  1.
         11   -1    0    0    0    0 -0.00000000000E+00 -0.00000000000E+00 -0.45593999997E+02  0.45594000000E+02  0.51100000000E-03 0. -1.
    9900012    2    1    2    0    0 -0.33789597380E+02 -0.36935058381E+01 -0.22311109872E+02  0.50528874331E+02  0.30000044015E+02 0.  0.
        -12    1    1    2    0    0  0.33789597380E+02  0.36935058381E+01  0.22311109872E+02  0.40659125669E+02  0.00000000000E+00 0.  1.
         11    1    3    3    0    0 -0.25811147629E+02 -0.43036355532E+01 -0.96727578001E+01  0.27898008256E+02  0.51100000000E-03 0.  1.
        -11    1    3    3    0    0 -0.12107327747E+02  0.72897755812E+00 -0.35344546805E+01  0.12633731183E+02  0.51100000000E-03 0. -1.
        -12    1    3    3    0    0  0.41288779969E+01 -0.11884784303E+00 -0.91038973918E+01  0.99971348917E+01  0.00000000000E+00 0.  1.
</event>
<event>
 7    1  0.6394191E-013  0.5052888E+02  0.7816164E-02  0.1300439E+00
        -11   -1    0    0    0    0  0.00000000000E+00  0.00000000000E+00  0.45593999997E+02  0.45594000000E+02  0.51100000000E-03 0. -1.
         11   -1    0    0    0    0 -0.00000000000E+00 -0.00000000000E+00 -0.45593999997E+02  0.45594000000E+02  0.51100000000E-03 0.  1.
    9900012    2    1    2    0    0  0.59545448061E+01 -0.33569660683E+02 -0.22153668735E+02  0.50528883425E+02  0.30000071660E+02 0.  0.
        -12    1    1    2    0    0 -0.59545448061E+01  0.33569660683E+02  0.22153668735E+02  0.40659116575E+02  0.00000000000E+00 0.  1.
         11    1    3    3    0    0  0.48752694192E+01 -0.20214354138E+02 -0.61044461028E+01  0.21671470361E+02  0.51100000000E-03 0. -1.
        -11    1    3    3    0    0  0.10220353513E+02 -0.43216253412E+01 -0.66660203124E+01  0.12944801991E+02  0.51100000000E-03 0.  1.
        -12    1    3    3    0    0 -0.91410781259E+01 -0.90336812031E+01 -0.93832023203E+01  0.15912611073E+02  0.00000000000E+00 0.  1.
</event>
<event>
 7    1  0.5373252E-013  0.5052886E+02  0.7816164E-02  0.1300439E+00
        -11   -1    0    0    0    0  0.00000000000E+00  0.00000000000E+00  0.45593999997E+02  0.45594000000E+02  0.51100000000E-03 0.  1.
         11   -1    0    0    0    0 -0.00000000000E+00 -0.00000000000E+00 -0.45593999997E+02  0.45594000000E+02  0.51100000000E-03 0. -1.
    9900012    2    1    2    0    0  0.11397120991E+02 -0.30869306407E+02 -0.23882159496E+02  0.50528856046E+02  0.29999988436E+02 0.  0.
        -12    1    1    2    0    0 -0.11397120991E+02  0.30869306407E+02  0.23882159496E+02  0.40659143954E+02  0.00000000000E+00 0.  1.
         11    1    3    3    0    0 -0.61852365944E+01 -0.15256530288E+02 -0.42134830326E+01  0.16993301848E+02  0.51100000000E-03 0. -1.
        -11    1    3    3    0    0  0.62456449290E+01 -0.13332374903E+02 -0.15135378412E+02  0.21114923184E+02  0.51100000000E-03 0.  1.
        -12    1    3    3    0    0  0.11336712656E+02 -0.22804012152E+01 -0.45332980512E+01  0.12420631013E+02  0.00000000000E+00 0.  1.
</event>
<event>
 7    1  0.5373252E-013  0.5052886E+02  0.7816164E-02  0.1300439E+00
        -11   -1    0    0    0    0  0.00000000000E+00  0.00000000000E+00  0.45593999997E+02  0.45594000000E+02  0.51100000000E-03 0. -1.
         11   -1    0    0    0    0 -0.00000000000E+00 -0.00000000000E+00 -0.45593999997E+02  0.45594000000E+02  0.51100000000E-03 0.  1.
    9900012    2    1    2    0    0  0.40077621618E+02  0.34548098325E+01  0.59173131519E+01  0.50528855144E+02  0.29999985695E+02 0.  0.
        -12    1    1    2    0    0 -0.40077621618E+02 -0.34548098325E+01 -0.59173131519E+01  0.40659144856E+02  0.00000000000E+00 0.  1.
         11    1    3    3    0    0  0.16129221835E+02  0.11143807519E+02 -0.13677214699E+01  0.19652147600E+02  0.51100000000E-03 0. -1.
        -11    1    3    3    0    0 -0.21949787779E+01 -0.18801176380E+01 -0.61505710477E+00  0.29548383495E+01  0.51100000000E-03 0.  1.
        -12    1    3    3    0    0  0.26143378561E+02 -0.58088800488E+01  0.79000917265E+01  0.27921869194E+02  0.00000000000E+00 0.  1.
</event>
<event>
 7    1  0.5373252E-013  0.5052886E+02  0.7816164E-02  0.1300439E+00
        -11   -1    0    0    0    0  0.00000000000E+00  0.00000000000E+00  0.45593999997E+02  0.45594000000E+02  0.51100000000E-03 0.  1.
         11   -1    0    0    0    0 -0.00000000000E+00 -0.00000000000E+00 -0.45593999997E+02  0.45594000000E+02  0.51100000000E-03 0. -1.
    9900012    2    1    2    0    0 -0.15319632224E+01 -0.39032923963E+01 -0.40442344759E+02  0.50528857701E+02  0.29999993468E+02 0.  0.
        -12    1    1    2    0    0  0.15319632224E+01  0.39032923963E+01  0.40442344759E+02  0.40659142299E+02  0.00000000000E+00 0.  1.
         11    1    3    3    0    0  0.27923640601E+01 -0.69911281049E+00 -0.76054554028E+01  0.81319744166E+01  0.51100000000E-03 0. -1.
        -11    1    3    3    0    0  0.32406014016E+01 -0.12255552105E+01  0.36787653672E+01  0.50533946913E+01  0.51100000000E-03 0.  1.
         12    1    3    3    0    0 -0.75649286840E+01 -0.19786243753E+01 -0.36515654724E+02  0.37343488593E+02  0.00000000000E+00 0. -1.
</event>
<event>
 7    1  0.5373252E-013  0.5052885E+02  0.7816164E-02  0.1300439E+00
        -11   -1    0    0    0    0  0.00000000000E+00  0.00000000000E+00  0.45593999997E+02  0.45594000000E+02  0.51100000000E-03 0.  1.
         11   -1    0    0    0    0 -0.00000000000E+00 -0.00000000000E+00 -0.45593999997E+02  0.45594000000E+02  0.51100000000E-03 0. -1.
    9900012    2    1    2    0    0  0.40113300935E+02 -0.66014348924E+01 -0.71450261307E+00  0.50528851355E+02  0.29999974178E+02 0.  0.
        -12    1    1    2    0    0 -0.40113300935E+02  0.66014348924E+01  0.71450261307E+00  0.40659148645E+02  0.00000000000E+00 0.  1.
         11    1    3    3    0    0  0.25262197583E+02 -0.16054034201E+01 -0.88967326037E+01  0.26831097595E+02  0.51100000000E-03 0. -1.
        -11    1    3    3    0    0  0.20870590800E+01  0.34140317727E+01 -0.27932385888E+01  0.48799191206E+01  0.51100000000E-03 0.  1.
        -12    1    3    3    0    0  0.12764044273E+02 -0.84100632451E+01  0.10975468579E+02  0.18817834639E+02  0.00000000000E+00 0.  1.
</event>
<event>
 7    1  0.5373252E-013  0.5052888E+02  0.7816164E-02  0.1300439E+00
        -11   -1    0    0    0    0  0.00000000000E+00  0.00000000000E+00  0.45593999997E+02  0.45594000000E+02  0.51100000000E-03 0. -1.
         11   -1    0    0    0    0 -0.00000000000E+00 -0.00000000000E+00 -0.45593999997E+02  0.45594000000E+02  0.51100000000E-03 0.  1.
    9900012    2    1    2    0    0 -0.29397403127E+02 -0.20186693821E+02  0.19530844214E+02  0.50528883019E+02  0.30000070424E+02 0.  0.
        -12    1    1    2    0    0  0.29397403127E+02  0.20186693821E+02 -0.19530844214E+02  0.40659116981E+02  0.00000000000E+00 0.  1.
         11    1    3    3    0    0  0.19333021435E+01 -0.47645950212E+01  0.22149993151E+01  0.55986824451E+01  0.51100000000E-03 0.  1.
        -11    1    3    3    0    0 -0.17788643756E+02 -0.20280914693E+02  0.12730818045E+02  0.29829935900E+02  0.51100000000E-03 0. -1.
         12    1    3    3    0    0 -0.13542061515E+02  0.48588158938E+01  0.45850268533E+01  0.15100264673E+02  0.00000000000E+00 0. -1.
</event>
<event>
 7    1  0.5373252E-013  0.5052884E+02  0.7816164E-02  0.1300439E+00
        -11   -1    0    0    0    0  0.00000000000E+00  0.00000000000E+00  0.45593999997E+02  0.45594000000E+02  0.51100000000E-03 0.  1.
         11   -1    0    0    0    0 -0.00000000000E+00 -0.00000000000E+00 -0.45593999997E+02  0.45594000000E+02  0.51100000000E-03 0. -1.
    9900012    2    1    2    0    0  0.25904743373E+02  0.12825306674E+02 -0.28594102927E+02  0.50528844294E+02  0.29999952716E+02 0.  0.
        -12    1    1    2    0    0 -0.25904743373E+02 -0.12825306674E+02  0.28594102927E+02  0.40659155706E+02  0.00000000000E+00 0.  1.
         11    1    3    3    0    0  0.28658893085E+01  0.13991363115E+02 -0.82544357400E+01  0.16495674372E+02  0.51100000000E-03 0. -1.
        -11    1    3    3    0    0 -0.19973114319E+01  0.77902471855E+00 -0.11811447412E+01  0.24477000692E+01  0.51100000000E-03 0.  1.
        -12    1    3    3    0    0  0.25036165496E+02 -0.19450811596E+01 -0.19158522446E+02  0.31585469852E+02  0.00000000000E+00 0.  1.
</event>
<event>
 7    1  0.5373252E-013  0.5052886E+02  0.7816164E-02  0.1300439E+00
        -11   -1    0    0    0    0  0.00000000000E+00  0.00000000000E+00  0.45593999997E+02  0.45594000000E+02  0.51100000000E-03 0.  1.
         11   -1    0    0    0    0 -0.00000000000E+00 -0.00000000000E+00 -0.45593999997E+02  0.45594000000E+02  0.51100000000E-03 0. -1.
    9900012    2    1    2    0    0  0.16065341466E+02  0.13062416611E+02 -0.34992056533E+02  0.50528856569E+02  0.29999990026E+02 0.  0.
        -12    1    1    2    0    0 -0.16065341466E+02 -0.13062416611E+02  0.34992056533E+02  0.40659143431E+02  0.00000000000E+00 0.  1.
         11    1    3    3    0    0 -0.33602130913E+00  0.52867082103E+01 -0.21942613659E+02  0.22573003532E+02  0.51100000000E-03 0. -1.
        -11    1    3    3    0    0  0.37667002427E+01 -0.47942075914E+01 -0.66436203537E+01  0.90172140272E+01  0.51100000000E-03 0.  1.
         12    1    3    3    0    0  0.12634662533E+02  0.12569915992E+02 -0.64058225205E+01  0.18938639009E+02  0.00000000000E+00 0. -1.
</event>
<event>
 7    1  0.5373252E-013  0.5052886E+02  0.7816164E-02  0.1300439E+00
        -11   -1    0    0    0    0  0.00000000000E+00  0.00000000000E+00  0.45593999997E+02  0.45594000000E+02  0.51100000000E-03 0.  1.
         11   -1    0    0    0    0 -0.00000000000E+00 -0.00000000000E+00 -0.45593999997E+02  0.45594000000E+02  0.51100000000E-03 0. -1.
    9900012    2    1    2    0    0  0.49044668613E+01 -0.37203116430E+02 -0.15653741178E+02  0.50528864739E+02  0.30000014860E+02 0.  0.
        -12    1    1    2    0    0 -0.49044668613E+01  0.37203116430E+02  0.15653741178E+02  0.40659135261E+02  0.00000000000E+00 0.  1.
         11    1    3    3    0    0 -0.52894156027E+01 -0.11013388047E+02  0.32617751371E+01  0.12645624184E+02  0.51100000000E-03 0. -1.
        -11    1    3    3    0    0  0.80440168922E+01 -0.65730901476E+01  0.22645349187E+00  0.10390524688E+02  0.51100000000E-03 0.  1.
         12    1    3    3    0    0  0.21498655718E+01 -0.19616638236E+02 -0.19141969807E+02  0.27492715867E+02  0.00000000000E+00 0. -1.
</event>
<event>
 7    1  0.5894295E-013  0.5052876E+02  0.7816164E-02  0.1300439E+00
        -11   -1    0    0    0    0  0.00000000000E+00  0.00000000000E+00  0.45593999997E+02  0.45594000000E+02  0.51100000000E-03 0. -1.
         11   -1    0    0    0    0 -0.00000000000E+00 -0.00000000000E+00 -0.45593999997E+02  0.45594000000E+02  0.51100000000E-03 0.  1.
    9900012    2    1    2    0    0  0.51355948800E+01  0.30650357369E+02  0.26217458207E+02  0.50528759273E+02  0.29999694285E+02 0.  0.
        -12    1    1    2    0    0 -0.51355948800E+01 -0.30650357369E+02 -0.26217458207E+02  0.40659240727E+02  0.00000000000E+00 0.  1.
         11    1    3    3    0    0  0.22730063430E+01  0.57476400941E+01  0.19857095903E+02  0.20796782983E+02  0.51100000000E-03 0. -1.
        -11    1    3    3    0    0 -0.40599462516E+01  0.13934138778E+02  0.81394499862E+01  0.16640133214E+02  0.51100000000E-03 0.  1.
        -12    1    3    3    0    0  0.69225347886E+01  0.10968578498E+02 -0.17790876819E+01  0.13091843076E+02  0.00000000000E+00 0.  1.
</event>
<event>
 7    1  0.5373252E-013  0.5052886E+02  0.7816164E-02  0.1300439E+00
        -11   -1    0    0    0    0  0.00000000000E+00  0.00000000000E+00  0.45593999997E+02  0.45594000000E+02  0.51100000000E-03 0. -1.
         11   -1    0    0    0    0 -0.00000000000E+00 -0.00000000000E+00 -0.45593999997E+02  0.45594000000E+02  0.51100000000E-03 0.  1.
    9900012    2    1    2    0    0 -0.34414137338E-01  0.30580660192E+02 -0.26795292305E+02  0.50528860168E+02  0.30000000968E+02 0.  0.
        -12    1    1    2    0    0  0.34414137338E-01 -0.30580660192E+02  0.26795292305E+02  0.40659139832E+02  0.00000000000E+00 0.  1.
         11    1    3    3    0    0  0.18450897579E+01  0.34832654151E+01  0.38883790062E+01  0.55368750866E+01  0.51100000000E-03 0. -1.
        -11    1    3    3    0    0 -0.53566221252E+01  0.11252432090E+02 -0.24765112401E+02  0.27724022454E+02  0.51100000000E-03 0.  1.
         12    1    3    3    0    0  0.34771182299E+01  0.15844962688E+02 -0.59185589102E+01  0.17267962628E+02  0.00000000000E+00 0. -1.
</event>
<event>
 7    1  0.5373252E-013  0.5052887E+02  0.7816164E-02  0.1300439E+00
        -11   -1    0    0    0    0  0.00000000000E+00  0.00000000000E+00  0.45593999997E+02  0.45594000000E+02  0.51100000000E-03 0.  1.
         11   -1    0    0    0    0 -0.00000000000E+00 -0.00000000000E+00 -0.45593999997E+02  0.45594000000E+02  0.51100000000E-03 0. -1.
    9900012    2    1    2    0    0 -0.27899508019E+02  0.97098593542E+01 -0.27937453008E+02  0.50528865762E+02  0.30000017970E+02 0.  0.
        -12    1    1    2    0    0  0.27899508019E+02 -0.97098593542E+01  0.27937453008E+02  0.40659134238E+02  0.00000000000E+00 0.  1.
         11    1    3    3    0    0 -0.21244236151E+01  0.39733641462E+01  0.31303150929E+01  0.54863167222E+01  0.51100000000E-03 0. -1.
        -11    1    3    3    0    0 -0.27955454869E+01 -0.53881833134E+01 -0.11020291000E+02  0.12581510560E+02  0.51100000000E-03 0.  1.
         12    1    3    3    0    0 -0.22979538917E+02  0.11124678521E+02 -0.20047477101E+02  0.32461038480E+02  0.00000000000E+00 0. -1.
</event>
<event>
 7    1  0.5373252E-013  0.5052888E+02  0.7816164E-02  0.1300439E+00
        -11   -1    0    0    0    0  0.00000000000E+00  0.00000000000E+00  0.45593999997E+02  0.45594000000E+02  0.51100000000E-03 0. -1.
         11   -1    0    0    0    0 -0.00000000000E+00 -0.00000000000E+00 -0.45593999997E+02  0.45594000000E+02  0.51100000000E-03 0.  1.
    9900012    2    1    2    0    0  0.10165893984E+02 -0.14521564780E+01  0.39340938953E+02  0.50528884950E+02  0.30000076294E+02 0.  0.
        -12    1    1    2    0    0 -0.10165893984E+02  0.14521564780E+01 -0.39340938953E+02  0.40659115050E+02  0.00000000000E+00 0.  1.
         11    1    3    3    0    0  0.54837720673E+01  0.43125076113E+01  0.49379083644E+01  0.85470706830E+01  0.51100000000E-03 0. -1.
        -11    1    3    3    0    0  0.13085635535E+01 -0.50059903292E+01 -0.19018407594E+01  0.55126469400E+01  0.51100000000E-03 0.  1.
         12    1    3    3    0    0  0.33735583633E+01 -0.75867376009E+00  0.36304871348E+02  0.36469167327E+02  0.00000000000E+00 0. -1.
</event>
<event>
 7    1  0.5373252E-013  0.5052886E+02  0.7816164E-02  0.1300439E+00
        -11   -1    0    0    0    0  0.00000000000E+00  0.00000000000E+00  0.45593999997E+02  0.45594000000E+02  0.51100000000E-03 0. -1.
         11   -1    0    0    0    0 -0.00000000000E+00 -0.00000000000E+00 -0.45593999997E+02  0.45594000000E+02  0.51100000000E-03 0.  1.
    9900012    2    1    2    0    0 -0.35106709133E+02 -0.96706582411E+01  0.18087649297E+02  0.50528859404E+02  0.29999998643E+02 0.  0.
        -12    1    1    2    0    0  0.35106709133E+02  0.96706582411E+01 -0.18087649297E+02  0.40659140596E+02  0.00000000000E+00 0.  1.
         11    1    3    3    0    0 -0.82838684457E+01  0.16936391152E+01  0.14387235400E+00  0.84564525301E+01  0.51100000000E-03 0. -1.
        -11    1    3    3    0    0 -0.19834708315E+01 -0.93369181616E+01 -0.24670775417E+01  0.98589385409E+01  0.51100000000E-03 0.  1.
         12    1    3    3    0    0 -0.24839369856E+02 -0.20273791947E+01  0.20410854485E+02  0.32213468333E+02  0.00000000000E+00 0. -1.
</event>
<event>
 7    1  0.5373252E-013  0.5052886E+02  0.7816164E-02  0.1300439E+00
        -11   -1    0    0    0    0  0.00000000000E+00  0.00000000000E+00  0.45593999997E+02  0.45594000000E+02  0.51100000000E-03 0. -1.
         11   -1    0    0    0    0 -0.00000000000E+00 -0.00000000000E+00 -0.45593999997E+02  0.45594000000E+02  0.51100000000E-03 0.  1.
    9900012    2    1    2    0    0  0.17257611226E+02  0.35783392571E+02  0.86538623876E+01  0.50528860027E+02  0.30000000537E+02 0.  0.
        -12    1    1    2    0    0 -0.17257611226E+02 -0.35783392571E+02 -0.86538623876E+01  0.40659139973E+02  0.00000000000E+00 0.  1.
         11    1    3    3    0    0  0.37450197034E+01  0.14271335164E+01  0.13162604136E+01  0.42183437970E+01  0.51100000000E-03 0. -1.
        -11    1    3    3    0    0 -0.82356282587E+01  0.77579224977E+01  0.27897823155E+01  0.11653060539E+02  0.51100000000E-03 0.  1.
        -12    1    3    3    0    0  0.21748219782E+02  0.26598336557E+02  0.45478196584E+01  0.34657455691E+02  0.00000000000E+00 0.  1.
</event>
<event>
 7    1  0.5373252E-013  0.5052886E+02  0.7816164E-02  0.1300439E+00
        -11   -1    0    0    0    0  0.00000000000E+00  0.00000000000E+00  0.45593999997E+02  0.45594000000E+02  0.51100000000E-03 0.  1.
         11   -1    0    0    0    0 -0.00000000000E+00 -0.00000000000E+00 -0.45593999997E+02  0.45594000000E+02  0.51100000000E-03 0. -1.
    9900012    2    1    2    0    0  0.35460090994E+01 -0.12063350067E+02 -0.38666099724E+02  0.50528857569E+02  0.29999993066E+02 0.  0.
        -12    1    1    2    0    0 -0.35460090994E+01  0.12063350067E+02  0.38666099724E+02  0.40659142431E+02  0.00000000000E+00 0.  1.
         11    1    3    3    0    0 -0.50331257085E+01  0.18340944241E+01 -0.12820991563E+02  0.13895109991E+02  0.51100000000E-03 0. -1.
        -11    1    3    3    0    0  0.88303818437E+01  0.19113600431E+01 -0.45642738447E+01  0.10122328621E+02  0.51100000000E-03 0.  1.
        -12    1    3    3    0    0 -0.25124703582E+00 -0.15808804534E+02 -0.21280834317E+02  0.26511418956E+02  0.00000000000E+00 0.  1.
</event>
<event>
 7    1  0.7390144E-013  0.5052886E+02  0.7816164E-02  0.1300439E+00
        -11   -1    0    0    0    0  0.00000000000E+00  0.00000000000E+00  0.45593999997E+02  0.45594000000E+02  0.51100000000E-03 0.  1.
         11   -1    0    0    0    0 -0.00000000000E+00 -0.00000000000E+00 -0.45593999997E+02  0.45594000000E+02  0.51100000000E-03 0. -1.
    9900012    2    1    2    0    0 -0.37020335530E+02  0.18629297521E+01  0.16708978684E+02  0.50528859347E+02  0.29999998471E+02 0.  0.
        -12    1    1    2    0    0  0.37020335530E+02 -0.18629297521E+01 -0.16708978684E+02  0.40659140653E+02  0.00000000000E+00 0.  1.
         11    1    3    3    0    0 -0.16089489144E+02 -0.52255566792E+01  0.90617446028E+01  0.19190969726E+02  0.51100000000E-03 0. -1.
        -11    1    3    3    0    0 -0.15722463580E+02  0.80654346906E+01  0.14371216952E+02  0.22776720016E+02  0.51100000000E-03 0.  1.
        -12    1    3    3    0    0 -0.52083828053E+01 -0.97694825938E+00 -0.67239828703E+01  0.85611696040E+01  0.00000000000E+00 0.  1.
</event>
<event>
 7    1  0.5373252E-013  0.5052882E+02  0.7816164E-02  0.1300439E+00
        -11   -1    0    0    0    0  0.00000000000E+00  0.00000000000E+00  0.45593999997E+02  0.45594000000E+02  0.51100000000E-03 0.  1.
         11   -1    0    0    0    0 -0.00000000000E+00 -0.00000000000E+00 -0.45593999997E+02  0.45594000000E+02  0.51100000000E-03 0. -1.
    9900012    2    1    2    0    0  0.23489920490E+02  0.30879685079E+02 -0.12158837739E+02  0.50528823294E+02  0.29999888885E+02 0.  0.
        -12    1    1    2    0    0 -0.23489920490E+02 -0.30879685079E+02  0.12158837739E+02  0.40659176706E+02  0.00000000000E+00 0.  1.
         11    1    3    3    0    0 -0.15985798673E+01  0.11831335553E+02 -0.71362959733E+01  0.13909086205E+02  0.51100000000E-03 0. -1.
        -11    1    3    3    0    0  0.20035145482E+00  0.46418845165E+01  0.43592299103E+01  0.63710374541E+01  0.51100000000E-03 0.  1.
         12    1    3    3    0    0  0.24888148902E+02  0.14406465009E+02 -0.93817716763E+01  0.30248699635E+02  0.00000000000E+00 0. -1.
</event>
<event>
 7    1  0.5373252E-013  0.5052886E+02  0.7816164E-02  0.1300439E+00
        -11   -1    0    0    0    0  0.00000000000E+00  0.00000000000E+00  0.45593999997E+02  0.45594000000E+02  0.51100000000E-03 0.  1.
         11   -1    0    0    0    0 -0.00000000000E+00 -0.00000000000E+00 -0.45593999997E+02  0.45594000000E+02  0.51100000000E-03 0. -1.
    9900012    2    1    2    0    0 -0.28871882760E+01 -0.27680821328E+02 -0.29641217200E+02  0.50528862249E+02  0.30000007293E+02 0.  0.
        -12    1    1    2    0    0  0.28871882760E+01  0.27680821328E+02  0.29641217200E+02  0.40659137751E+02  0.00000000000E+00 0.  1.
         11    1    3    3    0    0 -0.46218586102E+01 -0.72432271704E+01  0.27011057780E+01  0.90067690955E+01  0.51100000000E-03 0. -1.
        -11    1    3    3    0    0 -0.47911017032E+00 -0.18992720686E+02 -0.15629564973E+02  0.24601550502E+02  0.51100000000E-03 0.  1.
         12    1    3    3    0    0  0.22137805045E+01 -0.14448734712E+01 -0.16712758005E+02  0.16920542651E+02  0.00000000000E+00 0. -1.
</event>
<event>
 7    1  0.5373252E-013  0.5052886E+02  0.7816164E-02  0.1300439E+00
        -11   -1    0    0    0    0  0.00000000000E+00  0.00000000000E+00  0.45593999997E+02  0.45594000000E+02  0.51100000000E-03 0.  1.
         11   -1    0    0    0    0 -0.00000000000E+00 -0.00000000000E+00 -0.45593999997E+02  0.45594000000E+02  0.51100000000E-03 0. -1.
    9900012    2    1    2    0    0 -0.50578698801E+01  0.28895007933E+02 -0.28154257307E+02  0.50528859137E+02  0.29999997833E+02 0.  0.
        -12    1    1    2    0    0  0.50578698801E+01 -0.28895007933E+02  0.28154257307E+02  0.40659140863E+02  0.00000000000E+00 0.  1.
         11    1    3    3    0    0  0.82662030473E+01  0.78974264722E+01 -0.60162078401E+01  0.12918754380E+02  0.51100000000E-03 0. -1.
        -11    1    3    3    0    0  0.19026058020E+01  0.25415691241E+01  0.18951245538E+01  0.36974288074E+01  0.51100000000E-03 0.  1.
        -12    1    3    3    0    0 -0.15226678729E+02  0.18456012337E+02 -0.24033174021E+02  0.33912675949E+02  0.00000000000E+00 0.  1.
</event>
<event>
 7    1  0.5373252E-013  0.5052886E+02  0.7816164E-02  0.1300439E+00
        -11   -1    0    0    0    0  0.00000000000E+00  0.00000000000E+00  0.45593999997E+02  0.45594000000E+02  0.51100000000E-03 0.  1.
         11   -1    0    0    0    0 -0.00000000000E+00 -0.00000000000E+00 -0.45593999997E+02  0.45594000000E+02  0.51100000000E-03 0. -1.
    9900012    2    1    2    0    0 -0.45579339414E+01  0.18204265846E+02 -0.36069319759E+02  0.50528857305E+02  0.29999992266E+02 0.  0.
        -12    1    1    2    0    0  0.45579339414E+01 -0.18204265846E+02  0.36069319759E+02  0.40659142695E+02  0.00000000000E+00 0.  1.
         11    1    3    3    0    0 -0.14780183493E+01  0.73684464932E+01  0.17422713960E-01  0.75152408994E+01  0.51100000000E-03 0. -1.
        -11    1    3    3    0    0 -0.46676822868E+01 -0.31728824678E+01 -0.17720883345E+01  0.59156350810E+01  0.51100000000E-03 0.  1.
         12    1    3    3    0    0  0.15877666946E+01  0.14008701820E+02 -0.34314654138E+02  0.37097981325E+02  0.00000000000E+00 0. -1.
</event>
<event>
 7    1  0.5373252E-013  0.5052889E+02  0.7816164E-02  0.1300439E+00
        -11   -1    0    0    0    0  0.00000000000E+00  0.00000000000E+00  0.45593999997E+02  0.45594000000E+02  0.51100000000E-03 0.  1.
         11   -1    0    0    0    0 -0.00000000000E+00 -0.00000000000E+00 -0.45593999997E+02  0.45594000000E+02  0.51100000000E-03 0. -1.
    9900012    2    1    2    0    0 -0.76049289504E+01  0.39918968705E+02  0.13430618294E+01  0.50528894969E+02  0.30000106749E+02 0.  0.
        -12    1    1    2    0    0  0.76049289504E+01 -0.39918968705E+02 -0.13430618294E+01  0.40659105031E+02  0.00000000000E+00 0.  1.
         11    1    3    3    0    0 -0.24558032995E+01  0.16631685443E+02 -0.53158305412E+00  0.16820419475E+02  0.51100000000E-03 0. -1.
        -11    1    3    3    0    0  0.50344697218E+01  0.52989347571E+01  0.92249389904E+01  0.11769625932E+02  0.51100000000E-03 0.  1.
         12    1    3    3    0    0 -0.10183595373E+02  0.17988348505E+02 -0.73502941069E+01  0.21938849562E+02  0.00000000000E+00 0. -1.
</event>
<event>
 7    1  0.5373252E-013  0.5052886E+02  0.7816164E-02  0.1300439E+00
        -11   -1    0    0    0    0  0.00000000000E+00  0.00000000000E+00  0.45593999997E+02  0.45594000000E+02  0.51100000000E-03 0.  1.
         11   -1    0    0    0    0 -0.00000000000E+00 -0.00000000000E+00 -0.45593999997E+02  0.45594000000E+02  0.51100000000E-03 0. -1.
    9900012    2    1    2    0    0 -0.44990822382E+01  0.14278103440E+02 -0.37802904264E+02  0.50528861425E+02  0.30000004788E+02 0.  0.
        -12    1    1    2    0    0  0.44990822382E+01 -0.14278103440E+02  0.37802904264E+02  0.40659138575E+02  0.00000000000E+00 0.  1.
         11    1    3    3    0    0  0.56468055883E+01  0.80936836067E+01 -0.12628274349E+02  0.16027084606E+02  0.51100000000E-03 0. -1.
        -11    1    3    3    0    0  0.10073110187E+01 -0.19714295206E-01  0.32182974114E+01  0.33723141359E+01  0.51100000000E-03 0.  1.
        -12    1    3    3    0    0 -0.11153198845E+02  0.62041341283E+01 -0.28392927326E+02  0.31129462683E+02  0.00000000000E+00 0.  1.
</event>
<event>
 7    1  0.5373252E-013  0.5052882E+02  0.7816164E-02  0.1300439E+00
        -11   -1    0    0    0    0  0.00000000000E+00  0.00000000000E+00  0.45593999997E+02  0.45594000000E+02  0.51100000000E-03 0. -1.
         11   -1    0    0    0    0 -0.00000000000E+00 -0.00000000000E+00 -0.45593999997E+02  0.45594000000E+02  0.51100000000E-03 0.  1.
    9900012    2    1    2    0    0 -0.31574100899E+02  0.34911396602E+01  0.25378271149E+02  0.50528824526E+02  0.29999892629E+02 0.  0.
        -12    1    1    2    0    0  0.31574100899E+02 -0.34911396602E+01 -0.25378271149E+02  0.40659175474E+02  0.00000000000E+00 0.  1.
         11    1    3    3    0    0 -0.15314795957E+02  0.22388960027E+01  0.30650737863E+01  0.15778159211E+02  0.51100000000E-03 0. -1.
        -11    1    3    3    0    0  0.19599267853E+01  0.36654810311E+01 -0.17177775285E+01  0.44975353353E+01  0.51100000000E-03 0.  1.
         12    1    3    3    0    0 -0.18219231727E+02 -0.24132373736E+01  0.24030974892E+02  0.30253129980E+02  0.00000000000E+00 0. -1.
</event>
<event>
 7    1  0.5373252E-013  0.5052883E+02  0.7816164E-02  0.1300439E+00
        -11   -1    0    0    0    0  0.00000000000E+00  0.00000000000E+00  0.45593999997E+02  0.45594000000E+02  0.51100000000E-03 0.  1.
         11   -1    0    0    0    0 -0.00000000000E+00 -0.00000000000E+00 -0.45593999997E+02  0.45594000000E+02  0.51100000000E-03 0. -1.
    9900012    2    1    2    0    0  0.23783759256E+02  0.16009964713E+02  0.28830226682E+02  0.50528829509E+02  0.29999907776E+02 0.  0.
        -12    1    1    2    0    0 -0.23783759256E+02 -0.16009964713E+02 -0.28830226682E+02  0.40659170491E+02  0.00000000000E+00 0.  1.
         11    1    3    3    0    0  0.16715645246E+02  0.30344384097E+01  0.37100239519E+01  0.17389217649E+02  0.51100000000E-03 0. -1.
        -11    1    3    3    0    0  0.10882114579E+02  0.12047276703E+02  0.14317949157E+02  0.21646269009E+02  0.51100000000E-03 0.  1.
         12    1    3    3    0    0 -0.38140005682E+01  0.92824960013E+00  0.10802253573E+02  0.11493342852E+02  0.00000000000E+00 0. -1.
</event>
<event>
 7    1  0.5373252E-013  0.5052886E+02  0.7816164E-02  0.1300439E+00
        -11   -1    0    0    0    0  0.00000000000E+00  0.00000000000E+00  0.45593999997E+02  0.45594000000E+02  0.51100000000E-03 0.  1.
         11   -1    0    0    0    0 -0.00000000000E+00 -0.00000000000E+00 -0.45593999997E+02  0.45594000000E+02  0.51100000000E-03 0. -1.
    9900012    2    1    2    0    0  0.97723279000E+01 -0.38713761540E+02 -0.76754187907E+01  0.50528858608E+02  0.29999996225E+02 0.  0.
        -12    1    1    2    0    0 -0.97723279000E+01  0.38713761540E+02  0.76754187907E+01  0.40659141392E+02  0.00000000000E+00 0.  1.
         11    1    3    3    0    0  0.58641658779E+01 -0.31449327555E+01  0.15100812891E+01  0.68234440893E+01  0.51100000000E-03 0. -1.
        -11    1    3    3    0    0  0.44683496871E+01  0.18005801315E+00  0.35936356502E+01  0.57369667301E+01  0.51100000000E-03 0.  1.
         12    1    3    3    0    0 -0.56018766492E+00 -0.35748886797E+02 -0.12779135730E+02  0.37968447789E+02  0.00000000000E+00 0. -1.
</event>
<event>
 7    1  0.5373252E-013  0.5052886E+02  0.7816164E-02  0.1300439E+00
        -11   -1    0    0    0    0  0.00000000000E+00  0.00000000000E+00  0.45593999997E+02  0.45594000000E+02  0.51100000000E-03 0.  1.
         11   -1    0    0    0    0 -0.00000000000E+00 -0.00000000000E+00 -0.45593999997E+02  0.45594000000E+02  0.51100000000E-03 0. -1.
    9900012    2    1    2    0    0  0.13397442989E+02  0.35629217852E+02 -0.14291013497E+02  0.50528859451E+02  0.29999998789E+02 0.  0.
        -12    1    1    2    0    0 -0.13397442989E+02 -0.35629217852E+02  0.14291013497E+02  0.40659140549E+02  0.00000000000E+00 0.  1.
         11    1    3    3    0    0  0.89480444302E+01  0.19090876719E+02  0.38589561816E+01  0.21434099377E+02  0.51100000000E-03 0. -1.
        -11    1    3    3    0    0  0.57640322952E+01  0.16125556657E+02 -0.80876341914E+01  0.18938518234E+02  0.51100000000E-03 0.  1.
        -12    1    3    3    0    0 -0.13146337365E+01  0.41278447580E+00 -0.10062335487E+02  0.10156241841E+02  0.00000000000E+00 0.  1.
</event>
<event>
 7    1  0.5373252E-013  0.5052884E+02  0.7816164E-02  0.1300439E+00
        -11   -1    0    0    0    0  0.00000000000E+00  0.00000000000E+00  0.45593999997E+02  0.45594000000E+02  0.51100000000E-03 0.  1.
         11   -1    0    0    0    0 -0.00000000000E+00 -0.00000000000E+00 -0.45593999997E+02  0.45594000000E+02  0.51100000000E-03 0. -1.
    9900012    2    1    2    0    0  0.14168815008E+01 -0.16523804720E+02 -0.37123085630E+02  0.50528841594E+02  0.29999944509E+02 0.  0.
        -12    1    1    2    0    0 -0.14168815008E+01  0.16523804720E+02  0.37123085630E+02  0.40659158406E+02  0.00000000000E+00 0.  1.
         11    1    3    3    0    0  0.25368609742E+01  0.33983339146E+01  0.16218070652E+01  0.45403298795E+01  0.51100000000E-03 0. -1.
        -11    1    3    3    0    0 -0.31020405093E+01 -0.25698838651E+01 -0.64933523882E+00  0.40802689758E+01  0.51100000000E-03 0.  1.
         12    1    3    3    0    0  0.19820610359E+01 -0.17352254770E+02 -0.38095557456E+02  0.41908242739E+02  0.00000000000E+00 0. -1.
</event>
<event>
 7    1  0.5373252E-013  0.5052884E+02  0.7816164E-02  0.1300439E+00
        -11   -1    0    0    0    0  0.00000000000E+00  0.00000000000E+00  0.45593999997E+02  0.45594000000E+02  0.51100000000E-03 0. -1.
         11   -1    0    0    0    0 -0.00000000000E+00 -0.00000000000E+00 -0.45593999997E+02  0.45594000000E+02  0.51100000000E-03 0.  1.
    9900012    2    1    2    0    0 -0.19789217978E+02 -0.33709397906E+02  0.11190655608E+02  0.50528838323E+02  0.29999934567E+02 0.  0.
        -12    1    1    2    0    0  0.19789217978E+02  0.33709397906E+02 -0.11190655608E+02  0.40659161677E+02  0.00000000000E+00 0.  1.
         11    1    3    3    0    0 -0.18562627832E+01  0.34745711027E+01  0.18488120114E+01  0.43516045297E+01  0.51100000000E-03 0. -1.
        -11    1    3    3    0    0  0.31115171075E+01 -0.70280388387E+01 -0.15174547887E+01  0.78343817832E+01  0.51100000000E-03 0.  1.
         12    1    3    3    0    0 -0.21044472302E+02 -0.30155930170E+02  0.10859298385E+02  0.38342852010E+02  0.00000000000E+00 0. -1.
</event>
<event>
 7    1  0.5373252E-013  0.5052886E+02  0.7816164E-02  0.1300439E+00
        -11   -1    0    0    0    0  0.00000000000E+00  0.00000000000E+00  0.45593999997E+02  0.45594000000E+02  0.51100000000E-03 0. -1.
         11   -1    0    0    0    0 -0.00000000000E+00 -0.00000000000E+00 -0.45593999997E+02  0.45594000000E+02  0.51100000000E-03 0.  1.
    9900012    2    1    2    0    0 -0.12234113082E+02 -0.38527558050E+02  0.43725365523E+01  0.50528864150E+02  0.30000013070E+02 0.  0.
        -12    1    1    2    0    0  0.12234113082E+02  0.38527558050E+02 -0.43725365523E+01  0.40659135850E+02  0.00000000000E+00 0.  1.
         11    1    3    3    0    0 -0.42211937155E+01 -0.10587735285E+02 -0.72994841380E+01  0.13535179488E+02  0.51100000000E-03 0. -1.
        -11    1    3    3    0    0 -0.37141042608E+01  0.21682031784E+01 -0.29466806042E+00  0.43107429766E+01  0.51100000000E-03 0.  1.
         12    1    3    3    0    0 -0.42988151056E+01 -0.30108025944E+02  0.11966688751E+02  0.32682941685E+02  0.00000000000E+00 0. -1.
</event>
<event>
 7    1  0.5373252E-013  0.5052883E+02  0.7816164E-02  0.1300439E+00
        -11   -1    0    0    0    0  0.00000000000E+00  0.00000000000E+00  0.45593999997E+02  0.45594000000E+02  0.51100000000E-03 0. -1.
         11   -1    0    0    0    0 -0.00000000000E+00 -0.00000000000E+00 -0.45593999997E+02  0.45594000000E+02  0.51100000000E-03 0.  1.
    9900012    2    1    2    0    0 -0.38702642843E+02  0.11334222599E+02  0.51777092249E+01  0.50528833287E+02  0.29999919259E+02 0.  0.
        -12    1    1    2    0    0  0.38702642843E+02 -0.11334222599E+02 -0.51777092249E+01  0.40659166713E+02  0.00000000000E+00 0.  1.
         11    1    3    3    0    0 -0.29307941220E+01  0.44885765400E+01  0.84896603225E+01  0.10040478385E+02  0.51100000000E-03 0. -1.
        -11    1    3    3    0    0 -0.28344623926E+02  0.98927864584E+01  0.31452608457E+01  0.30185718403E+02  0.51100000000E-03 0.  1.
        -12    1    3    3    0    0 -0.74272247947E+01 -0.30471403990E+01 -0.64572119433E+01  0.10302636500E+02  0.00000000000E+00 0.  1.
</event>
<event>
 7    1  0.5373252E-013  0.5052886E+02  0.7816164E-02  0.1300439E+00
        -11   -1    0    0    0    0  0.00000000000E+00  0.00000000000E+00  0.45593999997E+02  0.45594000000E+02  0.51100000000E-03 0. -1.
         11   -1    0    0    0    0 -0.00000000000E+00 -0.00000000000E+00 -0.45593999997E+02  0.45594000000E+02  0.51100000000E-03 0.  1.
    9900012    2    1    2    0    0 -0.61093694723E+01 -0.15189502995E+02  0.37217202550E+02  0.50528861270E+02  0.30000004317E+02 0.  0.
        -12    1    1    2    0    0  0.61093694723E+01  0.15189502995E+02 -0.37217202550E+02  0.40659138730E+02  0.00000000000E+00 0.  1.
         11    1    3    3    0    0 -0.22206624403E+01 -0.47948317611E+01  0.19354063489E+00  0.52876470693E+01  0.51100000000E-03 0. -1.
        -11    1    3    3    0    0  0.72718907862E+01 -0.11742362396E+02  0.14255478575E+02  0.19848983347E+02  0.51100000000E-03 0.  1.
         12    1    3    3    0    0 -0.11160597818E+02  0.13476911616E+01  0.22768183340E+02  0.25392230854E+02  0.00000000000E+00 0. -1.
</event>
<event>
 7    1  0.5373252E-013  0.5052886E+02  0.7816164E-02  0.1300439E+00
        -11   -1    0    0    0    0  0.00000000000E+00  0.00000000000E+00  0.45593999997E+02  0.45594000000E+02  0.51100000000E-03 0. -1.
         11   -1    0    0    0    0 -0.00000000000E+00 -0.00000000000E+00 -0.45593999997E+02  0.45594000000E+02  0.51100000000E-03 0.  1.
    9900012    2    1    2    0    0 -0.29608610055E+02 -0.55956163375E+01  0.27298072322E+02  0.50528862478E+02  0.30000007987E+02 0.  0.
        -12    1    1    2    0    0  0.29608610055E+02  0.55956163375E+01 -0.27298072322E+02  0.40659137522E+02  0.00000000000E+00 0.  1.
         11    1    3    3    0    0 -0.42148742842E+01  0.77773306057E+01  0.27111912207E+01  0.92521670261E+01  0.51100000000E-03 0.  1.
        -11    1    3    3    0    0 -0.21638767628E+02 -0.56988666915E+01  0.10307256320E+02  0.24636413682E+02  0.51100000000E-03 0. -1.
        -12    1    3    3    0    0 -0.37549681431E+01 -0.76740802518E+01  0.14279624782E+02  0.16640281769E+02  0.00000000000E+00 0.  1.
</event>
<event>
 7    1  0.5373252E-013  0.5052885E+02  0.7816164E-02  0.1300439E+00
        -11   -1    0    0    0    0  0.00000000000E+00  0.00000000000E+00  0.45593999997E+02  0.45594000000E+02  0.51100000000E-03 0. -1.
         11   -1    0    0    0    0 -0.00000000000E+00 -0.00000000000E+00 -0.45593999997E+02  0.45594000000E+02  0.51100000000E-03 0.  1.
    9900012    2    1    2    0    0  0.24308141094E+02 -0.30758393810E+02  0.10779706390E+02  0.50528848717E+02  0.29999966160E+02 0.  0.
        -12    1    1    2    0    0 -0.24308141094E+02  0.30758393810E+02 -0.10779706390E+02  0.40659151283E+02  0.00000000000E+00 0.  1.
         11    1    3    3    0    0  0.21576325456E+02 -0.83710543063E+01 -0.24927235345E+01  0.23277157070E+02  0.51100000000E-03 0.  1.
        -11    1    3    3    0    0  0.51959878484E+01 -0.18091524728E+02  0.99827943395E+01  0.21306284045E+02  0.51100000000E-03 0. -1.
        -12    1    3    3    0    0 -0.24641722108E+01 -0.42958147755E+01  0.32896355848E+01  0.59454076018E+01  0.00000000000E+00 0.  1.
</event>
<event>
 7    1  0.5373252E-013  0.5052886E+02  0.7816164E-02  0.1300439E+00
        -11   -1    0    0    0    0  0.00000000000E+00  0.00000000000E+00  0.45593999997E+02  0.45594000000E+02  0.51100000000E-03 0.  1.
         11   -1    0    0    0    0 -0.00000000000E+00 -0.00000000000E+00 -0.45593999997E+02  0.45594000000E+02  0.51100000000E-03 0. -1.
    9900012    2    1    2    0    0  0.22652708698E+02  0.17694911973E+02 -0.28756054137E+02  0.50528858708E+02  0.29999996529E+02 0.  0.
        -12    1    1    2    0    0 -0.22652708698E+02 -0.17694911973E+02  0.28756054137E+02  0.40659141292E+02  0.00000000000E+00 0.  1.
         11    1    3    3    0    0  0.51930018926E+01 -0.11266812430E+01  0.17042556618E+01  0.55804271254E+01  0.51100000000E-03 0. -1.
        -11    1    3    3    0    0  0.20087229278E+01  0.73136173071E+01  0.14033980148E+01  0.77132024584E+01  0.51100000000E-03 0.  1.
         12    1    3    3    0    0  0.15450983878E+02  0.11507975909E+02 -0.31863707814E+02  0.37235229124E+02  0.00000000000E+00 0. -1.
</event>
<event>
 7    1  0.5373252E-013  0.5052887E+02  0.7816164E-02  0.1300439E+00
        -11   -1    0    0    0    0  0.00000000000E+00  0.00000000000E+00  0.45593999997E+02  0.45594000000E+02  0.51100000000E-03 0.  1.
         11   -1    0    0    0    0 -0.00000000000E+00 -0.00000000000E+00 -0.45593999997E+02  0.45594000000E+02  0.51100000000E-03 0. -1.
    9900012    2    1    2    0    0  0.39931015864E+02  0.14498463895E+01  0.75217619595E+01  0.50528868364E+02  0.30000025878E+02 0.  0.
        -12    1    1    2    0    0 -0.39931015864E+02 -0.14498463895E+01 -0.75217619595E+01  0.40659131636E+02  0.00000000000E+00 0.  1.
         11    1    3    3    0    0  0.11900014632E+02 -0.15302460170E+01  0.18134863719E+01  0.12134279303E+02  0.51100000000E-03 0. -1.
        -11    1    3    3    0    0  0.21221918683E+02  0.13078003321E+02  0.76193518497E+01  0.26066425270E+02  0.51100000000E-03 0.  1.
        -12    1    3    3    0    0  0.68090825481E+01 -0.10097910914E+02 -0.19110762621E+01  0.12328163791E+02  0.00000000000E+00 0.  1.
</event>
<event>
 7    1  0.6100079E-013  0.5052885E+02  0.7816164E-02  0.1300439E+00
        -11   -1    0    0    0    0  0.00000000000E+00  0.00000000000E+00  0.45593999997E+02  0.45594000000E+02  0.51100000000E-03 0.  1.
         11   -1    0    0    0    0 -0.00000000000E+00 -0.00000000000E+00 -0.45593999997E+02  0.45594000000E+02  0.51100000000E-03 0. -1.
    9900012    2    1    2    0    0 -0.22325689018E+02  0.20772687891E+02  0.26892845751E+02  0.50528854597E+02  0.29999984032E+02 0.  0.
        -12    1    1    2    0    0  0.22325689018E+02 -0.20772687891E+02 -0.26892845751E+02  0.40659145403E+02  0.00000000000E+00 0.  1.
         11    1    3    3    0    0 -0.71750711858E+01  0.18683547466E+02  0.13190086942E+02  0.23969459448E+02  0.51100000000E-03 0. -1.
        -11    1    3    3    0    0 -0.79009954263E+01  0.64146294363E+01 -0.33066721296E+00  0.10182462403E+02  0.51100000000E-03 0.  1.
        -12    1    3    3    0    0 -0.72496224059E+01 -0.43254890113E+01  0.14033426022E+02  0.16376932745E+02  0.00000000000E+00 0.  1.
</event>
<event>
 7    1  0.7267763E-013  0.5052890E+02  0.7816164E-02  0.1300439E+00
        -11   -1    0    0    0    0  0.00000000000E+00  0.00000000000E+00  0.45593999997E+02  0.45594000000E+02  0.51100000000E-03 0.  1.
         11   -1    0    0    0    0 -0.00000000000E+00 -0.00000000000E+00 -0.45593999997E+02  0.45594000000E+02  0.51100000000E-03 0. -1.
    9900012    2    1    2    0    0 -0.21047574689E+02 -0.27913759621E+02  0.20760160332E+02  0.50528897287E+02  0.30000113792E+02 0.  0.
        -12    1    1    2    0    0  0.21047574689E+02  0.27913759621E+02 -0.20760160332E+02  0.40659102713E+02  0.00000000000E+00 0.  1.
         11    1    3    3    0    0 -0.12622741654E+02 -0.16922107909E+02 -0.63126644653E+00  0.21120839011E+02  0.51100000000E-03 0. -1.
        -11    1    3    3    0    0 -0.11443036929E+02 -0.44741443712E+01  0.95623755462E+01  0.15569203202E+02  0.51100000000E-03 0.  1.
        -12    1    3    3    0    0  0.30182038941E+01 -0.65175073411E+01  0.11829051232E+02  0.13838855073E+02  0.00000000000E+00 0.  1.
</event>
<event>
 7    1  0.5373252E-013  0.5052887E+02  0.7816164E-02  0.1300439E+00
        -11   -1    0    0    0    0  0.00000000000E+00  0.00000000000E+00  0.45593999997E+02  0.45594000000E+02  0.51100000000E-03 0. -1.
         11   -1    0    0    0    0 -0.00000000000E+00 -0.00000000000E+00 -0.45593999997E+02  0.45594000000E+02  0.51100000000E-03 0.  1.
    9900012    2    1    2    0    0  0.32521861668E+02 -0.20232904144E+02  0.13642691301E+02  0.50528869139E+02  0.30000028234E+02 0.  0.
        -12    1    1    2    0    0 -0.32521861668E+02  0.20232904144E+02 -0.13642691301E+02  0.40659130861E+02  0.00000000000E+00 0.  1.
         11    1    3    3    0    0  0.32221699302E+02 -0.48285761712E+01  0.11940091685E+02  0.34700415610E+02  0.51100000000E-03 0. -1.
        -11    1    3    3    0    0 -0.95332700492E+00 -0.36952178216E+01 -0.49807141531E+00  0.38485766880E+01  0.51100000000E-03 0.  1.
        -12    1    3    3    0    0  0.12534893702E+01 -0.11709110151E+02  0.22006710315E+01  0.11979876841E+02  0.00000000000E+00 0.  1.
</event>
<event>
 7    1  0.5373252E-013  0.5052885E+02  0.7816164E-02  0.1300439E+00
        -11   -1    0    0    0    0  0.00000000000E+00  0.00000000000E+00  0.45593999997E+02  0.45594000000E+02  0.51100000000E-03 0.  1.
         11   -1    0    0    0    0 -0.00000000000E+00 -0.00000000000E+00 -0.45593999997E+02  0.45594000000E+02  0.51100000000E-03 0. -1.
    9900012    2    1    2    0    0 -0.28133615187E+02 -0.29020558383E+02 -0.44128179060E+01  0.50528854974E+02  0.29999985179E+02 0.  0.
        -12    1    1    2    0    0  0.28133615187E+02  0.29020558383E+02  0.44128179060E+01  0.40659145026E+02  0.00000000000E+00 0.  1.
         11    1    3    3    0    0 -0.13138811614E+02 -0.92909567441E+01  0.26470823558E+01  0.16308197114E+02  0.51100000000E-03 0. -1.
        -11    1    3    3    0    0 -0.15270316301E+02 -0.42194085034E+01 -0.95664239180E+01  0.18506821307E+02  0.51100000000E-03 0.  1.
        -12    1    3    3    0    0  0.27551272810E+00 -0.15510193136E+02  0.25065236561E+01  0.15713836553E+02  0.00000000000E+00 0.  1.
</event>
<event>
 7    1  0.5373252E-013  0.5052886E+02  0.7816164E-02  0.1300439E+00
        -11   -1    0    0    0    0  0.00000000000E+00  0.00000000000E+00  0.45593999997E+02  0.45594000000E+02  0.51100000000E-03 0. -1.
         11   -1    0    0    0    0 -0.00000000000E+00 -0.00000000000E+00 -0.45593999997E+02  0.45594000000E+02  0.51100000000E-03 0.  1.
    9900012    2    1    2    0    0 -0.47207756828E+01  0.40272598945E+02 -0.29996503248E+01  0.50528857720E+02  0.29999993526E+02 0.  0.
        -12    1    1    2    0    0  0.47207756828E+01 -0.40272598945E+02  0.29996503248E+01  0.40659142280E+02  0.00000000000E+00 0.  1.
         11    1    3    3    0    0  0.27984912333E+01  0.24420520710E+01  0.14709853663E+01  0.39948679214E+01  0.51100000000E-03 0. -1.
        -11    1    3    3    0    0  0.60951571258E+01  0.15134061373E+00 -0.19085023991E+01  0.63887577852E+01  0.51100000000E-03 0.  1.
         12    1    3    3    0    0 -0.13614424042E+02  0.37679206261E+02 -0.25621332920E+01  0.40145232014E+02  0.00000000000E+00 0. -1.
</event>
<event>
 7    1  0.5373252E-013  0.5052887E+02  0.7816164E-02  0.1300439E+00
        -11   -1    0    0    0    0  0.00000000000E+00  0.00000000000E+00  0.45593999997E+02  0.45594000000E+02  0.51100000000E-03 0.  1.
         11   -1    0    0    0    0 -0.00000000000E+00 -0.00000000000E+00 -0.45593999997E+02  0.45594000000E+02  0.51100000000E-03 0. -1.
    9900012    2    1    2    0    0  0.10000162523E+02 -0.30473907185E+02 -0.24990045347E+02  0.50528872660E+02  0.30000038937E+02 0.  0.
        -12    1    1    2    0    0 -0.10000162523E+02  0.30473907185E+02  0.24990045347E+02  0.40659127340E+02  0.00000000000E+00 0.  1.
         11    1    3    3    0    0 -0.17496567001E+01  0.62312898921E+00 -0.31016763554E+01  0.36152433916E+01  0.51100000000E-03 0. -1.
        -11    1    3    3    0    0 -0.29924602490E+01 -0.44713448957E+01 -0.14683068277E+02  0.15637782382E+02  0.51100000000E-03 0.  1.
         12    1    3    3    0    0  0.14742279472E+02 -0.26625691279E+02 -0.72053007139E+01  0.31275846887E+02  0.00000000000E+00 0. -1.
</event>
<event>
 7    1  0.5373252E-013  0.5052886E+02  0.7816164E-02  0.1300439E+00
        -11   -1    0    0    0    0  0.00000000000E+00  0.00000000000E+00  0.45593999997E+02  0.45594000000E+02  0.51100000000E-03 0.  1.
         11   -1    0    0    0    0 -0.00000000000E+00 -0.00000000000E+00 -0.45593999997E+02  0.45594000000E+02  0.51100000000E-03 0. -1.
    9900012    2    1    2    0    0 -0.15043344333E+02 -0.32265958412E+02 -0.19641066971E+02  0.50528858436E+02  0.29999995701E+02 0.  0.
        -12    1    1    2    0    0  0.15043344333E+02  0.32265958412E+02  0.19641066971E+02  0.40659141564E+02  0.00000000000E+00 0.  1.
         11    1    3    3    0    0 -0.99309640959E+00  0.11835776010E+01  0.41262483438E+00  0.15991735151E+01  0.51100000000E-03 0.  1.
        -11    1    3    3    0    0 -0.32223965493E+01 -0.33212933112E+02 -0.17972490276E+02  0.37901097245E+02  0.51100000000E-03 0. -1.
         12    1    3    3    0    0 -0.10827851374E+02 -0.23660290110E+00 -0.20812015297E+01  0.11028587675E+02  0.00000000000E+00 0. -1.
</event>
<event>
 7    1  0.5373252E-013  0.5052886E+02  0.7816164E-02  0.1300439E+00
        -11   -1    0    0    0    0  0.00000000000E+00  0.00000000000E+00  0.45593999997E+02  0.45594000000E+02  0.51100000000E-03 0. -1.
         11   -1    0    0    0    0 -0.00000000000E+00 -0.00000000000E+00 -0.45593999997E+02  0.45594000000E+02  0.51100000000E-03 0.  1.
    9900012    2    1    2    0    0  0.25721331306E+02 -0.29999197656E+02  0.95721786838E+01  0.50528863894E+02  0.30000012293E+02 0.  0.
        -12    1    1    2    0    0 -0.25721331306E+02  0.29999197656E+02 -0.95721786838E+01  0.40659136106E+02  0.00000000000E+00 0.  1.
         11    1    3    3    0    0  0.77197725579E+01 -0.21608459768E+01  0.20249422295E+01  0.82682848871E+01  0.51100000000E-03 0. -1.
        -11    1    3    3    0    0  0.48597320459E+01 -0.67259244327E+01 -0.91148358762E+01  0.12326203322E+02  0.51100000000E-03 0.  1.
        -12    1    3    3    0    0  0.13141826702E+02 -0.21112427246E+02  0.16662072331E+02  0.29934375685E+02  0.00000000000E+00 0.  1.
</event>
<event>
 7    1  0.5421469E-013  0.5052886E+02  0.7816164E-02  0.1300439E+00
        -11   -1    0    0    0    0  0.00000000000E+00  0.00000000000E+00  0.45593999997E+02  0.45594000000E+02  0.51100000000E-03 0.  1.
         11   -1    0    0    0    0 -0.00000000000E+00 -0.00000000000E+00 -0.45593999997E+02  0.45594000000E+02  0.51100000000E-03 0. -1.
    9900012    2    1    2    0    0 -0.35070171903E+02 -0.80052505263E+01 -0.18951635951E+02  0.50528862054E+02  0.30000006699E+02 0.  0.
        -12    1    1    2    0    0  0.35070171903E+02  0.80052505263E+01  0.18951635951E+02  0.40659137946E+02  0.00000000000E+00 0.  1.
         11    1    3    3    0    0 -0.30217973919E+02 -0.38819407715E+01 -0.10100125341E+02  0.32096852557E+02  0.51100000000E-03 0. -1.
        -11    1    3    3    0    0 -0.73587790998E+01 -0.82204640311E+01 -0.78093577092E+01  0.13517164156E+02  0.51100000000E-03 0.  1.
        -12    1    3    3    0    0  0.25065811156E+01  0.40971542763E+01 -0.10421529012E+01  0.49148453407E+01  0.00000000000E+00 0.  1.
</event>
<event>
 7    1  0.5373252E-013  0.5052886E+02  0.7816164E-02  0.1300439E+00
        -11   -1    0    0    0    0  0.00000000000E+00  0.00000000000E+00  0.45593999997E+02  0.45594000000E+02  0.51100000000E-03 0.  1.
         11   -1    0    0    0    0 -0.00000000000E+00 -0.00000000000E+00 -0.45593999997E+02  0.45594000000E+02  0.51100000000E-03 0. -1.
    9900012    2    1    2    0    0  0.18609167939E+02  0.19932300437E+02 -0.30159050019E+02  0.50528855517E+02  0.29999986829E+02 0.  0.
        -12    1    1    2    0    0 -0.18609167939E+02 -0.19932300437E+02  0.30159050019E+02  0.40659144483E+02  0.00000000000E+00 0.  1.
         11    1    3    3    0    0  0.35784799688E+01 -0.59287337062E+01 -0.35563379014E+01  0.77847891286E+01  0.51100000000E-03 0. -1.
        -11    1    3    3    0    0  0.68031318122E+01  0.39004580093E+01 -0.80946982335E+00  0.78836169867E+01  0.51100000000E-03 0.  1.
         12    1    3    3    0    0  0.82275561580E+01  0.21960576134E+02 -0.25793242294E+02  0.34860449402E+02  0.00000000000E+00 0. -1.
</event>
<event>
 7    1  0.5373252E-013  0.5052887E+02  0.7816164E-02  0.1300439E+00
        -11   -1    0    0    0    0  0.00000000000E+00  0.00000000000E+00  0.45593999997E+02  0.45594000000E+02  0.51100000000E-03 0.  1.
         11   -1    0    0    0    0 -0.00000000000E+00 -0.00000000000E+00 -0.45593999997E+02  0.45594000000E+02  0.51100000000E-03 0. -1.
    9900012    2    1    2    0    0 -0.26796098722E+02 -0.28381558757E+02 -0.11385138172E+02  0.50528866273E+02  0.30000019524E+02 0.  0.
        -12    1    1    2    0    0  0.26796098722E+02  0.28381558757E+02  0.11385138172E+02  0.40659133727E+02  0.00000000000E+00 0.  1.
         11    1    3    3    0    0  0.39636997376E+01 -0.32676273174E+01 -0.30630727195E+01  0.59808627004E+01  0.51100000000E-03 0. -1.
        -11    1    3    3    0    0 -0.13380301717E+02 -0.18181646667E+02 -0.11867871985E+02  0.25503943524E+02  0.51100000000E-03 0.  1.
        -12    1    3    3    0    0 -0.17379496742E+02 -0.69322847730E+01  0.35458065323E+01  0.19044060048E+02  0.00000000000E+00 0.  1.
</event>
<event>
 7    1  0.5373252E-013  0.5052885E+02  0.7816164E-02  0.1300439E+00
        -11   -1    0    0    0    0  0.00000000000E+00  0.00000000000E+00  0.45593999997E+02  0.45594000000E+02  0.51100000000E-03 0.  1.
         11   -1    0    0    0    0 -0.00000000000E+00 -0.00000000000E+00 -0.45593999997E+02  0.45594000000E+02  0.51100000000E-03 0. -1.
    9900012    2    1    2    0    0 -0.12368710766E+02  0.89054404505E+01 -0.37694488128E+02  0.50528852064E+02  0.29999976335E+02 0.  0.
        -12    1    1    2    0    0  0.12368710766E+02 -0.89054404505E+01  0.37694488128E+02  0.40659147936E+02  0.00000000000E+00 0.  1.
         11    1    3    3    0    0  0.29106011434E+01  0.43190542759E+01 -0.26066867761E+02  0.26582088405E+02  0.51100000000E-03 0. -1.
        -11    1    3    3    0    0 -0.41383961009E-01  0.21922513096E+01  0.22904936128E+01  0.31708105728E+01  0.51100000000E-03 0.  1.
        -12    1    3    3    0    0 -0.15237927948E+02  0.23941348651E+01 -0.13918113980E+02  0.20775953087E+02  0.00000000000E+00 0.  1.
</event>
<event>
 7    1  0.5373252E-013  0.5052886E+02  0.7816164E-02  0.1300439E+00
        -11   -1    0    0    0    0  0.00000000000E+00  0.00000000000E+00  0.45593999997E+02  0.45594000000E+02  0.51100000000E-03 0.  1.
         11   -1    0    0    0    0 -0.00000000000E+00 -0.00000000000E+00 -0.45593999997E+02  0.45594000000E+02  0.51100000000E-03 0. -1.
    9900012    2    1    2    0    0  0.37210336308E+02 -0.10264629492E+02 -0.12774741074E+02  0.50528858884E+02  0.29999997065E+02 0.  0.
        -12    1    1    2    0    0 -0.37210336308E+02  0.10264629492E+02  0.12774741074E+02  0.40659141116E+02  0.00000000000E+00 0.  1.
         11    1    3    3    0    0  0.26997874047E+02 -0.18236644883E+01 -0.12646017704E+02  0.29868590848E+02  0.51100000000E-03 0. -1.
        -11    1    3    3    0    0  0.60660243856E+01  0.17723587061E+01 -0.55186994531E+01  0.83901103178E+01  0.51100000000E-03 0.  1.
        -12    1    3    3    0    0  0.41464378753E+01 -0.10213323710E+02  0.53899760834E+01  0.12270157719E+02  0.00000000000E+00 0.  1.
</event>
<event>
 7    1  0.5373252E-013  0.5052886E+02  0.7816164E-02  0.1300439E+00
        -11   -1    0    0    0    0  0.00000000000E+00  0.00000000000E+00  0.45593999997E+02  0.45594000000E+02  0.51100000000E-03 0. -1.
         11   -1    0    0    0    0 -0.00000000000E+00 -0.00000000000E+00 -0.45593999997E+02  0.45594000000E+02  0.51100000000E-03 0.  1.
    9900012    2    1    2    0    0 -0.16365097758E+02 -0.33518061976E+02  0.16182971243E+02  0.50528862510E+02  0.30000008084E+02 0.  0.
        -12    1    1    2    0    0  0.16365097758E+02  0.33518061976E+02 -0.16182971243E+02  0.40659137490E+02  0.00000000000E+00 0.  1.
         11    1    3    3    0    0 -0.10360681726E+02 -0.26202691197E+02  0.52002859849E+01  0.28652534379E+02  0.51100000000E-03 0. -1.
        -11    1    3    3    0    0 -0.67749846557E+01 -0.39580266626E+01 -0.22821187105E+01  0.81715640007E+01  0.51100000000E-03 0.  1.
         12    1    3    3    0    0  0.77056862389E+00 -0.33573441161E+01  0.13264803969E+02  0.13704764129E+02  0.00000000000E+00 0. -1.
</event>
<event>
 7    1  0.5373252E-013  0.5052887E+02  0.7816164E-02  0.1300439E+00
        -11   -1    0    0    0    0  0.00000000000E+00  0.00000000000E+00  0.45593999997E+02  0.45594000000E+02  0.51100000000E-03 0. -1.
         11   -1    0    0    0    0 -0.00000000000E+00 -0.00000000000E+00 -0.45593999997E+02  0.45594000000E+02  0.51100000000E-03 0.  1.
    9900012    2    1    2    0    0 -0.21586708357E+02  0.19986421604E+02  0.28066380062E+02  0.50528871677E+02  0.30000035949E+02 0.  0.
        -12    1    1    2    0    0  0.21586708357E+02 -0.19986421604E+02 -0.28066380062E+02  0.40659128323E+02  0.00000000000E+00 0.  1.
         11    1    3    3    0    0  0.50775006038E+01  0.27252918310E+01  0.38616273741E+01  0.69368864906E+01  0.51100000000E-03 0. -1.
        -11    1    3    3    0    0  0.18692555434E+01  0.10665338271E+01  0.53139820669E+01  0.57332378599E+01  0.51100000000E-03 0.  1.
         12    1    3    3    0    0 -0.28533464505E+02  0.16194595946E+02  0.18890770621E+02  0.37858747326E+02  0.00000000000E+00 0. -1.
</event>
<event>
 7    1  0.5373252E-013  0.5052887E+02  0.7816164E-02  0.1300439E+00
        -11   -1    0    0    0    0  0.00000000000E+00  0.00000000000E+00  0.45593999997E+02  0.45594000000E+02  0.51100000000E-03 0.  1.
         11   -1    0    0    0    0 -0.00000000000E+00 -0.00000000000E+00 -0.45593999997E+02  0.45594000000E+02  0.51100000000E-03 0. -1.
    9900012    2    1    2    0    0 -0.22362194601E+02 -0.15828753747E+02 -0.30042431498E+02  0.50528869625E+02  0.30000029712E+02 0.  0.
        -12    1    1    2    0    0  0.22362194601E+02  0.15828753747E+02  0.30042431498E+02  0.40659130375E+02  0.00000000000E+00 0.  1.
         11    1    3    3    0    0 -0.14555926138E+02 -0.19941619179E+02 -0.16906587667E+02  0.29922831885E+02  0.51100000000E-03 0. -1.
        -11    1    3    3    0    0 -0.87162977310E+01 -0.18941114393E+01 -0.11009088522E+02  0.14169034357E+02  0.51100000000E-03 0.  1.
        -12    1    3    3    0    0  0.91002926767E+00  0.60069768713E+01 -0.21267553091E+01  0.64370033825E+01  0.00000000000E+00 0.  1.
</event>
<event>
 7    1  0.5373252E-013  0.5052887E+02  0.7816164E-02  0.1300439E+00
        -11   -1    0    0    0    0  0.00000000000E+00  0.00000000000E+00  0.45593999997E+02  0.45594000000E+02  0.51100000000E-03 0.  1.
         11   -1    0    0    0    0 -0.00000000000E+00 -0.00000000000E+00 -0.45593999997E+02  0.45594000000E+02  0.51100000000E-03 0. -1.
    9900012    2    1    2    0    0 -0.96502852849E+01 -0.22396258327E+00 -0.39496670650E+02  0.50528866244E+02  0.30000019437E+02 0.  0.
        -12    1    1    2    0    0  0.96502852849E+01  0.22396258327E+00  0.39496670650E+02  0.40659133756E+02  0.00000000000E+00 0.  1.
         11    1    3    3    0    0 -0.19745345168E+01  0.96488696631E+01 -0.27993369624E+02  0.29675380629E+02  0.51100000000E-03 0. -1.
        -11    1    3    3    0    0  0.22941876884E+00  0.21778399455E+01  0.31866897534E+00  0.22129550326E+01  0.51100000000E-03 0.  1.
        -12    1    3    3    0    0 -0.79051695369E+01 -0.12050672192E+02 -0.11821970001E+02  0.18640530583E+02  0.00000000000E+00 0.  1.
</event>
<event>
 7    1  0.5373252E-013  0.5052887E+02  0.7816164E-02  0.1300439E+00
        -11   -1    0    0    0    0  0.00000000000E+00  0.00000000000E+00  0.45593999997E+02  0.45594000000E+02  0.51100000000E-03 0. -1.
         11   -1    0    0    0    0 -0.00000000000E+00 -0.00000000000E+00 -0.45593999997E+02  0.45594000000E+02  0.51100000000E-03 0.  1.
    9900012    2    1    2    0    0  0.28441547144E+02  0.17993746119E+02  0.22813773658E+02  0.50528870990E+02  0.30000033862E+02 0.  0.
        -12    1    1    2    0    0 -0.28441547144E+02 -0.17993746119E+02 -0.22813773658E+02  0.40659129010E+02  0.00000000000E+00 0.  1.
         11    1    3    3    0    0 -0.36191984670E+01 -0.13824366237E+01  0.79240178090E+01  0.88204187577E+01  0.51100000000E-03 0. -1.
        -11    1    3    3    0    0  0.20060949289E+02  0.60390299735E+01  0.67817984513E+01  0.22020544042E+02  0.51100000000E-03 0.  1.
        -12    1    3    3    0    0  0.11999796321E+02  0.13337152770E+02  0.81079573974E+01  0.19687908190E+02  0.00000000000E+00 0.  1.
</event>
<event>
 7    1  0.5373252E-013  0.5052887E+02  0.7816164E-02  0.1300439E+00
        -11   -1    0    0    0    0  0.00000000000E+00  0.00000000000E+00  0.45593999997E+02  0.45594000000E+02  0.51100000000E-03 0.  1.
         11   -1    0    0    0    0 -0.00000000000E+00 -0.00000000000E+00 -0.45593999997E+02  0.45594000000E+02  0.51100000000E-03 0. -1.
    9900012    2    1    2    0    0 -0.31744464267E+02 -0.19643972235E+02 -0.16111109467E+02  0.50528874271E+02  0.30000043834E+02 0.  0.
        -12    1    1    2    0    0  0.31744464267E+02  0.19643972235E+02  0.16111109467E+02  0.40659125729E+02  0.00000000000E+00 0.  1.
         11    1    3    3    0    0 -0.18437692079E+02 -0.10255914961E+02 -0.13356078120E+02  0.24970324465E+02  0.51100000000E-03 0. -1.
        -11    1    3    3    0    0 -0.14768094232E+02 -0.47330755469E+01 -0.87680760221E+01  0.17815099460E+02  0.51100000000E-03 0.  1.
        -12    1    3    3    0    0  0.14613220442E+01 -0.46549817271E+01  0.60130446747E+01  0.77434503457E+01  0.00000000000E+00 0.  1.
</event>
<event>
 7    1  0.5373252E-013  0.5052885E+02  0.7816164E-02  0.1300439E+00
        -11   -1    0    0    0    0  0.00000000000E+00  0.00000000000E+00  0.45593999997E+02  0.45594000000E+02  0.51100000000E-03 0. -1.
         11   -1    0    0    0    0 -0.00000000000E+00 -0.00000000000E+00 -0.45593999997E+02  0.45594000000E+02  0.51100000000E-03 0.  1.
    9900012    2    1    2    0    0  0.35995508143E+02  0.17927702138E+02  0.60072756507E+01  0.50528850093E+02  0.29999970343E+02 0.  0.
        -12    1    1    2    0    0 -0.35995508143E+02 -0.17927702138E+02 -0.60072756507E+01  0.40659149907E+02  0.00000000000E+00 0.  1.
         11    1    3    3    0    0 -0.70648922648E+00 -0.38929883111E+01 -0.63959618509E+00  0.40079381930E+01  0.51100000000E-03 0. -1.
        -11    1    3    3    0    0  0.74529005516E+01  0.58958972240E+01 -0.56080844803E+01  0.11034398149E+02  0.51100000000E-03 0.  1.
         12    1    3    3    0    0  0.29249096818E+02  0.15924793225E+02  0.12254956316E+02  0.35486513751E+02  0.00000000000E+00 0. -1.
</event>
<event>
 7    1  0.5373252E-013  0.5052891E+02  0.7816164E-02  0.1300439E+00
        -11   -1    0    0    0    0  0.00000000000E+00  0.00000000000E+00  0.45593999997E+02  0.45594000000E+02  0.51100000000E-03 0.  1.
         11   -1    0    0    0    0 -0.00000000000E+00 -0.00000000000E+00 -0.45593999997E+02  0.45594000000E+02  0.51100000000E-03 0. -1.
    9900012    2    1    2    0    0  0.22502966832E+02 -0.12252761729E+02 -0.31569727711E+02  0.50528912529E+02  0.30000160123E+02 0.  0.
        -12    1    1    2    0    0 -0.22502966832E+02  0.12252761729E+02  0.31569727711E+02  0.40659087471E+02  0.00000000000E+00 0.  1.
         11    1    3    3    0    0  0.22580622826E+01 -0.60826300307E+01 -0.69926903055E+01  0.95391273884E+01  0.51100000000E-03 0. -1.
        -11    1    3    3    0    0  0.17235873677E+02 -0.10117881214E+02 -0.47392094202E+01  0.20540374093E+02  0.51100000000E-03 0.  1.
        -12    1    3    3    0    0  0.30090308721E+01  0.39477495163E+01 -0.19837827985E+02  0.20449411048E+02  0.00000000000E+00 0.  1.
</event>
<event>
 7    1  0.5373252E-013  0.5052886E+02  0.7816164E-02  0.1300439E+00
        -11   -1    0    0    0    0  0.00000000000E+00  0.00000000000E+00  0.45593999997E+02  0.45594000000E+02  0.51100000000E-03 0.  1.
         11   -1    0    0    0    0 -0.00000000000E+00 -0.00000000000E+00 -0.45593999997E+02  0.45594000000E+02  0.51100000000E-03 0. -1.
    9900012    2    1    2    0    0 -0.63944358033E+00  0.13462021487E+02 -0.38360535146E+02  0.50528861208E+02  0.30000004128E+02 0.  0.
        -12    1    1    2    0    0  0.63944358033E+00 -0.13462021487E+02  0.38360535146E+02  0.40659138792E+02  0.00000000000E+00 0.  1.
         11    1    3    3    0    0  0.70773502414E+01  0.11939192404E+02 -0.26358777502E+02  0.29789567861E+02  0.51100000000E-03 0. -1.
        -11    1    3    3    0    0  0.35102618421E+00 -0.22158497654E+01 -0.11624813441E+02  0.11839319970E+02  0.51100000000E-03 0.  1.
        -12    1    3    3    0    0 -0.80678200059E+01  0.37386788482E+01 -0.37694420382E+00  0.88999733770E+01  0.00000000000E+00 0.  1.
</event>
<event>
 7    1  0.5373252E-013  0.5052886E+02  0.7816164E-02  0.1300439E+00
        -11   -1    0    0    0    0  0.00000000000E+00  0.00000000000E+00  0.45593999997E+02  0.45594000000E+02  0.51100000000E-03 0.  1.
         11   -1    0    0    0    0 -0.00000000000E+00 -0.00000000000E+00 -0.45593999997E+02  0.45594000000E+02  0.51100000000E-03 0. -1.
    9900012    2    1    2    0    0 -0.94059081311E+01  0.18913357444E+02 -0.34741607705E+02  0.50528861993E+02  0.30000006513E+02 0.  0.
        -12    1    1    2    0    0  0.94059081311E+01 -0.18913357444E+02  0.34741607705E+02  0.40659138007E+02  0.00000000000E+00 0.  1.
         11    1    3    3    0    0  0.25744670964E+01  0.76271305189E+00 -0.22946185512E+02  0.23102749660E+02  0.51100000000E-03 0. -1.
        -11    1    3    3    0    0 -0.39193397262E+01  0.78912696369E+01 -0.11353338116E+02  0.14371208961E+02  0.51100000000E-03 0.  1.
        -12    1    3    3    0    0 -0.80610355014E+01  0.10259374755E+02 -0.44208407729E+00  0.13054903372E+02  0.00000000000E+00 0.  1.
</event>
<event>
 7    1  0.5373252E-013  0.5052886E+02  0.7816164E-02  0.1300439E+00
        -11   -1    0    0    0    0  0.00000000000E+00  0.00000000000E+00  0.45593999997E+02  0.45594000000E+02  0.51100000000E-03 0.  1.
         11   -1    0    0    0    0 -0.00000000000E+00 -0.00000000000E+00 -0.45593999997E+02  0.45594000000E+02  0.51100000000E-03 0. -1.
    9900012    2    1    2    0    0  0.32336160650E+02  0.11033574677E+02 -0.22040841290E+02  0.50528859078E+02  0.29999997653E+02 0.  0.
        -12    1    1    2    0    0 -0.32336160650E+02 -0.11033574677E+02  0.22040841290E+02  0.40659140922E+02  0.00000000000E+00 0.  1.
         11    1    3    3    0    0  0.82806038651E+01 -0.57168343373E+01 -0.85101055131E+01  0.13178485927E+02  0.51100000000E-03 0.  1.
        -11    1    3    3    0    0  0.11345787706E+02  0.10377599589E+00 -0.11745032234E+02  0.16330445510E+02  0.51100000000E-03 0. -1.
        -12    1    3    3    0    0  0.12709769079E+02  0.16646633019E+02 -0.17857035430E+01  0.21019927641E+02  0.00000000000E+00 0.  1.
</event>
<event>
 7    1  0.5373252E-013  0.5052891E+02  0.7816164E-02  0.1300439E+00
        -11   -1    0    0    0    0  0.00000000000E+00  0.00000000000E+00  0.45593999997E+02  0.45594000000E+02  0.51100000000E-03 0.  1.
         11   -1    0    0    0    0 -0.00000000000E+00 -0.00000000000E+00 -0.45593999997E+02  0.45594000000E+02  0.51100000000E-03 0. -1.
    9900012    2    1    2    0    0  0.22240699586E+01 -0.79452011917E+01 -0.39813174314E+02  0.50528910511E+02  0.30000153987E+02 0.  0.
        -12    1    1    2    0    0 -0.22240699586E+01  0.79452011917E+01  0.39813174314E+02  0.40659089489E+02  0.00000000000E+00 0.  1.
         11    1    3    3    0    0 -0.85142591114E+01 -0.15611026789E+01 -0.10080505230E+02  0.13287070247E+02  0.51100000000E-03 0. -1.
        -11    1    3    3    0    0 -0.15076621025E+01 -0.88683571050E+01 -0.73876790928E+01  0.11640386823E+02  0.51100000000E-03 0.  1.
         12    1    3    3    0    0  0.12245991173E+02  0.24842585922E+01 -0.22344989992E+02  0.25601453441E+02  0.00000000000E+00 0. -1.
</event>
<event>
 7    1  0.5373252E-013  0.5052886E+02  0.7816164E-02  0.1300439E+00
        -11   -1    0    0    0    0  0.00000000000E+00  0.00000000000E+00  0.45593999997E+02  0.45594000000E+02  0.51100000000E-03 0.  1.
         11   -1    0    0    0    0 -0.00000000000E+00 -0.00000000000E+00 -0.45593999997E+02  0.45594000000E+02  0.51100000000E-03 0. -1.
    9900012    2    1    2    0    0  0.40045975130E+02  0.38182852824E+01 -0.59081406746E+01  0.50528861386E+02  0.30000004669E+02 0.  0.
        -12    1    1    2    0    0 -0.40045975130E+02 -0.38182852824E+01  0.59081406746E+01  0.40659138614E+02  0.00000000000E+00 0.  1.
         11    1    3    3    0    0  0.36604513668E+02  0.10620167780E+02 -0.50325380407E+01  0.38444828312E+02  0.51100000000E-03 0. -1.
        -11    1    3    3    0    0  0.41283458865E+01  0.97756840934E+00 -0.32374824803E+00  0.42548434687E+01  0.51100000000E-03 0.  1.
        -12    1    3    3    0    0 -0.68688442433E+00 -0.77794509066E+01 -0.55185438579E+00  0.78291896058E+01  0.00000000000E+00 0.  1.
</event>
<event>
 7    1  0.5373252E-013  0.5052889E+02  0.7816164E-02  0.1300439E+00
        -11   -1    0    0    0    0  0.00000000000E+00  0.00000000000E+00  0.45593999997E+02  0.45594000000E+02  0.51100000000E-03 0.  1.
         11   -1    0    0    0    0 -0.00000000000E+00 -0.00000000000E+00 -0.45593999997E+02  0.45594000000E+02  0.51100000000E-03 0. -1.
    9900012    2    1    2    0    0  0.28088154004E+02 -0.27277164426E+02 -0.10962437952E+02  0.50528891053E+02  0.30000094845E+02 0.  0.
        -12    1    1    2    0    0 -0.28088154004E+02  0.27277164426E+02  0.10962437952E+02  0.40659108947E+02  0.00000000000E+00 0.  1.
         11    1    3    3    0    0  0.13041033159E+02 -0.47193308169E+01  0.59206478786E+00  0.13881324511E+02  0.51100000000E-03 0. -1.
        -11    1    3    3    0    0 -0.32920861013E+01  0.20182445024E+01 -0.27614415843E+01  0.47472836080E+01  0.51100000000E-03 0.  1.
        -12    1    3    3    0    0  0.18339206946E+02 -0.24576078112E+02 -0.87930611553E+01  0.31900282934E+02  0.00000000000E+00 0.  1.
</event>
<event>
 7    1  0.5373252E-013  0.5052881E+02  0.7816164E-02  0.1300439E+00
        -11   -1    0    0    0    0  0.00000000000E+00  0.00000000000E+00  0.45593999997E+02  0.45594000000E+02  0.51100000000E-03 0.  1.
         11   -1    0    0    0    0 -0.00000000000E+00 -0.00000000000E+00 -0.45593999997E+02  0.45594000000E+02  0.51100000000E-03 0. -1.
    9900012    2    1    2    0    0 -0.27013913397E+02  0.50404853372E+01 -0.29966841938E+02  0.50528811307E+02  0.29999852448E+02 0.  0.
        -12    1    1    2    0    0  0.27013913397E+02 -0.50404853372E+01  0.29966841938E+02  0.40659188693E+02  0.00000000000E+00 0.  1.
         11    1    3    3    0    0 -0.10420414294E+02  0.84663283138E+01 -0.17158905840E+02  0.21787422956E+02  0.51100000000E-03 0. -1.
        -11    1    3    3    0    0  0.42428463915E+01 -0.23580192728E+01 -0.27657148043E+01  0.55866966118E+01  0.51100000000E-03 0.  1.
         12    1    3    3    0    0 -0.20836345494E+02 -0.10678237038E+01 -0.10042221294E+02  0.23154691739E+02  0.00000000000E+00 0. -1.
</event>
<event>
 7    1  0.5373252E-013  0.5052886E+02  0.7816164E-02  0.1300439E+00
        -11   -1    0    0    0    0  0.00000000000E+00  0.00000000000E+00  0.45593999997E+02  0.45594000000E+02  0.51100000000E-03 0.  1.
         11   -1    0    0    0    0 -0.00000000000E+00 -0.00000000000E+00 -0.45593999997E+02  0.45594000000E+02  0.51100000000E-03 0. -1.
    9900012    2    1    2    0    0  0.11203913183E+02  0.38624964839E+02  0.59791467177E+01  0.50528858656E+02  0.29999996370E+02 0.  0.
        -12    1    1    2    0    0 -0.11203913183E+02 -0.38624964839E+02 -0.59791467177E+01  0.40659141344E+02  0.00000000000E+00 0.  1.
         11    1    3    3    0    0  0.65390651441E+01  0.36107633620E+02  0.34782489698E+01  0.36859446479E+02  0.51100000000E-03 0. -1.
        -11    1    3    3    0    0 -0.40747823944E+01  0.23365419074E+01  0.86003081389E+00  0.47752416597E+01  0.51100000000E-03 0.  1.
        -12    1    3    3    0    0  0.87396304332E+01  0.18078931123E+00  0.16408669341E+01  0.88941705167E+01  0.00000000000E+00 0.  1.
</event>
<event>
 7    1  0.5373252E-013  0.5052884E+02  0.7816164E-02  0.1300439E+00
        -11   -1    0    0    0    0  0.00000000000E+00  0.00000000000E+00  0.45593999997E+02  0.45594000000E+02  0.51100000000E-03 0. -1.
         11   -1    0    0    0    0 -0.00000000000E+00 -0.00000000000E+00 -0.45593999997E+02  0.45594000000E+02  0.51100000000E-03 0.  1.
    9900012    2    1    2    0    0  0.22145748022E+02 -0.31504377677E+02 -0.13046353659E+02  0.50528839752E+02  0.29999938909E+02 0.  0.
        -12    1    1    2    0    0 -0.22145748022E+02  0.31504377677E+02  0.13046353659E+02  0.40659160248E+02  0.00000000000E+00 0.  1.
         11    1    3    3    0    0  0.69017083479E+01 -0.23734236704E+02 -0.51644804114E+01  0.25251127266E+02  0.51100000000E-03 0. -1.
        -11    1    3    3    0    0 -0.17664109933E+01 -0.22514013981E+00  0.31690226034E+01  0.36350516367E+01  0.51100000000E-03 0.  1.
        -12    1    3    3    0    0  0.17010450668E+02 -0.75450008335E+01 -0.11050895851E+02  0.21642660849E+02  0.00000000000E+00 0.  1.
</event>
<event>
 7    1  0.5373252E-013  0.5052887E+02  0.7816164E-02  0.1300439E+00
        -11   -1    0    0    0    0  0.00000000000E+00  0.00000000000E+00  0.45593999997E+02  0.45594000000E+02  0.51100000000E-03 0. -1.
         11   -1    0    0    0    0 -0.00000000000E+00 -0.00000000000E+00 -0.45593999997E+02  0.45594000000E+02  0.51100000000E-03 0.  1.
    9900012    2    1    2    0    0  0.18175284370E+02  0.34670738540E+02 -0.10989248740E+02  0.50528872356E+02  0.30000038014E+02 0.  0.
        -12    1    1    2    0    0 -0.18175284370E+02 -0.34670738540E+02  0.10989248740E+02  0.40659127644E+02  0.00000000000E+00 0.  1.
         11    1    3    3    0    0  0.11498773233E+02  0.31731050669E+02 -0.60403910384E+01  0.34286552562E+02  0.51100000000E-03 0. -1.
        -11    1    3    3    0    0  0.74299701310E+01  0.65388986239E+01 -0.69136277208E+01  0.12073106472E+02  0.51100000000E-03 0.  1.
         12    1    3    3    0    0 -0.75345899368E+00 -0.35992107528E+01  0.19647700192E+01  0.41692133222E+01  0.00000000000E+00 0. -1.
</event>
<event>
 7    1  0.5373252E-013  0.5052887E+02  0.7816164E-02  0.1300439E+00
        -11   -1    0    0    0    0  0.00000000000E+00  0.00000000000E+00  0.45593999997E+02  0.45594000000E+02  0.51100000000E-03 0.  1.
         11   -1    0    0    0    0 -0.00000000000E+00 -0.00000000000E+00 -0.45593999997E+02  0.45594000000E+02  0.51100000000E-03 0. -1.
    9900012    2    1    2    0    0 -0.39220306741E+02 -0.58570881378E+01 -0.89792540280E+01  0.50528868858E+02  0.30000027381E+02 0.  0.
        -12    1    1    2    0    0  0.39220306741E+02  0.58570881378E+01  0.89792540280E+01  0.40659131142E+02  0.00000000000E+00 0.  1.
         11    1    3    3    0    0 -0.32556239355E+01  0.31460985745E+01 -0.71190973100E+01  0.84367393121E+01  0.51100000000E-03 0. -1.
        -11    1    3    3    0    0 -0.10217018650E+02 -0.80055956169E+01 -0.84598014436E+01  0.15493394463E+02  0.51100000000E-03 0.  1.
        -12    1    3    3    0    0 -0.25747664156E+02 -0.99759109535E+00  0.65996447257E+01  0.26598735083E+02  0.00000000000E+00 0.  1.
</event>
<event>
 7    1  0.5373252E-013  0.5052886E+02  0.7816164E-02  0.1300439E+00
        -11   -1    0    0    0    0  0.00000000000E+00  0.00000000000E+00  0.45593999997E+02  0.45594000000E+02  0.51100000000E-03 0.  1.
         11   -1    0    0    0    0 -0.00000000000E+00 -0.00000000000E+00 -0.45593999997E+02  0.45594000000E+02  0.51100000000E-03 0. -1.
    9900012    2    1    2    0    0  0.89970504965E+01  0.71995391444E+01 -0.38992116296E+02  0.50528863084E+02  0.30000009831E+02 0.  0.
        -12    1    1    2    0    0 -0.89970504965E+01 -0.71995391444E+01  0.38992116296E+02  0.40659136916E+02  0.00000000000E+00 0.  1.
         11    1    3    3    0    0 -0.41756966667E+01  0.17350351927E+01 -0.66564219939E+01  0.80470332294E+01  0.51100000000E-03 0. -1.
        -11    1    3    3    0    0  0.42118671505E+01  0.87241089323E+01 -0.10136201731E+01  0.97404993544E+01  0.51100000000E-03 0.  1.
         12    1    3    3    0    0  0.89608800127E+01 -0.32596049806E+01 -0.31322074129E+02  0.32741330501E+02  0.00000000000E+00 0. -1.
</event>
<event>
 7    1  0.5373252E-013  0.5052886E+02  0.7816164E-02  0.1300439E+00
        -11   -1    0    0    0    0  0.00000000000E+00  0.00000000000E+00  0.45593999997E+02  0.45594000000E+02  0.51100000000E-03 0. -1.
         11   -1    0    0    0    0 -0.00000000000E+00 -0.00000000000E+00 -0.45593999997E+02  0.45594000000E+02  0.51100000000E-03 0.  1.
    9900012    2    1    2    0    0  0.22751376463E+02 -0.30529988634E+02  0.14263961953E+02  0.50528856532E+02  0.29999989915E+02 0.  0.
        -12    1    1    2    0    0 -0.22751376463E+02  0.30529988634E+02 -0.14263961953E+02  0.40659143468E+02  0.00000000000E+00 0.  1.
         11    1    3    3    0    0  0.24504156577E+00 -0.10027222007E+02 -0.28736464240E+01  0.10433746718E+02  0.51100000000E-03 0. -1.
        -11    1    3    3    0    0  0.14148691140E+02 -0.44936301657E-01  0.66409281354E+01  0.15629760299E+02  0.51100000000E-03 0.  1.
         12    1    3    3    0    0  0.83576437577E+01 -0.20457830325E+02  0.10496680242E+02  0.24465349515E+02  0.00000000000E+00 0. -1.
</event>
<event>
 7    1  0.5373252E-013  0.5052889E+02  0.7816164E-02  0.1300439E+00
        -11   -1    0    0    0    0  0.00000000000E+00  0.00000000000E+00  0.45593999997E+02  0.45594000000E+02  0.51100000000E-03 0.  1.
         11   -1    0    0    0    0 -0.00000000000E+00 -0.00000000000E+00 -0.45593999997E+02  0.45594000000E+02  0.51100000000E-03 0. -1.
    9900012    2    1    2    0    0  0.91896149846E+01  0.20766109745E+02 -0.33726589767E+02  0.50528890383E+02  0.30000092809E+02 0.  0.
        -12    1    1    2    0    0 -0.91896149846E+01 -0.20766109745E+02  0.33726589767E+02  0.40659109617E+02  0.00000000000E+00 0.  1.
         11    1    3    3    0    0  0.16312799741E+01 -0.13653322942E+01 -0.29271989815E+01  0.36185219034E+01  0.51100000000E-03 0. -1.
        -11    1    3    3    0    0 -0.16884151265E+00  0.10300645185E+02  0.26168697714E+01  0.10629195940E+02  0.51100000000E-03 0.  1.
         12    1    3    3    0    0  0.77271765231E+01  0.11830796855E+02 -0.33416260557E+02  0.36281172539E+02  0.00000000000E+00 0. -1.
</event>
<event>
 7    1  0.5373252E-013  0.5052886E+02  0.7816164E-02  0.1300439E+00
        -11   -1    0    0    0    0  0.00000000000E+00  0.00000000000E+00  0.45593999997E+02  0.45594000000E+02  0.51100000000E-03 0. -1.
         11   -1    0    0    0    0 -0.00000000000E+00 -0.00000000000E+00 -0.45593999997E+02  0.45594000000E+02  0.51100000000E-03 0.  1.
    9900012    2    1    2    0    0 -0.30287950066E+02  0.20984922309E+01  0.27044439194E+02  0.50528864739E+02  0.30000014860E+02 0.  0.
        -12    1    1    2    0    0  0.30287950066E+02 -0.20984922309E+01 -0.27044439194E+02  0.40659135261E+02  0.00000000000E+00 0.  1.
         11    1    3    3    0    0 -0.23497878593E+02 -0.40334089534E+01  0.90616883884E+01  0.25505546119E+02  0.51100000000E-03 0. -1.
        -11    1    3    3    0    0  0.16189587425E+01  0.24013010642E+01 -0.16564184247E+01  0.33363148037E+01  0.51100000000E-03 0.  1.
        -12    1    3    3    0    0 -0.84090302158E+01  0.37306001201E+01  0.19639169231E+02  0.21687003816E+02  0.00000000000E+00 0.  1.
</event>
<event>
 7    1  0.5373252E-013  0.5052886E+02  0.7816164E-02  0.1300439E+00
        -11   -1    0    0    0    0  0.00000000000E+00  0.00000000000E+00  0.45593999997E+02  0.45594000000E+02  0.51100000000E-03 0.  1.
         11   -1    0    0    0    0 -0.00000000000E+00 -0.00000000000E+00 -0.45593999997E+02  0.45594000000E+02  0.51100000000E-03 0. -1.
    9900012    2    1    2    0    0  0.14548577883E+02  0.35483416033E+02 -0.13506717658E+02  0.50528863835E+02  0.30000012113E+02 0.  0.
        -12    1    1    2    0    0 -0.14548577883E+02 -0.35483416033E+02  0.13506717658E+02  0.40659136165E+02  0.00000000000E+00 0.  1.
         11    1    3    3    0    0  0.44920484146E+01  0.30158320470E+01 -0.53243683382E+01  0.75909578023E+01  0.51100000000E-03 0. -1.
        -11    1    3    3    0    0  0.12322612007E+02  0.10678524734E+02  0.53829964554E+01  0.17171322263E+02  0.51100000000E-03 0.  1.
        -12    1    3    3    0    0 -0.22660825382E+01  0.21789059252E+02 -0.13565345775E+02  0.25766583770E+02  0.00000000000E+00 0.  1.
</event>
<event>
 7    1  0.5373252E-013  0.5052888E+02  0.7816164E-02  0.1300439E+00
        -11   -1    0    0    0    0  0.00000000000E+00  0.00000000000E+00  0.45593999997E+02  0.45594000000E+02  0.51100000000E-03 0.  1.
         11   -1    0    0    0    0 -0.00000000000E+00 -0.00000000000E+00 -0.45593999997E+02  0.45594000000E+02  0.51100000000E-03 0. -1.
    9900012    2    1    2    0    0  0.78454224920E+01 -0.33343185783E+02 -0.21905380750E+02  0.50528875587E+02  0.30000047834E+02 0.  0.
        -12    1    1    2    0    0 -0.78454224920E+01  0.33343185783E+02  0.21905380750E+02  0.40659124413E+02  0.00000000000E+00 0.  1.
         11    1    3    3    0    0 -0.19182094007E+01  0.43357838006E-01  0.12250825723E+01  0.22764522348E+01  0.51100000000E-03 0. -1.
        -11    1    3    3    0    0  0.13009815141E+02 -0.25172668890E+02 -0.59778915939E+01  0.28959518940E+02  0.51100000000E-03 0.  1.
         12    1    3    3    0    0 -0.32461832478E+01 -0.82138747310E+01 -0.17152571728E+02  0.19292904412E+02  0.00000000000E+00 0. -1.
</event>
<event>
 7    1  0.5373252E-013  0.5052887E+02  0.7816164E-02  0.1300439E+00
        -11   -1    0    0    0    0  0.00000000000E+00  0.00000000000E+00  0.45593999997E+02  0.45594000000E+02  0.51100000000E-03 0.  1.
         11   -1    0    0    0    0 -0.00000000000E+00 -0.00000000000E+00 -0.45593999997E+02  0.45594000000E+02  0.51100000000E-03 0. -1.
    9900012    2    1    2    0    0  0.14133163496E+02 -0.48423240745E+01 -0.37814947635E+02  0.50528872150E+02  0.30000037387E+02 0.  0.
        -12    1    1    2    0    0 -0.14133163496E+02  0.48423240745E+01  0.37814947635E+02  0.40659127850E+02  0.00000000000E+00 0.  1.
         11    1    3    3    0    0  0.10118913563E+02 -0.90896276920E+01 -0.25505191713E+02  0.28905510683E+02  0.51100000000E-03 0. -1.
        -11    1    3    3    0    0  0.10083552739E+02 -0.41304172650E+00 -0.76537435058E+01  0.12666034471E+02  0.51100000000E-03 0.  1.
        -12    1    3    3    0    0 -0.60693028067E+01  0.46603453440E+01 -0.46560124170E+01  0.89573269960E+01  0.00000000000E+00 0.  1.
</event>
<event>
 7    1  0.5373252E-013  0.5052886E+02  0.7816164E-02  0.1300439E+00
        -11   -1    0    0    0    0  0.00000000000E+00  0.00000000000E+00  0.45593999997E+02  0.45594000000E+02  0.51100000000E-03 0. -1.
         11   -1    0    0    0    0 -0.00000000000E+00 -0.00000000000E+00 -0.45593999997E+02  0.45594000000E+02  0.51100000000E-03 0.  1.
    9900012    2    1    2    0    0  0.32269009609E+02  0.36942792717E+01  0.24458717558E+02  0.50528861482E+02  0.30000004960E+02 0.  0.
        -12    1    1    2    0    0 -0.32269009609E+02 -0.36942792717E+01 -0.24458717558E+02  0.40659138518E+02  0.00000000000E+00 0.  1.
         11    1    3    3    0    0  0.20162415107E+02  0.11650698969E+02  0.14989595957E+02  0.27693857742E+02  0.51100000000E-03 0. -1.
        -11    1    3    3    0    0  0.19680279862E+01  0.22230867830E+01 -0.26952135536E+01  0.40099158794E+01  0.51100000000E-03 0.  1.
         12    1    3    3    0    0  0.10138566515E+02 -0.10179506481E+02  0.12164335155E+02  0.18825087860E+02  0.00000000000E+00 0. -1.
</event>
<event>
 7    1  0.5373252E-013  0.5052886E+02  0.7816164E-02  0.1300439E+00
        -11   -1    0    0    0    0  0.00000000000E+00  0.00000000000E+00  0.45593999997E+02  0.45594000000E+02  0.51100000000E-03 0.  1.
         11   -1    0    0    0    0 -0.00000000000E+00 -0.00000000000E+00 -0.45593999997E+02  0.45594000000E+02  0.51100000000E-03 0. -1.
    9900012    2    1    2    0    0  0.10590680686E+02  0.25029500250E+02 -0.30241148224E+02  0.50528862699E+02  0.30000008661E+02 0.  0.
        -12    1    1    2    0    0 -0.10590680686E+02 -0.25029500250E+02  0.30241148224E+02  0.40659137301E+02  0.00000000000E+00 0.  1.
         11    1    3    3    0    0  0.18289930329E+01  0.12057189613E+02 -0.31342996913E+02  0.33631896952E+02  0.51100000000E-03 0. -1.
        -11    1    3    3    0    0 -0.95251286747E+00  0.16346823715E+01  0.48988214440E+00  0.19543418317E+01  0.51100000000E-03 0.  1.
         12    1    3    3    0    0  0.97142005204E+01  0.11337628265E+02  0.61196654468E+00  0.14942623915E+02  0.00000000000E+00 0. -1.
</event>
<event>
 7    1  0.5373252E-013  0.5052886E+02  0.7816164E-02  0.1300439E+00
        -11   -1    0    0    0    0  0.00000000000E+00  0.00000000000E+00  0.45593999997E+02  0.45594000000E+02  0.51100000000E-03 0.  1.
         11   -1    0    0    0    0 -0.00000000000E+00 -0.00000000000E+00 -0.45593999997E+02  0.45594000000E+02  0.51100000000E-03 0. -1.
    9900012    2    1    2    0    0  0.28170730598E+02  0.12956730111E+02 -0.26300168038E+02  0.50528858883E+02  0.29999997059E+02 0.  0.
        -12    1    1    2    0    0 -0.28170730598E+02 -0.12956730111E+02  0.26300168038E+02  0.40659141117E+02  0.00000000000E+00 0.  1.
         11    1    3    3    0    0  0.36416376725E+01  0.46499441779E+01 -0.12143369042E+01  0.60297694959E+01  0.51100000000E-03 0. -1.
        -11    1    3    3    0    0  0.12755540847E+02  0.17553091818E+02 -0.16325464786E+02  0.27153925230E+02  0.51100000000E-03 0.  1.
        -12    1    3    3    0    0  0.11773552078E+02 -0.92463058851E+01 -0.87603663480E+01  0.17345164156E+02  0.00000000000E+00 0.  1.
</event>
<event>
 7    1  0.6924468E-013  0.5052885E+02  0.7816164E-02  0.1300439E+00
        -11   -1    0    0    0    0  0.00000000000E+00  0.00000000000E+00  0.45593999997E+02  0.45594000000E+02  0.51100000000E-03 0. -1.
         11   -1    0    0    0    0 -0.00000000000E+00 -0.00000000000E+00 -0.45593999997E+02  0.45594000000E+02  0.51100000000E-03 0.  1.
    9900012    2    1    2    0    0  0.66667680118E+01  0.38128021743E+01  0.39927221457E+02  0.50528852574E+02  0.29999977885E+02 0.  0.
        -12    1    1    2    0    0 -0.66667680118E+01 -0.38128021743E+01 -0.39927221457E+02  0.40659147426E+02  0.00000000000E+00 0.  1.
         11    1    3    3    0    0  0.50869945781E+00  0.78149643872E+01  0.29820392020E+02  0.30831610791E+02  0.51100000000E-03 0. -1.
        -11    1    3    3    0    0  0.80427781635E+01  0.11334730490E+01  0.11474542305E+02  0.14058312954E+02  0.51100000000E-03 0.  1.
        -12    1    3    3    0    0 -0.18847096095E+01 -0.51356352619E+01 -0.13677128676E+01  0.56389288295E+01  0.00000000000E+00 0.  1.
</event>
<event>
 7    1  0.5373252E-013  0.5052885E+02  0.7816164E-02  0.1300439E+00
        -11   -1    0    0    0    0  0.00000000000E+00  0.00000000000E+00  0.45593999997E+02  0.45594000000E+02  0.51100000000E-03 0. -1.
         11   -1    0    0    0    0 -0.00000000000E+00 -0.00000000000E+00 -0.45593999997E+02  0.45594000000E+02  0.51100000000E-03 0.  1.
    9900012    2    1    2    0    0  0.39418056002E+02 -0.30562399824E+01  0.94890727222E+01  0.50528852900E+02  0.29999978874E+02 0.  0.
        -12    1    1    2    0    0 -0.39418056002E+02  0.30562399824E+01 -0.94890727222E+01  0.40659147100E+02  0.00000000000E+00 0.  1.
         11    1    3    3    0    0  0.33312838088E+02  0.10198709162E+01  0.43584397227E+01  0.33612219731E+02  0.51100000000E-03 0. -1.
        -11    1    3    3    0    0  0.38329854058E+01  0.51675851730E+01  0.88750745626E+00  0.64948736237E+01  0.51100000000E-03 0.  1.
        -12    1    3    3    0    0  0.22722325078E+01 -0.92436960716E+01  0.42431255432E+01  0.10421759545E+02  0.00000000000E+00 0.  1.
</event>
<event>
 7    1  0.5373252E-013  0.5052886E+02  0.7816164E-02  0.1300439E+00
        -11   -1    0    0    0    0  0.00000000000E+00  0.00000000000E+00  0.45593999997E+02  0.45594000000E+02  0.51100000000E-03 0. -1.
         11   -1    0    0    0    0 -0.00000000000E+00 -0.00000000000E+00 -0.45593999997E+02  0.45594000000E+02  0.51100000000E-03 0.  1.
    9900012    2    1    2    0    0 -0.27678993602E+02 -0.29768662653E+02  0.93040785560E+00  0.50528860539E+02  0.30000002093E+02 0.  0.
        -12    1    1    2    0    0  0.27678993602E+02  0.29768662653E+02 -0.93040785560E+00  0.40659139461E+02  0.00000000000E+00 0.  1.
         11    1    3    3    0    0 -0.17010992651E+02 -0.12688763109E+02  0.16439834402E+01  0.21285705580E+02  0.51100000000E-03 0. -1.
        -11    1    3    3    0    0 -0.33856772818E+01  0.47943108175E+01  0.15704086965E+01  0.60757230522E+01  0.51100000000E-03 0.  1.
         12    1    3    3    0    0 -0.72823236691E+01 -0.21874210361E+02 -0.22839842811E+01  0.23167431907E+02  0.00000000000E+00 0. -1.
</event>
<event>
 7    1  0.5373252E-013  0.5052888E+02  0.7816164E-02  0.1300439E+00
        -11   -1    0    0    0    0  0.00000000000E+00  0.00000000000E+00  0.45593999997E+02  0.45594000000E+02  0.51100000000E-03 0. -1.
         11   -1    0    0    0    0 -0.00000000000E+00 -0.00000000000E+00 -0.45593999997E+02  0.45594000000E+02  0.51100000000E-03 0.  1.
    9900012    2    1    2    0    0 -0.39914178362E+02  0.42776501054E+01  0.64593956978E+01  0.50528883955E+02  0.30000073270E+02 0.  0.
        -12    1    1    2    0    0  0.39914178362E+02 -0.42776501054E+01 -0.64593956978E+01  0.40659116045E+02  0.00000000000E+00 0.  1.
         11    1    3    3    0    0  0.30139318919E+01  0.33128169716E+01 -0.69508298712E+00  0.45322932779E+01  0.51100000000E-03 0. -1.
        -11    1    3    3    0    0 -0.80215026301E+01  0.56388753910E+01  0.41607060641E+01  0.10651426915E+02  0.51100000000E-03 0.  1.
         12    1    3    3    0    0 -0.34906607624E+02 -0.46740422572E+01  0.29937726208E+01  0.35345163762E+02  0.00000000000E+00 0. -1.
</event>
<event>
 7    1  0.5373252E-013  0.5052880E+02  0.7816164E-02  0.1300439E+00
        -11   -1    0    0    0    0  0.00000000000E+00  0.00000000000E+00  0.45593999997E+02  0.45594000000E+02  0.51100000000E-03 0. -1.
         11   -1    0    0    0    0 -0.00000000000E+00 -0.00000000000E+00 -0.45593999997E+02  0.45594000000E+02  0.51100000000E-03 0.  1.
    9900012    2    1    2    0    0 -0.39294960705E+02  0.91465821215E+01 -0.50415191089E+01  0.50528796660E+02  0.29999807927E+02 0.  0.
        -12    1    1    2    0    0  0.39294960705E+02 -0.91465821215E+01  0.50415191089E+01  0.40659203340E+02  0.00000000000E+00 0.  1.
         11    1    3    3    0    0 -0.12102231016E+02 -0.32467845174E+01  0.51029388084E+01  0.13529434208E+02  0.51100000000E-03 0. -1.
        -11    1    3    3    0    0 -0.26117000181E+02  0.72158497409E+01 -0.18448206262E+01  0.27158231705E+02  0.51100000000E-03 0.  1.
        -12    1    3    3    0    0 -0.10757295085E+01  0.51775168980E+01 -0.82996372911E+01  0.98411307464E+01  0.00000000000E+00 0.  1.
</event>
<event>
 7    1  0.5373252E-013  0.5052886E+02  0.7816164E-02  0.1300439E+00
        -11   -1    0    0    0    0  0.00000000000E+00  0.00000000000E+00  0.45593999997E+02  0.45594000000E+02  0.51100000000E-03 0. -1.
         11   -1    0    0    0    0 -0.00000000000E+00 -0.00000000000E+00 -0.45593999997E+02  0.45594000000E+02  0.51100000000E-03 0.  1.
    9900012    2    1    2    0    0  0.39532498932E+02 -0.94943994367E+01  0.45130626768E+00  0.50528858718E+02  0.29999996558E+02 0.  0.
        -12    1    1    2    0    0 -0.39532498932E+02  0.94943994367E+01 -0.45130626768E+00  0.40659141282E+02  0.00000000000E+00 0.  1.
         11    1    3    3    0    0  0.24712555807E+02 -0.95027934023E+00  0.55891943525E+00  0.24737134768E+02  0.51100000000E-03 0. -1.
        -11    1    3    3    0    0  0.22941090507E+01 -0.13942154621E+01 -0.86308526772E+01  0.90387162412E+01  0.51100000000E-03 0.  1.
         12    1    3    3    0    0  0.12525834075E+02 -0.71499046344E+01  0.85232395097E+01  0.16753007709E+02  0.00000000000E+00 0. -1.
</event>
<event>
 7    1  0.5373252E-013  0.5052887E+02  0.7816164E-02  0.1300439E+00
        -11   -1    0    0    0    0  0.00000000000E+00  0.00000000000E+00  0.45593999997E+02  0.45594000000E+02  0.51100000000E-03 0. -1.
         11   -1    0    0    0    0 -0.00000000000E+00 -0.00000000000E+00 -0.45593999997E+02  0.45594000000E+02  0.51100000000E-03 0.  1.
    9900012    2    1    2    0    0 -0.10620580792E+02  0.20759059010E+02  0.33308102463E+02  0.50528868713E+02  0.30000026939E+02 0.  0.
        -12    1    1    2    0    0  0.10620580792E+02 -0.20759059010E+02 -0.33308102463E+02  0.40659131287E+02  0.00000000000E+00 0.  1.
         11    1    3    3    0    0  0.25336966673E+01  0.11612905470E+02  0.24109283395E+02  0.26880043496E+02  0.51100000000E-03 0. -1.
        -11    1    3    3    0    0  0.23410026338E+01  0.32221468165E+01 -0.10886022848E+01  0.41288713511E+01  0.51100000000E-03 0.  1.
         12    1    3    3    0    0 -0.15495280093E+02  0.59240067244E+01  0.10287421352E+02  0.19519953865E+02  0.00000000000E+00 0. -1.
</event>
<event>
 7    1  0.5373252E-013  0.5052886E+02  0.7816164E-02  0.1300439E+00
        -11   -1    0    0    0    0  0.00000000000E+00  0.00000000000E+00  0.45593999997E+02  0.45594000000E+02  0.51100000000E-03 0. -1.
         11   -1    0    0    0    0 -0.00000000000E+00 -0.00000000000E+00 -0.45593999997E+02  0.45594000000E+02  0.51100000000E-03 0.  1.
    9900012    2    1    2    0    0 -0.31878907773E+01  0.13225838400E+02  0.38315531190E+02  0.50528863519E+02  0.30000011154E+02 0.  0.
        -12    1    1    2    0    0  0.31878907773E+01 -0.13225838400E+02 -0.38315531190E+02  0.40659136481E+02  0.00000000000E+00 0.  1.
         11    1    3    3    0    0 -0.10508157757E+02 -0.14550628349E+01  0.14957656472E+02  0.18337668191E+02  0.51100000000E-03 0. -1.
        -11    1    3    3    0    0  0.34952805400E+01 -0.18563356129E+01  0.94566386565E+01  0.10251389316E+02  0.51100000000E-03 0.  1.
        -12    1    3    3    0    0  0.38249864396E+01  0.16537236848E+02  0.13901236061E+02  0.21939806013E+02  0.00000000000E+00 0.  1.
</event>
<event>
 7    1  0.5373252E-013  0.5052887E+02  0.7816164E-02  0.1300439E+00
        -11   -1    0    0    0    0  0.00000000000E+00  0.00000000000E+00  0.45593999997E+02  0.45594000000E+02  0.51100000000E-03 0. -1.
         11   -1    0    0    0    0 -0.00000000000E+00 -0.00000000000E+00 -0.45593999997E+02  0.45594000000E+02  0.51100000000E-03 0.  1.
    9900012    2    1    2    0    0 -0.38167018492E+02  0.37035272012E+01  0.13517683488E+02  0.50528865956E+02  0.30000018561E+02 0.  0.
        -12    1    1    2    0    0  0.38167018492E+02 -0.37035272012E+01 -0.13517683488E+02  0.40659134044E+02  0.00000000000E+00 0.  1.
         11    1    3    3    0    0 -0.73019755333E+01  0.68929839119E+01  0.47108145254E+01  0.11091611589E+02  0.51100000000E-03 0. -1.
        -11    1    3    3    0    0 -0.17126483324E+02  0.22049246161E+01 -0.62392126259E+01  0.18360443842E+02  0.51100000000E-03 0.  1.
         12    1    3    3    0    0 -0.13738559635E+02 -0.53943813268E+01  0.15046081589E+02  0.21076810525E+02  0.00000000000E+00 0. -1.
</event>
<event>
 7    1  0.5373252E-013  0.5052889E+02  0.7816164E-02  0.1300439E+00
        -11   -1    0    0    0    0  0.00000000000E+00  0.00000000000E+00  0.45593999997E+02  0.45594000000E+02  0.51100000000E-03 0. -1.
         11   -1    0    0    0    0 -0.00000000000E+00 -0.00000000000E+00 -0.45593999997E+02  0.45594000000E+02  0.51100000000E-03 0.  1.
    9900012    2    1    2    0    0 -0.14780561389E+02 -0.37100096547E+02 -0.76342143348E+01  0.50528888016E+02  0.30000085614E+02 0.  0.
        -12    1    1    2    0    0  0.14780561389E+02  0.37100096547E+02  0.76342143348E+01  0.40659111984E+02  0.00000000000E+00 0.  1.
         11    1    3    3    0    0 -0.17218513062E+02 -0.21015053948E+02  0.17863409717E+01  0.27226837842E+02  0.51100000000E-03 0. -1.
        -11    1    3    3    0    0  0.23292127882E+00  0.20769251109E+01 -0.34928874683E+01  0.40703972000E+01  0.51100000000E-03 0.  1.
        -12    1    3    3    0    0  0.22050303944E+01 -0.18161967710E+02 -0.59276678381E+01  0.19231652975E+02  0.00000000000E+00 0.  1.
</event>
<event>
 7    1  0.5373252E-013  0.5052887E+02  0.7816164E-02  0.1300439E+00
        -11   -1    0    0    0    0  0.00000000000E+00  0.00000000000E+00  0.45593999997E+02  0.45594000000E+02  0.51100000000E-03 0. -1.
         11   -1    0    0    0    0 -0.00000000000E+00 -0.00000000000E+00 -0.45593999997E+02  0.45594000000E+02  0.51100000000E-03 0.  1.
    9900012    2    1    2    0    0 -0.22468325186E+02  0.33593402636E+02 -0.44522671790E+01  0.50528867934E+02  0.30000024572E+02 0.  0.
        -12    1    1    2    0    0  0.22468325186E+02 -0.33593402636E+02  0.44522671790E+01  0.40659132066E+02  0.00000000000E+00 0.  1.
         11    1    3    3    0    0 -0.17175375561E+02  0.15117696234E+02  0.83016804278E+00  0.22896013721E+02  0.51100000000E-03 0. -1.
        -11    1    3    3    0    0 -0.11124383774E+02  0.13253303430E+02 -0.83656916449E+01  0.19219437118E+02  0.51100000000E-03 0.  1.
        -12    1    3    3    0    0  0.58314341495E+01  0.52224029722E+01  0.30832564232E+01  0.84134170951E+01  0.00000000000E+00 0.  1.
</event>
<event>
 7    1  0.5373252E-013  0.5052887E+02  0.7816164E-02  0.1300439E+00
        -11   -1    0    0    0    0  0.00000000000E+00  0.00000000000E+00  0.45593999997E+02  0.45594000000E+02  0.51100000000E-03 0.  1.
         11   -1    0    0    0    0 -0.00000000000E+00 -0.00000000000E+00 -0.45593999997E+02  0.45594000000E+02  0.51100000000E-03 0. -1.
    9900012    2    1    2    0    0  0.10327978540E+02 -0.32809771108E+02 -0.21679863062E+02  0.50528872079E+02  0.30000037172E+02 0.  0.
        -12    1    1    2    0    0 -0.10327978540E+02  0.32809771108E+02  0.21679863062E+02  0.40659127921E+02  0.00000000000E+00 0.  1.
         11    1    3    3    0    0  0.23297175353E+01  0.36771422296E+01 -0.64913286156E+01  0.78157729130E+01  0.51100000000E-03 0. -1.
        -11    1    3    3    0    0 -0.20555345419E+01 -0.28702297358E+01  0.15277337579E+01  0.38467403974E+01  0.51100000000E-03 0.  1.
         12    1    3    3    0    0  0.10053795546E+02 -0.33616683602E+02 -0.16716268205E+02  0.38866358769E+02  0.00000000000E+00 0. -1.
</event>
<event>
 7    1  0.5373252E-013  0.5052886E+02  0.7816164E-02  0.1300439E+00
        -11   -1    0    0    0    0  0.00000000000E+00  0.00000000000E+00  0.45593999997E+02  0.45594000000E+02  0.51100000000E-03 0. -1.
         11   -1    0    0    0    0 -0.00000000000E+00 -0.00000000000E+00 -0.45593999997E+02  0.45594000000E+02  0.51100000000E-03 0.  1.
    9900012    2    1    2    0    0 -0.23734453651E+02 -0.32988534530E+02 -0.12640607760E+01  0.50528861418E+02  0.30000004766E+02 0.  0.
        -12    1    1    2    0    0  0.23734453651E+02  0.32988534530E+02  0.12640607760E+01  0.40659138582E+02  0.00000000000E+00 0.  1.
         11    1    3    3    0    0 -0.87847866757E+01 -0.57843667604E+01  0.47515495215E+01  0.11541602959E+02  0.51100000000E-03 0. -1.
        -11    1    3    3    0    0  0.20758689511E+01 -0.17269777559E+02  0.23908113144E+01  0.17557631612E+02  0.51100000000E-03 0.  1.
         12    1    3    3    0    0 -0.17025535927E+02 -0.99343902113E+01 -0.84064216120E+01  0.21429626846E+02  0.00000000000E+00 0. -1.
</event>
<event>
 7    1  0.5373252E-013  0.5052886E+02  0.7816164E-02  0.1300439E+00
        -11   -1    0    0    0    0  0.00000000000E+00  0.00000000000E+00  0.45593999997E+02  0.45594000000E+02  0.51100000000E-03 0.  1.
         11   -1    0    0    0    0 -0.00000000000E+00 -0.00000000000E+00 -0.45593999997E+02  0.45594000000E+02  0.51100000000E-03 0. -1.
    9900012    2    1    2    0    0 -0.97416769659E+01  0.11311413798E+02 -0.37819536169E+02  0.50528859966E+02  0.30000000354E+02 0.  0.
        -12    1    1    2    0    0  0.97416769659E+01 -0.11311413798E+02  0.37819536169E+02  0.40659140034E+02  0.00000000000E+00 0.  1.
         11    1    3    3    0    0 -0.39331807582E+01  0.28502205968E+01 -0.70171606995E+01  0.85342962727E+01  0.51100000000E-03 0. -1.
        -11    1    3    3    0    0  0.67569496710E+01  0.12906937791E+02 -0.11615415878E+02  0.18632318650E+02  0.51100000000E-03 0.  1.
         12    1    3    3    0    0 -0.12565445879E+02 -0.44457445899E+01 -0.19186959592E+02  0.23362245043E+02  0.00000000000E+00 0. -1.
</event>
<event>
 7    1  0.5373252E-013  0.5052887E+02  0.7816164E-02  0.1300439E+00
        -11   -1    0    0    0    0  0.00000000000E+00  0.00000000000E+00  0.45593999997E+02  0.45594000000E+02  0.51100000000E-03 0.  1.
         11   -1    0    0    0    0 -0.00000000000E+00 -0.00000000000E+00 -0.45593999997E+02  0.45594000000E+02  0.51100000000E-03 0. -1.
    9900012    2    1    2    0    0 -0.30649717216E+02  0.50862159606E+01 -0.26227666284E+02  0.50528865271E+02  0.30000016477E+02 0.  0.
        -12    1    1    2    0    0  0.30649717216E+02 -0.50862159606E+01  0.26227666284E+02  0.40659134729E+02  0.00000000000E+00 0.  1.
         11    1    3    3    0    0 -0.10513342320E+02  0.65049058226E+01 -0.12442668786E+01  0.12425472499E+02  0.51100000000E-03 0. -1.
        -11    1    3    3    0    0 -0.99595234409E+01 -0.83272437506E+01 -0.36625453043E+01  0.13488859626E+02  0.51100000000E-03 0.  1.
         12    1    3    3    0    0 -0.10176851455E+02  0.69085538885E+01 -0.21320854101E+02  0.24614533145E+02  0.00000000000E+00 0. -1.
</event>
<event>
 7    1  0.5373252E-013  0.5052886E+02  0.7816164E-02  0.1300439E+00
        -11   -1    0    0    0    0  0.00000000000E+00  0.00000000000E+00  0.45593999997E+02  0.45594000000E+02  0.51100000000E-03 0. -1.
         11   -1    0    0    0    0 -0.00000000000E+00 -0.00000000000E+00 -0.45593999997E+02  0.45594000000E+02  0.51100000000E-03 0.  1.
    9900012    2    1    2    0    0  0.30644662091E+02 -0.23887114854E+02 -0.11978148024E+02  0.50528860796E+02  0.30000002875E+02 0.  0.
        -12    1    1    2    0    0 -0.30644662091E+02  0.23887114854E+02  0.11978148024E+02  0.40659139204E+02  0.00000000000E+00 0.  1.
         11    1    3    3    0    0  0.13950802556E+02 -0.11493494914E+02 -0.20349910448E+02  0.27218452799E+02  0.51100000000E-03 0. -1.
        -11    1    3    3    0    0  0.43406270917E+01 -0.41331130539E+01  0.55816023196E+01  0.81901130506E+01  0.51100000000E-03 0.  1.
        -12    1    3    3    0    0  0.12353232444E+02 -0.82605068862E+01  0.27901601048E+01  0.15120294946E+02  0.00000000000E+00 0.  1.
</event>
<event>
 7    1  0.5373252E-013  0.5052879E+02  0.7816164E-02  0.1300439E+00
        -11   -1    0    0    0    0  0.00000000000E+00  0.00000000000E+00  0.45593999997E+02  0.45594000000E+02  0.51100000000E-03 0.  1.
         11   -1    0    0    0    0 -0.00000000000E+00 -0.00000000000E+00 -0.45593999997E+02  0.45594000000E+02  0.51100000000E-03 0. -1.
    9900012    2    1    2    0    0  0.12007507457E+02 -0.15427288749E+02 -0.35650948713E+02  0.50528786805E+02  0.29999777972E+02 0.  0.
        -12    1    1    2    0    0 -0.12007507457E+02  0.15427288749E+02  0.35650948713E+02  0.40659213195E+02  0.00000000000E+00 0.  1.
         11    1    3    3    0    0  0.46178100481E+01  0.56802687806E+01 -0.28369437535E+01  0.78509791225E+01  0.51100000000E-03 0. -1.
        -11    1    3    3    0    0 -0.34394313419E+01 -0.83886895787E+01 -0.18805498328E+02  0.20876938675E+02  0.51100000000E-03 0.  1.
         12    1    3    3    0    0  0.10829128751E+02 -0.12718867951E+02 -0.14008506631E+02  0.21800869008E+02  0.00000000000E+00 0. -1.
</event>
<event>
 7    1  0.5373252E-013  0.5052886E+02  0.7816164E-02  0.1300439E+00
        -11   -1    0    0    0    0  0.00000000000E+00  0.00000000000E+00  0.45593999997E+02  0.45594000000E+02  0.51100000000E-03 0. -1.
         11   -1    0    0    0    0 -0.00000000000E+00 -0.00000000000E+00 -0.45593999997E+02  0.45594000000E+02  0.51100000000E-03 0.  1.
    9900012    2    1    2    0    0  0.53418479419E+01 -0.18893894430E+02  0.35604093109E+02  0.50528855490E+02  0.29999986748E+02 0.  0.
        -12    1    1    2    0    0 -0.53418479419E+01  0.18893894430E+02 -0.35604093109E+02  0.40659144510E+02  0.00000000000E+00 0.  1.
         11    1    3    3    0    0  0.69252839090E+01 -0.20878355416E+01  0.16499346428E+02  0.18015189349E+02  0.51100000000E-03 0. -1.
        -11    1    3    3    0    0 -0.46376619462E+01 -0.56730041650E+01 -0.27263051403E+01  0.78181599218E+01  0.51100000000E-03 0.  1.
         12    1    3    3    0    0  0.30542259791E+01 -0.11133054723E+02  0.21831051821E+02  0.24695506219E+02  0.00000000000E+00 0. -1.
</event>
<event>
 7    1  0.5373252E-013  0.5052886E+02  0.7816164E-02  0.1300439E+00
        -11   -1    0    0    0    0  0.00000000000E+00  0.00000000000E+00  0.45593999997E+02  0.45594000000E+02  0.51100000000E-03 0.  1.
         11   -1    0    0    0    0 -0.00000000000E+00 -0.00000000000E+00 -0.45593999997E+02  0.45594000000E+02  0.51100000000E-03 0. -1.
    9900012    2    1    2    0    0 -0.21964213894E+02  0.77731015137E+01 -0.33321437255E+02  0.50528856135E+02  0.29999988707E+02 0.  0.
        -12    1    1    2    0    0  0.21964213894E+02 -0.77731015137E+01  0.33321437255E+02  0.40659143865E+02  0.00000000000E+00 0.  1.
         11    1    3    3    0    0 -0.54282624884E+01  0.84277894002E+00 -0.15557624638E+02  0.16498969501E+02  0.51100000000E-03 0. -1.
        -11    1    3    3    0    0 -0.18883721001E+02  0.13708583347E+01 -0.20049768176E+02  0.27576572949E+02  0.51100000000E-03 0.  1.
        -12    1    3    3    0    0  0.23477695952E+01  0.55594642390E+01  0.22859555586E+01  0.64533136846E+01  0.00000000000E+00 0.  1.
</event>
<event>
 7    1  0.5373252E-013  0.5052888E+02  0.7816164E-02  0.1300439E+00
        -11   -1    0    0    0    0  0.00000000000E+00  0.00000000000E+00  0.45593999997E+02  0.45594000000E+02  0.51100000000E-03 0. -1.
         11   -1    0    0    0    0 -0.00000000000E+00 -0.00000000000E+00 -0.45593999997E+02  0.45594000000E+02  0.51100000000E-03 0.  1.
    9900012    2    1    2    0    0  0.19502474408E+02 -0.30989683141E+02  0.17676444923E+02  0.50528884487E+02  0.30000074886E+02 0.  0.
        -12    1    1    2    0    0 -0.19502474408E+02  0.30989683141E+02 -0.17676444923E+02  0.40659115513E+02  0.00000000000E+00 0.  1.
         11    1    3    3    0    0  0.69205161793E+01 -0.28746526269E+01  0.87727561978E+01  0.11537695761E+02  0.51100000000E-03 0. -1.
        -11    1    3    3    0    0 -0.64524285092E+01 -0.69629627462E+01  0.26616577047E+01  0.98590621191E+01  0.51100000000E-03 0.  1.
        -12    1    3    3    0    0  0.19034386738E+02 -0.21152067768E+02  0.62420310200E+01  0.29132126606E+02  0.00000000000E+00 0.  1.
</event>
<event>
 7    1  0.5373252E-013  0.5052891E+02  0.7816164E-02  0.1300439E+00
        -11   -1    0    0    0    0  0.00000000000E+00  0.00000000000E+00  0.45593999997E+02  0.45594000000E+02  0.51100000000E-03 0. -1.
         11   -1    0    0    0    0 -0.00000000000E+00 -0.00000000000E+00 -0.45593999997E+02  0.45594000000E+02  0.51100000000E-03 0.  1.
    9900012    2    1    2    0    0  0.24407022504E+01  0.38938687153E+02  0.11444778033E+02  0.50528913330E+02  0.30000162557E+02 0.  0.
        -12    1    1    2    0    0 -0.24407022504E+01 -0.38938687153E+02 -0.11444778033E+02  0.40659086670E+02  0.00000000000E+00 0.  1.
         11    1    3    3    0    0  0.11497666826E+01  0.18779937089E+02  0.17264723817E+02  0.25535831477E+02  0.51100000000E-03 0. -1.
        -11    1    3    3    0    0  0.53313177077E+01  0.35137650596E+01 -0.45049148140E+01  0.78143298584E+01  0.51100000000E-03 0.  1.
        -12    1    3    3    0    0 -0.40403821399E+01  0.16644985004E+02 -0.13150309707E+01  0.17178751994E+02  0.00000000000E+00 0.  1.
</event>
<event>
 7    1  0.5373252E-013  0.5052886E+02  0.7816164E-02  0.1300439E+00
        -11   -1    0    0    0    0  0.00000000000E+00  0.00000000000E+00  0.45593999997E+02  0.45594000000E+02  0.51100000000E-03 0.  1.
         11   -1    0    0    0    0 -0.00000000000E+00 -0.00000000000E+00 -0.45593999997E+02  0.45594000000E+02  0.51100000000E-03 0. -1.
    9900012    2    1    2    0    0 -0.33700840845E+02 -0.37549219017E+01 -0.22434785621E+02  0.50528859355E+02  0.29999998495E+02 0.  0.
        -12    1    1    2    0    0  0.33700840845E+02  0.37549219017E+01  0.22434785621E+02  0.40659140645E+02  0.00000000000E+00 0.  1.
         11    1    3    3    0    0 -0.11073781414E+02 -0.46373612397E+01 -0.15462881601E+02  0.19576375091E+02  0.51100000000E-03 0. -1.
        -11    1    3    3    0    0 -0.52073750061E+00  0.70809506014E+01 -0.59785338428E+00  0.71251987969E+01  0.51100000000E-03 0.  1.
         12    1    3    3    0    0 -0.22106321931E+02 -0.61985112635E+01 -0.63740506361E+01  0.23827285466E+02  0.00000000000E+00 0. -1.
</event>
<event>
 7    1  0.5373252E-013  0.5052882E+02  0.7816164E-02  0.1300439E+00
        -11   -1    0    0    0    0  0.00000000000E+00  0.00000000000E+00  0.45593999997E+02  0.45594000000E+02  0.51100000000E-03 0.  1.
         11   -1    0    0    0    0 -0.00000000000E+00 -0.00000000000E+00 -0.45593999997E+02  0.45594000000E+02  0.51100000000E-03 0. -1.
    9900012    2    1    2    0    0  0.24144758083E+02 -0.12934644175E+02 -0.30048197930E+02  0.50528824386E+02  0.29999892203E+02 0.  0.
        -12    1    1    2    0    0 -0.24144758083E+02  0.12934644175E+02  0.30048197930E+02  0.40659175614E+02  0.00000000000E+00 0.  1.
         11    1    3    3    0    0  0.80100332521E+01 -0.14216813963E+02 -0.41745304662E+01  0.16843548819E+02  0.51100000000E-03 0. -1.
        -11    1    3    3    0    0  0.10110451623E+02 -0.56579771149E+01 -0.18819700243E+02  0.22100114356E+02  0.51100000000E-03 0.  1.
        -12    1    3    3    0    0  0.60242732073E+01  0.69401469032E+01 -0.70539672204E+01  0.11585161210E+02  0.00000000000E+00 0.  1.
</event>
<event>
 7    1  0.5373252E-013  0.5052886E+02  0.7816164E-02  0.1300439E+00
        -11   -1    0    0    0    0  0.00000000000E+00  0.00000000000E+00  0.45593999997E+02  0.45594000000E+02  0.51100000000E-03 0.  1.
         11   -1    0    0    0    0 -0.00000000000E+00 -0.00000000000E+00 -0.45593999997E+02  0.45594000000E+02  0.51100000000E-03 0. -1.
    9900012    2    1    2    0    0 -0.13027441042E+02 -0.28295048226E+02 -0.26131244175E+02  0.50528857162E+02  0.29999991828E+02 0.  0.
        -12    1    1    2    0    0  0.13027441042E+02  0.28295048226E+02  0.26131244175E+02  0.40659142838E+02  0.00000000000E+00 0.  1.
         11    1    3    3    0    0 -0.16035511398E+01 -0.83030129339E+01 -0.12833012106E+02  0.15368721483E+02  0.51100000000E-03 0. -1.
        -11    1    3    3    0    0  0.15039166214E+01  0.43133671700E+01 -0.40895448488E+01  0.61311727164E+01  0.51100000000E-03 0.  1.
         12    1    3    3    0    0 -0.12927806523E+02 -0.24305402462E+02 -0.92086872203E+01  0.29028962962E+02  0.00000000000E+00 0. -1.
</event>
<event>
 7    1  0.5373252E-013  0.5052886E+02  0.7816164E-02  0.1300439E+00
        -11   -1    0    0    0    0  0.00000000000E+00  0.00000000000E+00  0.45593999997E+02  0.45594000000E+02  0.51100000000E-03 0.  1.
         11   -1    0    0    0    0 -0.00000000000E+00 -0.00000000000E+00 -0.45593999997E+02  0.45594000000E+02  0.51100000000E-03 0. -1.
    9900012    2    1    2    0    0  0.11128831175E+02 -0.97663752205E+01 -0.37867298659E+02  0.50528864790E+02  0.30000015017E+02 0.  0.
        -12    1    1    2    0    0 -0.11128831175E+02  0.97663752205E+01  0.37867298659E+02  0.40659135210E+02  0.00000000000E+00 0.  1.
         11    1    3    3    0    0 -0.62206718061E+01 -0.38156979646E+01 -0.18019462641E+02  0.19441125039E+02  0.51100000000E-03 0. -1.
        -11    1    3    3    0    0  0.35372293518E+01 -0.89097675099E+01 -0.60154908291E+01  0.11317335320E+02  0.51100000000E-03 0.  1.
        -12    1    3    3    0    0  0.13812273629E+02  0.29590902541E+01 -0.13832345189E+02  0.19770404431E+02  0.00000000000E+00 0.  1.
</event>
<event>
 7    1  0.5373252E-013  0.5052886E+02  0.7816164E-02  0.1300439E+00
        -11   -1    0    0    0    0  0.00000000000E+00  0.00000000000E+00  0.45593999997E+02  0.45594000000E+02  0.51100000000E-03 0.  1.
         11   -1    0    0    0    0 -0.00000000000E+00 -0.00000000000E+00 -0.45593999997E+02  0.45594000000E+02  0.51100000000E-03 0. -1.
    9900012    2    1    2    0    0  0.27554574385E+02 -0.24944548795E+02 -0.16482742892E+02  0.50528857149E+02  0.29999991791E+02 0.  0.
        -12    1    1    2    0    0 -0.27554574385E+02  0.24944548795E+02  0.16482742892E+02  0.40659142851E+02  0.00000000000E+00 0.  1.
         11    1    3    3    0    0  0.77993788525E+01 -0.41473260762E+01 -0.10486171855E+02  0.13710960014E+02  0.51100000000E-03 0.  1.
        -11    1    3    3    0    0  0.20200024096E+02 -0.20116175706E+02 -0.11875830753E+02  0.30882630309E+02  0.51100000000E-03 0. -1.
         12    1    3    3    0    0 -0.44482856334E+00 -0.68104701331E+00  0.58792597164E+01  0.59352668261E+01  0.00000000000E+00 0. -1.
</event>
<event>
 7    1  0.6511456E-013  0.5052885E+02  0.7816164E-02  0.1300439E+00
        -11   -1    0    0    0    0  0.00000000000E+00  0.00000000000E+00  0.45593999997E+02  0.45594000000E+02  0.51100000000E-03 0. -1.
         11   -1    0    0    0    0 -0.00000000000E+00 -0.00000000000E+00 -0.45593999997E+02  0.45594000000E+02  0.51100000000E-03 0.  1.
    9900012    2    1    2    0    0 -0.32661948036E+02 -0.27360121774E+01  0.24059873085E+02  0.50528854596E+02  0.29999984031E+02 0.  0.
        -12    1    1    2    0    0  0.32661948036E+02  0.27360121774E+01 -0.24059873085E+02  0.40659145404E+02  0.00000000000E+00 0.  1.
         11    1    3    3    0    0 -0.44782009134E+01 -0.22603525345E+01  0.18908228735E+02  0.19562325812E+02  0.51100000000E-03 0. -1.
        -11    1    3    3    0    0 -0.14315490549E+02 -0.59042972349E+01  0.41924030534E+01  0.16042762827E+02  0.51100000000E-03 0.  1.
        -12    1    3    3    0    0 -0.13868256573E+02  0.54286375920E+01  0.95924129588E+00  0.14923765958E+02  0.00000000000E+00 0.  1.
</event>
<event>
 7    1  0.5373252E-013  0.5052886E+02  0.7816164E-02  0.1300439E+00
        -11   -1    0    0    0    0  0.00000000000E+00  0.00000000000E+00  0.45593999997E+02  0.45594000000E+02  0.51100000000E-03 0.  1.
         11   -1    0    0    0    0 -0.00000000000E+00 -0.00000000000E+00 -0.45593999997E+02  0.45594000000E+02  0.51100000000E-03 0. -1.
    9900012    2    1    2    0    0 -0.73920601562E+01  0.15228899086E+02 -0.36967599223E+02  0.50528864335E+02  0.30000013633E+02 0.  0.
        -12    1    1    2    0    0  0.73920601562E+01 -0.15228899086E+02  0.36967599223E+02  0.40659135665E+02  0.00000000000E+00 0.  1.
         11    1    3    3    0    0 -0.90498012492E+01  0.13171653968E+02 -0.17599740989E+02  0.23772720796E+02  0.51100000000E-03 0. -1.
        -11    1    3    3    0    0  0.40394370150E+01  0.94406319438E+01 -0.13825726488E+02  0.17221884220E+02  0.51100000000E-03 0.  1.
        -12    1    3    3    0    0 -0.23816959220E+01 -0.73833868257E+01 -0.55421317459E+01  0.95342593195E+01  0.00000000000E+00 0.  1.
</event>
<event>
 7    1  0.5373252E-013  0.5052887E+02  0.7816164E-02  0.1300439E+00
        -11   -1    0    0    0    0  0.00000000000E+00  0.00000000000E+00  0.45593999997E+02  0.45594000000E+02  0.51100000000E-03 0. -1.
         11   -1    0    0    0    0 -0.00000000000E+00 -0.00000000000E+00 -0.45593999997E+02  0.45594000000E+02  0.51100000000E-03 0.  1.
    9900012    2    1    2    0    0  0.38989576600E+02 -0.10621013518E+02  0.44913086258E+01  0.50528869847E+02  0.30000030387E+02 0.  0.
        -12    1    1    2    0    0 -0.38989576600E+02  0.10621013518E+02 -0.44913086258E+01  0.40659130153E+02  0.00000000000E+00 0.  1.
         11    1    3    3    0    0  0.54731675830E+01  0.32080162754E+01  0.26088636167E+01  0.68595263282E+01  0.51100000000E-03 0. -1.
        -11    1    3    3    0    0  0.35915499791E+02 -0.11142383094E+02  0.61296025443E+01  0.38100496766E+02  0.51100000000E-03 0.  1.
         12    1    3    3    0    0 -0.23990907734E+01 -0.26866466993E+01 -0.42471575352E+01  0.55688467527E+01  0.00000000000E+00 0. -1.
</event>
<event>
 7    1  0.5373252E-013  0.5052882E+02  0.7816164E-02  0.1300439E+00
        -11   -1    0    0    0    0  0.00000000000E+00  0.00000000000E+00  0.45593999997E+02  0.45594000000E+02  0.51100000000E-03 0.  1.
         11   -1    0    0    0    0 -0.00000000000E+00 -0.00000000000E+00 -0.45593999997E+02  0.45594000000E+02  0.51100000000E-03 0. -1.
    9900012    2    1    2    0    0  0.74535066720E+01 -0.38415754894E+02 -0.11038306183E+02  0.50528816669E+02  0.29999868745E+02 0.  0.
        -12    1    1    2    0    0 -0.74535066720E+01  0.38415754894E+02  0.11038306183E+02  0.40659183331E+02  0.00000000000E+00 0.  1.
         11    1    3    3    0    0 -0.82576023094E+00 -0.49960146479E+01 -0.87994874493E+01  0.10152488461E+02  0.51100000000E-03 0. -1.
        -11    1    3    3    0    0  0.11921779365E+02 -0.84514101149E+01 -0.37870305453E+01  0.15096249758E+02  0.51100000000E-03 0.  1.
         12    1    3    3    0    0 -0.36425124620E+01 -0.24968330131E+02  0.15482118112E+01  0.25280078449E+02  0.00000000000E+00 0. -1.
</event>
<event>
 7    1  0.5373252E-013  0.5052885E+02  0.7816164E-02  0.1300439E+00
        -11   -1    0    0    0    0  0.00000000000E+00  0.00000000000E+00  0.45593999997E+02  0.45594000000E+02  0.51100000000E-03 0.  1.
         11   -1    0    0    0    0 -0.00000000000E+00 -0.00000000000E+00 -0.45593999997E+02  0.45594000000E+02  0.51100000000E-03 0. -1.
    9900012    2    1    2    0    0  0.27793207009E+02 -0.14796603245E+02 -0.25724786786E+02  0.50528850001E+02  0.29999970063E+02 0.  0.
        -12    1    1    2    0    0 -0.27793207009E+02  0.14796603245E+02  0.25724786786E+02  0.40659149999E+02  0.00000000000E+00 0.  1.
         11    1    3    3    0    0  0.13885415778E+00  0.17414363193E+01  0.15189124067E+01  0.23149462395E+01  0.51100000000E-03 0. -1.
        -11    1    3    3    0    0  0.71377004930E+01 -0.13700063598E+02 -0.20250947949E+01  0.15580100131E+02  0.51100000000E-03 0.  1.
         12    1    3    3    0    0  0.20516652359E+02 -0.28379759665E+01 -0.25218604398E+02  0.32633803630E+02  0.00000000000E+00 0. -1.
</event>
<event>
 7    1  0.5373252E-013  0.5052886E+02  0.7816164E-02  0.1300439E+00
        -11   -1    0    0    0    0  0.00000000000E+00  0.00000000000E+00  0.45593999997E+02  0.45594000000E+02  0.51100000000E-03 0.  1.
         11   -1    0    0    0    0 -0.00000000000E+00 -0.00000000000E+00 -0.45593999997E+02  0.45594000000E+02  0.51100000000E-03 0. -1.
    9900012    2    1    2    0    0 -0.20053436958E+02  0.12413469380E+02 -0.33119950458E+02  0.50528859893E+02  0.30000000131E+02 0.  0.
        -12    1    1    2    0    0  0.20053436958E+02 -0.12413469380E+02  0.33119950458E+02  0.40659140107E+02  0.00000000000E+00 0.  1.
         11    1    3    3    0    0 -0.33348663330E+01 -0.46001984179E+01 -0.10428455745E+01  0.57767366304E+01  0.51100000000E-03 0. -1.
        -11    1    3    3    0    0 -0.38440762685E+01 -0.11348596714E+01 -0.17956765857E+02  0.18398648569E+02  0.51100000000E-03 0.  1.
         12    1    3    3    0    0 -0.12874494357E+02  0.18148527469E+02 -0.14120339026E+02  0.26353474694E+02  0.00000000000E+00 0. -1.
</event>
<event>
 7    1  0.5373252E-013  0.5052886E+02  0.7816164E-02  0.1300439E+00
        -11   -1    0    0    0    0  0.00000000000E+00  0.00000000000E+00  0.45593999997E+02  0.45594000000E+02  0.51100000000E-03 0.  1.
         11   -1    0    0    0    0 -0.00000000000E+00 -0.00000000000E+00 -0.45593999997E+02  0.45594000000E+02  0.51100000000E-03 0. -1.
    9900012    2    1    2    0    0 -0.18817264187E+02  0.33635015848E+02 -0.12952297063E+02  0.50528859308E+02  0.29999998352E+02 0.  0.
        -12    1    1    2    0    0  0.18817264187E+02 -0.33635015848E+02  0.12952297063E+02  0.40659140692E+02  0.00000000000E+00 0.  1.
         11    1    3    3    0    0 -0.10936931116E+02  0.11186396663E+01 -0.46545004840E+01  0.11938684682E+02  0.51100000000E-03 0. -1.
        -11    1    3    3    0    0  0.24468539940E+01  0.17886627999E+01  0.29966836402E+01  0.42622203346E+01  0.51100000000E-03 0.  1.
        -12    1    3    3    0    0 -0.10327187066E+02  0.30727713382E+02 -0.11294480219E+02  0.34327954291E+02  0.00000000000E+00 0.  1.
</event>
<event>
 7    1  0.5373252E-013  0.5052887E+02  0.7816164E-02  0.1300439E+00
        -11   -1    0    0    0    0  0.00000000000E+00  0.00000000000E+00  0.45593999997E+02  0.45594000000E+02  0.51100000000E-03 0.  1.
         11   -1    0    0    0    0 -0.00000000000E+00 -0.00000000000E+00 -0.45593999997E+02  0.45594000000E+02  0.51100000000E-03 0. -1.
    9900012    2    1    2    0    0 -0.21750797709E+02 -0.23906883070E+02 -0.24668377193E+02  0.50528867047E+02  0.30000021877E+02 0.  0.
        -12    1    1    2    0    0  0.21750797709E+02  0.23906883070E+02  0.24668377193E+02  0.40659132953E+02  0.00000000000E+00 0.  1.
         11    1    3    3    0    0 -0.19616907680E+02 -0.72006836764E+01 -0.12231800612E+02  0.24213423112E+02  0.51100000000E-03 0. -1.
        -11    1    3    3    0    0 -0.50233680625E+01 -0.51309906230E+01  0.21270485559E+01  0.74890338018E+01  0.51100000000E-03 0.  1.
         12    1    3    3    0    0  0.28894780331E+01 -0.11575208771E+02 -0.14563625137E+02  0.18826410134E+02  0.00000000000E+00 0. -1.
</event>
<event>
 7    1  0.5373252E-013  0.5052886E+02  0.7816164E-02  0.1300439E+00
        -11   -1    0    0    0    0  0.00000000000E+00  0.00000000000E+00  0.45593999997E+02  0.45594000000E+02  0.51100000000E-03 0.  1.
         11   -1    0    0    0    0 -0.00000000000E+00 -0.00000000000E+00 -0.45593999997E+02  0.45594000000E+02  0.51100000000E-03 0. -1.
    9900012    2    1    2    0    0 -0.30423348214E+02 -0.90842088493E+01 -0.25398087468E+02  0.50528858174E+02  0.29999994907E+02 0.  0.
        -12    1    1    2    0    0  0.30423348214E+02  0.90842088493E+01  0.25398087468E+02  0.40659141826E+02  0.00000000000E+00 0.  1.
         11    1    3    3    0    0 -0.52956695696E-01  0.36859216468E+01 -0.30723682523E+01  0.47987779420E+01  0.51100000000E-03 0. -1.
        -11    1    3    3    0    0  0.46917566129E+00 -0.71418910290E+01  0.14624706844E+00  0.71587793469E+01  0.51100000000E-03 0.  1.
         12    1    3    3    0    0 -0.30839567179E+02 -0.56282394671E+01 -0.22471966284E+02  0.38571300885E+02  0.00000000000E+00 0. -1.
</event>
<event>
 7    1  0.5373252E-013  0.5052886E+02  0.7816164E-02  0.1300439E+00
        -11   -1    0    0    0    0  0.00000000000E+00  0.00000000000E+00  0.45593999997E+02  0.45594000000E+02  0.51100000000E-03 0. -1.
         11   -1    0    0    0    0 -0.00000000000E+00 -0.00000000000E+00 -0.45593999997E+02  0.45594000000E+02  0.51100000000E-03 0.  1.
    9900012    2    1    2    0    0  0.33290396288E+02  0.16691118720E+02  0.16319366371E+02  0.50528860217E+02  0.30000001115E+02 0.  0.
        -12    1    1    2    0    0 -0.33290396288E+02 -0.16691118720E+02 -0.16319366371E+02  0.40659139783E+02  0.00000000000E+00 0.  1.
         11    1    3    3    0    0  0.89494875726E+01  0.73859781511E+01  0.13636669213E+02  0.17905439077E+02  0.51100000000E-03 0. -1.
        -11    1    3    3    0    0  0.11891111711E+02  0.14670881201E+02  0.49537745686E+00  0.18891233205E+02  0.51100000000E-03 0.  1.
         12    1    3    3    0    0  0.12449797005E+02 -0.53657406317E+01  0.21873197010E+01  0.13732187934E+02  0.00000000000E+00 0. -1.
</event>
<event>
 7    1  0.5373252E-013  0.5052886E+02  0.7816164E-02  0.1300439E+00
        -11   -1    0    0    0    0  0.00000000000E+00  0.00000000000E+00  0.45593999997E+02  0.45594000000E+02  0.51100000000E-03 0. -1.
         11   -1    0    0    0    0 -0.00000000000E+00 -0.00000000000E+00 -0.45593999997E+02  0.45594000000E+02  0.51100000000E-03 0.  1.
    9900012    2    1    2    0    0 -0.19580692779E+02 -0.35111432963E+02  0.60786146231E+01  0.50528858222E+02  0.29999995051E+02 0.  0.
        -12    1    1    2    0    0  0.19580692779E+02  0.35111432963E+02 -0.60786146231E+01  0.40659141778E+02  0.00000000000E+00 0.  1.
         11    1    3    3    0    0 -0.11217347246E+02 -0.10711380151E+02  0.11622454341E+02  0.19381537327E+02  0.51100000000E-03 0. -1.
        -11    1    3    3    0    0 -0.12462019913E+02 -0.11127829412E+02 -0.39300371439E+01  0.17163208324E+02  0.51100000000E-03 0.  1.
         12    1    3    3    0    0  0.40986743803E+01 -0.13272223400E+02 -0.16138025744E+01  0.13984112571E+02  0.00000000000E+00 0. -1.
</event>
<event>
 7    1  0.5373252E-013  0.5052886E+02  0.7816164E-02  0.1300439E+00
        -11   -1    0    0    0    0  0.00000000000E+00  0.00000000000E+00  0.45593999997E+02  0.45594000000E+02  0.51100000000E-03 0. -1.
         11   -1    0    0    0    0 -0.00000000000E+00 -0.00000000000E+00 -0.45593999997E+02  0.45594000000E+02  0.51100000000E-03 0.  1.
    9900012    2    1    2    0    0 -0.36122817912E+02 -0.10927369043E+01  0.18630996102E+02  0.50528855105E+02  0.29999985577E+02 0.  0.
        -12    1    1    2    0    0  0.36122817912E+02  0.10927369043E+01 -0.18630996102E+02  0.40659144895E+02  0.00000000000E+00 0.  1.
         11    1    3    3    0    0  0.13717684910E+01  0.11005547332E+01 -0.66360383383E+00  0.18797180169E+01  0.51100000000E-03 0.  1.
        -11    1    3    3    0    0 -0.17167013134E+02  0.94422135596E+01  0.23337790772E+01  0.19730896125E+02  0.51100000000E-03 0. -1.
         12    1    3    3    0    0 -0.20327573269E+02 -0.11635505197E+02  0.16960820859E+02  0.28918240963E+02  0.00000000000E+00 0. -1.
</event>
<event>
 7    1  0.5373252E-013  0.5052886E+02  0.7816164E-02  0.1300439E+00
        -11   -1    0    0    0    0  0.00000000000E+00  0.00000000000E+00  0.45593999997E+02  0.45594000000E+02  0.51100000000E-03 0.  1.
         11   -1    0    0    0    0 -0.00000000000E+00 -0.00000000000E+00 -0.45593999997E+02  0.45594000000E+02  0.51100000000E-03 0. -1.
    9900012    2    1    2    0    0 -0.22611840275E+02  0.31654615718E+02  0.11826058395E+02  0.50528859896E+02  0.30000000140E+02 0.  0.
        -12    1    1    2    0    0  0.22611840275E+02 -0.31654615718E+02 -0.11826058395E+02  0.40659140104E+02  0.00000000000E+00 0.  1.
         11    1    3    3    0    0 -0.80603784597E+01  0.16913747069E+02 -0.41877206630E+00  0.18740862070E+02  0.51100000000E-03 0. -1.
        -11    1    3    3    0    0 -0.59618329306E+01  0.12251723273E+02 -0.31494979162E+01  0.13984545485E+02  0.51100000000E-03 0.  1.
        -12    1    3    3    0    0 -0.85896288843E+01  0.24891453759E+01  0.15394328377E+02  0.17803452341E+02  0.00000000000E+00 0.  1.
</event>
<event>
 7    1  0.5373252E-013  0.5052881E+02  0.7816164E-02  0.1300439E+00
        -11   -1    0    0    0    0  0.00000000000E+00  0.00000000000E+00  0.45593999997E+02  0.45594000000E+02  0.51100000000E-03 0. -1.
         11   -1    0    0    0    0 -0.00000000000E+00 -0.00000000000E+00 -0.45593999997E+02  0.45594000000E+02  0.51100000000E-03 0.  1.
    9900012    2    1    2    0    0 -0.10085096757E+02  0.36310703589E+02  0.15264106725E+02  0.50528814988E+02  0.29999863637E+02 0.  0.
        -12    1    1    2    0    0  0.10085096757E+02 -0.36310703589E+02 -0.15264106725E+02  0.40659185012E+02  0.00000000000E+00 0.  1.
         11    1    3    3    0    0  0.40529763126E+01  0.85949282524E+01  0.94041356374E+01  0.13369262358E+02  0.51100000000E-03 0. -1.
        -11    1    3    3    0    0 -0.51404940971E+01  0.31913171382E-01  0.61927288684E+01  0.80483283427E+01  0.51100000000E-03 0.  1.
        -12    1    3    3    0    0 -0.89975789728E+01  0.27683862165E+02 -0.33275778112E+00  0.29111224287E+02  0.00000000000E+00 0.  1.
</event>
<event>
 7    1  0.5373252E-013  0.5052886E+02  0.7816164E-02  0.1300439E+00
        -11   -1    0    0    0    0  0.00000000000E+00  0.00000000000E+00  0.45593999997E+02  0.45594000000E+02  0.51100000000E-03 0.  1.
         11   -1    0    0    0    0 -0.00000000000E+00 -0.00000000000E+00 -0.45593999997E+02  0.45594000000E+02  0.51100000000E-03 0. -1.
    9900012    2    1    2    0    0  0.94303627865E+01  0.39550059008E+02  0.16269560927E+00  0.50528863515E+02  0.30000011140E+02 0.  0.
        -12    1    1    2    0    0 -0.94303627865E+01 -0.39550059008E+02 -0.16269560927E+00  0.40659136485E+02  0.00000000000E+00 0.  1.
         11    1    3    3    0    0  0.43301712153E+00 -0.19120241733E+01  0.26726268402E-01  0.19606261299E+01  0.51100000000E-03 0. -1.
        -11    1    3    3    0    0  0.14889584080E+01  0.17118841907E+02 -0.11381311939E+02  0.20610822572E+02  0.51100000000E-03 0.  1.
        -12    1    3    3    0    0  0.75083872569E+01  0.24343241275E+02  0.11517281280E+02  0.27957414813E+02  0.00000000000E+00 0.  1.
</event>
<event>
 7    1  0.5373252E-013  0.5052887E+02  0.7816164E-02  0.1300439E+00
        -11   -1    0    0    0    0  0.00000000000E+00  0.00000000000E+00  0.45593999997E+02  0.45594000000E+02  0.51100000000E-03 0. -1.
         11   -1    0    0    0    0 -0.00000000000E+00 -0.00000000000E+00 -0.45593999997E+02  0.45594000000E+02  0.51100000000E-03 0.  1.
    9900012    2    1    2    0    0  0.83821452449E+01  0.32094096222E+02  0.23513270140E+02  0.50528865185E+02  0.30000016216E+02 0.  0.
        -12    1    1    2    0    0 -0.83821452449E+01 -0.32094096222E+02 -0.23513270140E+02  0.40659134815E+02  0.00000000000E+00 0.  1.
         11    1    3    3    0    0 -0.22320686921E+01  0.18734145343E+02  0.12657789780E+02  0.22719374436E+02  0.51100000000E-03 0. -1.
        -11    1    3    3    0    0 -0.22101866088E+01 -0.28603638422E+01  0.52703439750E+01  0.63908631679E+01  0.51100000000E-03 0.  1.
         12    1    3    3    0    0  0.12824400546E+02  0.16220314721E+02  0.55851363846E+01  0.21418627581E+02  0.00000000000E+00 0. -1.
</event>
<event>
 7    1  0.5373252E-013  0.5052887E+02  0.7816164E-02  0.1300439E+00
        -11   -1    0    0    0    0  0.00000000000E+00  0.00000000000E+00  0.45593999997E+02  0.45594000000E+02  0.51100000000E-03 0.  1.
         11   -1    0    0    0    0 -0.00000000000E+00 -0.00000000000E+00 -0.45593999997E+02  0.45594000000E+02  0.51100000000E-03 0. -1.
    9900012    2    1    2    0    0 -0.22047910906E+00 -0.40458670506E+02 -0.40264022385E+01  0.50528873778E+02  0.30000042336E+02 0.  0.
        -12    1    1    2    0    0  0.22047910906E+00  0.40458670506E+02  0.40264022385E+01  0.40659126222E+02  0.00000000000E+00 0.  1.
         11    1    3    3    0    0  0.37534265700E+01 -0.30248588395E+01 -0.53403614763E+01  0.71942645888E+01  0.51100000000E-03 0. -1.
        -11    1    3    3    0    0 -0.98049501134E+01 -0.66975378793E+01 -0.12793475675E+01  0.11942813355E+02  0.51100000000E-03 0.  1.
        -12    1    3    3    0    0  0.58310444344E+01 -0.30736273787E+02  0.25933068052E+01  0.31391795834E+02  0.00000000000E+00 0.  1.
</event>
<event>
 7    1  0.5373252E-013  0.5052886E+02  0.7816164E-02  0.1300439E+00
        -11   -1    0    0    0    0  0.00000000000E+00  0.00000000000E+00  0.45593999997E+02  0.45594000000E+02  0.51100000000E-03 0.  1.
         11   -1    0    0    0    0 -0.00000000000E+00 -0.00000000000E+00 -0.45593999997E+02  0.45594000000E+02  0.51100000000E-03 0. -1.
    9900012    2    1    2    0    0  0.39074613537E+02  0.98235818000E+01 -0.54623476824E+01  0.50528862963E+02  0.30000009461E+02 0.  0.
        -12    1    1    2    0    0 -0.39074613537E+02 -0.98235818000E+01  0.54623476824E+01  0.40659137037E+02  0.00000000000E+00 0.  1.
         11    1    3    3    0    0  0.15384795441E+02 -0.18146394867E+01  0.36138000203E+01  0.15907369300E+02  0.51100000000E-03 0. -1.
        -11    1    3    3    0    0  0.91639646953E+01  0.11580992580E+02  0.37571716754E+01  0.15238568743E+02  0.51100000000E-03 0.  1.
        -12    1    3    3    0    0  0.14525853401E+02  0.57228706397E-01 -0.12833319378E+02  0.19382924919E+02  0.00000000000E+00 0.  1.
</event>
<event>
 7    1  0.5373252E-013  0.5052886E+02  0.7816164E-02  0.1300439E+00
        -11   -1    0    0    0    0  0.00000000000E+00  0.00000000000E+00  0.45593999997E+02  0.45594000000E+02  0.51100000000E-03 0. -1.
         11   -1    0    0    0    0 -0.00000000000E+00 -0.00000000000E+00 -0.45593999997E+02  0.45594000000E+02  0.51100000000E-03 0.  1.
    9900012    2    1    2    0    0 -0.10703671215E+02 -0.71331049715E+01  0.38570924622E+02  0.50528856007E+02  0.29999988319E+02 0.  0.
        -12    1    1    2    0    0  0.10703671215E+02  0.71331049715E+01 -0.38570924622E+02  0.40659143993E+02  0.00000000000E+00 0.  1.
         11    1    3    3    0    0 -0.10056234493E+02  0.79849270170E-01  0.11898809118E+02  0.15579341667E+02  0.51100000000E-03 0. -1.
        -11    1    3    3    0    0 -0.47079698879E+01 -0.12273973801E+02  0.25005196212E+02  0.28250225684E+02  0.51100000000E-03 0.  1.
        -12    1    3    3    0    0  0.40605331655E+01  0.50610195597E+01  0.16669192921E+01  0.66992886561E+01  0.00000000000E+00 0.  1.
</event>
<event>
 7    1  0.5373252E-013  0.5052886E+02  0.7816164E-02  0.1300439E+00
        -11   -1    0    0    0    0  0.00000000000E+00  0.00000000000E+00  0.45593999997E+02  0.45594000000E+02  0.51100000000E-03 0. -1.
         11   -1    0    0    0    0 -0.00000000000E+00 -0.00000000000E+00 -0.45593999997E+02  0.45594000000E+02  0.51100000000E-03 0.  1.
    9900012    2    1    2    0    0  0.23371703340E+02 -0.69484399813E+01  0.32536879046E+02  0.50528857938E+02  0.29999994187E+02 0.  0.
        -12    1    1    2    0    0 -0.23371703340E+02  0.69484399813E+01 -0.32536879046E+02  0.40659142062E+02  0.00000000000E+00 0.  1.
         11    1    3    3    0    0  0.11080688768E+02 -0.92093160277E+01  0.26771215308E+02  0.30402156742E+02  0.51100000000E-03 0. -1.
        -11    1    3    3    0    0  0.60345961367E+01  0.43307731447E+01  0.98778740975E+01  0.12358978255E+02  0.51100000000E-03 0.  1.
         12    1    3    3    0    0  0.62564184355E+01 -0.20698970983E+01 -0.41122103593E+01  0.77677229402E+01  0.00000000000E+00 0. -1.
</event>
<event>
 7    1  0.5373252E-013  0.5052886E+02  0.7816164E-02  0.1300439E+00
        -11   -1    0    0    0    0  0.00000000000E+00  0.00000000000E+00  0.45593999997E+02  0.45594000000E+02  0.51100000000E-03 0.  1.
         11   -1    0    0    0    0 -0.00000000000E+00 -0.00000000000E+00 -0.45593999997E+02  0.45594000000E+02  0.51100000000E-03 0. -1.
    9900012    2    1    2    0    0  0.14915316712E+02 -0.35821274118E+02 -0.12146405814E+02  0.50528861713E+02  0.30000005663E+02 0.  0.
        -12    1    1    2    0    0 -0.14915316712E+02  0.35821274118E+02  0.12146405814E+02  0.40659138287E+02  0.00000000000E+00 0.  1.
         11    1    3    3    0    0  0.98009464345E+00  0.43198057163E+00 -0.33400588467E+01  0.35075897829E+01  0.51100000000E-03 0. -1.
        -11    1    3    3    0    0 -0.11449595736E+01 -0.14946377613E+01 -0.89358934675E+01  0.91320899463E+01  0.51100000000E-03 0.  1.
        -12    1    3    3    0    0  0.15080181642E+02 -0.34758616928E+02  0.12954649977E+00  0.37889181984E+02  0.00000000000E+00 0.  1.
</event>
<event>
 7    1  0.5373252E-013  0.5052882E+02  0.7816164E-02  0.1300439E+00
        -11   -1    0    0    0    0  0.00000000000E+00  0.00000000000E+00  0.45593999997E+02  0.45594000000E+02  0.51100000000E-03 0. -1.
         11   -1    0    0    0    0 -0.00000000000E+00 -0.00000000000E+00 -0.45593999997E+02  0.45594000000E+02  0.51100000000E-03 0.  1.
    9900012    2    1    2    0    0 -0.34284356096E+02 -0.10269732396E+02  0.19294683003E+02  0.50528815692E+02  0.29999865778E+02 0.  0.
        -12    1    1    2    0    0  0.34284356096E+02  0.10269732396E+02 -0.19294683003E+02  0.40659184308E+02  0.00000000000E+00 0.  1.
         11    1    3    3    0    0 -0.89226349274E+01 -0.83486298803E+01  0.92112326556E+01  0.15302282255E+02  0.51100000000E-03 0. -1.
        -11    1    3    3    0    0 -0.18911930411E+02 -0.10609451187E+02  0.21131666158E+01  0.21787313734E+02  0.51100000000E-03 0.  1.
        -12    1    3    3    0    0 -0.64497907578E+01  0.86883486714E+01  0.79702837314E+01  0.13439219703E+02  0.00000000000E+00 0.  1.
</event>
<event>
 7    1  0.5373252E-013  0.5052886E+02  0.7816164E-02  0.1300439E+00
        -11   -1    0    0    0    0  0.00000000000E+00  0.00000000000E+00  0.45593999997E+02  0.45594000000E+02  0.51100000000E-03 0.  1.
         11   -1    0    0    0    0 -0.00000000000E+00 -0.00000000000E+00 -0.45593999997E+02  0.45594000000E+02  0.51100000000E-03 0. -1.
    9900012    2    1    2    0    0 -0.32049027419E+02  0.23388913322E+02 -0.88873190427E+01  0.50528857552E+02  0.29999993014E+02 0.  0.
        -12    1    1    2    0    0  0.32049027419E+02 -0.23388913322E+02  0.88873190427E+01  0.40659142448E+02  0.00000000000E+00 0.  1.
         11    1    3    3    0    0 -0.14987550342E+02  0.25071423685E+02 -0.69695041487E+01  0.30029601049E+02  0.51100000000E-03 0. -1.
        -11    1    3    3    0    0 -0.10130477360E+02  0.59468725104E+00 -0.63424042977E+01  0.11966884181E+02  0.51100000000E-03 0.  1.
         12    1    3    3    0    0 -0.69309997166E+01 -0.22771976137E+01  0.44245894037E+01  0.85323723216E+01  0.00000000000E+00 0. -1.
</event>
<event>
 7    1  0.5373252E-013  0.5052886E+02  0.7816164E-02  0.1300439E+00
        -11   -1    0    0    0    0  0.00000000000E+00  0.00000000000E+00  0.45593999997E+02  0.45594000000E+02  0.51100000000E-03 0.  1.
         11   -1    0    0    0    0 -0.00000000000E+00 -0.00000000000E+00 -0.45593999997E+02  0.45594000000E+02  0.51100000000E-03 0. -1.
    9900012    2    1    2    0    0 -0.27030804775E+02  0.29207782697E+02  0.83310917391E+01  0.50528855070E+02  0.29999985471E+02 0.  0.
        -12    1    1    2    0    0  0.27030804775E+02 -0.29207782697E+02 -0.83310917391E+01  0.40659144930E+02  0.00000000000E+00 0.  1.
         11    1    3    3    0    0 -0.15721673337E+02  0.22434123709E+02 -0.65469484693E+01  0.28165998182E+02  0.51100000000E-03 0. -1.
        -11    1    3    3    0    0  0.96332707843E+00  0.24528830757E+01  0.61633404855E+01  0.67030888883E+01  0.51100000000E-03 0.  1.
        -12    1    3    3    0    0 -0.12272458517E+02  0.43207759130E+01  0.87146997229E+01  0.15659768000E+02  0.00000000000E+00 0.  1.
</event>
<event>
 7    1  0.5373252E-013  0.5052886E+02  0.7816164E-02  0.1300439E+00
        -11   -1    0    0    0    0  0.00000000000E+00  0.00000000000E+00  0.45593999997E+02  0.45594000000E+02  0.51100000000E-03 0.  1.
         11   -1    0    0    0    0 -0.00000000000E+00 -0.00000000000E+00 -0.45593999997E+02  0.45594000000E+02  0.51100000000E-03 0. -1.
    9900012    2    1    2    0    0 -0.91365396966E+01  0.80352060780E+01 -0.38795937641E+02  0.50528859923E+02  0.30000000221E+02 0.  0.
        -12    1    1    2    0    0  0.91365396966E+01 -0.80352060780E+01  0.38795937641E+02  0.40659140077E+02  0.00000000000E+00 0.  1.
         11    1    3    3    0    0  0.71895692950E+01 -0.15298992117E+01 -0.14862163769E+02  0.16580543127E+02  0.51100000000E-03 0. -1.
        -11    1    3    3    0    0 -0.79948873463E+01  0.89424175353E+01 -0.22463396003E+02  0.25465451406E+02  0.51100000000E-03 0.  1.
        -12    1    3    3    0    0 -0.83312216453E+01  0.62268775434E+00 -0.14703778700E+01  0.84828653899E+01  0.00000000000E+00 0.  1.
</event>
<event>
 7    1  0.5373252E-013  0.5052885E+02  0.7816164E-02  0.1300439E+00
        -11   -1    0    0    0    0  0.00000000000E+00  0.00000000000E+00  0.45593999997E+02  0.45594000000E+02  0.51100000000E-03 0.  1.
         11   -1    0    0    0    0 -0.00000000000E+00 -0.00000000000E+00 -0.45593999997E+02  0.45594000000E+02  0.51100000000E-03 0. -1.
    9900012    2    1    2    0    0 -0.72189604284E+01  0.38682036123E+02 -0.10234880737E+02  0.50528854756E+02  0.29999984517E+02 0.  0.
        -12    1    1    2    0    0  0.72189604284E+01 -0.38682036123E+02  0.10234880737E+02  0.40659145244E+02  0.00000000000E+00 0.  1.
         11    1    3    3    0    0  0.38296690689E+01  0.24584958895E+02 -0.15271123473E+02  0.29194070998E+02  0.51100000000E-03 0. -1.
        -11    1    3    3    0    0  0.76333220493E-01 -0.91165799862E+00  0.22718171158E+01  0.24491019447E+01  0.51100000000E-03 0.  1.
        -12    1    3    3    0    0 -0.11124962718E+02  0.15008735226E+02  0.27644256201E+01  0.18885681814E+02  0.00000000000E+00 0.  1.
</event>
<event>
 7    1  0.5373252E-013  0.5052886E+02  0.7816164E-02  0.1300439E+00
        -11   -1    0    0    0    0  0.00000000000E+00  0.00000000000E+00  0.45593999997E+02  0.45594000000E+02  0.51100000000E-03 0.  1.
         11   -1    0    0    0    0 -0.00000000000E+00 -0.00000000000E+00 -0.45593999997E+02  0.45594000000E+02  0.51100000000E-03 0. -1.
    9900012    2    1    2    0    0 -0.24174589594E+02  0.28991824465E+02  0.15107248652E+02  0.50528860441E+02  0.30000001797E+02 0.  0.
        -12    1    1    2    0    0  0.24174589594E+02 -0.28991824465E+02 -0.15107248652E+02  0.40659139559E+02  0.00000000000E+00 0.  1.
         11    1    3    3    0    0 -0.21701115975E+01  0.78793174244E+00 -0.85428963523E+00  0.24617131877E+01  0.51100000000E-03 0. -1.
        -11    1    3    3    0    0 -0.11918429232E+02  0.29006052908E+02  0.19976831144E+02  0.37181633147E+02  0.51100000000E-03 0.  1.
        -12    1    3    3    0    0 -0.10086048764E+02 -0.80216018578E+00 -0.40152928562E+01  0.10885514106E+02  0.00000000000E+00 0.  1.
</event>
<event>
 7    1  0.5373252E-013  0.5052888E+02  0.7816164E-02  0.1300439E+00
        -11   -1    0    0    0    0  0.00000000000E+00  0.00000000000E+00  0.45593999997E+02  0.45594000000E+02  0.51100000000E-03 0.  1.
         11   -1    0    0    0    0 -0.00000000000E+00 -0.00000000000E+00 -0.45593999997E+02  0.45594000000E+02  0.51100000000E-03 0. -1.
    9900012    2    1    2    0    0  0.18260059641E+02  0.24330338888E+02 -0.26977194094E+02  0.50528878395E+02  0.30000056370E+02 0.  0.
        -12    1    1    2    0    0 -0.18260059641E+02 -0.24330338888E+02  0.26977194094E+02  0.40659121605E+02  0.00000000000E+00 0.  1.
         11    1    3    3    0    0  0.53567174744E+01  0.92906181217E+01 -0.23465928649E+00  0.10726838883E+02  0.51100000000E-03 0. -1.
        -11    1    3    3    0    0 -0.22642358287E+00 -0.49097605556E+01 -0.82250994292E+01  0.95817157771E+01  0.51100000000E-03 0.  1.
         12    1    3    3    0    0  0.13129765749E+02  0.19949481322E+02 -0.18517435378E+02  0.30220323735E+02  0.00000000000E+00 0. -1.
</event>
<event>
 7    1  0.5373252E-013  0.5052890E+02  0.7816164E-02  0.1300439E+00
        -11   -1    0    0    0    0  0.00000000000E+00  0.00000000000E+00  0.45593999997E+02  0.45594000000E+02  0.51100000000E-03 0.  1.
         11   -1    0    0    0    0 -0.00000000000E+00 -0.00000000000E+00 -0.45593999997E+02  0.45594000000E+02  0.51100000000E-03 0. -1.
    9900012    2    1    2    0    0 -0.26722013231E+02  0.29028691240E+02 -0.98199538283E+01  0.50528900165E+02  0.30000122542E+02 0.  0.
        -12    1    1    2    0    0  0.26722013231E+02 -0.29028691240E+02  0.98199538283E+01  0.40659099835E+02  0.00000000000E+00 0.  1.
         11    1    3    3    0    0 -0.21854127362E+02  0.21752861955E+02 -0.20657949025E+01  0.30904002893E+02  0.51100000000E-03 0. -1.
        -11    1    3    3    0    0  0.31186818532E+01  0.65504517164E+01  0.14696973118E+01  0.74023377821E+01  0.51100000000E-03 0.  1.
        -12    1    3    3    0    0 -0.79865677215E+01  0.72537756841E+00 -0.92238562376E+01  0.12222559490E+02  0.00000000000E+00 0.  1.
</event>
<event>
 7    1  0.5373252E-013  0.5052888E+02  0.7816164E-02  0.1300439E+00
        -11   -1    0    0    0    0  0.00000000000E+00  0.00000000000E+00  0.45593999997E+02  0.45594000000E+02  0.51100000000E-03 0.  1.
         11   -1    0    0    0    0 -0.00000000000E+00 -0.00000000000E+00 -0.45593999997E+02  0.45594000000E+02  0.51100000000E-03 0. -1.
    9900012    2    1    2    0    0  0.15597111779E+02 -0.77595598769E+01 -0.36738033562E+02  0.50528883245E+02  0.30000071110E+02 0.  0.
        -12    1    1    2    0    0 -0.15597111779E+02  0.77595598769E+01  0.36738033562E+02  0.40659116755E+02  0.00000000000E+00 0.  1.
         11    1    3    3    0    0  0.20059670561E+01  0.92120688607E+01 -0.10398831507E+02  0.14036445900E+02  0.51100000000E-03 0. -1.
        -11    1    3    3    0    0 -0.23131508607E+01 -0.17978573210E+01 -0.53487929601E+01  0.60985690324E+01  0.51100000000E-03 0.  1.
         12    1    3    3    0    0  0.15904295584E+02 -0.15173771417E+02 -0.20990409095E+02  0.30393868313E+02  0.00000000000E+00 0. -1.
</event>
<event>
 7    1  0.5373252E-013  0.5052886E+02  0.7816164E-02  0.1300439E+00
        -11   -1    0    0    0    0  0.00000000000E+00  0.00000000000E+00  0.45593999997E+02  0.45594000000E+02  0.51100000000E-03 0.  1.
         11   -1    0    0    0    0 -0.00000000000E+00 -0.00000000000E+00 -0.45593999997E+02  0.45594000000E+02  0.51100000000E-03 0. -1.
    9900012    2    1    2    0    0  0.36611717465E+02  0.87189272583E+01  0.15385979899E+02  0.50528856801E+02  0.29999990731E+02 0.  0.
        -12    1    1    2    0    0 -0.36611717465E+02 -0.87189272583E+01 -0.15385979899E+02  0.40659143199E+02  0.00000000000E+00 0.  1.
         11    1    3    3    0    0  0.99147190800E+01 -0.37658703254E+01  0.95989156497E+01  0.14304636159E+02  0.51100000000E-03 0. -1.
        -11    1    3    3    0    0 -0.85686879997E+00  0.37579061188E+00 -0.43624979388E+01  0.44617072127E+01  0.51100000000E-03 0.  1.
         12    1    3    3    0    0  0.27553867185E+02  0.12109006972E+02  0.10149562188E+02  0.31762513428E+02  0.00000000000E+00 0. -1.
</event>
<event>
 7    1  0.5373252E-013  0.5052886E+02  0.7816164E-02  0.1300439E+00
        -11   -1    0    0    0    0  0.00000000000E+00  0.00000000000E+00  0.45593999997E+02  0.45594000000E+02  0.51100000000E-03 0. -1.
         11   -1    0    0    0    0 -0.00000000000E+00 -0.00000000000E+00 -0.45593999997E+02  0.45594000000E+02  0.51100000000E-03 0.  1.
    9900012    2    1    2    0    0 -0.33689753220E+02  0.17160444161E+02  0.14956122926E+02  0.50528856762E+02  0.29999990614E+02 0.  0.
        -12    1    1    2    0    0  0.33689753220E+02 -0.17160444161E+02 -0.14956122926E+02  0.40659143238E+02  0.00000000000E+00 0.  1.
         11    1    3    3    0    0 -0.21714770178E+01  0.75719700601E+01  0.61711428704E+01  0.10006650170E+02  0.51100000000E-03 0.  1.
        -11    1    3    3    0    0 -0.20320990615E+02  0.16501390318E+02  0.38052534358E+01  0.26452192649E+02  0.51100000000E-03 0. -1.
        -12    1    3    3    0    0 -0.11197285588E+02 -0.69129162164E+01  0.49797266198E+01  0.14070013943E+02  0.00000000000E+00 0.  1.
</event>
<event>
 7    1  0.5373252E-013  0.5052886E+02  0.7816164E-02  0.1300439E+00
        -11   -1    0    0    0    0  0.00000000000E+00  0.00000000000E+00  0.45593999997E+02  0.45594000000E+02  0.51100000000E-03 0.  1.
         11   -1    0    0    0    0 -0.00000000000E+00 -0.00000000000E+00 -0.45593999997E+02  0.45594000000E+02  0.51100000000E-03 0. -1.
    9900012    2    1    2    0    0  0.42474857275E+01  0.21358380416E+02 -0.34335761005E+02  0.50528855484E+02  0.29999986728E+02 0.  0.
        -12    1    1    2    0    0 -0.42474857275E+01 -0.21358380416E+02  0.34335761005E+02  0.40659144516E+02  0.00000000000E+00 0.  1.
         11    1    3    3    0    0  0.13406060851E+01  0.10675560685E+02 -0.69406516165E+00  0.10781769212E+02  0.51100000000E-03 0. -1.
        -11    1    3    3    0    0  0.96401086024E+01  0.26351741814E+01 -0.21435680344E+02  0.23650882201E+02  0.51100000000E-03 0.  1.
         12    1    3    3    0    0 -0.67332289600E+01  0.80476455493E+01 -0.12206015500E+02  0.16096204071E+02  0.00000000000E+00 0. -1.
</event>
<event>
 7    1  0.5373252E-013  0.5052886E+02  0.7816164E-02  0.1300439E+00
        -11   -1    0    0    0    0  0.00000000000E+00  0.00000000000E+00  0.45593999997E+02  0.45594000000E+02  0.51100000000E-03 0.  1.
         11   -1    0    0    0    0 -0.00000000000E+00 -0.00000000000E+00 -0.45593999997E+02  0.45594000000E+02  0.51100000000E-03 0. -1.
    9900012    2    1    2    0    0 -0.28827015334E+02  0.28596316016E+02 -0.21021957868E+01  0.50528864128E+02  0.30000013004E+02 0.  0.
        -12    1    1    2    0    0  0.28827015334E+02 -0.28596316016E+02  0.21021957868E+01  0.40659135872E+02  0.00000000000E+00 0.  1.
         11    1    3    3    0    0 -0.90390105901E+01  0.16342800586E+02 -0.12995920688E+01  0.18721105289E+02  0.51100000000E-03 0. -1.
        -11    1    3    3    0    0 -0.23738852297E+02  0.98490421977E+01  0.29260272034E+01  0.25866935962E+02  0.51100000000E-03 0.  1.
         12    1    3    3    0    0  0.39508475532E+01  0.24044732322E+01 -0.37286309214E+01  0.59408228774E+01  0.00000000000E+00 0. -1.
</event>
<event>
 7    1  0.5373252E-013  0.5052886E+02  0.7816164E-02  0.1300439E+00
        -11   -1    0    0    0    0  0.00000000000E+00  0.00000000000E+00  0.45593999997E+02  0.45594000000E+02  0.51100000000E-03 0.  1.
         11   -1    0    0    0    0 -0.00000000000E+00 -0.00000000000E+00 -0.45593999997E+02  0.45594000000E+02  0.51100000000E-03 0. -1.
    9900012    2    1    2    0    0 -0.12832041474E+02 -0.28378138104E+02 -0.26137820877E+02  0.50528859689E+02  0.29999999511E+02 0.  0.
        -12    1    1    2    0    0  0.12832041474E+02  0.28378138104E+02  0.26137820877E+02  0.40659140311E+02  0.00000000000E+00 0.  1.
         11    1    3    3    0    0 -0.30792390389E+01 -0.25377421378E+02 -0.80749161497E+01  0.26808571390E+02  0.51100000000E-03 0. -1.
        -11    1    3    3    0    0 -0.53088680823E+01 -0.66392986560E+01 -0.14923336329E+02  0.17174700417E+02  0.51100000000E-03 0.  1.
        -12    1    3    3    0    0 -0.44439343524E+01  0.36385819305E+01 -0.31395683980E+01  0.65455878819E+01  0.00000000000E+00 0.  1.
</event>
<event>
 7    1  0.5373252E-013  0.5052886E+02  0.7816164E-02  0.1300439E+00
        -11   -1    0    0    0    0  0.00000000000E+00  0.00000000000E+00  0.45593999997E+02  0.45594000000E+02  0.51100000000E-03 0. -1.
         11   -1    0    0    0    0 -0.00000000000E+00 -0.00000000000E+00 -0.45593999997E+02  0.45594000000E+02  0.51100000000E-03 0.  1.
    9900012    2    1    2    0    0 -0.34738606535E+02 -0.12465383182E+02  0.17058998529E+02  0.50528855977E+02  0.29999988228E+02 0.  0.
        -12    1    1    2    0    0  0.34738606535E+02  0.12465383182E+02 -0.17058998529E+02  0.40659144023E+02  0.00000000000E+00 0.  1.
         11    1    3    3    0    0 -0.61324284266E+01 -0.93165071097E+01  0.21280388685E+01  0.11354846226E+02  0.51100000000E-03 0. -1.
        -11    1    3    3    0    0 -0.23503910182E+02 -0.74691689620E+01  0.21570899983E+01  0.24756318716E+02  0.51100000000E-03 0.  1.
         12    1    3    3    0    0 -0.51022679257E+01  0.43202928893E+01  0.12773869662E+02  0.14417691035E+02  0.00000000000E+00 0. -1.
</event>
<event>
 7    1  0.5373252E-013  0.5052885E+02  0.7816164E-02  0.1300439E+00
        -11   -1    0    0    0    0  0.00000000000E+00  0.00000000000E+00  0.45593999997E+02  0.45594000000E+02  0.51100000000E-03 0. -1.
         11   -1    0    0    0    0 -0.00000000000E+00 -0.00000000000E+00 -0.45593999997E+02  0.45594000000E+02  0.51100000000E-03 0.  1.
    9900012    2    1    2    0    0  0.24227484344E+02  0.29046094482E+02  0.14917110631E+02  0.50528846149E+02  0.29999958354E+02 0.  0.
        -12    1    1    2    0    0 -0.24227484344E+02 -0.29046094482E+02 -0.14917110631E+02  0.40659153851E+02  0.00000000000E+00 0.  1.
         11    1    3    3    0    0  0.88673446442E+01  0.18074737491E+01  0.90386503268E+01  0.12790385545E+02  0.51100000000E-03 0.  1.
        -11    1    3    3    0    0  0.11078242911E+02  0.43864141700E+01 -0.38696723621E+01  0.12527667768E+02  0.51100000000E-03 0. -1.
        -12    1    3    3    0    0  0.42818967891E+01  0.22852206563E+02  0.97481326667E+01  0.25210792836E+02  0.00000000000E+00 0.  1.
</event>
<event>
 7    1  0.5373252E-013  0.5052887E+02  0.7816164E-02  0.1300439E+00
        -11   -1    0    0    0    0  0.00000000000E+00  0.00000000000E+00  0.45593999997E+02  0.45594000000E+02  0.51100000000E-03 0.  1.
         11   -1    0    0    0    0 -0.00000000000E+00 -0.00000000000E+00 -0.45593999997E+02  0.45594000000E+02  0.51100000000E-03 0. -1.
    9900012    2    1    2    0    0 -0.36043967635E+01 -0.25655060620E+02 -0.31336739303E+02  0.50528867673E+02  0.30000023780E+02 0.  0.
        -12    1    1    2    0    0  0.36043967635E+01  0.25655060620E+02  0.31336739303E+02  0.40659132327E+02  0.00000000000E+00 0.  1.
         11    1    3    3    0    0  0.69574068087E+00 -0.11178779239E+02 -0.15478654122E+02  0.19105964881E+02  0.51100000000E-03 0. -1.
        -11    1    3    3    0    0 -0.13007454541E+02 -0.59742215216E+01 -0.11934067549E+02  0.18636178925E+02  0.51100000000E-03 0.  1.
        -12    1    3    3    0    0  0.87073170963E+01 -0.85020598593E+01 -0.39240176325E+01  0.12786723867E+02  0.00000000000E+00 0.  1.
</event>
<event>
 7    1  0.5373252E-013  0.5052886E+02  0.7816164E-02  0.1300439E+00
        -11   -1    0    0    0    0  0.00000000000E+00  0.00000000000E+00  0.45593999997E+02  0.45594000000E+02  0.51100000000E-03 0.  1.
         11   -1    0    0    0    0 -0.00000000000E+00 -0.00000000000E+00 -0.45593999997E+02  0.45594000000E+02  0.51100000000E-03 0. -1.
    9900012    2    1    2    0    0 -0.34204079446E+02  0.21291931153E+02  0.54681188230E+01  0.50528859497E+02  0.29999998927E+02 0.  0.
        -12    1    1    2    0    0  0.34204079446E+02 -0.21291931153E+02 -0.54681188230E+01  0.40659140503E+02  0.00000000000E+00 0.  1.
         11    1    3    3    0    0 -0.53466206343E+01  0.88694941121E+01  0.52507239646E+01  0.11611390116E+02  0.51100000000E-03 0. -1.
        -11    1    3    3    0    0 -0.14421113869E+02  0.24476875644E+01  0.11017969701E+02  0.18312710237E+02  0.51100000000E-03 0.  1.
         12    1    3    3    0    0 -0.14436344943E+02  0.99747494766E+01 -0.10800574843E+02  0.20604759144E+02  0.00000000000E+00 0. -1.
</event>
<event>
 7    1  0.5373252E-013  0.5052886E+02  0.7816164E-02  0.1300439E+00
        -11   -1    0    0    0    0  0.00000000000E+00  0.00000000000E+00  0.45593999997E+02  0.45594000000E+02  0.51100000000E-03 0. -1.
         11   -1    0    0    0    0 -0.00000000000E+00 -0.00000000000E+00 -0.45593999997E+02  0.45594000000E+02  0.51100000000E-03 0.  1.
    9900012    2    1    2    0    0  0.26969686230E+02 -0.24334053989E+02  0.18266244783E+02  0.50528857641E+02  0.29999993286E+02 0.  0.
        -12    1    1    2    0    0 -0.26969686230E+02  0.24334053989E+02 -0.18266244783E+02  0.40659142359E+02  0.00000000000E+00 0.  1.
         11    1    3    3    0    0  0.30501185595E+01 -0.16951126247E+02  0.10447748754E+02  0.20144462230E+02  0.51100000000E-03 0. -1.
        -11    1    3    3    0    0  0.75321892977E+01 -0.87292941242E+01 -0.12661563288E+01  0.11599034599E+02  0.51100000000E-03 0.  1.
        -12    1    3    3    0    0  0.16387378373E+02  0.13463663818E+01  0.90846523585E+01  0.18785360812E+02  0.00000000000E+00 0.  1.
</event>
<event>
 7    1  0.5373252E-013  0.5052885E+02  0.7816164E-02  0.1300439E+00
        -11   -1    0    0    0    0  0.00000000000E+00  0.00000000000E+00  0.45593999997E+02  0.45594000000E+02  0.51100000000E-03 0. -1.
         11   -1    0    0    0    0 -0.00000000000E+00 -0.00000000000E+00 -0.45593999997E+02  0.45594000000E+02  0.51100000000E-03 0.  1.
    9900012    2    1    2    0    0  0.38324065991E+02 -0.12931470412E+02  0.41484182651E+01  0.50528851765E+02  0.29999975425E+02 0.  0.
        -12    1    1    2    0    0 -0.38324065991E+02  0.12931470412E+02 -0.41484182651E+01  0.40659148235E+02  0.00000000000E+00 0.  1.
         11    1    3    3    0    0  0.18288516644E+02  0.51868068094E+01  0.10708766255E+02  0.21818581092E+02  0.51100000000E-03 0.  1.
        -11    1    3    3    0    0  0.59843284803E+01 -0.70462933227E+01  0.98085219027E+00  0.92964782703E+01  0.51100000000E-03 0. -1.
        -12    1    3    3    0    0  0.14051220866E+02 -0.11071983899E+02 -0.75412001797E+01  0.19413792402E+02  0.00000000000E+00 0.  1.
</event>
<event>
 7    1  0.5373252E-013  0.5052886E+02  0.7816164E-02  0.1300439E+00
        -11   -1    0    0    0    0  0.00000000000E+00  0.00000000000E+00  0.45593999997E+02  0.45594000000E+02  0.51100000000E-03 0.  1.
         11   -1    0    0    0    0 -0.00000000000E+00 -0.00000000000E+00 -0.45593999997E+02  0.45594000000E+02  0.51100000000E-03 0. -1.
    9900012    2    1    2    0    0 -0.10221241711E+02  0.33860274227E+02 -0.20054267804E+02  0.50528860683E+02  0.30000002532E+02 0.  0.
        -12    1    1    2    0    0  0.10221241711E+02 -0.33860274227E+02  0.20054267804E+02  0.40659139317E+02  0.00000000000E+00 0.  1.
         11    1    3    3    0    0 -0.35554548876E+01  0.28311143295E+02 -0.23503284008E+02  0.36967099609E+02  0.51100000000E-03 0. -1.
        -11    1    3    3    0    0  0.41847367554E+00  0.28561368014E+01 -0.25844770003E+01  0.38745527834E+01  0.51100000000E-03 0.  1.
        -12    1    3    3    0    0 -0.70842604993E+01  0.26929941310E+01  0.60334932041E+01  0.96872082901E+01  0.00000000000E+00 0.  1.
</event>
<event>
 7    1  0.5373252E-013  0.5052887E+02  0.7816164E-02  0.1300439E+00
        -11   -1    0    0    0    0  0.00000000000E+00  0.00000000000E+00  0.45593999997E+02  0.45594000000E+02  0.51100000000E-03 0. -1.
         11   -1    0    0    0    0 -0.00000000000E+00 -0.00000000000E+00 -0.45593999997E+02  0.45594000000E+02  0.51100000000E-03 0.  1.
    9900012    2    1    2    0    0 -0.36576899349E+02  0.16598048072E+02 -0.63087387796E+01  0.50528868789E+02  0.30000027172E+02 0.  0.
        -12    1    1    2    0    0  0.36576899349E+02 -0.16598048072E+02  0.63087387796E+01  0.40659131211E+02  0.00000000000E+00 0.  1.
         11    1    3    3    0    0 -0.11752297362E+02  0.30480725844E+01 -0.46511472340E+01  0.13001554162E+02  0.51100000000E-03 0.  1.
        -11    1    3    3    0    0 -0.22990313170E+01 -0.35722838392E+00 -0.96085585258E+01  0.98862305415E+01  0.51100000000E-03 0. -1.
         12    1    3    3    0    0 -0.22525570670E+02  0.13907203871E+02  0.79509669802E+01  0.27641084086E+02  0.00000000000E+00 0. -1.
</event>
<event>
 7    1  0.5373252E-013  0.5052886E+02  0.7816164E-02  0.1300439E+00
        -11   -1    0    0    0    0  0.00000000000E+00  0.00000000000E+00  0.45593999997E+02  0.45594000000E+02  0.51100000000E-03 0.  1.
         11   -1    0    0    0    0 -0.00000000000E+00 -0.00000000000E+00 -0.45593999997E+02  0.45594000000E+02  0.51100000000E-03 0. -1.
    9900012    2    1    2    0    0  0.20307972211E+02 -0.21968604479E+02 -0.27534203952E+02  0.50528859510E+02  0.29999998968E+02 0.  0.
        -12    1    1    2    0    0 -0.20307972211E+02  0.21968604479E+02  0.27534203952E+02  0.40659140490E+02  0.00000000000E+00 0.  1.
         11    1    3    3    0    0 -0.24491935988E+01 -0.62855223938E+01 -0.55739693368E+01  0.87507414244E+01  0.51100000000E-03 0. -1.
        -11    1    3    3    0    0 -0.35871492075E+01 -0.68477068847E+01 -0.41528458182E+01  0.87752411743E+01  0.51100000000E-03 0.  1.
         12    1    3    3    0    0  0.26344315018E+02 -0.88353752000E+01 -0.17807388797E+02  0.33002876912E+02  0.00000000000E+00 0. -1.
</event>
<event>
 7    1  0.5373252E-013  0.5052887E+02  0.7816164E-02  0.1300439E+00
        -11   -1    0    0    0    0  0.00000000000E+00  0.00000000000E+00  0.45593999997E+02  0.45594000000E+02  0.51100000000E-03 0. -1.
         11   -1    0    0    0    0 -0.00000000000E+00 -0.00000000000E+00 -0.45593999997E+02  0.45594000000E+02  0.51100000000E-03 0.  1.
    9900012    2    1    2    0    0 -0.20422285504E+01  0.36453212771E+02  0.17892954657E+02  0.50528865170E+02  0.30000016171E+02 0.  0.
        -12    1    1    2    0    0  0.20422285504E+01 -0.36453212771E+02 -0.17892954657E+02  0.40659134830E+02  0.00000000000E+00 0.  1.
         11    1    3    3    0    0  0.28753192283E+00  0.21039306382E+02  0.34085367156E+01  0.21315562635E+02  0.51100000000E-03 0. -1.
        -11    1    3    3    0    0  0.73731299290E+01  0.81160213771E+00  0.19755321180E+01  0.76762276146E+01  0.51100000000E-03 0.  1.
         12    1    3    3    0    0 -0.97028904022E+01  0.14602304251E+02  0.12508885823E+02  0.21537074920E+02  0.00000000000E+00 0. -1.
</event>
<event>
 7    1  0.5373252E-013  0.5052886E+02  0.7816164E-02  0.1300439E+00
        -11   -1    0    0    0    0  0.00000000000E+00  0.00000000000E+00  0.45593999997E+02  0.45594000000E+02  0.51100000000E-03 0.  1.
         11   -1    0    0    0    0 -0.00000000000E+00 -0.00000000000E+00 -0.45593999997E+02  0.45594000000E+02  0.51100000000E-03 0. -1.
    9900012    2    1    2    0    0 -0.20603396663E+02 -0.30731491109E+02 -0.16859453633E+02  0.50528859864E+02  0.30000000042E+02 0.  0.
        -12    1    1    2    0    0  0.20603396663E+02  0.30731491109E+02  0.16859453633E+02  0.40659140136E+02  0.00000000000E+00 0.  1.
         11    1    3    3    0    0  0.37541085952E+01 -0.44404295425E+01 -0.41208762967E+01  0.71268764252E+01  0.51100000000E-03 0. -1.
        -11    1    3    3    0    0 -0.80618773420E+01 -0.38004133060E+01 -0.12837510034E+02  0.15628137180E+02  0.51100000000E-03 0.  1.
        -12    1    3    3    0    0 -0.16295627916E+02 -0.22490648260E+02  0.98932697904E-01  0.27773846259E+02  0.00000000000E+00 0.  1.
</event>
<event>
 7    1  0.5373252E-013  0.5052887E+02  0.7816164E-02  0.1300439E+00
        -11   -1    0    0    0    0  0.00000000000E+00  0.00000000000E+00  0.45593999997E+02  0.45594000000E+02  0.51100000000E-03 0.  1.
         11   -1    0    0    0    0 -0.00000000000E+00 -0.00000000000E+00 -0.45593999997E+02  0.45594000000E+02  0.51100000000E-03 0. -1.
    9900012    2    1    2    0    0  0.22878351330E+01  0.29165019718E+02 -0.28237076683E+02  0.50528867393E+02  0.30000022928E+02 0.  0.
        -12    1    1    2    0    0 -0.22878351330E+01 -0.29165019718E+02  0.28237076683E+02  0.40659132607E+02  0.00000000000E+00 0.  1.
         11    1    3    3    0    0  0.79706208250E+01  0.90407974402E+01 -0.15233808390E+02  0.19425131480E+02  0.51100000000E-03 0. -1.
        -11    1    3    3    0    0  0.60707453953E+01  0.71010023542E+01 -0.12797836110E+00  0.93431559342E+01  0.51100000000E-03 0.  1.
        -12    1    3    3    0    0 -0.11753531087E+02  0.13023219923E+02 -0.12875289932E+02  0.21760579979E+02  0.00000000000E+00 0.  1.
</event>
<event>
 7    1  0.5373252E-013  0.5052885E+02  0.7816164E-02  0.1300439E+00
        -11   -1    0    0    0    0  0.00000000000E+00  0.00000000000E+00  0.45593999997E+02  0.45594000000E+02  0.51100000000E-03 0. -1.
         11   -1    0    0    0    0 -0.00000000000E+00 -0.00000000000E+00 -0.45593999997E+02  0.45594000000E+02  0.51100000000E-03 0.  1.
    9900012    2    1    2    0    0 -0.17997818893E+02  0.35306014943E+02  0.90956339330E+01  0.50528846877E+02  0.29999960566E+02 0.  0.
        -12    1    1    2    0    0  0.17997818893E+02 -0.35306014943E+02 -0.90956339330E+01  0.40659153123E+02  0.00000000000E+00 0.  1.
         11    1    3    3    0    0 -0.86003372300E+01  0.19999276857E+02  0.96831562392E+01  0.23826464074E+02  0.51100000000E-03 0. -1.
        -11    1    3    3    0    0 -0.10009953794E+02 -0.10467736572E+01  0.16031965875E+01  0.10191425298E+02  0.51100000000E-03 0.  1.
         12    1    3    3    0    0  0.61247213014E+00  0.16353511743E+02 -0.21907188937E+01  0.16510957504E+02  0.00000000000E+00 0. -1.
</event>
<event>
 7    1  0.5373252E-013  0.5052886E+02  0.7816164E-02  0.1300439E+00
        -11   -1    0    0    0    0  0.00000000000E+00  0.00000000000E+00  0.45593999997E+02  0.45594000000E+02  0.51100000000E-03 0.  1.
         11   -1    0    0    0    0 -0.00000000000E+00 -0.00000000000E+00 -0.45593999997E+02  0.45594000000E+02  0.51100000000E-03 0. -1.
    9900012    2    1    2    0    0  0.44054414913E+00 -0.31928623184E+02 -0.25170114535E+02  0.50528859290E+02  0.29999998298E+02 0.  0.
        -12    1    1    2    0    0 -0.44054414913E+00  0.31928623184E+02  0.25170114535E+02  0.40659140710E+02  0.00000000000E+00 0.  1.
         11    1    3    3    0    0 -0.77404906264E+00 -0.12072932645E+02 -0.12977880665E+02  0.17742047272E+02  0.51100000000E-03 0. -1.
        -11    1    3    3    0    0 -0.51676046314E+01 -0.21800069193E+02 -0.49589697838E+01  0.22946427522E+02  0.51100000000E-03 0.  1.
        -12    1    3    3    0    0  0.63821978431E+01  0.19443786548E+01 -0.72332640867E+01  0.98403844950E+01  0.00000000000E+00 0.  1.
</event>
<event>
 7    1  0.5373252E-013  0.5052886E+02  0.7816164E-02  0.1300439E+00
        -11   -1    0    0    0    0  0.00000000000E+00  0.00000000000E+00  0.45593999997E+02  0.45594000000E+02  0.51100000000E-03 0.  1.
         11   -1    0    0    0    0 -0.00000000000E+00 -0.00000000000E+00 -0.45593999997E+02  0.45594000000E+02  0.51100000000E-03 0. -1.
    9900012    2    1    2    0    0 -0.38601881119E+02  0.12707616670E+02  0.12555961199E+01  0.50528864877E+02  0.30000015279E+02 0.  0.
        -12    1    1    2    0    0  0.38601881119E+02 -0.12707616670E+02 -0.12555961199E+01  0.40659135123E+02  0.00000000000E+00 0.  1.
         11    1    3    3    0    0  0.45408958857E+00  0.35322408157E+01 -0.60145829163E+00  0.36117412521E+01  0.51100000000E-03 0. -1.
        -11    1    3    3    0    0 -0.22893883165E+02  0.17110499530E+02  0.36918575232E+01  0.28818898188E+02  0.51100000000E-03 0.  1.
        -12    1    3    3    0    0 -0.16162087543E+02 -0.79351236757E+01 -0.18348031116E+01  0.18098225436E+02  0.00000000000E+00 0.  1.
</event>
<event>
 7    1  0.5373252E-013  0.5052888E+02  0.7816164E-02  0.1300439E+00
        -11   -1    0    0    0    0  0.00000000000E+00  0.00000000000E+00  0.45593999997E+02  0.45594000000E+02  0.51100000000E-03 0. -1.
         11   -1    0    0    0    0 -0.00000000000E+00 -0.00000000000E+00 -0.45593999997E+02  0.45594000000E+02  0.51100000000E-03 0.  1.
    9900012    2    1    2    0    0 -0.32218347123E+02  0.39883479781E+00 -0.24798860038E+02  0.50528875320E+02  0.30000047023E+02 0.  0.
        -12    1    1    2    0    0  0.32218347123E+02 -0.39883479781E+00  0.24798860038E+02  0.40659124680E+02  0.00000000000E+00 0.  1.
         11    1    3    3    0    0 -0.10938034745E+02  0.10679897242E+02 -0.14277318478E+02  0.20917519746E+02  0.51100000000E-03 0. -1.
        -11    1    3    3    0    0 -0.13457562642E+01 -0.18719258788E+01  0.32351548559E+01  0.39725802222E+01  0.51100000000E-03 0.  1.
         12    1    3    3    0    0 -0.19934556115E+02 -0.84091365650E+01 -0.13756696416E+02  0.25638775352E+02  0.00000000000E+00 0. -1.
</event>
<event>
 7    1  0.5373252E-013  0.5052886E+02  0.7816164E-02  0.1300439E+00
        -11   -1    0    0    0    0  0.00000000000E+00  0.00000000000E+00  0.45593999997E+02  0.45594000000E+02  0.51100000000E-03 0. -1.
         11   -1    0    0    0    0 -0.00000000000E+00 -0.00000000000E+00 -0.45593999997E+02  0.45594000000E+02  0.51100000000E-03 0.  1.
    9900012    2    1    2    0    0 -0.11946014988E+01  0.84481013086E+01  0.39753848471E+02  0.50528856419E+02  0.29999989573E+02 0.  0.
        -12    1    1    2    0    0  0.11946014988E+01 -0.84481013086E+01 -0.39753848471E+02  0.40659143581E+02  0.00000000000E+00 0.  1.
         11    1    3    3    0    0 -0.11431462673E+02  0.59294715259E+01  0.18533119512E+02  0.22567974888E+02  0.51100000000E-03 0. -1.
        -11    1    3    3    0    0  0.54212093743E+01 -0.54118189564E+01  0.14840349745E+02  0.16700696881E+02  0.51100000000E-03 0.  1.
         12    1    3    3    0    0  0.48156517997E+01  0.79304487392E+01  0.63803792134E+01  0.11260184651E+02  0.00000000000E+00 0. -1.
</event>
<event>
 7    1  0.5373252E-013  0.5052886E+02  0.7816164E-02  0.1300439E+00
        -11   -1    0    0    0    0  0.00000000000E+00  0.00000000000E+00  0.45593999997E+02  0.45594000000E+02  0.51100000000E-03 0.  1.
         11   -1    0    0    0    0 -0.00000000000E+00 -0.00000000000E+00 -0.45593999997E+02  0.45594000000E+02  0.51100000000E-03 0. -1.
    9900012    2    1    2    0    0  0.24196804231E+02 -0.18146917724E+02  0.27172962999E+02  0.50528857411E+02  0.29999992588E+02 0.  0.
        -12    1    1    2    0    0 -0.24196804231E+02  0.18146917724E+02 -0.27172962999E+02  0.40659142589E+02  0.00000000000E+00 0.  1.
         11    1    3    3    0    0  0.10612191711E+02 -0.11523890244E+02  0.86522852358E+01  0.17896387885E+02  0.51100000000E-03 0. -1.
        -11    1    3    3    0    0 -0.61045969650E+01 -0.92834982155E+00  0.60269581617E+01  0.86285666504E+01  0.51100000000E-03 0.  1.
         12    1    3    3    0    0  0.19689209486E+02 -0.56946776583E+01  0.12493719602E+02  0.24003902876E+02  0.00000000000E+00 0. -1.
</event>
<event>
 7    1  0.5373252E-013  0.5052886E+02  0.7816164E-02  0.1300439E+00
        -11   -1    0    0    0    0  0.00000000000E+00  0.00000000000E+00  0.45593999997E+02  0.45594000000E+02  0.51100000000E-03 0.  1.
         11   -1    0    0    0    0 -0.00000000000E+00 -0.00000000000E+00 -0.45593999997E+02  0.45594000000E+02  0.51100000000E-03 0. -1.
    9900012    2    1    2    0    0  0.28930531184E+01 -0.18904491292E+02 -0.35880585626E+02  0.50528856229E+02  0.29999988992E+02 0.  0.
        -12    1    1    2    0    0 -0.28930531184E+01  0.18904491292E+02  0.35880585626E+02  0.40659143771E+02  0.00000000000E+00 0.  1.
         11    1    3    3    0    0 -0.67662434740E+01 -0.44621588206E+01 -0.16171235455E+02  0.18088719371E+02  0.51100000000E-03 0. -1.
        -11    1    3    3    0    0 -0.18185008778E+01 -0.99265282866E+01 -0.11514120226E+01  0.10157197408E+02  0.51100000000E-03 0.  1.
         12    1    3    3    0    0  0.11477797470E+02 -0.45158041852E+01 -0.18557938148E+02  0.22282939450E+02  0.00000000000E+00 0. -1.
</event>
<event>
 7    1  0.5373252E-013  0.5052886E+02  0.7816164E-02  0.1300439E+00
        -11   -1    0    0    0    0  0.00000000000E+00  0.00000000000E+00  0.45593999997E+02  0.45594000000E+02  0.51100000000E-03 0. -1.
         11   -1    0    0    0    0 -0.00000000000E+00 -0.00000000000E+00 -0.45593999997E+02  0.45594000000E+02  0.51100000000E-03 0.  1.
    9900012    2    1    2    0    0  0.90695549201E+01  0.14438521761E+02  0.36911216008E+02  0.50528860753E+02  0.30000002746E+02 0.  0.
        -12    1    1    2    0    0 -0.90695549201E+01 -0.14438521761E+02 -0.36911216008E+02  0.40659139247E+02  0.00000000000E+00 0.  1.
         11    1    3    3    0    0  0.28266194972E+01 -0.16984746461E+01 -0.14886686733E+01  0.36181111903E+01  0.51100000000E-03 0. -1.
        -11    1    3    3    0    0  0.58266255402E+01  0.10369555062E+01  0.30024773629E+00  0.59257903162E+01  0.51100000000E-03 0.  1.
         12    1    3    3    0    0  0.41630988274E+00  0.15100040900E+02  0.38099636945E+02  0.40984959247E+02  0.00000000000E+00 0. -1.
</event>
<event>
 7    1  0.5373252E-013  0.5052886E+02  0.7816164E-02  0.1300439E+00
        -11   -1    0    0    0    0  0.00000000000E+00  0.00000000000E+00  0.45593999997E+02  0.45594000000E+02  0.51100000000E-03 0.  1.
         11   -1    0    0    0    0 -0.00000000000E+00 -0.00000000000E+00 -0.45593999997E+02  0.45594000000E+02  0.51100000000E-03 0. -1.
    9900012    2    1    2    0    0  0.29333899630E+02 -0.27861577290E+02  0.40522072441E+01  0.50528861542E+02  0.30000005142E+02 0.  0.
        -12    1    1    2    0    0 -0.29333899630E+02  0.27861577290E+02 -0.40522072441E+01  0.40659138458E+02  0.00000000000E+00 0.  1.
         11    1    3    3    0    0  0.33636926301E+01 -0.15626878860E+02  0.42600656003E+01  0.16542730434E+02  0.51100000000E-03 0. -1.
        -11    1    3    3    0    0  0.85912390589E+01  0.26351494621E+01  0.53365866784E+01  0.10451438126E+02  0.51100000000E-03 0.  1.
         12    1    3    3    0    0  0.17378967942E+02 -0.14869847892E+02 -0.55444450346E+01  0.23534692983E+02  0.00000000000E+00 0. -1.
</event>
<event>
 7    1  0.5373252E-013  0.5052887E+02  0.7816164E-02  0.1300439E+00
        -11   -1    0    0    0    0  0.00000000000E+00  0.00000000000E+00  0.45593999997E+02  0.45594000000E+02  0.51100000000E-03 0.  1.
         11   -1    0    0    0    0 -0.00000000000E+00 -0.00000000000E+00 -0.45593999997E+02  0.45594000000E+02  0.51100000000E-03 0. -1.
    9900012    2    1    2    0    0 -0.45147023104E+00 -0.23365239297E+02 -0.33272013701E+02  0.50528866604E+02  0.30000020530E+02 0.  0.
        -12    1    1    2    0    0  0.45147023104E+00  0.23365239297E+02  0.33272013701E+02  0.40659133396E+02  0.00000000000E+00 0.  1.
         11    1    3    3    0    0  0.52197541754E+00 -0.23491752249E+02 -0.15438393425E+02  0.28115456139E+02  0.51100000000E-03 0. -1.
        -11    1    3    3    0    0  0.49272549507E+01 -0.13615558586E+01 -0.20685251970E+01  0.55145691089E+01  0.51100000000E-03 0.  1.
         12    1    3    3    0    0 -0.59007005993E+01  0.14880688107E+01 -0.15765095079E+02  0.16898841356E+02  0.00000000000E+00 0. -1.
</event>
<event>
 7    1  0.9239699E-013  0.5052885E+02  0.7816164E-02  0.1300439E+00
        -11   -1    0    0    0    0  0.00000000000E+00  0.00000000000E+00  0.45593999997E+02  0.45594000000E+02  0.51100000000E-03 0.  1.
         11   -1    0    0    0    0 -0.00000000000E+00 -0.00000000000E+00 -0.45593999997E+02  0.45594000000E+02  0.51100000000E-03 0. -1.
    9900012    2    1    2    0    0  0.36464923158E+02 -0.16344007534E+02 -0.75065894633E+01  0.50528854798E+02  0.29999984644E+02 0.  0.
        -12    1    1    2    0    0 -0.36464923158E+02  0.16344007534E+02  0.75065894633E+01  0.40659145202E+02  0.00000000000E+00 0.  1.
         11    1    3    3    0    0  0.20886862986E+02 -0.17451430242E+02 -0.85928956282E+01  0.28542097303E+02  0.51100000000E-03 0. -1.
        -11    1    3    3    0    0  0.15325453552E+02  0.10532741708E+01 -0.48005551889E+01  0.16094230129E+02  0.51100000000E-03 0.  1.
        -12    1    3    3    0    0  0.25260662003E+00  0.54148537055E-01  0.58868613539E+01  0.58925273668E+01  0.00000000000E+00 0.  1.
</event>
<event>
 7    1  0.5373252E-013  0.5052886E+02  0.7816164E-02  0.1300439E+00
        -11   -1    0    0    0    0  0.00000000000E+00  0.00000000000E+00  0.45593999997E+02  0.45594000000E+02  0.51100000000E-03 0.  1.
         11   -1    0    0    0    0 -0.00000000000E+00 -0.00000000000E+00 -0.45593999997E+02  0.45594000000E+02  0.51100000000E-03 0. -1.
    9900012    2    1    2    0    0  0.33717400338E+02  0.10996155267E+02 -0.19884334307E+02  0.50528864900E+02  0.30000015351E+02 0.  0.
        -12    1    1    2    0    0 -0.33717400338E+02 -0.10996155267E+02  0.19884334307E+02  0.40659135100E+02  0.00000000000E+00 0.  1.
         11    1    3    3    0    0  0.18934402630E+02  0.74041634794E+01 -0.15240012460E+02  0.25408487161E+02  0.51100000000E-03 0. -1.
        -11    1    3    3    0    0  0.15290487529E+02  0.99460123955E+01 -0.25922398814E+01  0.18423948526E+02  0.51100000000E-03 0.  1.
        -12    1    3    3    0    0 -0.50748982051E+00 -0.63540206082E+01 -0.20520819657E+01  0.66964292127E+01  0.00000000000E+00 0.  1.
</event>
<event>
 7    1  0.5373252E-013  0.5052886E+02  0.7816164E-02  0.1300439E+00
        -11   -1    0    0    0    0  0.00000000000E+00  0.00000000000E+00  0.45593999997E+02  0.45594000000E+02  0.51100000000E-03 0.  1.
         11   -1    0    0    0    0 -0.00000000000E+00 -0.00000000000E+00 -0.45593999997E+02  0.45594000000E+02  0.51100000000E-03 0. -1.
    9900012    2    1    2    0    0  0.26448261684E+02 -0.90833354368E+01 -0.29515218128E+02  0.50528860438E+02  0.30000001788E+02 0.  0.
        -12    1    1    2    0    0 -0.26448261684E+02  0.90833354368E+01  0.29515218128E+02  0.40659139562E+02  0.00000000000E+00 0.  1.
         11    1    3    3    0    0  0.22564752251E+02 -0.44306716528E+01 -0.26836687556E+02  0.35341288809E+02  0.51100000000E-03 0. -1.
        -11    1    3    3    0    0  0.61976595516E+01  0.64515177240E+00  0.31466346901E+01  0.69805812696E+01  0.51100000000E-03 0.  1.
        -12    1    3    3    0    0 -0.23141501183E+01 -0.52978155564E+01 -0.58251652622E+01  0.82069903602E+01  0.00000000000E+00 0.  1.
</event>
<event>
 7    1  0.5373252E-013  0.5052888E+02  0.7816164E-02  0.1300439E+00
        -11   -1    0    0    0    0  0.00000000000E+00  0.00000000000E+00  0.45593999997E+02  0.45594000000E+02  0.51100000000E-03 0. -1.
         11   -1    0    0    0    0 -0.00000000000E+00 -0.00000000000E+00 -0.45593999997E+02  0.45594000000E+02  0.51100000000E-03 0.  1.
    9900012    2    1    2    0    0 -0.10800831917E+02  0.25852715577E+02  0.29464266659E+02  0.50528881926E+02  0.30000067103E+02 0.  0.
        -12    1    1    2    0    0  0.10800831917E+02 -0.25852715577E+02 -0.29464266659E+02  0.40659118074E+02  0.00000000000E+00 0.  1.
         11    1    3    3    0    0 -0.54465971897E+01  0.66019682414E+01  0.16879019228E+02  0.18924922615E+02  0.51100000000E-03 0. -1.
        -11    1    3    3    0    0 -0.60336237208E+01 -0.29932700387E+01  0.28596148252E+01  0.73172179097E+01  0.51100000000E-03 0.  1.
         12    1    3    3    0    0  0.67938899388E+00  0.22244017374E+02  0.97256326058E+01  0.24286741402E+02  0.00000000000E+00 0. -1.
</event>
<event>
 7    1  0.5373252E-013  0.5052886E+02  0.7816164E-02  0.1300439E+00
        -11   -1    0    0    0    0  0.00000000000E+00  0.00000000000E+00  0.45593999997E+02  0.45594000000E+02  0.51100000000E-03 0.  1.
         11   -1    0    0    0    0 -0.00000000000E+00 -0.00000000000E+00 -0.45593999997E+02  0.45594000000E+02  0.51100000000E-03 0. -1.
    9900012    2    1    2    0    0  0.15137538985E+02 -0.33547896629E+02 -0.17278865141E+02  0.50528860372E+02  0.30000001586E+02 0.  0.
        -12    1    1    2    0    0 -0.15137538985E+02  0.33547896629E+02  0.17278865141E+02  0.40659139628E+02  0.00000000000E+00 0.  1.
         11    1    3    3    0    0  0.51079905224E+00 -0.14831195099E+02  0.15550214076E+00  0.14840803379E+02  0.51100000000E-03 0. -1.
        -11    1    3    3    0    0  0.69985000706E+01  0.33373952533E+01 -0.34863220939E+01  0.85012735704E+01  0.51100000000E-03 0.  1.
        -12    1    3    3    0    0  0.76282398617E+01 -0.22054096783E+02 -0.13948045188E+02  0.27186783423E+02  0.00000000000E+00 0.  1.
</event>
<event>
 7    1  0.5373252E-013  0.5052887E+02  0.7816164E-02  0.1300439E+00
        -11   -1    0    0    0    0  0.00000000000E+00  0.00000000000E+00  0.45593999997E+02  0.45594000000E+02  0.51100000000E-03 0.  1.
         11   -1    0    0    0    0 -0.00000000000E+00 -0.00000000000E+00 -0.45593999997E+02  0.45594000000E+02  0.51100000000E-03 0. -1.
    9900012    2    1    2    0    0 -0.36342489180E+02 -0.14926592206E+02 -0.10468281473E+02  0.50528873205E+02  0.30000040595E+02 0.  0.
        -12    1    1    2    0    0  0.36342489180E+02  0.14926592206E+02  0.10468281473E+02  0.40659126795E+02  0.00000000000E+00 0.  1.
         11    1    3    3    0    0  0.12285452428E+01 -0.13631607758E+01 -0.77318880567E+01  0.79466737631E+01  0.51100000000E-03 0. -1.
        -11    1    3    3    0    0 -0.14735685086E+02 -0.11000144374E+02  0.36175493762E+01  0.18741138038E+02  0.51100000000E-03 0.  1.
        -12    1    3    3    0    0 -0.22835349337E+02 -0.25632870566E+01 -0.63539427927E+01  0.23841061405E+02  0.00000000000E+00 0.  1.
</event>
<event>
 7    1  0.5373252E-013  0.5052886E+02  0.7816164E-02  0.1300439E+00
        -11   -1    0    0    0    0  0.00000000000E+00  0.00000000000E+00  0.45593999997E+02  0.45594000000E+02  0.51100000000E-03 0. -1.
         11   -1    0    0    0    0 -0.00000000000E+00 -0.00000000000E+00 -0.45593999997E+02  0.45594000000E+02  0.51100000000E-03 0.  1.
    9900012    2    1    2    0    0  0.28045877161E+02  0.24809126741E+02 -0.15846176098E+02  0.50528864590E+02  0.30000014407E+02 0.  0.
        -12    1    1    2    0    0 -0.28045877161E+02 -0.24809126741E+02  0.15846176098E+02  0.40659135410E+02  0.00000000000E+00 0.  1.
         11    1    3    3    0    0  0.96092232632E+01  0.10918187924E+02  0.64468849917E+01  0.15909315687E+02  0.51100000000E-03 0. -1.
        -11    1    3    3    0    0  0.92840742299E+01  0.12481300154E+02 -0.77522299141E+01  0.17380274933E+02  0.51100000000E-03 0.  1.
        -12    1    3    3    0    0  0.91525796678E+01  0.14096386630E+01 -0.14540831176E+02  0.17239273970E+02  0.00000000000E+00 0.  1.
</event>
<event>
 7    1  0.5373252E-013  0.5052886E+02  0.7816164E-02  0.1300439E+00
        -11   -1    0    0    0    0  0.00000000000E+00  0.00000000000E+00  0.45593999997E+02  0.45594000000E+02  0.51100000000E-03 0. -1.
         11   -1    0    0    0    0 -0.00000000000E+00 -0.00000000000E+00 -0.45593999997E+02  0.45594000000E+02  0.51100000000E-03 0.  1.
    9900012    2    1    2    0    0  0.18881343401E+02  0.29775840210E+02  0.20249930817E+02  0.50528862197E+02  0.30000007133E+02 0.  0.
        -12    1    1    2    0    0 -0.18881343401E+02 -0.29775840210E+02 -0.20249930817E+02  0.40659137803E+02  0.00000000000E+00 0.  1.
         11    1    3    3    0    0  0.93481627650E+00  0.26457529626E+01  0.41716273152E+01  0.50275605345E+01  0.51100000000E-03 0. -1.
        -11    1    3    3    0    0  0.99098089729E+01 -0.24502106863E+00 -0.39202227651E+01  0.10659854408E+02  0.51100000000E-03 0.  1.
         12    1    3    3    0    0  0.80367181514E+01  0.27375108316E+02  0.19998526267E+02  0.34841447255E+02  0.00000000000E+00 0. -1.
</event>
<event>
 7    1  0.5373252E-013  0.5052886E+02  0.7816164E-02  0.1300439E+00
        -11   -1    0    0    0    0  0.00000000000E+00  0.00000000000E+00  0.45593999997E+02  0.45594000000E+02  0.51100000000E-03 0. -1.
         11   -1    0    0    0    0 -0.00000000000E+00 -0.00000000000E+00 -0.45593999997E+02  0.45594000000E+02  0.51100000000E-03 0.  1.
    9900012    2    1    2    0    0  0.15299099905E+02 -0.31920657751E+02  0.20004360889E+02  0.50528864450E+02  0.30000013981E+02 0.  0.
        -12    1    1    2    0    0 -0.15299099905E+02  0.31920657751E+02 -0.20004360889E+02  0.40659135550E+02  0.00000000000E+00 0.  1.
         11    1    3    3    0    0 -0.34111720915E+01 -0.85790055030E+01  0.10214738667E+02  0.13768671569E+02  0.51100000000E-03 0. -1.
        -11    1    3    3    0    0 -0.22866730555E+01  0.54271571303E+00 -0.17495687848E+01  0.29299155622E+01  0.51100000000E-03 0.  1.
         12    1    3    3    0    0  0.20996945052E+02 -0.23884367961E+02  0.11539191006E+02  0.33830277319E+02  0.00000000000E+00 0. -1.
</event>
<event>
 7    1  0.6891958E-013  0.5052886E+02  0.7816164E-02  0.1300439E+00
        -11   -1    0    0    0    0  0.00000000000E+00  0.00000000000E+00  0.45593999997E+02  0.45594000000E+02  0.51100000000E-03 0. -1.
         11   -1    0    0    0    0 -0.00000000000E+00 -0.00000000000E+00 -0.45593999997E+02  0.45594000000E+02  0.51100000000E-03 0.  1.
    9900012    2    1    2    0    0 -0.31135348951E+02 -0.17731374211E+02  0.19218589906E+02  0.50528858547E+02  0.29999996038E+02 0.  0.
        -12    1    1    2    0    0  0.31135348951E+02  0.17731374211E+02 -0.19218589906E+02  0.40659141453E+02  0.00000000000E+00 0.  1.
         11    1    3    3    0    0 -0.11382828799E+02 -0.52573112240E+01  0.88642065843E+01  0.15355203398E+02  0.51100000000E-03 0. -1.
        -11    1    3    3    0    0 -0.12497245048E+02  0.59298128116E+01  0.42669016296E+01  0.14475851048E+02  0.51100000000E-03 0.  1.
        -12    1    3    3    0    0 -0.72552751047E+01 -0.18403875798E+02  0.60874816925E+01  0.20697804101E+02  0.00000000000E+00 0.  1.
</event>
<event>
 7    1  0.5373252E-013  0.5052887E+02  0.7816164E-02  0.1300439E+00
        -11   -1    0    0    0    0  0.00000000000E+00  0.00000000000E+00  0.45593999997E+02  0.45594000000E+02  0.51100000000E-03 0. -1.
         11   -1    0    0    0    0 -0.00000000000E+00 -0.00000000000E+00 -0.45593999997E+02  0.45594000000E+02  0.51100000000E-03 0.  1.
    9900012    2    1    2    0    0 -0.23047706392E+02  0.27114014115E+02  0.19667195823E+02  0.50528866673E+02  0.30000020739E+02 0.  0.
        -12    1    1    2    0    0  0.23047706392E+02 -0.27114014115E+02 -0.19667195823E+02  0.40659133327E+02  0.00000000000E+00 0.  1.
         11    1    3    3    0    0 -0.74251090780E+01  0.33298031063E+01  0.21535488086E+01  0.84176960196E+01  0.51100000000E-03 0. -1.
        -11    1    3    3    0    0  0.14964218757E+01  0.63347675321E+01 -0.55121213397E+01  0.85294806430E+01  0.51100000000E-03 0.  1.
         12    1    3    3    0    0 -0.17119019189E+02  0.17449443477E+02  0.23025768354E+02  0.33581690010E+02  0.00000000000E+00 0. -1.
</event>
<event>
 7    1  0.5373252E-013  0.5052886E+02  0.7816164E-02  0.1300439E+00
        -11   -1    0    0    0    0  0.00000000000E+00  0.00000000000E+00  0.45593999997E+02  0.45594000000E+02  0.51100000000E-03 0. -1.
         11   -1    0    0    0    0 -0.00000000000E+00 -0.00000000000E+00 -0.45593999997E+02  0.45594000000E+02  0.51100000000E-03 0.  1.
    9900012    2    1    2    0    0 -0.63022337140E+01 -0.39809331080E+02 -0.53539499987E+01  0.50528858698E+02  0.29999996500E+02 0.  0.
        -12    1    1    2    0    0  0.63022337140E+01  0.39809331080E+02  0.53539499987E+01  0.40659141302E+02  0.00000000000E+00 0.  1.
         11    1    3    3    0    0 -0.14069422444E+02 -0.23814480606E+02 -0.99268432042E+00  0.27677853184E+02  0.51100000000E-03 0. -1.
        -11    1    3    3    0    0  0.19381815646E+01 -0.11370838666E+02  0.34732886329E+01  0.12046420794E+02  0.51100000000E-03 0.  1.
         12    1    3    3    0    0  0.58290071658E+01 -0.46240118077E+01 -0.78345543112E+01  0.10804584721E+02  0.00000000000E+00 0. -1.
</event>
<event>
 7    1  0.5373252E-013  0.5052886E+02  0.7816164E-02  0.1300439E+00
        -11   -1    0    0    0    0  0.00000000000E+00  0.00000000000E+00  0.45593999997E+02  0.45594000000E+02  0.51100000000E-03 0.  1.
         11   -1    0    0    0    0 -0.00000000000E+00 -0.00000000000E+00 -0.45593999997E+02  0.45594000000E+02  0.51100000000E-03 0. -1.
    9900012    2    1    2    0    0  0.13963431212E+02  0.29386677866E+02 -0.24384658748E+02  0.50528857984E+02  0.29999994328E+02 0.  0.
        -12    1    1    2    0    0 -0.13963431212E+02 -0.29386677866E+02  0.24384658748E+02  0.40659142016E+02  0.00000000000E+00 0.  1.
         11    1    3    3    0    0  0.46851339046E+01  0.14376158492E+02 -0.12578900722E+02  0.19668582977E+02  0.51100000000E-03 0. -1.
        -11    1    3    3    0    0 -0.41473596078E+01  0.14279861782E+02 -0.43856722585E+01  0.15503198562E+02  0.51100000000E-03 0.  1.
         12    1    3    3    0    0  0.13425656916E+02  0.73065759176E+00 -0.74200857676E+01  0.15357076445E+02  0.00000000000E+00 0. -1.
</event>
<event>
 7    1  0.5373252E-013  0.5052887E+02  0.7816164E-02  0.1300439E+00
        -11   -1    0    0    0    0  0.00000000000E+00  0.00000000000E+00  0.45593999997E+02  0.45594000000E+02  0.51100000000E-03 0.  1.
         11   -1    0    0    0    0 -0.00000000000E+00 -0.00000000000E+00 -0.45593999997E+02  0.45594000000E+02  0.51100000000E-03 0. -1.
    9900012    2    1    2    0    0 -0.23120693513E+02 -0.66362616162E+00 -0.33438874378E+02  0.50528865873E+02  0.30000018309E+02 0.  0.
        -12    1    1    2    0    0  0.23120693513E+02  0.66362616162E+00  0.33438874378E+02  0.40659134127E+02  0.00000000000E+00 0.  1.
         11    1    3    3    0    0 -0.13575306143E+01  0.11041347710E+01 -0.73502590930E+01  0.75556807739E+01  0.51100000000E-03 0. -1.
        -11    1    3    3    0    0 -0.19011144246E+02  0.99401665368E+01 -0.12510018552E+02  0.24834070966E+02  0.51100000000E-03 0.  1.
        -12    1    3    3    0    0 -0.27520186533E+01 -0.11707927469E+02 -0.13578596733E+02  0.18139114133E+02  0.00000000000E+00 0.  1.
</event>
<event>
 7    1  0.5373252E-013  0.5052886E+02  0.7816164E-02  0.1300439E+00
        -11   -1    0    0    0    0  0.00000000000E+00  0.00000000000E+00  0.45593999997E+02  0.45594000000E+02  0.51100000000E-03 0.  1.
         11   -1    0    0    0    0 -0.00000000000E+00 -0.00000000000E+00 -0.45593999997E+02  0.45594000000E+02  0.51100000000E-03 0. -1.
    9900012    2    1    2    0    0 -0.20919132823E+02 -0.23313549674E+02 -0.25923619283E+02  0.50528858922E+02  0.29999997178E+02 0.  0.
        -12    1    1    2    0    0  0.20919132823E+02  0.23313549674E+02  0.25923619283E+02  0.40659141078E+02  0.00000000000E+00 0.  1.
         11    1    3    3    0    0 -0.12954226684E+01 -0.17023821787E+02 -0.14837282226E+02  0.22619318563E+02  0.51100000000E-03 0. -1.
        -11    1    3    3    0    0  0.13969973625E+01  0.16957040316E+01 -0.35855355522E+01  0.42051253550E+01  0.51100000000E-03 0.  1.
        -12    1    3    3    0    0 -0.21020707517E+02 -0.79854319189E+01 -0.75008015050E+01  0.23704415004E+02  0.00000000000E+00 0.  1.
</event>
<event>
 7    1  0.5373252E-013  0.5052886E+02  0.7816164E-02  0.1300439E+00
        -11   -1    0    0    0    0  0.00000000000E+00  0.00000000000E+00  0.45593999997E+02  0.45594000000E+02  0.51100000000E-03 0. -1.
         11   -1    0    0    0    0 -0.00000000000E+00 -0.00000000000E+00 -0.45593999997E+02  0.45594000000E+02  0.51100000000E-03 0.  1.
    9900012    2    1    2    0    0 -0.38943513698E+02  0.73793032988E+01 -0.90616763203E+01  0.50528863831E+02  0.30000012100E+02 0.  0.
        -12    1    1    2    0    0  0.38943513698E+02 -0.73793032988E+01  0.90616763203E+01  0.40659136169E+02  0.00000000000E+00 0.  1.
         11    1    3    3    0    0 -0.24340418613E+01  0.10341119662E+02 -0.42703917068E+01  0.11449871669E+02  0.51100000000E-03 0. -1.
        -11    1    3    3    0    0 -0.10572772324E+02  0.20911225856E+01 -0.65232412397E+01  0.12597975425E+02  0.51100000000E-03 0.  1.
         12    1    3    3    0    0 -0.25936699513E+02 -0.50529389491E+01  0.17319566262E+01  0.26481016736E+02  0.00000000000E+00 0. -1.
</event>
<event>
 7    1  0.5373252E-013  0.5052885E+02  0.7816164E-02  0.1300439E+00
        -11   -1    0    0    0    0  0.00000000000E+00  0.00000000000E+00  0.45593999997E+02  0.45594000000E+02  0.51100000000E-03 0.  1.
         11   -1    0    0    0    0 -0.00000000000E+00 -0.00000000000E+00 -0.45593999997E+02  0.45594000000E+02  0.51100000000E-03 0. -1.
    9900012    2    1    2    0    0 -0.24424438778E+02  0.16205508328E+02 -0.28177908660E+02  0.50528852859E+02  0.29999978750E+02 0.  0.
        -12    1    1    2    0    0  0.24424438778E+02 -0.16205508328E+02  0.28177908660E+02  0.40659147141E+02  0.00000000000E+00 0.  1.
         11    1    3    3    0    0 -0.21829941024E+01 -0.15393621874E+01 -0.17048178176E+02  0.17256172188E+02  0.51100000000E-03 0. -1.
        -11    1    3    3    0    0 -0.13267692670E+02  0.46267259629E+01 -0.10178309561E+02  0.17350396183E+02  0.51100000000E-03 0.  1.
        -12    1    3    3    0    0 -0.89737520058E+01  0.13118144553E+02 -0.95142092263E+00  0.15922284489E+02  0.00000000000E+00 0.  1.
</event>
<event>
 7    1  0.5373252E-013  0.5052893E+02  0.7816164E-02  0.1300439E+00
        -11   -1    0    0    0    0  0.00000000000E+00  0.00000000000E+00  0.45593999997E+02  0.45594000000E+02  0.51100000000E-03 0.  1.
         11   -1    0    0    0    0 -0.00000000000E+00 -0.00000000000E+00 -0.45593999997E+02  0.45594000000E+02  0.51100000000E-03 0. -1.
    9900012    2    1    2    0    0 -0.18016010201E+02  0.14466284316E+02 -0.33456096003E+02  0.50528925180E+02  0.30000198575E+02 0.  0.
        -12    1    1    2    0    0  0.18016010201E+02 -0.14466284316E+02  0.33456096003E+02  0.40659074820E+02  0.00000000000E+00 0.  1.
         11    1    3    3    0    0  0.25076628501E+01 -0.42259789337E+01 -0.80803776928E+01  0.94572604298E+01  0.51100000000E-03 0. -1.
        -11    1    3    3    0    0 -0.40893652354E+01 -0.76624386994E+00  0.11307538320E+01  0.43114547645E+01  0.51100000000E-03 0.  1.
         12    1    3    3    0    0 -0.16434307816E+02  0.19458507120E+02 -0.26506472142E+02  0.36760209985E+02  0.00000000000E+00 0. -1.
</event>
<event>
 7    1  0.5373252E-013  0.5052875E+02  0.7816164E-02  0.1300439E+00
        -11   -1    0    0    0    0  0.00000000000E+00  0.00000000000E+00  0.45593999997E+02  0.45594000000E+02  0.51100000000E-03 0. -1.
         11   -1    0    0    0    0 -0.00000000000E+00 -0.00000000000E+00 -0.45593999997E+02  0.45594000000E+02  0.51100000000E-03 0.  1.
    9900012    2    1    2    0    0 -0.11492260095E+02  0.12378672235E+02  0.36984745688E+02  0.50528745432E+02  0.29999652213E+02 0.  0.
        -12    1    1    2    0    0  0.11492260095E+02 -0.12378672235E+02 -0.36984745688E+02  0.40659254568E+02  0.00000000000E+00 0.  1.
         11    1    3    3    0    0 -0.24045110791E+01  0.11671231619E+02  0.24162360765E+02  0.26941028173E+02  0.51100000000E-03 0. -1.
        -11    1    3    3    0    0 -0.18546365302E+00 -0.10153664908E+01 -0.41870277246E+01  0.43123737436E+01  0.51100000000E-03 0.  1.
         12    1    3    3    0    0 -0.89022853627E+01  0.17228071073E+01  0.17009412648E+02  0.19275343515E+02  0.00000000000E+00 0. -1.
</event>
<event>
 7    1  0.5373252E-013  0.5052885E+02  0.7816164E-02  0.1300439E+00
        -11   -1    0    0    0    0  0.00000000000E+00  0.00000000000E+00  0.45593999997E+02  0.45594000000E+02  0.51100000000E-03 0.  1.
         11   -1    0    0    0    0 -0.00000000000E+00 -0.00000000000E+00 -0.45593999997E+02  0.45594000000E+02  0.51100000000E-03 0. -1.
    9900012    2    1    2    0    0  0.28927825449E+02 -0.14341591909E+02 -0.24711655566E+02  0.50528852635E+02  0.29999978068E+02 0.  0.
        -12    1    1    2    0    0 -0.28927825449E+02  0.14341591909E+02  0.24711655566E+02  0.40659147365E+02  0.00000000000E+00 0.  1.
         11    1    3    3    0    0  0.87997208147E+01 -0.12019558813E+02 -0.12000968565E+02  0.19129247952E+02  0.51100000000E-03 0. -1.
        -11    1    3    3    0    0  0.18042052380E+02 -0.15468069970E+01 -0.18079025136E+02  0.25588267156E+02  0.51100000000E-03 0.  1.
        -12    1    3    3    0    0  0.20860522544E+01 -0.77522609899E+00  0.53683381343E+01  0.58113375256E+01  0.00000000000E+00 0.  1.
</event>
<event>
 7    1  0.5373252E-013  0.5052886E+02  0.7816164E-02  0.1300439E+00
        -11   -1    0    0    0    0  0.00000000000E+00  0.00000000000E+00  0.45593999997E+02  0.45594000000E+02  0.51100000000E-03 0. -1.
         11   -1    0    0    0    0 -0.00000000000E+00 -0.00000000000E+00 -0.45593999997E+02  0.45594000000E+02  0.51100000000E-03 0.  1.
    9900012    2    1    2    0    0 -0.54277102969E+01 -0.99688334636E+00  0.40282899060E+02  0.50528858689E+02  0.29999996470E+02 0.  0.
        -12    1    1    2    0    0  0.54277102969E+01  0.99688334636E+00 -0.40282899060E+02  0.40659141311E+02  0.00000000000E+00 0.  1.
         11    1    3    3    0    0  0.16399122654E+01 -0.94280179767E+01  0.37272679949E+01  0.10269827758E+02  0.51100000000E-03 0. -1.
        -11    1    3    3    0    0  0.21650582834E+01  0.63936772726E+01  0.99528831757E+01  0.12026074597E+02  0.51100000000E-03 0.  1.
        -12    1    3    3    0    0 -0.92326808457E+01  0.20374573577E+01  0.26602747890E+02  0.28232956334E+02  0.00000000000E+00 0.  1.
</event>
<event>
 7    1  0.5373252E-013  0.5052885E+02  0.7816164E-02  0.1300439E+00
        -11   -1    0    0    0    0  0.00000000000E+00  0.00000000000E+00  0.45593999997E+02  0.45594000000E+02  0.51100000000E-03 0.  1.
         11   -1    0    0    0    0 -0.00000000000E+00 -0.00000000000E+00 -0.45593999997E+02  0.45594000000E+02  0.51100000000E-03 0. -1.
    9900012    2    1    2    0    0  0.12010257772E+02 -0.19761244427E+02 -0.33442683798E+02  0.50528853764E+02  0.29999981502E+02 0.  0.
        -12    1    1    2    0    0 -0.12010257772E+02  0.19761244427E+02  0.33442683798E+02  0.40659146236E+02  0.00000000000E+00 0.  1.
         11    1    3    3    0    0 -0.22549055126E+01  0.21812593721E+01 -0.24928475574E+01  0.40070912799E+01  0.51100000000E-03 0. -1.
        -11    1    3    3    0    0 -0.62150835464E+01 -0.33361940557E+01 -0.58658558998E+01  0.91741877005E+01  0.51100000000E-03 0.  1.
         12    1    3    3    0    0  0.20480246831E+02 -0.18606309743E+02 -0.25083980340E+02  0.37347574784E+02  0.00000000000E+00 0. -1.
</event>
<event>
 7    1  0.5373252E-013  0.5052887E+02  0.7816164E-02  0.1300439E+00
        -11   -1    0    0    0    0  0.00000000000E+00  0.00000000000E+00  0.45593999997E+02  0.45594000000E+02  0.51100000000E-03 0.  1.
         11   -1    0    0    0    0 -0.00000000000E+00 -0.00000000000E+00 -0.45593999997E+02  0.45594000000E+02  0.51100000000E-03 0. -1.
    9900012    2    1    2    0    0 -0.28348943987E+01 -0.32206659010E+02 -0.24654798940E+02  0.50528872838E+02  0.30000039479E+02 0.  0.
        -12    1    1    2    0    0  0.28348943987E+01  0.32206659010E+02  0.24654798940E+02  0.40659127162E+02  0.00000000000E+00 0.  1.
         11    1    3    3    0    0  0.30257136471E+01 -0.76198185274E+01 -0.12676193333E+02  0.15096438492E+02  0.51100000000E-03 0. -1.
        -11    1    3    3    0    0 -0.90247531377E+01 -0.12576963545E+02 -0.16111695089E+02  0.22343072754E+02  0.51100000000E-03 0.  1.
        -12    1    3    3    0    0  0.31641450920E+01 -0.12009876937E+02  0.41330894821E+01  0.13089361592E+02  0.00000000000E+00 0.  1.
</event>
<event>
 7    1  0.5373252E-013  0.5052886E+02  0.7816164E-02  0.1300439E+00
        -11   -1    0    0    0    0  0.00000000000E+00  0.00000000000E+00  0.45593999997E+02  0.45594000000E+02  0.51100000000E-03 0. -1.
         11   -1    0    0    0    0 -0.00000000000E+00 -0.00000000000E+00 -0.45593999997E+02  0.45594000000E+02  0.51100000000E-03 0.  1.
    9900012    2    1    2    0    0 -0.12049761591E+02 -0.24588864794E+02  0.30055893328E+02  0.50528858961E+02  0.29999997298E+02 0.  0.
        -12    1    1    2    0    0  0.12049761591E+02  0.24588864794E+02 -0.30055893328E+02  0.40659141039E+02  0.00000000000E+00 0.  1.
         11    1    3    3    0    0  0.53860451960E+01 -0.12287575051E+02  0.68453527582E+01  0.15061634643E+02  0.51100000000E-03 0. -1.
        -11    1    3    3    0    0 -0.14804928457E+02 -0.14222670426E+02  0.11970848655E+02  0.23764921174E+02  0.51100000000E-03 0.  1.
         12    1    3    3    0    0 -0.26308783303E+01  0.19213806821E+01  0.11239691915E+02  0.11702303144E+02  0.00000000000E+00 0. -1.
</event>
<event>
 7    1  0.5373252E-013  0.5052886E+02  0.7816164E-02  0.1300439E+00
        -11   -1    0    0    0    0  0.00000000000E+00  0.00000000000E+00  0.45593999997E+02  0.45594000000E+02  0.51100000000E-03 0. -1.
         11   -1    0    0    0    0 -0.00000000000E+00 -0.00000000000E+00 -0.45593999997E+02  0.45594000000E+02  0.51100000000E-03 0.  1.
    9900012    2    1    2    0    0  0.17593191047E+02  0.28145810437E+02  0.23483153419E+02  0.50528861902E+02  0.30000006237E+02 0.  0.
        -12    1    1    2    0    0 -0.17593191047E+02 -0.28145810437E+02 -0.23483153419E+02  0.40659138098E+02  0.00000000000E+00 0.  1.
         11    1    3    3    0    0  0.94494291489E+00 -0.16091842432E+01  0.51793260315E+01  0.55052528955E+01  0.51100000000E-03 0. -1.
        -11    1    3    3    0    0  0.37357344019E+01  0.23192093523E+01 -0.50896240832E+01  0.67259733207E+01  0.51100000000E-03 0.  1.
         12    1    3    3    0    0  0.12912513730E+02  0.27435785328E+02  0.23393451471E+02  0.38297635686E+02  0.00000000000E+00 0. -1.
</event>
<event>
 7    1  0.5814907E-013  0.5052886E+02  0.7816164E-02  0.1300439E+00
        -11   -1    0    0    0    0  0.00000000000E+00  0.00000000000E+00  0.45593999997E+02  0.45594000000E+02  0.51100000000E-03 0. -1.
         11   -1    0    0    0    0 -0.00000000000E+00 -0.00000000000E+00 -0.45593999997E+02  0.45594000000E+02  0.51100000000E-03 0.  1.
    9900012    2    1    2    0    0 -0.28976699429E+02 -0.54417842610E+01  0.27998271190E+02  0.50528864306E+02  0.30000013544E+02 0.  0.
        -12    1    1    2    0    0  0.28976699429E+02  0.54417842610E+01 -0.27998271190E+02  0.40659135694E+02  0.00000000000E+00 0.  1.
         11    1    3    3    0    0 -0.89858957326E+01 -0.75928435991E+01  0.16414108940E+02  0.20194567799E+02  0.51100000000E-03 0. -1.
        -11    1    3    3    0    0 -0.22696613355E+02 -0.19112467109E+01  0.75304642725E+01  0.23989518841E+02  0.51100000000E-03 0.  1.
        -12    1    3    3    0    0  0.27058096583E+01  0.40623060490E+01  0.40536979774E+01  0.63447776663E+01  0.00000000000E+00 0.  1.
</event>
<event>
 7    1  0.5373252E-013  0.5052888E+02  0.7816164E-02  0.1300439E+00
        -11   -1    0    0    0    0  0.00000000000E+00  0.00000000000E+00  0.45593999997E+02  0.45594000000E+02  0.51100000000E-03 0. -1.
         11   -1    0    0    0    0 -0.00000000000E+00 -0.00000000000E+00 -0.45593999997E+02  0.45594000000E+02  0.51100000000E-03 0.  1.
    9900012    2    1    2    0    0  0.13295775666E+02 -0.28830431102E+02  0.25400642848E+02  0.50528879680E+02  0.30000060275E+02 0.  0.
        -12    1    1    2    0    0 -0.13295775666E+02  0.28830431102E+02 -0.25400642848E+02  0.40659120320E+02  0.00000000000E+00 0.  1.
         11    1    3    3    0    0  0.77529546444E+01 -0.91597229335E+01  0.93060405501E+01  0.15185888875E+02  0.51100000000E-03 0. -1.
        -11    1    3    3    0    0  0.87942213239E+01 -0.84296438085E+01 -0.33631341174E+01  0.12637558893E+02  0.51100000000E-03 0.  1.
         12    1    3    3    0    0 -0.32514003027E+01 -0.11241064360E+02  0.19457736416E+02  0.22705431912E+02  0.00000000000E+00 0. -1.
</event>
<event>
 7    1  0.5373252E-013  0.5052886E+02  0.7816164E-02  0.1300439E+00
        -11   -1    0    0    0    0  0.00000000000E+00  0.00000000000E+00  0.45593999997E+02  0.45594000000E+02  0.51100000000E-03 0.  1.
         11   -1    0    0    0    0 -0.00000000000E+00 -0.00000000000E+00 -0.45593999997E+02  0.45594000000E+02  0.51100000000E-03 0. -1.
    9900012    2    1    2    0    0 -0.49547487726E+01  0.32724998326E+02 -0.23615478893E+02  0.50528857188E+02  0.29999991909E+02 0.  0.
        -12    1    1    2    0    0  0.49547487726E+01 -0.32724998326E+02  0.23615478893E+02  0.40659142812E+02  0.00000000000E+00 0.  1.
         11    1    3    3    0    0  0.63084086163E+01  0.10442410638E+02  0.84373740631E+00  0.12229139474E+02  0.51100000000E-03 0.  1.
        -11    1    3    3    0    0  0.17978302273E+01  0.43710835296E+01 -0.11939218691E+02  0.12840697332E+02  0.51100000000E-03 0. -1.
         12    1    3    3    0    0 -0.13060987616E+02  0.17911504159E+02 -0.12519997608E+02  0.25459020383E+02  0.00000000000E+00 0. -1.
</event>
<event>
 7    1  0.5373252E-013  0.5052886E+02  0.7816164E-02  0.1300439E+00
        -11   -1    0    0    0    0  0.00000000000E+00  0.00000000000E+00  0.45593999997E+02  0.45594000000E+02  0.51100000000E-03 0.  1.
         11   -1    0    0    0    0 -0.00000000000E+00 -0.00000000000E+00 -0.45593999997E+02  0.45594000000E+02  0.51100000000E-03 0. -1.
    9900012    2    1    2    0    0  0.13466497951E+02 -0.28274005303E+02 -0.25930668761E+02  0.50528861724E+02  0.30000005697E+02 0.  0.
        -12    1    1    2    0    0 -0.13466497951E+02  0.28274005303E+02  0.25930668761E+02  0.40659138276E+02  0.00000000000E+00 0.  1.
         11    1    3    3    0    0 -0.12319072586E+01 -0.33156548365E+00 -0.12658654675E+02  0.12722777590E+02  0.51100000000E-03 0.  1.
        -11    1    3    3    0    0  0.63246725441E+01 -0.21218879646E+02 -0.15251916869E+02  0.26886117322E+02  0.51100000000E-03 0. -1.
        -12    1    3    3    0    0  0.83737326653E+01 -0.67235601729E+01  0.19799027827E+01  0.10919966812E+02  0.00000000000E+00 0.  1.
</event>
<event>
 7    1  0.5373252E-013  0.5052887E+02  0.7816164E-02  0.1300439E+00
        -11   -1    0    0    0    0  0.00000000000E+00  0.00000000000E+00  0.45593999997E+02  0.45594000000E+02  0.51100000000E-03 0.  1.
         11   -1    0    0    0    0 -0.00000000000E+00 -0.00000000000E+00 -0.45593999997E+02  0.45594000000E+02  0.51100000000E-03 0. -1.
    9900012    2    1    2    0    0  0.37718971005E+02  0.62544153500E+01 -0.13832078635E+02  0.50528869606E+02  0.30000029653E+02 0.  0.
        -12    1    1    2    0    0 -0.37718971005E+02 -0.62544153500E+01  0.13832078635E+02  0.40659130394E+02  0.00000000000E+00 0.  1.
         11    1    3    3    0    0  0.12651567384E+02  0.68013693059E+01 -0.12747521132E+02  0.19204688932E+02  0.51100000000E-03 0. -1.
        -11    1    3    3    0    0 -0.23222280077E+01  0.23306432388E+01  0.15901832102E+01  0.36542199893E+01  0.51100000000E-03 0.  1.
         12    1    3    3    0    0  0.27389631629E+02 -0.28775971947E+01 -0.26747407134E+01  0.27669960684E+02  0.00000000000E+00 0. -1.
</event>
<event>
 7    1  0.5373252E-013  0.5052885E+02  0.7816164E-02  0.1300439E+00
        -11   -1    0    0    0    0  0.00000000000E+00  0.00000000000E+00  0.45593999997E+02  0.45594000000E+02  0.51100000000E-03 0. -1.
         11   -1    0    0    0    0 -0.00000000000E+00 -0.00000000000E+00 -0.45593999997E+02  0.45594000000E+02  0.51100000000E-03 0.  1.
    9900012    2    1    2    0    0  0.53568257270E+01 -0.11316951131E+02  0.38683292711E+02  0.50528854661E+02  0.29999984226E+02 0.  0.
        -12    1    1    2    0    0 -0.53568257270E+01  0.11316951131E+02 -0.38683292711E+02  0.40659145339E+02  0.00000000000E+00 0.  1.
         11    1    3    3    0    0 -0.32621430660E+01  0.22702162898E+01 -0.85940723680E+00  0.40662071326E+01  0.51100000000E-03 0. -1.
        -11    1    3    3    0    0  0.14371171866E+02 -0.84678472975E+01  0.26286655928E+02  0.31132351321E+02  0.51100000000E-03 0.  1.
         12    1    3    3    0    0 -0.57522030734E+01 -0.51193201235E+01  0.13256044020E+02  0.15330296207E+02  0.00000000000E+00 0. -1.
</event>
<event>
 7    1  0.5373252E-013  0.5052886E+02  0.7816164E-02  0.1300439E+00
        -11   -1    0    0    0    0  0.00000000000E+00  0.00000000000E+00  0.45593999997E+02  0.45594000000E+02  0.51100000000E-03 0. -1.
         11   -1    0    0    0    0 -0.00000000000E+00 -0.00000000000E+00 -0.45593999997E+02  0.45594000000E+02  0.51100000000E-03 0.  1.
    9900012    2    1    2    0    0 -0.50773584308E+01 -0.10838191531E+02  0.38857682686E+02  0.50528862429E+02  0.30000007838E+02 0.  0.
        -12    1    1    2    0    0  0.50773584308E+01  0.10838191531E+02 -0.38857682686E+02  0.40659137571E+02  0.00000000000E+00 0.  1.
         11    1    3    3    0    0  0.71924023389E+01 -0.43831709178E+01  0.40281802031E+01  0.93364380097E+01  0.51100000000E-03 0. -1.
        -11    1    3    3    0    0  0.43141621723E+01 -0.10165379532E+01  0.88023068119E+01  0.98552498767E+01  0.51100000000E-03 0.  1.
         12    1    3    3    0    0 -0.16583922942E+02 -0.54384826596E+01  0.26027195671E+02  0.31337174542E+02  0.00000000000E+00 0. -1.
</event>
<event>
 7    1  0.5373252E-013  0.5052886E+02  0.7816164E-02  0.1300439E+00
        -11   -1    0    0    0    0  0.00000000000E+00  0.00000000000E+00  0.45593999997E+02  0.45594000000E+02  0.51100000000E-03 0.  1.
         11   -1    0    0    0    0 -0.00000000000E+00 -0.00000000000E+00 -0.45593999997E+02  0.45594000000E+02  0.51100000000E-03 0. -1.
    9900012    2    1    2    0    0  0.25484922902E+02 -0.81399703021E+01 -0.30617401830E+02  0.50528859495E+02  0.29999998920E+02 0.  0.
        -12    1    1    2    0    0 -0.25484922902E+02  0.81399703021E+01  0.30617401830E+02  0.40659140505E+02  0.00000000000E+00 0.  1.
         11    1    3    3    0    0  0.12613767897E+02  0.28942574574E+01 -0.24815746350E+02  0.27987588927E+02  0.51100000000E-03 0. -1.
        -11    1    3    3    0    0  0.15306499369E+01  0.28658464647E+01  0.93166632357E+00  0.33799360332E+01  0.51100000000E-03 0.  1.
        -12    1    3    3    0    0  0.11340505068E+02 -0.13900074224E+02 -0.67333218030E+01  0.19161334534E+02  0.00000000000E+00 0.  1.
</event>
<event>
 7    1  0.5373252E-013  0.5052885E+02  0.7816164E-02  0.1300439E+00
        -11   -1    0    0    0    0  0.00000000000E+00  0.00000000000E+00  0.45593999997E+02  0.45594000000E+02  0.51100000000E-03 0. -1.
         11   -1    0    0    0    0 -0.00000000000E+00 -0.00000000000E+00 -0.45593999997E+02  0.45594000000E+02  0.51100000000E-03 0.  1.
    9900012    2    1    2    0    0  0.37470658841E+02  0.18941084486E+01 -0.15669339178E+02  0.50528854521E+02  0.29999983803E+02 0.  0.
        -12    1    1    2    0    0 -0.37470658841E+02 -0.18941084486E+01  0.15669339178E+02  0.40659145479E+02  0.00000000000E+00 0.  1.
         11    1    3    3    0    0  0.38824789846E+01  0.77559565359E+01 -0.75645657294E+01  0.11508742754E+02  0.51100000000E-03 0. -1.
        -11    1    3    3    0    0  0.10739133385E+00 -0.33261860880E+01 -0.39846842015E+01  0.51916043028E+01  0.51100000000E-03 0.  1.
         12    1    3    3    0    0  0.33480788522E+02 -0.25356619994E+01 -0.41200892475E+01  0.33828507464E+02  0.00000000000E+00 0. -1.
</event>
<event>
 7    1  0.5373252E-013  0.5052887E+02  0.7816164E-02  0.1300439E+00
        -11   -1    0    0    0    0  0.00000000000E+00  0.00000000000E+00  0.45593999997E+02  0.45594000000E+02  0.51100000000E-03 0.  1.
         11   -1    0    0    0    0 -0.00000000000E+00 -0.00000000000E+00 -0.45593999997E+02  0.45594000000E+02  0.51100000000E-03 0. -1.
    9900012    2    1    2    0    0  0.21798126712E+02 -0.17685436832E+02 -0.29414824975E+02  0.50528869016E+02  0.30000027860E+02 0.  0.
        -12    1    1    2    0    0 -0.21798126712E+02  0.17685436832E+02  0.29414824975E+02  0.40659130984E+02  0.00000000000E+00 0.  1.
         11    1    3    3    0    0  0.13959811651E+01 -0.16749706831E+02 -0.61651444888E+01  0.17902805623E+02  0.51100000000E-03 0. -1.
        -11    1    3    3    0    0  0.22285108624E+01 -0.32020096138E+01 -0.14684425559E+01  0.41683869820E+01  0.51100000000E-03 0.  1.
        -12    1    3    3    0    0  0.18173634685E+02  0.22662796128E+01 -0.21781237930E+02  0.28457676411E+02  0.00000000000E+00 0.  1.
</event>
<event>
 7    1  0.5373252E-013  0.5052886E+02  0.7816164E-02  0.1300439E+00
        -11   -1    0    0    0    0  0.00000000000E+00  0.00000000000E+00  0.45593999997E+02  0.45594000000E+02  0.51100000000E-03 0.  1.
         11   -1    0    0    0    0 -0.00000000000E+00 -0.00000000000E+00 -0.45593999997E+02  0.45594000000E+02  0.51100000000E-03 0. -1.
    9900012    2    1    2    0    0 -0.11936856883E+02  0.26171640583E+02 -0.28735390669E+02  0.50528855888E+02  0.29999987956E+02 0.  0.
        -12    1    1    2    0    0  0.11936856883E+02 -0.26171640583E+02  0.28735390669E+02  0.40659144112E+02  0.00000000000E+00 0.  1.
         11    1    3    3    0    0 -0.23315989754E+01  0.50172126559E+01 -0.12430589452E+02  0.13606187232E+02  0.51100000000E-03 0. -1.
        -11    1    3    3    0    0 -0.79573252813E+01 -0.30116434120E+01 -0.68409211219E+01  0.10917290128E+02  0.51100000000E-03 0.  1.
        -12    1    3    3    0    0 -0.16479326261E+01  0.24166071339E+02 -0.94638800954E+01  0.26005378528E+02  0.00000000000E+00 0.  1.
</event>
<event>
 7    1  0.5373252E-013  0.5052886E+02  0.7816164E-02  0.1300439E+00
        -11   -1    0    0    0    0  0.00000000000E+00  0.00000000000E+00  0.45593999997E+02  0.45594000000E+02  0.51100000000E-03 0.  1.
         11   -1    0    0    0    0 -0.00000000000E+00 -0.00000000000E+00 -0.45593999997E+02  0.45594000000E+02  0.51100000000E-03 0. -1.
    9900012    2    1    2    0    0 -0.89904137519E+01 -0.38456895720E+02 -0.96646544180E+01  0.50528856958E+02  0.29999991210E+02 0.  0.
        -12    1    1    2    0    0  0.89904137519E+01  0.38456895720E+02  0.96646544180E+01  0.40659143042E+02  0.00000000000E+00 0.  1.
         11    1    3    3    0    0  0.19933923625E+01 -0.31012070571E+01 -0.55991372865E+01  0.67038374783E+01  0.51100000000E-03 0. -1.
        -11    1    3    3    0    0 -0.15794388263E+01 -0.10246762497E+02  0.92445996564E+01  0.13890766420E+02  0.51100000000E-03 0.  1.
         12    1    3    3    0    0 -0.94043672881E+01 -0.25108926167E+02 -0.13310116788E+02  0.29934253060E+02  0.00000000000E+00 0. -1.
</event>
<event>
 7    1  0.5373252E-013  0.5052886E+02  0.7816164E-02  0.1300439E+00
        -11   -1    0    0    0    0  0.00000000000E+00  0.00000000000E+00  0.45593999997E+02  0.45594000000E+02  0.51100000000E-03 0.  1.
         11   -1    0    0    0    0 -0.00000000000E+00 -0.00000000000E+00 -0.45593999997E+02  0.45594000000E+02  0.51100000000E-03 0. -1.
    9900012    2    1    2    0    0  0.26820269427E+02 -0.22975083770E+02  0.20149043672E+02  0.50528864652E+02  0.30000014597E+02 0.  0.
        -12    1    1    2    0    0 -0.26820269427E+02  0.22975083770E+02 -0.20149043672E+02  0.40659135348E+02  0.00000000000E+00 0.  1.
         11    1    3    3    0    0  0.98560440030E+01 -0.20355750046E+02  0.86693301138E+01  0.24220971249E+02  0.51100000000E-03 0. -1.
        -11    1    3    3    0    0 -0.86719903901E+00 -0.25387466838E+01 -0.24865447395E+01  0.36578920023E+01  0.51100000000E-03 0.  1.
         12    1    3    3    0    0  0.17831424463E+02 -0.80587039452E-01  0.13966258298E+02  0.22650001401E+02  0.00000000000E+00 0. -1.
</event>
<event>
 7    1  0.5373252E-013  0.5052884E+02  0.7816164E-02  0.1300439E+00
        -11   -1    0    0    0    0  0.00000000000E+00  0.00000000000E+00  0.45593999997E+02  0.45594000000E+02  0.51100000000E-03 0.  1.
         11   -1    0    0    0    0 -0.00000000000E+00 -0.00000000000E+00 -0.45593999997E+02  0.45594000000E+02  0.51100000000E-03 0. -1.
    9900012    2    1    2    0    0  0.32015132815E+02 -0.12769652295E+02 -0.21566975991E+02  0.50528841102E+02  0.29999943014E+02 0.  0.
        -12    1    1    2    0    0 -0.32015132815E+02  0.12769652295E+02  0.21566975991E+02  0.40659158898E+02  0.00000000000E+00 0.  1.
         11    1    3    3    0    0  0.15776963024E+02 -0.47241482444E+01 -0.10919865171E+02  0.19760404715E+02  0.51100000000E-03 0. -1.
        -11    1    3    3    0    0  0.16059544428E+01  0.28774680675E+01  0.54880122882E+01  0.64013429285E+01  0.51100000000E-03 0.  1.
         12    1    3    3    0    0  0.14632215348E+02 -0.10922972118E+02 -0.16135123108E+02  0.24367093458E+02  0.00000000000E+00 0. -1.
</event>
<event>
 7    1  0.5373252E-013  0.5052887E+02  0.7816164E-02  0.1300439E+00
        -11   -1    0    0    0    0  0.00000000000E+00  0.00000000000E+00  0.45593999997E+02  0.45594000000E+02  0.51100000000E-03 0. -1.
         11   -1    0    0    0    0 -0.00000000000E+00 -0.00000000000E+00 -0.45593999997E+02  0.45594000000E+02  0.51100000000E-03 0.  1.
    9900012    2    1    2    0    0 -0.25989367850E+01 -0.11770101536E+02  0.38831371624E+02  0.50528865912E+02  0.30000018427E+02 0.  0.
        -12    1    1    2    0    0  0.25989367850E+01  0.11770101536E+02 -0.38831371624E+02  0.40659134088E+02  0.00000000000E+00 0.  1.
         11    1    3    3    0    0  0.63715805091E+01 -0.40523991136E+01  0.16289547580E+02  0.17954618831E+02  0.51100000000E-03 0. -1.
        -11    1    3    3    0    0  0.37819372597E+01 -0.38350088354E+00  0.16050785615E+02  0.16494782250E+02  0.51100000000E-03 0.  1.
        -12    1    3    3    0    0 -0.12752454554E+02 -0.73342015385E+01  0.64910384288E+01  0.16079464831E+02  0.00000000000E+00 0.  1.
</event>
<event>
 7    1  0.5373252E-013  0.5052887E+02  0.7816164E-02  0.1300439E+00
        -11   -1    0    0    0    0  0.00000000000E+00  0.00000000000E+00  0.45593999997E+02  0.45594000000E+02  0.51100000000E-03 0.  1.
         11   -1    0    0    0    0 -0.00000000000E+00 -0.00000000000E+00 -0.45593999997E+02  0.45594000000E+02  0.51100000000E-03 0. -1.
    9900012    2    1    2    0    0 -0.32116925088E+02 -0.15284025386E+02 -0.19699404302E+02  0.50528870164E+02  0.30000031352E+02 0.  0.
        -12    1    1    2    0    0  0.32116925088E+02  0.15284025386E+02  0.19699404302E+02  0.40659129836E+02  0.00000000000E+00 0.  1.
         11    1    3    3    0    0 -0.24795383102E+02 -0.41345165998E+01 -0.10181001382E+02  0.27121173280E+02  0.51100000000E-03 0. -1.
        -11    1    3    3    0    0 -0.61378438030E+01 -0.13358681062E+02 -0.12345745650E+01  0.14753022093E+02  0.51100000000E-03 0.  1.
         12    1    3    3    0    0 -0.11836981833E+01  0.22091722753E+01 -0.82838283545E+01  0.86546747910E+01  0.00000000000E+00 0. -1.
</event>
<event>
 7    1  0.5373252E-013  0.5052886E+02  0.7816164E-02  0.1300439E+00
        -11   -1    0    0    0    0  0.00000000000E+00  0.00000000000E+00  0.45593999997E+02  0.45594000000E+02  0.51100000000E-03 0.  1.
         11   -1    0    0    0    0 -0.00000000000E+00 -0.00000000000E+00 -0.45593999997E+02  0.45594000000E+02  0.51100000000E-03 0. -1.
    9900012    2    1    2    0    0 -0.27084852213E+02 -0.29803591285E+02  0.55966480627E+01  0.50528859055E+02  0.29999997584E+02 0.  0.
        -12    1    1    2    0    0  0.27084852213E+02  0.29803591285E+02 -0.55966480627E+01  0.40659140945E+02  0.00000000000E+00 0.  1.
         11    1    3    3    0    0  0.13397973428E+01  0.32830046633E+01  0.39969867525E+00  0.35683239526E+01  0.51100000000E-03 0. -1.
        -11    1    3    3    0    0 -0.82721088049E+01 -0.12629824014E+02  0.96256313525E+01  0.17905111502E+02  0.51100000000E-03 0.  1.
         12    1    3    3    0    0 -0.20152540751E+02 -0.20456771934E+02 -0.44286819650E+01  0.29055423601E+02  0.00000000000E+00 0. -1.
</event>
<event>
 7    1  0.5373252E-013  0.5052886E+02  0.7816164E-02  0.1300439E+00
        -11   -1    0    0    0    0  0.00000000000E+00  0.00000000000E+00  0.45593999997E+02  0.45594000000E+02  0.51100000000E-03 0.  1.
         11   -1    0    0    0    0 -0.00000000000E+00 -0.00000000000E+00 -0.45593999997E+02  0.45594000000E+02  0.51100000000E-03 0. -1.
    9900012    2    1    2    0    0  0.23175634774E+02  0.11159140740E+02 -0.31488552012E+02  0.50528863548E+02  0.30000011241E+02 0.  0.
        -12    1    1    2    0    0 -0.23175634774E+02 -0.11159140740E+02  0.31488552012E+02  0.40659136452E+02  0.00000000000E+00 0.  1.
         11    1    3    3    0    0  0.51339794138E+01 -0.76942680656E+00  0.11861063799E+00  0.51926708904E+01  0.51100000000E-03 0. -1.
        -11    1    3    3    0    0 -0.52085894622E+01  0.56833558041E+01 -0.39275992409E+01  0.86519346646E+01  0.51100000000E-03 0.  1.
         12    1    3    3    0    0  0.23250244822E+02  0.62452117423E+01 -0.27679563409E+02  0.36684257993E+02  0.00000000000E+00 0. -1.
</event>
<event>
 7    1  0.5373252E-013  0.5052886E+02  0.7816164E-02  0.1300439E+00
        -11   -1    0    0    0    0  0.00000000000E+00  0.00000000000E+00  0.45593999997E+02  0.45594000000E+02  0.51100000000E-03 0. -1.
         11   -1    0    0    0    0 -0.00000000000E+00 -0.00000000000E+00 -0.45593999997E+02  0.45594000000E+02  0.51100000000E-03 0.  1.
    9900012    2    1    2    0    0 -0.22142853425E+02  0.18742120495E+02  0.28488464294E+02  0.50528860360E+02  0.30000001551E+02 0.  0.
        -12    1    1    2    0    0  0.22142853425E+02 -0.18742120495E+02 -0.28488464294E+02  0.40659139640E+02  0.00000000000E+00 0.  1.
         11    1    3    3    0    0 -0.19799830519E+02 -0.74042575999E+00  0.15274093225E+02  0.25017582676E+02  0.51100000000E-03 0. -1.
        -11    1    3    3    0    0  0.21372217950E+01  0.98761327780E+01  0.10493688669E+02  0.14567883092E+02  0.51100000000E-03 0.  1.
        -12    1    3    3    0    0 -0.44802447015E+01  0.96064134765E+01  0.27206824002E+01  0.10943394592E+02  0.00000000000E+00 0.  1.
</event>
<event>
 7    1  0.5373252E-013  0.5052886E+02  0.7816164E-02  0.1300439E+00
        -11   -1    0    0    0    0  0.00000000000E+00  0.00000000000E+00  0.45593999997E+02  0.45594000000E+02  0.51100000000E-03 0.  1.
         11   -1    0    0    0    0 -0.00000000000E+00 -0.00000000000E+00 -0.45593999997E+02  0.45594000000E+02  0.51100000000E-03 0. -1.
    9900012    2    1    2    0    0  0.39120197008E+02  0.10693885367E+02 -0.29011253890E+01  0.50528861707E+02  0.30000005646E+02 0.  0.
        -12    1    1    2    0    0 -0.39120197008E+02 -0.10693885367E+02  0.29011253890E+01  0.40659138293E+02  0.00000000000E+00 0.  1.
         11    1    3    3    0    0  0.23683179055E+01  0.53209787474E+01 -0.68310907310E+01  0.89769452136E+01  0.51100000000E-03 0. -1.
        -11    1    3    3    0    0  0.97330795173E+01  0.76017690466E+01  0.71183514237E+01  0.14254496020E+02  0.51100000000E-03 0.  1.
         12    1    3    3    0    0  0.27018799585E+02 -0.22288624267E+01 -0.31883860817E+01  0.27297420474E+02  0.00000000000E+00 0. -1.
</event>
<event>
 7    1  0.5373252E-013  0.5052887E+02  0.7816164E-02  0.1300439E+00
        -11   -1    0    0    0    0  0.00000000000E+00  0.00000000000E+00  0.45593999997E+02  0.45594000000E+02  0.51100000000E-03 0.  1.
         11   -1    0    0    0    0 -0.00000000000E+00 -0.00000000000E+00 -0.45593999997E+02  0.45594000000E+02  0.51100000000E-03 0. -1.
    9900012    2    1    2    0    0 -0.37224804853E+02  0.16343040694E+02  0.61942712754E+00  0.50528871069E+02  0.30000034102E+02 0.  0.
        -12    1    1    2    0    0  0.37224804853E+02 -0.16343040694E+02 -0.61942712754E+00  0.40659128931E+02  0.00000000000E+00 0.  1.
         11    1    3    3    0    0 -0.11614777800E+02  0.28695713034E+00  0.85385235123E+01  0.14418453168E+02  0.51100000000E-03 0. -1.
        -11    1    3    3    0    0 -0.18081945609E+02  0.77523450346E+00 -0.27318746193E+01  0.18303575737E+02  0.51100000000E-03 0.  1.
         12    1    3    3    0    0 -0.75280814436E+01  0.15280849060E+02 -0.51872217654E+01  0.17806842164E+02  0.00000000000E+00 0. -1.
</event>
<event>
 7    1  0.5373252E-013  0.5052885E+02  0.7816164E-02  0.1300439E+00
        -11   -1    0    0    0    0  0.00000000000E+00  0.00000000000E+00  0.45593999997E+02  0.45594000000E+02  0.51100000000E-03 0. -1.
         11   -1    0    0    0    0 -0.00000000000E+00 -0.00000000000E+00 -0.45593999997E+02  0.45594000000E+02  0.51100000000E-03 0.  1.
    9900012    2    1    2    0    0 -0.14408741690E+02 -0.31996317351E+02  0.20537528207E+02  0.50528853108E+02  0.29999979507E+02 0.  0.
        -12    1    1    2    0    0  0.14408741690E+02  0.31996317351E+02 -0.20537528207E+02  0.40659146892E+02  0.00000000000E+00 0.  1.
         11    1    3    3    0    0 -0.59569516129E+01 -0.25649730373E+01  0.14205517806E+02  0.15616052497E+02  0.51100000000E-03 0. -1.
        -11    1    3    3    0    0 -0.14818490053E+01  0.10988940100E+01 -0.17798865467E+01  0.25634821825E+01  0.51100000000E-03 0.  1.
         12    1    3    3    0    0 -0.69699410715E+01 -0.30530238324E+02  0.81118969478E+01  0.32349318428E+02  0.00000000000E+00 0. -1.
</event>
<event>
 7    1  0.5373252E-013  0.5052886E+02  0.7816164E-02  0.1300439E+00
        -11   -1    0    0    0    0  0.00000000000E+00  0.00000000000E+00  0.45593999997E+02  0.45594000000E+02  0.51100000000E-03 0.  1.
         11   -1    0    0    0    0 -0.00000000000E+00 -0.00000000000E+00 -0.45593999997E+02  0.45594000000E+02  0.51100000000E-03 0. -1.
    9900012    2    1    2    0    0  0.33939036582E+02 -0.11182382318E+02 -0.19397460774E+02  0.50528863722E+02  0.30000011768E+02 0.  0.
        -12    1    1    2    0    0 -0.33939036582E+02  0.11182382318E+02  0.19397460774E+02  0.40659136278E+02  0.00000000000E+00 0.  1.
         11    1    3    3    0    0  0.16232426368E+02 -0.87316750326E+01 -0.11231109591E+02  0.21584059803E+02  0.51100000000E-03 0. -1.
        -11    1    3    3    0    0  0.16818482451E+01 -0.98360027428E+01 -0.43837099472E+01  0.10899196146E+02  0.51100000000E-03 0.  1.
        -12    1    3    3    0    0  0.16024761969E+02  0.73852954571E+01 -0.37826412359E+01  0.18045607772E+02  0.00000000000E+00 0.  1.
</event>
<event>
 7    1  0.5373252E-013  0.5052886E+02  0.7816164E-02  0.1300439E+00
        -11   -1    0    0    0    0  0.00000000000E+00  0.00000000000E+00  0.45593999997E+02  0.45594000000E+02  0.51100000000E-03 0. -1.
         11   -1    0    0    0    0 -0.00000000000E+00 -0.00000000000E+00 -0.45593999997E+02  0.45594000000E+02  0.51100000000E-03 0.  1.
    9900012    2    1    2    0    0  0.36595883313E+02  0.17329140813E+02 -0.36888586730E+01  0.50528862342E+02  0.30000007576E+02 0.  0.
        -12    1    1    2    0    0 -0.36595883313E+02 -0.17329140813E+02  0.36888586730E+01  0.40659137658E+02  0.00000000000E+00 0.  1.
         11    1    3    3    0    0  0.32999472321E+02  0.14346195425E+02 -0.77504275889E+01  0.36808254844E+02  0.51100000000E-03 0. -1.
        -11    1    3    3    0    0  0.75670667772E+01 -0.64911065263E+00  0.14219721778E+01  0.77268266051E+01  0.51100000000E-03 0.  1.
        -12    1    3    3    0    0 -0.39706557853E+01  0.36320560412E+01  0.26395967381E+01  0.59937808929E+01  0.00000000000E+00 0.  1.
</event>
<event>
 7    1  0.5373252E-013  0.5052886E+02  0.7816164E-02  0.1300439E+00
        -11   -1    0    0    0    0  0.00000000000E+00  0.00000000000E+00  0.45593999997E+02  0.45594000000E+02  0.51100000000E-03 0.  1.
         11   -1    0    0    0    0 -0.00000000000E+00 -0.00000000000E+00 -0.45593999997E+02  0.45594000000E+02  0.51100000000E-03 0. -1.
    9900012    2    1    2    0    0 -0.12795032591E+01  0.25176795184E+02 -0.31900745144E+02  0.50528859760E+02  0.29999999727E+02 0.  0.
        -12    1    1    2    0    0  0.12795032591E+01 -0.25176795184E+02  0.31900745144E+02  0.40659140240E+02  0.00000000000E+00 0.  1.
         11    1    3    3    0    0  0.45612703836E+00  0.14452640122E+02 -0.40410792192E+01  0.15013899557E+02  0.51100000000E-03 0. -1.
        -11    1    3    3    0    0  0.54398546508E+01  0.48715213714E+00 -0.56150310697E+00  0.54904118085E+01  0.51100000000E-03 0.  1.
         12    1    3    3    0    0 -0.71754849483E+01  0.10237002924E+02 -0.27298162818E+02  0.30024548395E+02  0.00000000000E+00 0. -1.
</event>
<event>
 7    1  0.5373252E-013  0.5052887E+02  0.7816164E-02  0.1300439E+00
        -11   -1    0    0    0    0  0.00000000000E+00  0.00000000000E+00  0.45593999997E+02  0.45594000000E+02  0.51100000000E-03 0. -1.
         11   -1    0    0    0    0 -0.00000000000E+00 -0.00000000000E+00 -0.45593999997E+02  0.45594000000E+02  0.51100000000E-03 0.  1.
    9900012    2    1    2    0    0 -0.76961060899E+01 -0.38804137298E+02 -0.93900958008E+01  0.50528867944E+02  0.30000024602E+02 0.  0.
        -12    1    1    2    0    0  0.76961060899E+01  0.38804137298E+02  0.93900958008E+01  0.40659132056E+02  0.00000000000E+00 0.  1.
         11    1    3    3    0    0 -0.70152212538E+01 -0.19931656154E+02 -0.10620419244E+02  0.23649049695E+02  0.51100000000E-03 0. -1.
        -11    1    3    3    0    0 -0.37072435555E+01 -0.10195370803E+02  0.95728356357E+01  0.14468186581E+02  0.51100000000E-03 0.  1.
         12    1    3    3    0    0  0.30263587193E+01 -0.86771103420E+01 -0.83425121922E+01  0.12411631668E+02  0.00000000000E+00 0. -1.
</event>
<event>
 7    1  0.5373252E-013  0.5052885E+02  0.7816164E-02  0.1300439E+00
        -11   -1    0    0    0    0  0.00000000000E+00  0.00000000000E+00  0.45593999997E+02  0.45594000000E+02  0.51100000000E-03 0.  1.
         11   -1    0    0    0    0 -0.00000000000E+00 -0.00000000000E+00 -0.45593999997E+02  0.45594000000E+02  0.51100000000E-03 0. -1.
    9900012    2    1    2    0    0  0.28876382796E+02  0.27407057491E+02  0.82567664258E+01  0.50528850039E+02  0.29999970178E+02 0.  0.
        -12    1    1    2    0    0 -0.28876382796E+02 -0.27407057491E+02 -0.82567664258E+01  0.40659149961E+02  0.00000000000E+00 0.  1.
         11    1    3    3    0    0 -0.33609173223E+01  0.98682645189E+00  0.14276582488E+01  0.37825652711E+01  0.51100000000E-03 0. -1.
        -11    1    3    3    0    0  0.14619309661E+02  0.24248875896E+02  0.61894630393E+01  0.28983472017E+02  0.51100000000E-03 0.  1.
         12    1    3    3    0    0  0.17617990457E+02  0.21713551438E+01  0.63964513770E+00  0.17762812751E+02  0.00000000000E+00 0. -1.
</event>
<event>
 7    1  0.5373252E-013  0.5052887E+02  0.7816164E-02  0.1300439E+00
        -11   -1    0    0    0    0  0.00000000000E+00  0.00000000000E+00  0.45593999997E+02  0.45594000000E+02  0.51100000000E-03 0.  1.
         11   -1    0    0    0    0 -0.00000000000E+00 -0.00000000000E+00 -0.45593999997E+02  0.45594000000E+02  0.51100000000E-03 0. -1.
    9900012    2    1    2    0    0 -0.12326195447E+02  0.26644107906E+02 -0.28130439779E+02  0.50528865449E+02  0.30000017019E+02 0.  0.
        -12    1    1    2    0    0  0.12326195447E+02 -0.26644107906E+02  0.28130439779E+02  0.40659134551E+02  0.00000000000E+00 0.  1.
         11    1    3    3    0    0 -0.13328220987E+02  0.29601189089E+02 -0.27538296494E+02  0.42570290628E+02  0.51100000000E-03 0. -1.
        -11    1    3    3    0    0  0.13316240024E+01  0.17674137032E+01  0.16090441473E+01  0.27360550088E+01  0.51100000000E-03 0.  1.
        -12    1    3    3    0    0 -0.32959846206E+00 -0.47244948858E+01 -0.22011874323E+01  0.52225198118E+01  0.00000000000E+00 0.  1.
</event>
<event>
 7    1  0.5373252E-013  0.5052883E+02  0.7816164E-02  0.1300439E+00
        -11   -1    0    0    0    0  0.00000000000E+00  0.00000000000E+00  0.45593999997E+02  0.45594000000E+02  0.51100000000E-03 0.  1.
         11   -1    0    0    0    0 -0.00000000000E+00 -0.00000000000E+00 -0.45593999997E+02  0.45594000000E+02  0.51100000000E-03 0. -1.
    9900012    2    1    2    0    0 -0.31807133536E+02 -0.41161408711E+01 -0.24990631705E+02  0.50528830893E+02  0.29999911982E+02 0.  0.
        -12    1    1    2    0    0  0.31807133536E+02  0.41161408711E+01  0.24990631705E+02  0.40659169107E+02  0.00000000000E+00 0.  1.
         11    1    3    3    0    0 -0.73366427689E+01 -0.42872591859E+01 -0.15003619387E+02  0.17242839482E+02  0.51100000000E-03 0. -1.
        -11    1    3    3    0    0 -0.17949990843E+02  0.73930402512E+01 -0.12683793432E+02  0.23189174878E+02  0.51100000000E-03 0.  1.
        -12    1    3    3    0    0 -0.65204999246E+01 -0.72219219363E+01  0.26967811145E+01  0.10096816533E+02  0.00000000000E+00 0.  1.
</event>
<event>
 7    1  0.5373252E-013  0.5052883E+02  0.7816164E-02  0.1300439E+00
        -11   -1    0    0    0    0  0.00000000000E+00  0.00000000000E+00  0.45593999997E+02  0.45594000000E+02  0.51100000000E-03 0.  1.
         11   -1    0    0    0    0 -0.00000000000E+00 -0.00000000000E+00 -0.45593999997E+02  0.45594000000E+02  0.51100000000E-03 0. -1.
    9900012    2    1    2    0    0  0.40530655676E+02  0.29658233801E+01  0.12797341475E+01  0.50528832801E+02  0.29999917781E+02 0.  0.
        -12    1    1    2    0    0 -0.40530655676E+02 -0.29658233801E+01 -0.12797341475E+01  0.40659167199E+02  0.00000000000E+00 0.  1.
         11    1    3    3    0    0 -0.43320611659E+01  0.16430424772E+01  0.24731087020E+01  0.52519148355E+01  0.51100000000E-03 0. -1.
        -11    1    3    3    0    0  0.74040880701E+01 -0.10184247039E+01  0.15937862164E+01  0.76418495007E+01  0.51100000000E-03 0.  1.
         12    1    3    3    0    0  0.37458628772E+02  0.23412056068E+01 -0.27871607709E+01  0.37635068464E+02  0.00000000000E+00 0. -1.
</event>
<event>
 7    1  0.5373252E-013  0.5052886E+02  0.7816164E-02  0.1300439E+00
        -11   -1    0    0    0    0  0.00000000000E+00  0.00000000000E+00  0.45593999997E+02  0.45594000000E+02  0.51100000000E-03 0. -1.
         11   -1    0    0    0    0 -0.00000000000E+00 -0.00000000000E+00 -0.45593999997E+02  0.45594000000E+02  0.51100000000E-03 0.  1.
    9900012    2    1    2    0    0 -0.18083845393E+02 -0.35907907582E+02  0.60632017612E+01  0.50528859494E+02  0.29999998918E+02 0.  0.
        -12    1    1    2    0    0  0.18083845393E+02  0.35907907582E+02 -0.60632017612E+01  0.40659140506E+02  0.00000000000E+00 0.  1.
         11    1    3    3    0    0 -0.15754688647E+02 -0.84586038996E+01  0.43112304513E+01  0.18394154033E+02  0.51100000000E-03 0. -1.
        -11    1    3    3    0    0  0.57531637813E+01 -0.17133387671E+02  0.47580259912E+01  0.18689319896E+02  0.51100000000E-03 0.  1.
         12    1    3    3    0    0 -0.80823205274E+01 -0.10315916011E+02 -0.30060546813E+01  0.13445385565E+02  0.00000000000E+00 0. -1.
</event>
<event>
 7    1  0.7259230E-013  0.5052885E+02  0.7816164E-02  0.1300439E+00
        -11   -1    0    0    0    0  0.00000000000E+00  0.00000000000E+00  0.45593999997E+02  0.45594000000E+02  0.51100000000E-03 0. -1.
         11   -1    0    0    0    0 -0.00000000000E+00 -0.00000000000E+00 -0.45593999997E+02  0.45594000000E+02  0.51100000000E-03 0.  1.
    9900012    2    1    2    0    0  0.31190681298E+01  0.38301179553E+02  0.13283720804E+02  0.50528853680E+02  0.29999981244E+02 0.  0.
        -12    1    1    2    0    0 -0.31190681298E+01 -0.38301179553E+02 -0.13283720804E+02  0.40659146320E+02  0.00000000000E+00 0.  1.
         11    1    3    3    0    0  0.76341076716E+01  0.23466151822E+02  0.18339539712E+02  0.30745383367E+02  0.51100000000E-03 0.  1.
        -11    1    3    3    0    0 -0.39147192082E+00  0.14837087670E+02 -0.28728548115E+01  0.15117728527E+02  0.51100000000E-03 0. -1.
        -12    1    3    3    0    0 -0.41235676209E+01 -0.20599385839E-02 -0.21829640968E+01  0.46657417862E+01  0.00000000000E+00 0.  1.
</event>
<event>
 7    1  0.5373252E-013  0.5052887E+02  0.7816164E-02  0.1300439E+00
        -11   -1    0    0    0    0  0.00000000000E+00  0.00000000000E+00  0.45593999997E+02  0.45594000000E+02  0.51100000000E-03 0.  1.
         11   -1    0    0    0    0 -0.00000000000E+00 -0.00000000000E+00 -0.45593999997E+02  0.45594000000E+02  0.51100000000E-03 0. -1.
    9900012    2    1    2    0    0 -0.70881195573E+01  0.11664864302E+01 -0.40019533633E+02  0.50528865704E+02  0.30000017795E+02 0.  0.
        -12    1    1    2    0    0  0.70881195573E+01 -0.11664864302E+01  0.40019533633E+02  0.40659134296E+02  0.00000000000E+00 0.  1.
         11    1    3    3    0    0  0.45960347055E+00 -0.19887808003E+01 -0.32994685572E+02  0.33057764000E+02  0.51100000000E-03 0. -1.
        -11    1    3    3    0    0  0.21679553266E+01  0.48418421370E+01 -0.52271665473E+01  0.74475993415E+01  0.51100000000E-03 0.  1.
         12    1    3    3    0    0 -0.97156783545E+01 -0.16865749066E+01 -0.17976815143E+01  0.10023502363E+02  0.00000000000E+00 0. -1.
</event>
<event>
 7    1  0.5373252E-013  0.5052887E+02  0.7816164E-02  0.1300439E+00
        -11   -1    0    0    0    0  0.00000000000E+00  0.00000000000E+00  0.45593999997E+02  0.45594000000E+02  0.51100000000E-03 0. -1.
         11   -1    0    0    0    0 -0.00000000000E+00 -0.00000000000E+00 -0.45593999997E+02  0.45594000000E+02  0.51100000000E-03 0.  1.
    9900012    2    1    2    0    0  0.10913644000E+02 -0.39156391864E+02  0.91354965033E+00  0.50528865453E+02  0.30000017030E+02 0.  0.
        -12    1    1    2    0    0 -0.10913644000E+02  0.39156391864E+02 -0.91354965033E+00  0.40659134547E+02  0.00000000000E+00 0.  1.
         11    1    3    3    0    0 -0.57467797338E+01 -0.18077563049E+02 -0.45453163490E+01  0.19505990466E+02  0.51100000000E-03 0.  1.
        -11    1    3    3    0    0  0.64825555549E+01 -0.18483274376E+02  0.60569874193E+01  0.20502245122E+02  0.51100000000E-03 0. -1.
        -12    1    3    3    0    0  0.10177868179E+02 -0.25955544394E+01 -0.59812141994E+00  0.10520629865E+02  0.00000000000E+00 0.  1.
</event>
<event>
 7    1  0.5373252E-013  0.5052884E+02  0.7816164E-02  0.1300439E+00
        -11   -1    0    0    0    0  0.00000000000E+00  0.00000000000E+00  0.45593999997E+02  0.45594000000E+02  0.51100000000E-03 0.  1.
         11   -1    0    0    0    0 -0.00000000000E+00 -0.00000000000E+00 -0.45593999997E+02  0.45594000000E+02  0.51100000000E-03 0. -1.
    9900012    2    1    2    0    0  0.16610375420E+02  0.97017926553E+01 -0.35820917843E+02  0.50528837350E+02  0.29999931609E+02 0.  0.
        -12    1    1    2    0    0 -0.16610375420E+02 -0.97017926553E+01  0.35820917843E+02  0.40659162650E+02  0.00000000000E+00 0.  1.
         11    1    3    3    0    0  0.13383979407E+02 -0.25210669856E+01 -0.15781366713E+02  0.20845580325E+02  0.51100000000E-03 0. -1.
        -11    1    3    3    0    0  0.88638537459E+01  0.86899828614E+01 -0.19357271280E+02  0.22995383385E+02  0.51100000000E-03 0.  1.
        -12    1    3    3    0    0 -0.56374577327E+01  0.35328767795E+01 -0.68227984981E+00  0.66878736397E+01  0.00000000000E+00 0.  1.
</event>
<event>
 7    1  0.5373252E-013  0.5052886E+02  0.7816164E-02  0.1300439E+00
        -11   -1    0    0    0    0  0.00000000000E+00  0.00000000000E+00  0.45593999997E+02  0.45594000000E+02  0.51100000000E-03 0. -1.
         11   -1    0    0    0    0 -0.00000000000E+00 -0.00000000000E+00 -0.45593999997E+02  0.45594000000E+02  0.51100000000E-03 0.  1.
    9900012    2    1    2    0    0 -0.18924925651E+02  0.39547746818E+01  0.35768316942E+02  0.50528861414E+02  0.30000004754E+02 0.  0.
        -12    1    1    2    0    0  0.18924925651E+02 -0.39547746818E+01 -0.35768316942E+02  0.40659138586E+02  0.00000000000E+00 0.  1.
         11    1    3    3    0    0 -0.15729595448E+02  0.90589829254E+01  0.32503544844E+02  0.37228561244E+02  0.51100000000E-03 0. -1.
        -11    1    3    3    0    0  0.16189093520E+01  0.23577968715E+01 -0.14924858232E+01  0.32260793187E+01  0.51100000000E-03 0.  1.
        -12    1    3    3    0    0 -0.48142395547E+01 -0.74620051151E+01  0.47572579214E+01  0.10074220851E+02  0.00000000000E+00 0.  1.
</event>
<event>
 7    1  0.5373252E-013  0.5052883E+02  0.7816164E-02  0.1300439E+00
        -11   -1    0    0    0    0  0.00000000000E+00  0.00000000000E+00  0.45593999997E+02  0.45594000000E+02  0.51100000000E-03 0.  1.
         11   -1    0    0    0    0 -0.00000000000E+00 -0.00000000000E+00 -0.45593999997E+02  0.45594000000E+02  0.51100000000E-03 0. -1.
    9900012    2    1    2    0    0 -0.39628831887E+02 -0.30940725103E+01 -0.85527846463E+01  0.50528834654E+02  0.29999923414E+02 0.  0.
        -12    1    1    2    0    0  0.39628831887E+02  0.30940725103E+01  0.85527846463E+01  0.40659165346E+02  0.00000000000E+00 0.  1.
         11    1    3    3    0    0 -0.81760694794E+00  0.30139693243E+01 -0.17189569899E+01  0.35647307897E+01  0.51100000000E-03 0.  1.
        -11    1    3    3    0    0 -0.21624868924E+02  0.88225769213E+01 -0.61298338695E+00  0.23363402329E+02  0.51100000000E-03 0. -1.
         12    1    3    3    0    0 -0.17186356016E+02 -0.14930618756E+02 -0.62208442695E+01  0.23600701535E+02  0.00000000000E+00 0. -1.
</event>
<event>
 7    1  0.5373252E-013  0.5052887E+02  0.7816164E-02  0.1300439E+00
        -11   -1    0    0    0    0  0.00000000000E+00  0.00000000000E+00  0.45593999997E+02  0.45594000000E+02  0.51100000000E-03 0.  1.
         11   -1    0    0    0    0 -0.00000000000E+00 -0.00000000000E+00 -0.45593999997E+02  0.45594000000E+02  0.51100000000E-03 0. -1.
    9900012    2    1    2    0    0  0.68271206283E+01  0.56246102338E+01 -0.39685254505E+02  0.50528865215E+02  0.30000016307E+02 0.  0.
        -12    1    1    2    0    0 -0.68271206283E+01 -0.56246102338E+01  0.39685254505E+02  0.40659134785E+02  0.00000000000E+00 0.  1.
         11    1    3    3    0    0 -0.15905032297E+01  0.48444695676E+00 -0.27730022994E+02  0.27779822981E+02  0.51100000000E-03 0. -1.
        -11    1    3    3    0    0  0.10038055308E+02  0.56434243102E+01 -0.15210557001E+02  0.19078045939E+02  0.51100000000E-03 0.  1.
         12    1    3    3    0    0 -0.16204314505E+01 -0.50326103314E+00  0.32553254892E+01  0.36709962944E+01  0.00000000000E+00 0. -1.
</event>
<event>
 7    1  0.5373252E-013  0.5052885E+02  0.7816164E-02  0.1300439E+00
        -11   -1    0    0    0    0  0.00000000000E+00  0.00000000000E+00  0.45593999997E+02  0.45594000000E+02  0.51100000000E-03 0. -1.
         11   -1    0    0    0    0 -0.00000000000E+00 -0.00000000000E+00 -0.45593999997E+02  0.45594000000E+02  0.51100000000E-03 0.  1.
    9900012    2    1    2    0    0 -0.20962441570E+02 -0.26625692106E+02 -0.22468084290E+02  0.50528852833E+02  0.29999978670E+02 0.  0.
        -12    1    1    2    0    0  0.20962441570E+02  0.26625692106E+02  0.22468084290E+02  0.40659147167E+02  0.00000000000E+00 0.  1.
         11    1    3    3    0    0 -0.13273163861E+02 -0.24410783909E+02 -0.34370391413E+01  0.27997794347E+02  0.51100000000E-03 0. -1.
        -11    1    3    3    0    0 -0.11521280715E+01  0.32892491930E+01 -0.62543762924E+01  0.71598730725E+01  0.51100000000E-03 0.  1.
        -12    1    3    3    0    0 -0.65371496368E+01 -0.55041573899E+01 -0.12776668857E+02  0.15371185414E+02  0.00000000000E+00 0.  1.
</event>
<event>
 7    1  0.5373252E-013  0.5052886E+02  0.7816164E-02  0.1300439E+00
        -11   -1    0    0    0    0  0.00000000000E+00  0.00000000000E+00  0.45593999997E+02  0.45594000000E+02  0.51100000000E-03 0.  1.
         11   -1    0    0    0    0 -0.00000000000E+00 -0.00000000000E+00 -0.45593999997E+02  0.45594000000E+02  0.51100000000E-03 0. -1.
    9900012    2    1    2    0    0 -0.42453658177E+01 -0.16587692331E+02 -0.36878059367E+02  0.50528856742E+02  0.29999990553E+02 0.  0.
        -12    1    1    2    0    0  0.42453658177E+01  0.16587692331E+02  0.36878059367E+02  0.40659143258E+02  0.00000000000E+00 0.  1.
         11    1    3    3    0    0  0.33863612618E+01 -0.12141205036E+01 -0.23149238611E+02  0.23427094991E+02  0.51100000000E-03 0. -1.
        -11    1    3    3    0    0  0.42812736636E+01 -0.69910133633E+01 -0.20995382058E+01  0.84623656839E+01  0.51100000000E-03 0.  1.
        -12    1    3    3    0    0 -0.11913000743E+02 -0.83825584644E+01 -0.11629282551E+02  0.18639396067E+02  0.00000000000E+00 0.  1.
</event>
<event>
 7    1  0.5373252E-013  0.5052885E+02  0.7816164E-02  0.1300439E+00
        -11   -1    0    0    0    0  0.00000000000E+00  0.00000000000E+00  0.45593999997E+02  0.45594000000E+02  0.51100000000E-03 0.  1.
         11   -1    0    0    0    0 -0.00000000000E+00 -0.00000000000E+00 -0.45593999997E+02  0.45594000000E+02  0.51100000000E-03 0. -1.
    9900012    2    1    2    0    0  0.31613849826E+02 -0.25091400029E+02  0.49145016967E+01  0.50528853634E+02  0.29999981106E+02 0.  0.
        -12    1    1    2    0    0 -0.31613849826E+02  0.25091400029E+02 -0.49145016967E+01  0.40659146366E+02  0.00000000000E+00 0.  1.
         11    1    3    3    0    0  0.15486842676E+02 -0.21592803764E+02 -0.81616038147E+01  0.27797540314E+02  0.51100000000E-03 0. -1.
        -11    1    3    3    0    0  0.53666185778E+01 -0.52276922789E+01  0.70014313672E+01  0.10254238293E+02  0.51100000000E-03 0.  1.
        -12    1    3    3    0    0  0.10760388573E+02  0.17290960132E+01  0.60746741442E+01  0.12477075027E+02  0.00000000000E+00 0.  1.
</event>
<event>
 7    1  0.5373252E-013  0.5052886E+02  0.7816164E-02  0.1300439E+00
        -11   -1    0    0    0    0  0.00000000000E+00  0.00000000000E+00  0.45593999997E+02  0.45594000000E+02  0.51100000000E-03 0.  1.
         11   -1    0    0    0    0 -0.00000000000E+00 -0.00000000000E+00 -0.45593999997E+02  0.45594000000E+02  0.51100000000E-03 0. -1.
    9900012    2    1    2    0    0 -0.17517030308E+02  0.13349376730E+02 -0.34177669539E+02  0.50528864433E+02  0.30000013932E+02 0.  0.
        -12    1    1    2    0    0  0.17517030308E+02 -0.13349376730E+02  0.34177669539E+02  0.40659135567E+02  0.00000000000E+00 0.  1.
         11    1    3    3    0    0 -0.68995428394E+01  0.10810763692E+02 -0.15459487791E+02  0.20086614100E+02  0.51100000000E-03 0. -1.
        -11    1    3    3    0    0  0.25027354601E+01  0.46453980246E+01 -0.16041475415E+02  0.16887046555E+02  0.51100000000E-03 0.  1.
         12    1    3    3    0    0 -0.13120222929E+02 -0.21067849869E+01 -0.26767063334E+01  0.13555203778E+02  0.00000000000E+00 0. -1.
</event>
<event>
 7    1  0.5373252E-013  0.5052887E+02  0.7816164E-02  0.1300439E+00
        -11   -1    0    0    0    0  0.00000000000E+00  0.00000000000E+00  0.45593999997E+02  0.45594000000E+02  0.51100000000E-03 0.  1.
         11   -1    0    0    0    0 -0.00000000000E+00 -0.00000000000E+00 -0.45593999997E+02  0.45594000000E+02  0.51100000000E-03 0. -1.
    9900012    2    1    2    0    0  0.27397174086E+02  0.10869975625E+02 -0.28007194724E+02  0.50528874649E+02  0.30000044984E+02 0.  0.
        -12    1    1    2    0    0 -0.27397174086E+02 -0.10869975625E+02  0.28007194724E+02  0.40659125351E+02  0.00000000000E+00 0.  1.
         11    1    3    3    0    0  0.12370817418E+02  0.14158944070E+02 -0.17477710350E+02  0.25670667699E+02  0.51100000000E-03 0. -1.
        -11    1    3    3    0    0  0.16049876765E+02  0.55404617374E+00 -0.29918490069E+01  0.16335748287E+02  0.51100000000E-03 0.  1.
        -12    1    3    3    0    0 -0.10235200979E+01 -0.38430146180E+01 -0.75376353669E+01  0.85224586635E+01  0.00000000000E+00 0.  1.
</event>
<event>
 7    1  0.5373252E-013  0.5052886E+02  0.7816164E-02  0.1300439E+00
        -11   -1    0    0    0    0  0.00000000000E+00  0.00000000000E+00  0.45593999997E+02  0.45594000000E+02  0.51100000000E-03 0.  1.
         11   -1    0    0    0    0 -0.00000000000E+00 -0.00000000000E+00 -0.45593999997E+02  0.45594000000E+02  0.51100000000E-03 0. -1.
    9900012    2    1    2    0    0  0.29279056594E+02  0.26841051899E+02  0.86868037093E+01  0.50528858583E+02  0.29999996150E+02 0.  0.
        -12    1    1    2    0    0 -0.29279056594E+02 -0.26841051899E+02 -0.86868037093E+01  0.40659141417E+02  0.00000000000E+00 0.  1.
         11    1    3    3    0    0  0.32041086112E+01  0.47247056736E+01  0.77531956869E+01  0.96281462034E+01  0.51100000000E-03 0.  1.
        -11    1    3    3    0    0  0.88483787459E+01  0.65027331110E+01 -0.10321418161E+02  0.15070202967E+02  0.51100000000E-03 0. -1.
         12    1    3    3    0    0  0.17226569237E+02  0.15613613114E+02  0.11255026183E+02  0.25830509413E+02  0.00000000000E+00 0. -1.
</event>
<event>
 7    1  0.5373252E-013  0.5052887E+02  0.7816164E-02  0.1300439E+00
        -11   -1    0    0    0    0  0.00000000000E+00  0.00000000000E+00  0.45593999997E+02  0.45594000000E+02  0.51100000000E-03 0.  1.
         11   -1    0    0    0    0 -0.00000000000E+00 -0.00000000000E+00 -0.45593999997E+02  0.45594000000E+02  0.51100000000E-03 0. -1.
    9900012    2    1    2    0    0 -0.13967241255E+02  0.42207597419E+01 -0.37950839582E+02  0.50528869831E+02  0.30000030339E+02 0.  0.
        -12    1    1    2    0    0  0.13967241255E+02 -0.42207597419E+01  0.37950839582E+02  0.40659130169E+02  0.00000000000E+00 0.  1.
         11    1    3    3    0    0 -0.17802766748E+02  0.61448187071E+01 -0.15536659166E+02  0.24414853657E+02  0.51100000000E-03 0. -1.
        -11    1    3    3    0    0 -0.25918490398E+01 -0.48907809071E+01 -0.14366568652E+02  0.15395964225E+02  0.51100000000E-03 0.  1.
        -12    1    3    3    0    0  0.64273745326E+01  0.29667219419E+01 -0.80476117642E+01  0.10718051948E+02  0.00000000000E+00 0.  1.
</event>
<event>
 7    1  0.5373252E-013  0.5052887E+02  0.7816164E-02  0.1300439E+00
        -11   -1    0    0    0    0  0.00000000000E+00  0.00000000000E+00  0.45593999997E+02  0.45594000000E+02  0.51100000000E-03 0.  1.
         11   -1    0    0    0    0 -0.00000000000E+00 -0.00000000000E+00 -0.45593999997E+02  0.45594000000E+02  0.51100000000E-03 0. -1.
    9900012    2    1    2    0    0  0.31744122284E+02  0.23644067028E+02  0.92969896545E+01  0.50528865457E+02  0.30000017043E+02 0.  0.
        -12    1    1    2    0    0 -0.31744122284E+02 -0.23644067028E+02 -0.92969896545E+01  0.40659134543E+02  0.00000000000E+00 0.  1.
         11    1    3    3    0    0  0.46634991258E+00  0.67133753558E+01 -0.18033180833E+01  0.69669826524E+01  0.51100000000E-03 0. -1.
        -11    1    3    3    0    0  0.17769038734E+02  0.13263455222E+02 -0.44755059856E+01  0.22620524663E+02  0.51100000000E-03 0.  1.
        -12    1    3    3    0    0  0.13508733637E+02  0.36672364498E+01  0.15575813723E+02  0.20941358141E+02  0.00000000000E+00 0.  1.
</event>
<event>
 7    1  0.5373252E-013  0.5052886E+02  0.7816164E-02  0.1300439E+00
        -11   -1    0    0    0    0  0.00000000000E+00  0.00000000000E+00  0.45593999997E+02  0.45594000000E+02  0.51100000000E-03 0.  1.
         11   -1    0    0    0    0 -0.00000000000E+00 -0.00000000000E+00 -0.45593999997E+02  0.45594000000E+02  0.51100000000E-03 0. -1.
    9900012    2    1    2    0    0  0.14411558238E+02 -0.36965809488E+02 -0.88882641642E+01  0.50528864227E+02  0.30000013303E+02 0.  0.
        -12    1    1    2    0    0 -0.14411558238E+02  0.36965809488E+02  0.88882641642E+01  0.40659135773E+02  0.00000000000E+00 0.  1.
         11    1    3    3    0    0  0.35225474703E+01 -0.22148239251E+02 -0.15650867062E+02  0.27347805811E+02  0.51100000000E-03 0. -1.
        -11    1    3    3    0    0  0.69306386891E+00 -0.10220529411E+02  0.26744869793E+00  0.10247491792E+02  0.51100000000E-03 0.  1.
        -12    1    3    3    0    0  0.10195946899E+02 -0.45970408269E+01  0.64951542003E+01  0.12933566624E+02  0.00000000000E+00 0.  1.
</event>
<event>
 7    1  0.5373252E-013  0.5052887E+02  0.7816164E-02  0.1300439E+00
        -11   -1    0    0    0    0  0.00000000000E+00  0.00000000000E+00  0.45593999997E+02  0.45594000000E+02  0.51100000000E-03 0. -1.
         11   -1    0    0    0    0 -0.00000000000E+00 -0.00000000000E+00 -0.45593999997E+02  0.45594000000E+02  0.51100000000E-03 0.  1.
    9900012    2    1    2    0    0  0.34509089061E+02  0.19898610150E+02 -0.81445085841E+01  0.50528868999E+02  0.30000027809E+02 0.  0.
        -12    1    1    2    0    0 -0.34509089061E+02 -0.19898610150E+02  0.81445085841E+01  0.40659131001E+02  0.00000000000E+00 0.  1.
         11    1    3    3    0    0  0.63718856806E+01 -0.11133142991E+01  0.10695872848E+01  0.65562499248E+01  0.51100000000E-03 0. -1.
        -11    1    3    3    0    0  0.53268584139E+01  0.13148466386E+02  0.60492192812E+01  0.15422407174E+02  0.51100000000E-03 0.  1.
        -12    1    3    3    0    0  0.22810344966E+02  0.78634580629E+01 -0.15263315150E+02  0.28550211900E+02  0.00000000000E+00 0.  1.
</event>
<event>
 7    1  0.5373252E-013  0.5052886E+02  0.7816164E-02  0.1300439E+00
        -11   -1    0    0    0    0  0.00000000000E+00  0.00000000000E+00  0.45593999997E+02  0.45594000000E+02  0.51100000000E-03 0. -1.
         11   -1    0    0    0    0 -0.00000000000E+00 -0.00000000000E+00 -0.45593999997E+02  0.45594000000E+02  0.51100000000E-03 0.  1.
    9900012    2    1    2    0    0  0.23591062149E+02 -0.21978397290E+02  0.24770499480E+02  0.50528858282E+02  0.29999995235E+02 0.  0.
        -12    1    1    2    0    0 -0.23591062149E+02  0.21978397290E+02 -0.24770499480E+02  0.40659141718E+02  0.00000000000E+00 0.  1.
         11    1    3    3    0    0  0.10525470728E+02 -0.13907282162E+02  0.11144349601E+02  0.20697694545E+02  0.51100000000E-03 0. -1.
        -11    1    3    3    0    0 -0.13888813106E+01 -0.10547843138E+02  0.10269547270E+02  0.14786804507E+02  0.51100000000E-03 0.  1.
         12    1    3    3    0    0  0.14454472732E+02  0.24767280090E+01  0.33566026083E+01  0.15044359230E+02  0.00000000000E+00 0. -1.
</event>
<event>
 7    1  0.5373252E-013  0.5052886E+02  0.7816164E-02  0.1300439E+00
        -11   -1    0    0    0    0  0.00000000000E+00  0.00000000000E+00  0.45593999997E+02  0.45594000000E+02  0.51100000000E-03 0.  1.
         11   -1    0    0    0    0 -0.00000000000E+00 -0.00000000000E+00 -0.45593999997E+02  0.45594000000E+02  0.51100000000E-03 0. -1.
    9900012    2    1    2    0    0 -0.23058774373E+02 -0.81246049149E+01 -0.32487683194E+02  0.50528857856E+02  0.29999993938E+02 0.  0.
        -12    1    1    2    0    0  0.23058774373E+02  0.81246049149E+01  0.32487683194E+02  0.40659142144E+02  0.00000000000E+00 0.  1.
         11    1    3    3    0    0 -0.33313121642E+01  0.68788196791E+01 -0.42389723623E+01  0.87398334002E+01  0.51100000000E-03 0. -1.
        -11    1    3    3    0    0 -0.41283799917E+01 -0.66554090834E+01  0.69876855657E+00  0.78629682169E+01  0.51100000000E-03 0.  1.
         12    1    3    3    0    0 -0.15599082218E+02 -0.83480155107E+01 -0.28947479388E+02  0.33926056239E+02  0.00000000000E+00 0. -1.
</event>
<event>
 7    1  0.5373252E-013  0.5052893E+02  0.7816164E-02  0.1300439E+00
        -11   -1    0    0    0    0  0.00000000000E+00  0.00000000000E+00  0.45593999997E+02  0.45594000000E+02  0.51100000000E-03 0.  1.
         11   -1    0    0    0    0 -0.00000000000E+00 -0.00000000000E+00 -0.45593999997E+02  0.45594000000E+02  0.51100000000E-03 0. -1.
    9900012    2    1    2    0    0 -0.54079807258E+01 -0.26538141045E+02 -0.30325582040E+02  0.50528928297E+02  0.30000208051E+02 0.  0.
        -12    1    1    2    0    0  0.54079807258E+01  0.26538141045E+02  0.30325582040E+02  0.40659071703E+02  0.00000000000E+00 0.  1.
         11    1    3    3    0    0 -0.12241377785E+01 -0.10483634029E+02 -0.17918715808E+02  0.20796285058E+02  0.51100000000E-03 0. -1.
        -11    1    3    3    0    0 -0.28525775535E+01 -0.16207008116E+02 -0.17761367435E+02  0.24213023029E+02  0.51100000000E-03 0.  1.
        -12    1    3    3    0    0 -0.13312653939E+01  0.15250109925E+00  0.53545012029E+01  0.55196202103E+01  0.00000000000E+00 0.  1.
</event>
<event>
 7    1  0.5373252E-013  0.5052885E+02  0.7816164E-02  0.1300439E+00
        -11   -1    0    0    0    0  0.00000000000E+00  0.00000000000E+00  0.45593999997E+02  0.45594000000E+02  0.51100000000E-03 0.  1.
         11   -1    0    0    0    0 -0.00000000000E+00 -0.00000000000E+00 -0.45593999997E+02  0.45594000000E+02  0.51100000000E-03 0. -1.
    9900012    2    1    2    0    0 -0.13804690465E+02 -0.89585010171E+01 -0.37179858996E+02  0.50528854236E+02  0.29999982935E+02 0.  0.
        -12    1    1    2    0    0  0.13804690465E+02  0.89585010171E+01  0.37179858996E+02  0.40659145764E+02  0.00000000000E+00 0.  1.
         11    1    3    3    0    0 -0.11531223263E+02 -0.99547187268E+01 -0.19072644668E+02  0.24409656076E+02  0.51100000000E-03 0. -1.
        -11    1    3    3    0    0 -0.43357880773E+01 -0.25137568668E+01  0.21525299928E+01  0.54544859948E+01  0.51100000000E-03 0.  1.
         12    1    3    3    0    0  0.20623208750E+01  0.35099745765E+01 -0.20259744320E+02  0.20664712165E+02  0.00000000000E+00 0. -1.
</event>
<event>
 7    1  0.5373252E-013  0.5052887E+02  0.7816164E-02  0.1300439E+00
        -11   -1    0    0    0    0  0.00000000000E+00  0.00000000000E+00  0.45593999997E+02  0.45594000000E+02  0.51100000000E-03 0.  1.
         11   -1    0    0    0    0 -0.00000000000E+00 -0.00000000000E+00 -0.45593999997E+02  0.45594000000E+02  0.51100000000E-03 0. -1.
    9900012    2    1    2    0    0 -0.11582828473E+02 -0.11258229369E+02 -0.37312939328E+02  0.50528867136E+02  0.30000022147E+02 0.  0.
        -12    1    1    2    0    0  0.11582828473E+02  0.11258229369E+02  0.37312939328E+02  0.40659132864E+02  0.00000000000E+00 0.  1.
         11    1    3    3    0    0 -0.61711955715E+01 -0.87614777982E+01 -0.47866853496E+01  0.11737099509E+02  0.51100000000E-03 0. -1.
        -11    1    3    3    0    0  0.36632663917E+01 -0.83678716698E+01 -0.86378027295E+01  0.12571890597E+02  0.51100000000E-03 0.  1.
         12    1    3    3    0    0 -0.90748992935E+01  0.58711200988E+01 -0.23888451248E+02  0.26219877030E+02  0.00000000000E+00 0. -1.
</event>
<event>
 7    1  0.5373252E-013  0.5052886E+02  0.7816164E-02  0.1300439E+00
        -11   -1    0    0    0    0  0.00000000000E+00  0.00000000000E+00  0.45593999997E+02  0.45594000000E+02  0.51100000000E-03 0.  1.
         11   -1    0    0    0    0 -0.00000000000E+00 -0.00000000000E+00 -0.45593999997E+02  0.45594000000E+02  0.51100000000E-03 0. -1.
    9900012    2    1    2    0    0 -0.26782818855E+02 -0.29700376419E+02 -0.73303369586E+01  0.50528860989E+02  0.30000003461E+02 0.  0.
        -12    1    1    2    0    0  0.26782818855E+02  0.29700376419E+02  0.73303369586E+01  0.40659139011E+02  0.00000000000E+00 0.  1.
         11    1    3    3    0    0  0.12699304323E+01 -0.95184253695E+01  0.28881870205E+01  0.10027700102E+02  0.51100000000E-03 0.  1.
        -11    1    3    3    0    0 -0.62018251527E+01 -0.46260291123E+01 -0.11255812221E+02  0.13658553715E+02  0.51100000000E-03 0. -1.
        -12    1    3    3    0    0 -0.21850924134E+02 -0.15555921937E+02  0.10372882423E+01  0.26842607171E+02  0.00000000000E+00 0.  1.
</event>
<event>
 7    1  0.5373252E-013  0.5052886E+02  0.7816164E-02  0.1300439E+00
        -11   -1    0    0    0    0  0.00000000000E+00  0.00000000000E+00  0.45593999997E+02  0.45594000000E+02  0.51100000000E-03 0. -1.
         11   -1    0    0    0    0 -0.00000000000E+00 -0.00000000000E+00 -0.45593999997E+02  0.45594000000E+02  0.51100000000E-03 0.  1.
    9900012    2    1    2    0    0 -0.12416523832E+02 -0.29171345966E+02  0.25456394174E+02  0.50528862111E+02  0.30000006872E+02 0.  0.
        -12    1    1    2    0    0  0.12416523832E+02  0.29171345966E+02 -0.25456394174E+02  0.40659137889E+02  0.00000000000E+00 0.  1.
         11    1    3    3    0    0 -0.10655159125E+02 -0.10567140772E+00  0.14214856981E+02  0.17765295992E+02  0.51100000000E-03 0. -1.
        -11    1    3    3    0    0  0.36848571036E+01 -0.15552672811E+02  0.39142973878E+01  0.16455562213E+02  0.51100000000E-03 0.  1.
        -12    1    3    3    0    0 -0.54462218109E+01 -0.13513001747E+02  0.73272398052E+01  0.16308003906E+02  0.00000000000E+00 0.  1.
</event>
<event>
 7    1  0.5373252E-013  0.5052886E+02  0.7816164E-02  0.1300439E+00
        -11   -1    0    0    0    0  0.00000000000E+00  0.00000000000E+00  0.45593999997E+02  0.45594000000E+02  0.51100000000E-03 0.  1.
         11   -1    0    0    0    0 -0.00000000000E+00 -0.00000000000E+00 -0.45593999997E+02  0.45594000000E+02  0.51100000000E-03 0. -1.
    9900012    2    1    2    0    0 -0.26564994693E+00 -0.43528521899E+00 -0.40655937949E+02  0.50528864082E+02  0.30000012862E+02 0.  0.
        -12    1    1    2    0    0  0.26564994693E+00  0.43528521899E+00  0.40655937949E+02  0.40659135918E+02  0.00000000000E+00 0.  1.
         11    1    3    3    0    0  0.75282786653E+01  0.66439994727E+01 -0.10190456771E+02  0.14306051801E+02  0.51100000000E-03 0. -1.
        -11    1    3    3    0    0 -0.67151187119E+01 -0.23193550444E+01 -0.20542503210E+01  0.73954155920E+01  0.51100000000E-03 0.  1.
         12    1    3    3    0    0 -0.10788099004E+01 -0.47599296473E+01 -0.28411230857E+02  0.28827396689E+02  0.00000000000E+00 0. -1.
</event>
<event>
 7    1  0.5373252E-013  0.5052885E+02  0.7816164E-02  0.1300439E+00
        -11   -1    0    0    0    0  0.00000000000E+00  0.00000000000E+00  0.45593999997E+02  0.45594000000E+02  0.51100000000E-03 0. -1.
         11   -1    0    0    0    0 -0.00000000000E+00 -0.00000000000E+00 -0.45593999997E+02  0.45594000000E+02  0.51100000000E-03 0.  1.
    9900012    2    1    2    0    0 -0.75462501611E+01  0.15959363622E+02  0.36626759410E+02  0.50528847481E+02  0.29999962402E+02 0.  0.
        -12    1    1    2    0    0  0.75462501611E+01 -0.15959363622E+02 -0.36626759410E+02  0.40659152519E+02  0.00000000000E+00 0.  1.
         11    1    3    3    0    0 -0.27398081787E+01  0.19966011176E+00  0.14892928154E+02  0.15144164628E+02  0.51100000000E-03 0. -1.
        -11    1    3    3    0    0  0.71373668334E+01  0.33738666273E+01  0.30201578040E+00  0.79003920868E+01  0.51100000000E-03 0.  1.
         12    1    3    3    0    0 -0.11943808816E+02  0.12385836883E+02  0.21431815475E+02  0.27484290766E+02  0.00000000000E+00 0. -1.
</event>
<event>
 7    1  0.5373252E-013  0.5052886E+02  0.7816164E-02  0.1300439E+00
        -11   -1    0    0    0    0  0.00000000000E+00  0.00000000000E+00  0.45593999997E+02  0.45594000000E+02  0.51100000000E-03 0.  1.
         11   -1    0    0    0    0 -0.00000000000E+00 -0.00000000000E+00 -0.45593999997E+02  0.45594000000E+02  0.51100000000E-03 0. -1.
    9900012    2    1    2    0    0  0.18211573962E+02  0.76508601430E+01 -0.35538263923E+02  0.50528864621E+02  0.30000014503E+02 0.  0.
        -12    1    1    2    0    0 -0.18211573962E+02 -0.76508601430E+01  0.35538263923E+02  0.40659135379E+02  0.00000000000E+00 0.  1.
         11    1    3    3    0    0  0.12472186605E+02 -0.44867115445E+00 -0.21408236396E+02  0.24780422320E+02  0.51100000000E-03 0. -1.
        -11    1    3    3    0    0  0.65598022427E+01  0.12712529131E+02 -0.15272490217E+02  0.20925782185E+02  0.51100000000E-03 0.  1.
         12    1    3    3    0    0 -0.82041488599E+00 -0.46129978336E+01  0.11424626902E+01  0.48226601162E+01  0.00000000000E+00 0. -1.
</event>
<event>
 7    1  0.5373252E-013  0.5052883E+02  0.7816164E-02  0.1300439E+00
        -11   -1    0    0    0    0  0.00000000000E+00  0.00000000000E+00  0.45593999997E+02  0.45594000000E+02  0.51100000000E-03 0.  1.
         11   -1    0    0    0    0 -0.00000000000E+00 -0.00000000000E+00 -0.45593999997E+02  0.45594000000E+02  0.51100000000E-03 0. -1.
    9900012    2    1    2    0    0  0.40523731333E+01 -0.31774840383E+02 -0.25042090514E+02  0.50528825061E+02  0.29999894256E+02 0.  0.
        -12    1    1    2    0    0 -0.40523731333E+01  0.31774840383E+02  0.25042090514E+02  0.40659174939E+02  0.00000000000E+00 0.  1.
         11    1    3    3    0    0  0.52209552981E+01 -0.17026722154E+02 -0.98462313466E+01  0.20349838170E+02  0.51100000000E-03 0. -1.
        -11    1    3    3    0    0  0.83077423661E+01 -0.58211842078E+01 -0.13739953473E+02  0.17078966318E+02  0.51100000000E-03 0.  1.
        -12    1    3    3    0    0 -0.94763245308E+01 -0.89269340210E+01 -0.14559056950E+01  0.13100020573E+02  0.00000000000E+00 0.  1.
</event>
<event>
 7    1  0.5373252E-013  0.5052886E+02  0.7816164E-02  0.1300439E+00
        -11   -1    0    0    0    0  0.00000000000E+00  0.00000000000E+00  0.45593999997E+02  0.45594000000E+02  0.51100000000E-03 0.  1.
         11   -1    0    0    0    0 -0.00000000000E+00 -0.00000000000E+00 -0.45593999997E+02  0.45594000000E+02  0.51100000000E-03 0. -1.
    9900012    2    1    2    0    0  0.25047962107E+02 -0.65623657469E+01 -0.31348049607E+02  0.50528864937E+02  0.30000015463E+02 0.  0.
        -12    1    1    2    0    0 -0.25047962107E+02  0.65623657469E+01  0.31348049607E+02  0.40659135063E+02  0.00000000000E+00 0.  1.
         11    1    3    3    0    0  0.23619678674E+00  0.29590696541E+01  0.25742283920E+01  0.39291900202E+01  0.51100000000E-03 0. -1.
        -11    1    3    3    0    0  0.26491573547E+01 -0.94165451870E+01 -0.10775273265E+02  0.14553208311E+02  0.51100000000E-03 0.  1.
         12    1    3    3    0    0  0.22162607965E+02 -0.10489021401E+00 -0.23147004733E+02  0.32046466606E+02  0.00000000000E+00 0. -1.
</event>
<event>
 7    1  0.5373252E-013  0.5052886E+02  0.7816164E-02  0.1300439E+00
        -11   -1    0    0    0    0  0.00000000000E+00  0.00000000000E+00  0.45593999997E+02  0.45594000000E+02  0.51100000000E-03 0.  1.
         11   -1    0    0    0    0 -0.00000000000E+00 -0.00000000000E+00 -0.45593999997E+02  0.45594000000E+02  0.51100000000E-03 0. -1.
    9900012    2    1    2    0    0 -0.16697675533E+02 -0.16393206488E+02 -0.33250802271E+02  0.50528862788E+02  0.30000008930E+02 0.  0.
        -12    1    1    2    0    0  0.16697675533E+02  0.16393206488E+02  0.33250802271E+02  0.40659137212E+02  0.00000000000E+00 0.  1.
         11    1    3    3    0    0 -0.18741380051E+02 -0.44002538045E+01 -0.18109548879E+02  0.26430234972E+02  0.51100000000E-03 0. -1.
        -11    1    3    3    0    0  0.14085761177E+01  0.78259067850E+00 -0.10294503415E+02  0.10419852959E+02  0.51100000000E-03 0.  1.
        -12    1    3    3    0    0  0.63512840075E+00 -0.12775543362E+02 -0.48467499765E+01  0.13678774858E+02  0.00000000000E+00 0.  1.
</event>
<event>
 7    1  0.5373252E-013  0.5052886E+02  0.7816164E-02  0.1300439E+00
        -11   -1    0    0    0    0  0.00000000000E+00  0.00000000000E+00  0.45593999997E+02  0.45594000000E+02  0.51100000000E-03 0.  1.
         11   -1    0    0    0    0 -0.00000000000E+00 -0.00000000000E+00 -0.45593999997E+02  0.45594000000E+02  0.51100000000E-03 0. -1.
    9900012    2    1    2    0    0  0.25132383220E+02  0.47600578677E+01 -0.31604924141E+02  0.50528855061E+02  0.29999985442E+02 0.  0.
        -12    1    1    2    0    0 -0.25132383220E+02 -0.47600578677E+01  0.31604924141E+02  0.40659144939E+02  0.00000000000E+00 0.  1.
         11    1    3    3    0    0  0.56105713479E+00  0.67755963781E+01 -0.78589323757E+00  0.68440572638E+01  0.51100000000E-03 0.  1.
        -11    1    3    3    0    0  0.64963887981E+01 -0.92745792458E+01 -0.13503435381E+02  0.17622816317E+02  0.51100000000E-03 0. -1.
        -12    1    3    3    0    0  0.18074937287E+02  0.72590407354E+01 -0.17315595523E+02  0.26061981480E+02  0.00000000000E+00 0.  1.
</event>
<event>
 7    1  0.5373252E-013  0.5052886E+02  0.7816164E-02  0.1300439E+00
        -11   -1    0    0    0    0  0.00000000000E+00  0.00000000000E+00  0.45593999997E+02  0.45594000000E+02  0.51100000000E-03 0. -1.
         11   -1    0    0    0    0 -0.00000000000E+00 -0.00000000000E+00 -0.45593999997E+02  0.45594000000E+02  0.51100000000E-03 0.  1.
    9900012    2    1    2    0    0  0.23150124347E+01 -0.11007404823E+02  0.39072281258E+02  0.50528863189E+02  0.30000010148E+02 0.  0.
        -12    1    1    2    0    0 -0.23150124347E+01  0.11007404823E+02 -0.39072281258E+02  0.40659136811E+02  0.00000000000E+00 0.  1.
         11    1    3    3    0    0 -0.99399564323E+01  0.25421273124E+01  0.15831018522E+02  0.18864948790E+02  0.51100000000E-03 0. -1.
        -11    1    3    3    0    0  0.54406589977E+01 -0.49802304846E+01  0.18049061372E+01  0.75934940860E+01  0.51100000000E-03 0.  1.
        -12    1    3    3    0    0  0.68143098693E+01 -0.85693016512E+01  0.21436356599E+02  0.24070420313E+02  0.00000000000E+00 0.  1.
</event>
<event>
 7    1  0.5373252E-013  0.5052886E+02  0.7816164E-02  0.1300439E+00
        -11   -1    0    0    0    0  0.00000000000E+00  0.00000000000E+00  0.45593999997E+02  0.45594000000E+02  0.51100000000E-03 0.  1.
         11   -1    0    0    0    0 -0.00000000000E+00 -0.00000000000E+00 -0.45593999997E+02  0.45594000000E+02  0.51100000000E-03 0. -1.
    9900012    2    1    2    0    0 -0.26208116824E+02  0.24524323133E+02 -0.19101246108E+02  0.50528863075E+02  0.30000009803E+02 0.  0.
        -12    1    1    2    0    0  0.26208116824E+02 -0.24524323133E+02  0.19101246108E+02  0.40659136925E+02  0.00000000000E+00 0.  1.
         11    1    3    3    0    0 -0.14478778074E+02  0.20574601188E+02 -0.30898069272E+01  0.25347507484E+02  0.51100000000E-03 0. -1.
        -11    1    3    3    0    0 -0.34739792725E+01 -0.55225565861E+01 -0.33131642413E+01  0.73173916653E+01  0.51100000000E-03 0.  1.
        -12    1    3    3    0    0 -0.82553594771E+01  0.94722785314E+01 -0.12698274940E+02  0.17863963925E+02  0.00000000000E+00 0.  1.
</event>
<event>
 7    1  0.5373252E-013  0.5052886E+02  0.7816164E-02  0.1300439E+00
        -11   -1    0    0    0    0  0.00000000000E+00  0.00000000000E+00  0.45593999997E+02  0.45594000000E+02  0.51100000000E-03 0.  1.
         11   -1    0    0    0    0 -0.00000000000E+00 -0.00000000000E+00 -0.45593999997E+02  0.45594000000E+02  0.51100000000E-03 0. -1.
    9900012    2    1    2    0    0 -0.17960555563E+02  0.26583359658E+02 -0.24978172929E+02  0.50528859703E+02  0.29999999553E+02 0.  0.
        -12    1    1    2    0    0  0.17960555563E+02 -0.26583359658E+02  0.24978172929E+02  0.40659140297E+02  0.00000000000E+00 0.  1.
         11    1    3    3    0    0 -0.33294624631E+01 -0.27100278142E+01 -0.10295128459E+02  0.11154337331E+02  0.51100000000E-03 0. -1.
        -11    1    3    3    0    0 -0.36427714959E+00  0.10763422310E+01  0.29571042131E+01  0.31679135133E+01  0.51100000000E-03 0.  1.
         12    1    3    3    0    0 -0.14266815950E+02  0.28217045241E+02 -0.17640148683E+02  0.36206608859E+02  0.00000000000E+00 0. -1.
</event>
<event>
 7    1  0.5373252E-013  0.5052885E+02  0.7816164E-02  0.1300439E+00
        -11   -1    0    0    0    0  0.00000000000E+00  0.00000000000E+00  0.45593999997E+02  0.45594000000E+02  0.51100000000E-03 0.  1.
         11   -1    0    0    0    0 -0.00000000000E+00 -0.00000000000E+00 -0.45593999997E+02  0.45594000000E+02  0.51100000000E-03 0. -1.
    9900012    2    1    2    0    0 -0.22378560875E+02  0.33086025897E+02  0.75948248675E+01  0.50528850215E+02  0.29999970713E+02 0.  0.
        -12    1    1    2    0    0  0.22378560875E+02 -0.33086025897E+02 -0.75948248675E+01  0.40659149785E+02  0.00000000000E+00 0.  1.
         11    1    3    3    0    0 -0.58091115630E+01  0.90301665517E+01 -0.40220097673E+01  0.11465873187E+02  0.51100000000E-03 0. -1.
        -11    1    3    3    0    0  0.34293186880E+01  0.81385682839E+01 -0.33475078831E+01  0.94446984952E+01  0.51100000000E-03 0.  1.
         12    1    3    3    0    0 -0.19998768000E+02  0.15917291061E+02  0.14964342518E+02  0.29618278533E+02  0.00000000000E+00 0. -1.
</event>
<event>
 7    1  0.5373252E-013  0.5052887E+02  0.7816164E-02  0.1300439E+00
        -11   -1    0    0    0    0  0.00000000000E+00  0.00000000000E+00  0.45593999997E+02  0.45594000000E+02  0.51100000000E-03 0.  1.
         11   -1    0    0    0    0 -0.00000000000E+00 -0.00000000000E+00 -0.45593999997E+02  0.45594000000E+02  0.51100000000E-03 0. -1.
    9900012    2    1    2    0    0  0.10464933678E+02  0.11562620095E+01 -0.39272297586E+02  0.50528866507E+02  0.30000020236E+02 0.  0.
        -12    1    1    2    0    0 -0.10464933678E+02 -0.11562620095E+01  0.39272297586E+02  0.40659133493E+02  0.00000000000E+00 0.  1.
         11    1    3    3    0    0  0.87967302406E+01 -0.66155067296E+00 -0.22205556808E+01  0.90967565655E+01  0.51100000000E-03 0.  1.
        -11    1    3    3    0    0  0.59404268969E+01  0.81182209522E+01 -0.27071677926E+02  0.28880268855E+02  0.51100000000E-03 0. -1.
        -12    1    3    3    0    0 -0.42722234592E+01 -0.63004082698E+01 -0.99800639783E+01  0.12551841087E+02  0.00000000000E+00 0.  1.
</event>
<event>
 7    1  0.5373252E-013  0.5052883E+02  0.7816164E-02  0.1300439E+00
        -11   -1    0    0    0    0  0.00000000000E+00  0.00000000000E+00  0.45593999997E+02  0.45594000000E+02  0.51100000000E-03 0. -1.
         11   -1    0    0    0    0 -0.00000000000E+00 -0.00000000000E+00 -0.45593999997E+02  0.45594000000E+02  0.51100000000E-03 0.  1.
    9900012    2    1    2    0    0  0.33035757517E+02 -0.15451283632E+02  0.17974006471E+02  0.50528826997E+02  0.29999900141E+02 0.  0.
        -12    1    1    2    0    0 -0.33035757517E+02  0.15451283632E+02 -0.17974006471E+02  0.40659173003E+02  0.00000000000E+00 0.  1.
         11    1    3    3    0    0  0.27510833869E+02 -0.14010849602E+02  0.15235964793E+02  0.34427961168E+02  0.51100000000E-03 0. -1.
        -11    1    3    3    0    0  0.25722552196E+01 -0.80944046333E+01  0.60347298954E+00  0.85146968938E+01  0.51100000000E-03 0.  1.
         12    1    3    3    0    0  0.29526684283E+01  0.66539706030E+01  0.21345686885E+01  0.75861689356E+01  0.00000000000E+00 0. -1.
</event>
<event>
 7    1  0.5373252E-013  0.5052886E+02  0.7816164E-02  0.1300439E+00
        -11   -1    0    0    0    0  0.00000000000E+00  0.00000000000E+00  0.45593999997E+02  0.45594000000E+02  0.51100000000E-03 0.  1.
         11   -1    0    0    0    0 -0.00000000000E+00 -0.00000000000E+00 -0.45593999997E+02  0.45594000000E+02  0.51100000000E-03 0. -1.
    9900012    2    1    2    0    0 -0.11330343694E+02 -0.26890166834E+02 -0.28314445773E+02  0.50528860806E+02  0.30000002906E+02 0.  0.
        -12    1    1    2    0    0  0.11330343694E+02  0.26890166834E+02  0.28314445773E+02  0.40659139194E+02  0.00000000000E+00 0.  1.
         11    1    3    3    0    0  0.21040840018E+01 -0.11304505937E+01 -0.27084115576E+01  0.36111745261E+01  0.51100000000E-03 0.  1.
        -11    1    3    3    0    0 -0.64363727941E+01 -0.30180230448E+02 -0.18298911941E+02  0.35876501824E+02  0.51100000000E-03 0. -1.
         12    1    3    3    0    0 -0.69980549017E+01  0.44205142075E+01 -0.73071222741E+01  0.11041184456E+02  0.00000000000E+00 0. -1.
</event>
<event>
 7    1  0.5373252E-013  0.5052886E+02  0.7816164E-02  0.1300439E+00
        -11   -1    0    0    0    0  0.00000000000E+00  0.00000000000E+00  0.45593999997E+02  0.45594000000E+02  0.51100000000E-03 0.  1.
         11   -1    0    0    0    0 -0.00000000000E+00 -0.00000000000E+00 -0.45593999997E+02  0.45594000000E+02  0.51100000000E-03 0. -1.
    9900012    2    1    2    0    0 -0.12140065875E+02 -0.37057159484E+02  0.11513099369E+02  0.50528859262E+02  0.29999998213E+02 0.  0.
        -12    1    1    2    0    0  0.12140065875E+02  0.37057159484E+02 -0.11513099369E+02  0.40659140738E+02  0.00000000000E+00 0.  1.
         11    1    3    3    0    0  0.12164268262E+01 -0.91597646207E+01 -0.19646462501E+01  0.94467358003E+01  0.51100000000E-03 0. -1.
        -11    1    3    3    0    0  0.41578017486E+01  0.16386884519E+01  0.14657716211E+01  0.47033075521E+01  0.51100000000E-03 0.  1.
         12    1    3    3    0    0 -0.17514294450E+02 -0.29536083315E+02  0.12011973998E+02  0.36378815910E+02  0.00000000000E+00 0. -1.
</event>
<event>
 7    1  0.5373252E-013  0.5052885E+02  0.7816164E-02  0.1300439E+00
        -11   -1    0    0    0    0  0.00000000000E+00  0.00000000000E+00  0.45593999997E+02  0.45594000000E+02  0.51100000000E-03 0. -1.
         11   -1    0    0    0    0 -0.00000000000E+00 -0.00000000000E+00 -0.45593999997E+02  0.45594000000E+02  0.51100000000E-03 0.  1.
    9900012    2    1    2    0    0 -0.24891561429E+02 -0.41925075131E+01  0.31874750056E+02  0.50528848007E+02  0.29999964003E+02 0.  0.
        -12    1    1    2    0    0  0.24891561429E+02  0.41925075131E+01 -0.31874750056E+02  0.40659151993E+02  0.00000000000E+00 0.  1.
         11    1    3    3    0    0 -0.14254068530E+02  0.41234909404E+01  0.35282012211E+01  0.15252208080E+02  0.51100000000E-03 0. -1.
        -11    1    3    3    0    0 -0.14557891882E+02 -0.76153140011E+01  0.19007549212E+02  0.25123935812E+02  0.51100000000E-03 0.  1.
        -12    1    3    3    0    0  0.39203989830E+01 -0.70068445237E+00  0.93389996234E+01  0.10152704115E+02  0.00000000000E+00 0.  1.
</event>
<event>
 7    1  0.5373252E-013  0.5052886E+02  0.7816164E-02  0.1300439E+00
        -11   -1    0    0    0    0  0.00000000000E+00  0.00000000000E+00  0.45593999997E+02  0.45594000000E+02  0.51100000000E-03 0.  1.
         11   -1    0    0    0    0 -0.00000000000E+00 -0.00000000000E+00 -0.45593999997E+02  0.45594000000E+02  0.51100000000E-03 0. -1.
    9900012    2    1    2    0    0  0.13213704689E+01  0.39967468042E+02 -0.73498954476E+01  0.50528862224E+02  0.30000007217E+02 0.  0.
        -12    1    1    2    0    0 -0.13213704689E+01 -0.39967468042E+02  0.73498954476E+01  0.40659137776E+02  0.00000000000E+00 0.  1.
         11    1    3    3    0    0  0.37347976060E+01  0.77848935098E+01 -0.85077178380E+01  0.12121655959E+02  0.51100000000E-03 0. -1.
        -11    1    3    3    0    0 -0.10787264344E+02  0.11544921313E+02  0.29119544758E+01  0.16066417127E+02  0.51100000000E-03 0.  1.
         12    1    3    3    0    0  0.83738372074E+01  0.20637653219E+02 -0.17541320853E+01  0.22340789138E+02  0.00000000000E+00 0. -1.
</event>
<event>
 7    1  0.5373252E-013  0.5052886E+02  0.7816164E-02  0.1300439E+00
        -11   -1    0    0    0    0  0.00000000000E+00  0.00000000000E+00  0.45593999997E+02  0.45594000000E+02  0.51100000000E-03 0. -1.
         11   -1    0    0    0    0 -0.00000000000E+00 -0.00000000000E+00 -0.45593999997E+02  0.45594000000E+02  0.51100000000E-03 0.  1.
    9900012    2    1    2    0    0  0.15569549000E+02  0.59141396141E+00  0.37555357773E+02  0.50528861740E+02  0.30000005746E+02 0.  0.
        -12    1    1    2    0    0 -0.15569549000E+02 -0.59141396141E+00 -0.37555357773E+02  0.40659138260E+02  0.00000000000E+00 0.  1.
         11    1    3    3    0    0  0.10664750088E+02  0.95722427825E+01  0.18585868001E+02  0.23469111955E+02  0.51100000000E-03 0. -1.
        -11    1    3    3    0    0 -0.90702476602E+00  0.35284667687E+01  0.46971007892E-01  0.36434843489E+01  0.51100000000E-03 0.  1.
         12    1    3    3    0    0  0.58118236781E+01 -0.12509295590E+02  0.18922518764E+02  0.23416265437E+02  0.00000000000E+00 0. -1.
</event>
<event>
 7    1  0.5373252E-013  0.5052886E+02  0.7816164E-02  0.1300439E+00
        -11   -1    0    0    0    0  0.00000000000E+00  0.00000000000E+00  0.45593999997E+02  0.45594000000E+02  0.51100000000E-03 0. -1.
         11   -1    0    0    0    0 -0.00000000000E+00 -0.00000000000E+00 -0.45593999997E+02  0.45594000000E+02  0.51100000000E-03 0.  1.
    9900012    2    1    2    0    0  0.17691666557E+02 -0.35276851602E+02 -0.97833913383E+01  0.50528855019E+02  0.29999985315E+02 0.  0.
        -12    1    1    2    0    0 -0.17691666557E+02  0.35276851602E+02  0.97833913383E+01  0.40659144981E+02  0.00000000000E+00 0.  1.
         11    1    3    3    0    0  0.30181116954E+01 -0.16307188481E+02 -0.63107210712E+01  0.17744255269E+02  0.51100000000E-03 0. -1.
        -11    1    3    3    0    0 -0.21821026090E+01 -0.15091377043E+02 -0.25839501061E+01  0.15465705004E+02  0.51100000000E-03 0.  1.
         12    1    3    3    0    0  0.16855657471E+02 -0.38782860776E+01 -0.88872016092E+00  0.17318894745E+02  0.00000000000E+00 0. -1.
</event>
<event>
 7    1  0.6122350E-013  0.5052886E+02  0.7816164E-02  0.1300439E+00
        -11   -1    0    0    0    0  0.00000000000E+00  0.00000000000E+00  0.45593999997E+02  0.45594000000E+02  0.51100000000E-03 0. -1.
         11   -1    0    0    0    0 -0.00000000000E+00 -0.00000000000E+00 -0.45593999997E+02  0.45594000000E+02  0.51100000000E-03 0.  1.
    9900012    2    1    2    0    0  0.19823148983E+02 -0.24682254837E+02  0.25514600512E+02  0.50528858608E+02  0.29999996225E+02 0.  0.
        -12    1    1    2    0    0 -0.19823148983E+02  0.24682254837E+02 -0.25514600512E+02  0.40659141392E+02  0.00000000000E+00 0.  1.
         11    1    3    3    0    0  0.65240140194E+01 -0.17438352905E+02  0.11210114397E+02  0.21733052617E+02  0.51100000000E-03 0. -1.
        -11    1    3    3    0    0  0.15539963928E+02 -0.99980239203E+01  0.16371334166E+02  0.24687477470E+02  0.51100000000E-03 0.  1.
        -12    1    3    3    0    0 -0.22408289645E+01  0.27541219891E+01 -0.20668480504E+01  0.41083285217E+01  0.00000000000E+00 0.  1.
</event>
<event>
 7    1  0.5373252E-013  0.5052885E+02  0.7816164E-02  0.1300439E+00
        -11   -1    0    0    0    0  0.00000000000E+00  0.00000000000E+00  0.45593999997E+02  0.45594000000E+02  0.51100000000E-03 0.  1.
         11   -1    0    0    0    0 -0.00000000000E+00 -0.00000000000E+00 -0.45593999997E+02  0.45594000000E+02  0.51100000000E-03 0. -1.
    9900012    2    1    2    0    0  0.22530155603E+02 -0.59960170334E+01 -0.33310749766E+02  0.50528853652E+02  0.29999981161E+02 0.  0.
        -12    1    1    2    0    0 -0.22530155603E+02  0.59960170334E+01  0.33310749766E+02  0.40659146348E+02  0.00000000000E+00 0.  1.
         11    1    3    3    0    0  0.99694459566E+01  0.54201847755E+01 -0.15044853127E+02  0.18844518077E+02  0.51100000000E-03 0. -1.
        -11    1    3    3    0    0  0.79552050089E+00 -0.12942112760E+01  0.41503604063E+01  0.44196524137E+01  0.51100000000E-03 0.  1.
         12    1    3    3    0    0  0.11765189146E+02 -0.10121990533E+02 -0.22416257045E+02  0.27264683161E+02  0.00000000000E+00 0. -1.
</event>
<event>
 7    1  0.5373252E-013  0.5052884E+02  0.7816164E-02  0.1300439E+00
        -11   -1    0    0    0    0  0.00000000000E+00  0.00000000000E+00  0.45593999997E+02  0.45594000000E+02  0.51100000000E-03 0. -1.
         11   -1    0    0    0    0 -0.00000000000E+00 -0.00000000000E+00 -0.45593999997E+02  0.45594000000E+02  0.51100000000E-03 0.  1.
    9900012    2    1    2    0    0 -0.12132696485E+02 -0.21350194914E+02  0.32405772890E+02  0.50528840350E+02  0.29999940727E+02 0.  0.
        -12    1    1    2    0    0  0.12132696485E+02  0.21350194914E+02 -0.32405772890E+02  0.40659159650E+02  0.00000000000E+00 0.  1.
         11    1    3    3    0    0 -0.81899521047E+01 -0.55081103087E+00  0.10420252339E+02  0.13265005365E+02  0.51100000000E-03 0. -1.
        -11    1    3    3    0    0 -0.61676320716E+01 -0.20545472185E+02  0.76807744032E+01  0.22784872358E+02  0.51100000000E-03 0.  1.
         12    1    3    3    0    0  0.22248876912E+01 -0.25391169791E+00  0.14304746148E+02  0.14478962627E+02  0.00000000000E+00 0. -1.
</event>
<event>
 7    1  0.5373252E-013  0.5052878E+02  0.7816164E-02  0.1300439E+00
        -11   -1    0    0    0    0  0.00000000000E+00  0.00000000000E+00  0.45593999997E+02  0.45594000000E+02  0.51100000000E-03 0.  1.
         11   -1    0    0    0    0 -0.00000000000E+00 -0.00000000000E+00 -0.45593999997E+02  0.45594000000E+02  0.51100000000E-03 0. -1.
    9900012    2    1    2    0    0  0.33104262944E+02  0.51411217989E+01 -0.23040164855E+02  0.50528775278E+02  0.29999742934E+02 0.  0.
        -12    1    1    2    0    0 -0.33104262944E+02 -0.51411217989E+01  0.23040164855E+02  0.40659224722E+02  0.00000000000E+00 0.  1.
         11    1    3    3    0    0  0.46193468008E+01  0.12702622886E+02 -0.69377205959E+01  0.15192990501E+02  0.51100000000E-03 0. -1.
        -11    1    3    3    0    0  0.66384826326E+01 -0.35613397056E+00 -0.91384672239E+01  0.11300790527E+02  0.51100000000E-03 0.  1.
        -12    1    3    3    0    0  0.21846433511E+02 -0.72053671165E+01 -0.69639770356E+01  0.24034994250E+02  0.00000000000E+00 0.  1.
</event>
<event>
 7    1  0.5373252E-013  0.5052886E+02  0.7816164E-02  0.1300439E+00
        -11   -1    0    0    0    0  0.00000000000E+00  0.00000000000E+00  0.45593999997E+02  0.45594000000E+02  0.51100000000E-03 0.  1.
         11   -1    0    0    0    0 -0.00000000000E+00 -0.00000000000E+00 -0.45593999997E+02  0.45594000000E+02  0.51100000000E-03 0. -1.
    9900012    2    1    2    0    0 -0.20874859185E+02 -0.83329962824E+01 -0.33881658995E+02  0.50528863397E+02  0.30000010781E+02 0.  0.
        -12    1    1    2    0    0  0.20874859185E+02  0.83329962824E+01  0.33881658995E+02  0.40659136603E+02  0.00000000000E+00 0.  1.
         11    1    3    3    0    0 -0.40066208588E+01 -0.44764136988E+01 -0.70126173143E+00  0.60483930581E+01  0.51100000000E-03 0. -1.
        -11    1    3    3    0    0  0.60479179683E+01  0.64365816402E+00 -0.49467566262E+01  0.78397709765E+01  0.51100000000E-03 0.  1.
        -12    1    3    3    0    0 -0.22916156294E+02 -0.45002407476E+01 -0.28233640638E+02  0.36640699362E+02  0.00000000000E+00 0.  1.
</event>
<event>
 7    1  0.5373252E-013  0.5052886E+02  0.7816164E-02  0.1300439E+00
        -11   -1    0    0    0    0  0.00000000000E+00  0.00000000000E+00  0.45593999997E+02  0.45594000000E+02  0.51100000000E-03 0.  1.
         11   -1    0    0    0    0 -0.00000000000E+00 -0.00000000000E+00 -0.45593999997E+02  0.45594000000E+02  0.51100000000E-03 0. -1.
    9900012    2    1    2    0    0 -0.22976483541E+02 -0.18716949326E+02 -0.27837427625E+02  0.50528863699E+02  0.30000011700E+02 0.  0.
        -12    1    1    2    0    0  0.22976483541E+02  0.18716949326E+02  0.27837427625E+02  0.40659136301E+02  0.00000000000E+00 0.  1.
         11    1    3    3    0    0 -0.19824173071E+02 -0.60719549251E+01 -0.10827637886E+02  0.23390259020E+02  0.51100000000E-03 0. -1.
        -11    1    3    3    0    0  0.15278310550E+01  0.19861098893E+01 -0.98989967043E+01  0.10211221094E+02  0.51100000000E-03 0.  1.
         12    1    3    3    0    0 -0.46801415245E+01 -0.14631104290E+02 -0.71107930347E+01  0.16927383585E+02  0.00000000000E+00 0. -1.
</event>
<event>
 7    1  0.5373252E-013  0.5052886E+02  0.7816164E-02  0.1300439E+00
        -11   -1    0    0    0    0  0.00000000000E+00  0.00000000000E+00  0.45593999997E+02  0.45594000000E+02  0.51100000000E-03 0.  1.
         11   -1    0    0    0    0 -0.00000000000E+00 -0.00000000000E+00 -0.45593999997E+02  0.45594000000E+02  0.51100000000E-03 0. -1.
    9900012    2    1    2    0    0 -0.20933450528E+02  0.30246779852E+02 -0.17323062429E+02  0.50528861613E+02  0.30000005360E+02 0.  0.
        -12    1    1    2    0    0  0.20933450528E+02 -0.30246779852E+02  0.17323062429E+02  0.40659138387E+02  0.00000000000E+00 0.  1.
         11    1    3    3    0    0 -0.62475121779E+01  0.82076943933E+01 -0.97700295386E+01  0.14207432320E+02  0.51100000000E-03 0.  1.
        -11    1    3    3    0    0 -0.81217778571E+01  0.26034244422E+02 -0.85314988974E+01  0.28575017618E+02  0.51100000000E-03 0. -1.
         12    1    3    3    0    0 -0.65641604928E+01 -0.39951589637E+01  0.97846600678E+00  0.77464116755E+01  0.00000000000E+00 0. -1.
</event>
<event>
 7    1  0.5373252E-013  0.5052886E+02  0.7816164E-02  0.1300439E+00
        -11   -1    0    0    0    0  0.00000000000E+00  0.00000000000E+00  0.45593999997E+02  0.45594000000E+02  0.51100000000E-03 0.  1.
         11   -1    0    0    0    0 -0.00000000000E+00 -0.00000000000E+00 -0.45593999997E+02  0.45594000000E+02  0.51100000000E-03 0. -1.
    9900012    2    1    2    0    0 -0.26020137193E+02  0.35275765234E+01 -0.31043103018E+02  0.50528861044E+02  0.30000003631E+02 0.  0.
        -12    1    1    2    0    0  0.26020137193E+02 -0.35275765234E+01  0.31043103018E+02  0.40659138956E+02  0.00000000000E+00 0.  1.
         11    1    3    3    0    0 -0.26237731511E+01  0.13171327092E+01 -0.16599080423E+02  0.16856704757E+02  0.51100000000E-03 0. -1.
        -11    1    3    3    0    0 -0.15109669121E+02 -0.69258342974E+01 -0.30873005546E+01  0.16905641267E+02  0.51100000000E-03 0.  1.
         12    1    3    3    0    0 -0.82866949202E+01  0.91362781116E+01 -0.11356722040E+02  0.16766515021E+02  0.00000000000E+00 0. -1.
</event>
<event>
 7    1  0.5373252E-013  0.5052886E+02  0.7816164E-02  0.1300439E+00
        -11   -1    0    0    0    0  0.00000000000E+00  0.00000000000E+00  0.45593999997E+02  0.45594000000E+02  0.51100000000E-03 0.  1.
         11   -1    0    0    0    0 -0.00000000000E+00 -0.00000000000E+00 -0.45593999997E+02  0.45594000000E+02  0.51100000000E-03 0. -1.
    9900012    2    1    2    0    0 -0.29462184287E+02  0.24747743094E+02 -0.13141327488E+02  0.50528861060E+02  0.30000003677E+02 0.  0.
        -12    1    1    2    0    0  0.29462184287E+02 -0.24747743094E+02  0.13141327488E+02  0.40659138940E+02  0.00000000000E+00 0.  1.
         11    1    3    3    0    0 -0.62192764299E+01 -0.40859429268E+01 -0.33790569446E+01  0.81726589925E+01  0.51100000000E-03 0. -1.
        -11    1    3    3    0    0 -0.59023756565E+01  0.50292356136E+01  0.51862241046E+01  0.93288889999E+01  0.51100000000E-03 0.  1.
         12    1    3    3    0    0 -0.17340532201E+02  0.23804450408E+02 -0.14948494648E+02  0.33027313067E+02  0.00000000000E+00 0. -1.
</event>
<event>
 7    1  0.5373252E-013  0.5052886E+02  0.7816164E-02  0.1300439E+00
        -11   -1    0    0    0    0  0.00000000000E+00  0.00000000000E+00  0.45593999997E+02  0.45594000000E+02  0.51100000000E-03 0.  1.
         11   -1    0    0    0    0 -0.00000000000E+00 -0.00000000000E+00 -0.45593999997E+02  0.45594000000E+02  0.51100000000E-03 0. -1.
    9900012    2    1    2    0    0  0.25840644203E+02  0.23377793961E+01 -0.31304336645E+02  0.50528860829E+02  0.30000002977E+02 0.  0.
        -12    1    1    2    0    0 -0.25840644203E+02 -0.23377793961E+01  0.31304336645E+02  0.40659139171E+02  0.00000000000E+00 0.  1.
         11    1    3    3    0    0  0.35700533883E+01 -0.17247610407E+01 -0.89812465538E+01  0.98174778719E+01  0.51100000000E-03 0. -1.
        -11    1    3    3    0    0  0.51194459150E+01 -0.55216853569E+01 -0.19447962274E+02  0.20854758990E+02  0.51100000000E-03 0.  1.
        -12    1    3    3    0    0  0.17151144900E+02  0.95842257937E+01 -0.28751278172E+01  0.19856623968E+02  0.00000000000E+00 0.  1.
</event>
<event>
 7    1  0.5373252E-013  0.5052885E+02  0.7816164E-02  0.1300439E+00
        -11   -1    0    0    0    0  0.00000000000E+00  0.00000000000E+00  0.45593999997E+02  0.45594000000E+02  0.51100000000E-03 0. -1.
         11   -1    0    0    0    0 -0.00000000000E+00 -0.00000000000E+00 -0.45593999997E+02  0.45594000000E+02  0.51100000000E-03 0.  1.
    9900012    2    1    2    0    0 -0.35640297543E+02  0.12901243684E+02 -0.14713715590E+02  0.50528851903E+02  0.29999975843E+02 0.  0.
        -12    1    1    2    0    0  0.35640297543E+02 -0.12901243684E+02  0.14713715590E+02  0.40659148097E+02  0.00000000000E+00 0.  1.
         11    1    3    3    0    0 -0.11258302313E+02  0.11640258026E+02 -0.51191637045E+01  0.16983839824E+02  0.51100000000E-03 0. -1.
        -11    1    3    3    0    0  0.27079880580E+01  0.37543845995E+01 -0.31147803401E+01  0.55794677050E+01  0.51100000000E-03 0.  1.
         12    1    3    3    0    0 -0.27089983288E+02 -0.24933989411E+01 -0.64797715452E+01  0.27965544373E+02  0.00000000000E+00 0. -1.
</event>
<event>
 7    1  0.5373252E-013  0.5052886E+02  0.7816164E-02  0.1300439E+00
        -11   -1    0    0    0    0  0.00000000000E+00  0.00000000000E+00  0.45593999997E+02  0.45594000000E+02  0.51100000000E-03 0. -1.
         11   -1    0    0    0    0 -0.00000000000E+00 -0.00000000000E+00 -0.45593999997E+02  0.45594000000E+02  0.51100000000E-03 0.  1.
    9900012    2    1    2    0    0  0.35347863465E+02  0.11014048130E+02  0.16804317639E+02  0.50528858358E+02  0.29999995465E+02 0.  0.
        -12    1    1    2    0    0 -0.35347863465E+02 -0.11014048130E+02 -0.16804317639E+02  0.40659141642E+02  0.00000000000E+00 0.  1.
         11    1    3    3    0    0  0.78046975335E+01 -0.42076109788E+01  0.11096807450E+02  0.14204099042E+02  0.51100000000E-03 0. -1.
        -11    1    3    3    0    0  0.51674121851E-01 -0.11270947947E+01 -0.29751022459E+01  0.31818621161E+01  0.51100000000E-03 0.  1.
         12    1    3    3    0    0  0.27491491810E+02  0.16348753903E+02  0.86826124345E+01  0.33142897200E+02  0.00000000000E+00 0. -1.
</event>
<event>
 7    1  0.8137564E-013  0.5052887E+02  0.7816164E-02  0.1300439E+00
        -11   -1    0    0    0    0  0.00000000000E+00  0.00000000000E+00  0.45593999997E+02  0.45594000000E+02  0.51100000000E-03 0. -1.
         11   -1    0    0    0    0 -0.00000000000E+00 -0.00000000000E+00 -0.45593999997E+02  0.45594000000E+02  0.51100000000E-03 0.  1.
    9900012    2    1    2    0    0  0.14965198504E+02  0.18692883193E+01  0.37758625123E+02  0.50528866017E+02  0.30000018745E+02 0.  0.
        -12    1    1    2    0    0 -0.14965198504E+02 -0.18692883193E+01 -0.37758625123E+02  0.40659133983E+02  0.00000000000E+00 0.  1.
         11    1    3    3    0    0  0.11585053361E+02 -0.10708935926E+00  0.34440917626E+02  0.36337332548E+02  0.51100000000E-03 0. -1.
        -11    1    3    3    0    0  0.25090602293E+01 -0.53914346389E+01  0.32399092743E+01  0.67719984544E+01  0.51100000000E-03 0.  1.
        -12    1    3    3    0    0  0.87108491419E+00  0.73678123174E+01  0.77798222478E-01  0.74195350148E+01  0.00000000000E+00 0.  1.
</event>
<event>
 7    1  0.5373252E-013  0.5052888E+02  0.7816164E-02  0.1300439E+00
        -11   -1    0    0    0    0  0.00000000000E+00  0.00000000000E+00  0.45593999997E+02  0.45594000000E+02  0.51100000000E-03 0.  1.
         11   -1    0    0    0    0 -0.00000000000E+00 -0.00000000000E+00 -0.45593999997E+02  0.45594000000E+02  0.51100000000E-03 0. -1.
    9900012    2    1    2    0    0 -0.16934863535E+02  0.32348776622E+01 -0.36822682770E+02  0.50528880447E+02  0.30000062606E+02 0.  0.
        -12    1    1    2    0    0  0.16934863535E+02 -0.32348776622E+01  0.36822682770E+02  0.40659119553E+02  0.00000000000E+00 0.  1.
         11    1    3    3    0    0  0.49809777402E+01  0.10926042618E+01 -0.28020578600E+01  0.58185437897E+01  0.51100000000E-03 0. -1.
        -11    1    3    3    0    0 -0.47498089943E+01 -0.77993188911E+01 -0.11855798023E+02  0.14964959327E+02  0.51100000000E-03 0.  1.
         12    1    3    3    0    0 -0.17166032281E+02  0.99415922916E+01 -0.22164826888E+02  0.29745377330E+02  0.00000000000E+00 0. -1.
</event>
<event>
 7    1  0.5373252E-013  0.5052886E+02  0.7816164E-02  0.1300439E+00
        -11   -1    0    0    0    0  0.00000000000E+00  0.00000000000E+00  0.45593999997E+02  0.45594000000E+02  0.51100000000E-03 0.  1.
         11   -1    0    0    0    0 -0.00000000000E+00 -0.00000000000E+00 -0.45593999997E+02  0.45594000000E+02  0.51100000000E-03 0. -1.
    9900012    2    1    2    0    0 -0.15665742182E+02 -0.37052077480E+02 -0.59071063052E+01  0.50528857995E+02  0.29999994362E+02 0.  0.
        -12    1    1    2    0    0  0.15665742182E+02  0.37052077480E+02  0.59071063052E+01  0.40659142005E+02  0.00000000000E+00 0.  1.
         11    1    3    3    0    0 -0.90624885748E+01 -0.26085028771E+02 -0.10966288145E+02  0.29712234872E+02  0.51100000000E-03 0. -1.
        -11    1    3    3    0    0 -0.26768002587E+00 -0.10312838774E+02 -0.28106240122E+01  0.10692329203E+02  0.51100000000E-03 0.  1.
        -12    1    3    3    0    0 -0.63355735809E+01 -0.65420993405E+00  0.78698058519E+01  0.10124293920E+02  0.00000000000E+00 0.  1.
</event>
<event>
 7    1  0.5373252E-013  0.5052883E+02  0.7816164E-02  0.1300439E+00
        -11   -1    0    0    0    0  0.00000000000E+00  0.00000000000E+00  0.45593999997E+02  0.45594000000E+02  0.51100000000E-03 0.  1.
         11   -1    0    0    0    0 -0.00000000000E+00 -0.00000000000E+00 -0.45593999997E+02  0.45594000000E+02  0.51100000000E-03 0. -1.
    9900012    2    1    2    0    0  0.12945564882E+02  0.19797755032E+02 -0.33070064136E+02  0.50528832566E+02  0.29999917069E+02 0.  0.
        -12    1    1    2    0    0 -0.12945564882E+02 -0.19797755032E+02  0.33070064136E+02  0.40659167434E+02  0.00000000000E+00 0.  1.
         11    1    3    3    0    0 -0.44130562673E+00  0.65293762329E+01 -0.24323155805E+02  0.25188160179E+02  0.51100000000E-03 0. -1.
        -11    1    3    3    0    0  0.31152130024E+01  0.42301641053E+00  0.35965131084E+01  0.47768610754E+01  0.51100000000E-03 0.  1.
        -12    1    3    3    0    0  0.10271657506E+02  0.12845362388E+02 -0.12343421440E+02  0.20563811312E+02  0.00000000000E+00 0.  1.
</event>
<event>
 7    1  0.5373252E-013  0.5052886E+02  0.7816164E-02  0.1300439E+00
        -11   -1    0    0    0    0  0.00000000000E+00  0.00000000000E+00  0.45593999997E+02  0.45594000000E+02  0.51100000000E-03 0.  1.
         11   -1    0    0    0    0 -0.00000000000E+00 -0.00000000000E+00 -0.45593999997E+02  0.45594000000E+02  0.51100000000E-03 0. -1.
    9900012    2    1    2    0    0 -0.18041118416E+02  0.30268139040E+02  0.20286042555E+02  0.50528859365E+02  0.29999998525E+02 0.  0.
        -12    1    1    2    0    0  0.18041118416E+02 -0.30268139040E+02 -0.20286042555E+02  0.40659140635E+02  0.00000000000E+00 0.  1.
         11    1    3    3    0    0 -0.18836166594E+00  0.15985616163E+02  0.16375112454E+02  0.22884923255E+02  0.51100000000E-03 0. -1.
        -11    1    3    3    0    0  0.94801481669E+00 -0.15594059930E+01 -0.16244501683E+01  0.24432187282E+01  0.51100000000E-03 0.  1.
         12    1    3    3    0    0 -0.18800771567E+02  0.15841928870E+02  0.55353802688E+01  0.25200717382E+02  0.00000000000E+00 0. -1.
</event>
<event>
 7    1  0.5373252E-013  0.5052885E+02  0.7816164E-02  0.1300439E+00
        -11   -1    0    0    0    0  0.00000000000E+00  0.00000000000E+00  0.45593999997E+02  0.45594000000E+02  0.51100000000E-03 0.  1.
         11   -1    0    0    0    0 -0.00000000000E+00 -0.00000000000E+00 -0.45593999997E+02  0.45594000000E+02  0.51100000000E-03 0. -1.
    9900012    2    1    2    0    0  0.81749279946E+01  0.30119942740E+02 -0.26060040050E+02  0.50528854832E+02  0.29999984746E+02 0.  0.
        -12    1    1    2    0    0 -0.81749279946E+01 -0.30119942740E+02  0.26060040050E+02  0.40659145168E+02  0.00000000000E+00 0.  1.
         11    1    3    3    0    0  0.67482711094E+01  0.35277591970E+01  0.37299591692E+01  0.84792006453E+01  0.51100000000E-03 0. -1.
        -11    1    3    3    0    0 -0.37191961341E+01  0.10269200065E+02 -0.52173261108E+01  0.12104105992E+02  0.51100000000E-03 0.  1.
        -12    1    3    3    0    0  0.51458530194E+01  0.16322983478E+02 -0.24572673109E+02  0.29945548194E+02  0.00000000000E+00 0.  1.
</event>
<event>
 7    1  0.5373252E-013  0.5052879E+02  0.7816164E-02  0.1300439E+00
        -11   -1    0    0    0    0  0.00000000000E+00  0.00000000000E+00  0.45593999997E+02  0.45594000000E+02  0.51100000000E-03 0. -1.
         11   -1    0    0    0    0 -0.00000000000E+00 -0.00000000000E+00 -0.45593999997E+02  0.45594000000E+02  0.51100000000E-03 0.  1.
    9900012    2    1    2    0    0 -0.17673496211E+02 -0.31867853681E+02 -0.18034939324E+02  0.50528786985E+02  0.29999778520E+02 0.  0.
        -12    1    1    2    0    0  0.17673496211E+02  0.31867853681E+02  0.18034939324E+02  0.40659213015E+02  0.00000000000E+00 0.  1.
         11    1    3    3    0    0 -0.85569736137E+01 -0.11338605751E+02 -0.20775809405E+01  0.14356257194E+02  0.51100000000E-03 0.  1.
        -11    1    3    3    0    0 -0.52060333199E+01  0.24673844483E+01  0.26423667313E+01  0.63382072503E+01  0.51100000000E-03 0. -1.
        -12    1    3    3    0    0 -0.39104892775E+01 -0.22996632378E+02 -0.18599725115E+02  0.29834322541E+02  0.00000000000E+00 0.  1.
</event>
<event>
 7    1  0.5373252E-013  0.5052886E+02  0.7816164E-02  0.1300439E+00
        -11   -1    0    0    0    0  0.00000000000E+00  0.00000000000E+00  0.45593999997E+02  0.45594000000E+02  0.51100000000E-03 0. -1.
         11   -1    0    0    0    0 -0.00000000000E+00 -0.00000000000E+00 -0.45593999997E+02  0.45594000000E+02  0.51100000000E-03 0.  1.
    9900012    2    1    2    0    0  0.55434735126E+01  0.13793610982E+02  0.37844047807E+02  0.50528858876E+02  0.29999997041E+02 0.  0.
        -12    1    1    2    0    0 -0.55434735126E+01 -0.13793610982E+02 -0.37844047807E+02  0.40659141124E+02  0.00000000000E+00 0.  1.
         11    1    3    3    0    0 -0.10893569951E+02  0.78407135176E+01  0.98059014871E+01  0.16622345171E+02  0.51100000000E-03 0. -1.
        -11    1    3    3    0    0  0.56950248532E+01  0.46396300649E+01  0.65270627206E+01  0.98265977448E+01  0.51100000000E-03 0.  1.
        -12    1    3    3    0    0  0.10742018610E+02  0.13132673996E+01  0.21511083599E+02  0.24079915961E+02  0.00000000000E+00 0.  1.
</event>
<event>
 7    1  0.5373252E-013  0.5052886E+02  0.7816164E-02  0.1300439E+00
        -11   -1    0    0    0    0  0.00000000000E+00  0.00000000000E+00  0.45593999997E+02  0.45594000000E+02  0.51100000000E-03 0.  1.
         11   -1    0    0    0    0 -0.00000000000E+00 -0.00000000000E+00 -0.45593999997E+02  0.45594000000E+02  0.51100000000E-03 0. -1.
    9900012    2    1    2    0    0 -0.23456021815E+02  0.21607268583E+02 -0.25221154861E+02  0.50528859975E+02  0.30000000380E+02 0.  0.
        -12    1    1    2    0    0  0.23456021815E+02 -0.21607268583E+02  0.25221154861E+02  0.40659140025E+02  0.00000000000E+00 0.  1.
         11    1    3    3    0    0 -0.15675219881E+02  0.46216527930E+01 -0.22832453183E+02  0.28078338830E+02  0.51100000000E-03 0. -1.
        -11    1    3    3    0    0 -0.10640022751E+01 -0.17433242777E+01  0.98846915488E+00  0.22689979969E+01  0.51100000000E-03 0.  1.
         12    1    3    3    0    0 -0.67167996595E+01  0.18728940068E+02 -0.33771708337E+01  0.20181523148E+02  0.00000000000E+00 0. -1.
</event>
<event>
 7    1  0.5373252E-013  0.5052887E+02  0.7816164E-02  0.1300439E+00
        -11   -1    0    0    0    0  0.00000000000E+00  0.00000000000E+00  0.45593999997E+02  0.45594000000E+02  0.51100000000E-03 0.  1.
         11   -1    0    0    0    0 -0.00000000000E+00 -0.00000000000E+00 -0.45593999997E+02  0.45594000000E+02  0.51100000000E-03 0. -1.
    9900012    2    1    2    0    0  0.16992131066E+02 -0.33473169265E+02 -0.15619848420E+02  0.50528865190E+02  0.30000016232E+02 0.  0.
        -12    1    1    2    0    0 -0.16992131066E+02  0.33473169265E+02  0.15619848420E+02  0.40659134810E+02  0.00000000000E+00 0.  1.
         11    1    3    3    0    0  0.58499424841E+01  0.61712885433E+00 -0.15441724048E+01  0.60817056626E+01  0.51100000000E-03 0. -1.
        -11    1    3    3    0    0  0.45788013780E+01 -0.31897464373E+02 -0.17561203286E+02  0.36698903480E+02  0.51100000000E-03 0.  1.
         12    1    3    3    0    0  0.65633872038E+01 -0.21928337461E+01  0.34855272709E+01  0.77482560478E+01  0.00000000000E+00 0. -1.
</event>
<event>
 7    1  0.5373252E-013  0.5052889E+02  0.7816164E-02  0.1300439E+00
        -11   -1    0    0    0    0  0.00000000000E+00  0.00000000000E+00  0.45593999997E+02  0.45594000000E+02  0.51100000000E-03 0.  1.
         11   -1    0    0    0    0 -0.00000000000E+00 -0.00000000000E+00 -0.45593999997E+02  0.45594000000E+02  0.51100000000E-03 0. -1.
    9900012    2    1    2    0    0 -0.11422785101E+02 -0.12500599370E+02 -0.36965094492E+02  0.50528890136E+02  0.30000092059E+02 0.  0.
        -12    1    1    2    0    0  0.11422785101E+02  0.12500599370E+02  0.36965094492E+02  0.40659109864E+02  0.00000000000E+00 0.  1.
         11    1    3    3    0    0 -0.26852969906E+01 -0.11158499737E+02 -0.10585164718E+02  0.15613092220E+02  0.51100000000E-03 0. -1.
        -11    1    3    3    0    0 -0.10731706036E+02  0.23884246888E+01 -0.33394953815E+01  0.11490270519E+02  0.51100000000E-03 0.  1.
         12    1    3    3    0    0  0.19942179252E+01 -0.37305243222E+01 -0.23040434393E+02  0.23425527398E+02  0.00000000000E+00 0. -1.
</event>
<event>
 7    1  0.5373252E-013  0.5052886E+02  0.7816164E-02  0.1300439E+00
        -11   -1    0    0    0    0  0.00000000000E+00  0.00000000000E+00  0.45593999997E+02  0.45594000000E+02  0.51100000000E-03 0.  1.
         11   -1    0    0    0    0 -0.00000000000E+00 -0.00000000000E+00 -0.45593999997E+02  0.45594000000E+02  0.51100000000E-03 0. -1.
    9900012    2    1    2    0    0 -0.21606400766E+02 -0.80798322551E+01 -0.33482012165E+02  0.50528863487E+02  0.30000011056E+02 0.  0.
        -12    1    1    2    0    0  0.21606400766E+02  0.80798322551E+01  0.33482012165E+02  0.40659136513E+02  0.00000000000E+00 0.  1.
         11    1    3    3    0    0 -0.85992608829E+01 -0.11505005896E+02 -0.12946520406E+02  0.19337136274E+02  0.51100000000E-03 0. -1.
        -11    1    3    3    0    0 -0.18752871650E+01 -0.42487701349E+01 -0.16411752766E+02  0.17056212320E+02  0.51100000000E-03 0.  1.
         12    1    3    3    0    0 -0.11131852718E+02  0.76739437758E+01 -0.41237389935E+01  0.14135514893E+02  0.00000000000E+00 0. -1.
</event>
<event>
 7    1  0.5373252E-013  0.5052888E+02  0.7816164E-02  0.1300439E+00
        -11   -1    0    0    0    0  0.00000000000E+00  0.00000000000E+00  0.45593999997E+02  0.45594000000E+02  0.51100000000E-03 0. -1.
         11   -1    0    0    0    0 -0.00000000000E+00 -0.00000000000E+00 -0.45593999997E+02  0.45594000000E+02  0.51100000000E-03 0.  1.
    9900012    2    1    2    0    0  0.31072363876E+02 -0.15216740060E+02  0.21357037174E+02  0.50528880338E+02  0.30000062274E+02 0.  0.
        -12    1    1    2    0    0 -0.31072363876E+02  0.15216740060E+02 -0.21357037174E+02  0.40659119662E+02  0.00000000000E+00 0.  1.
         11    1    3    3    0    0  0.54140697063E+01  0.62200887897E+00  0.11327360790E+02  0.12570129218E+02  0.51100000000E-03 0. -1.
        -11    1    3    3    0    0  0.18128068797E+02  0.98523080468E+00  0.43103163749E+01  0.18659485136E+02  0.51100000000E-03 0.  1.
         12    1    3    3    0    0  0.75302253727E+01 -0.16823979744E+02  0.57193600091E+01  0.19299265984E+02  0.00000000000E+00 0. -1.
</event>
<event>
 7    1  0.5373252E-013  0.5052886E+02  0.7816164E-02  0.1300439E+00
        -11   -1    0    0    0    0  0.00000000000E+00  0.00000000000E+00  0.45593999997E+02  0.45594000000E+02  0.51100000000E-03 0.  1.
         11   -1    0    0    0    0 -0.00000000000E+00 -0.00000000000E+00 -0.45593999997E+02  0.45594000000E+02  0.51100000000E-03 0. -1.
    9900012    2    1    2    0    0  0.17841194054E+02  0.83243702531E+01 -0.35574744316E+02  0.50528858611E+02  0.29999996233E+02 0.  0.
        -12    1    1    2    0    0 -0.17841194054E+02 -0.83243702531E+01  0.35574744316E+02  0.40659141389E+02  0.00000000000E+00 0.  1.
         11    1    3    3    0    0  0.16513361220E+02 -0.50252201065E+01 -0.20697880883E+02  0.26950810920E+02  0.51100000000E-03 0. -1.
        -11    1    3    3    0    0 -0.22359360801E+01  0.36790376877E+01  0.12107915558E+01  0.44722192382E+01  0.51100000000E-03 0.  1.
        -12    1    3    3    0    0  0.35637689136E+01  0.96705526719E+01 -0.16087654988E+02  0.19105828453E+02  0.00000000000E+00 0.  1.
</event>
<event>
 7    1  0.5373252E-013  0.5052886E+02  0.7816164E-02  0.1300439E+00
        -11   -1    0    0    0    0  0.00000000000E+00  0.00000000000E+00  0.45593999997E+02  0.45594000000E+02  0.51100000000E-03 0.  1.
         11   -1    0    0    0    0 -0.00000000000E+00 -0.00000000000E+00 -0.45593999997E+02  0.45594000000E+02  0.51100000000E-03 0. -1.
    9900012    2    1    2    0    0 -0.30875926449E+02  0.14786351900E+02 -0.21936424534E+02  0.50528858864E+02  0.29999997003E+02 0.  0.
        -12    1    1    2    0    0  0.30875926449E+02 -0.14786351900E+02  0.21936424534E+02  0.40659141136E+02  0.00000000000E+00 0.  1.
         11    1    3    3    0    0 -0.32203883753E+01  0.10862295023E+01 -0.92394126222E+01  0.98446707251E+01  0.51100000000E-03 0. -1.
        -11    1    3    3    0    0  0.26414809843E+01 -0.28566170794E+01  0.19934765260E-01  0.38907686367E+01  0.51100000000E-03 0.  1.
         12    1    3    3    0    0 -0.30297019058E+02  0.16556739477E+02 -0.12716946677E+02  0.36793419502E+02  0.00000000000E+00 0. -1.
</event>
<event>
 7    1  0.5373252E-013  0.5052886E+02  0.7816164E-02  0.1300439E+00
        -11   -1    0    0    0    0  0.00000000000E+00  0.00000000000E+00  0.45593999997E+02  0.45594000000E+02  0.51100000000E-03 0. -1.
         11   -1    0    0    0    0 -0.00000000000E+00 -0.00000000000E+00 -0.45593999997E+02  0.45594000000E+02  0.51100000000E-03 0.  1.
    9900012    2    1    2    0    0 -0.11322807864E+00  0.39073191776E+02  0.11244495690E+02  0.50528858107E+02  0.29999994701E+02 0.  0.
        -12    1    1    2    0    0  0.11322807864E+00 -0.39073191776E+02 -0.11244495690E+02  0.40659141893E+02  0.00000000000E+00 0.  1.
         11    1    3    3    0    0 -0.21110553660E+01 -0.20963407734E+01 -0.76124402411E+00  0.30709431975E+01  0.51100000000E-03 0. -1.
        -11    1    3    3    0    0  0.83879310957E+01  0.33785220313E+02  0.44157772501E+01  0.35089850223E+02  0.51100000000E-03 0.  1.
         12    1    3    3    0    0 -0.63901038083E+01  0.73843122363E+01  0.75899624640E+01  0.12368064686E+02  0.00000000000E+00 0. -1.
</event>
<event>
 7    1  0.5373252E-013  0.5052885E+02  0.7816164E-02  0.1300439E+00
        -11   -1    0    0    0    0  0.00000000000E+00  0.00000000000E+00  0.45593999997E+02  0.45594000000E+02  0.51100000000E-03 0.  1.
         11   -1    0    0    0    0 -0.00000000000E+00 -0.00000000000E+00 -0.45593999997E+02  0.45594000000E+02  0.51100000000E-03 0. -1.
    9900012    2    1    2    0    0  0.13702328877E+02  0.20288255784E+01 -0.38226904152E+02  0.50528854031E+02  0.29999982313E+02 0.  0.
        -12    1    1    2    0    0 -0.13702328877E+02 -0.20288255784E+01  0.38226904152E+02  0.40659145969E+02  0.00000000000E+00 0.  1.
         11    1    3    3    0    0  0.61977316027E+00 -0.53746578782E+01 -0.84558195789E+01  0.10038523352E+02  0.51100000000E-03 0. -1.
        -11    1    3    3    0    0  0.20798474580E+00  0.10226455835E+02 -0.30145140846E+01  0.10663533750E+02  0.51100000000E-03 0.  1.
         12    1    3    3    0    0  0.12874570971E+02 -0.28229723789E+01 -0.26756570489E+02  0.29826796929E+02  0.00000000000E+00 0. -1.
</event>
<event>
 7    1  0.5373252E-013  0.5052886E+02  0.7816164E-02  0.1300439E+00
        -11   -1    0    0    0    0  0.00000000000E+00  0.00000000000E+00  0.45593999997E+02  0.45594000000E+02  0.51100000000E-03 0. -1.
         11   -1    0    0    0    0 -0.00000000000E+00 -0.00000000000E+00 -0.45593999997E+02  0.45594000000E+02  0.51100000000E-03 0.  1.
    9900012    2    1    2    0    0  0.19677824160E+02 -0.34963668402E+02  0.65947630964E+01  0.50528858690E+02  0.29999996473E+02 0.  0.
        -12    1    1    2    0    0 -0.19677824160E+02  0.34963668402E+02 -0.65947630964E+01  0.40659141310E+02  0.00000000000E+00 0.  1.
         11    1    3    3    0    0  0.33497522052E+01 -0.48890660599E+01  0.39830055975E+01  0.71405980579E+01  0.51100000000E-03 0. -1.
        -11    1    3    3    0    0  0.18214052755E+02 -0.15286276566E+02 -0.80008591644E+01  0.25088557484E+02  0.51100000000E-03 0.  1.
        -12    1    3    3    0    0 -0.18859808002E+01 -0.14788325776E+02  0.10612616663E+02  0.18299703147E+02  0.00000000000E+00 0.  1.
</event>
<event>
 7    1  0.5373252E-013  0.5052886E+02  0.7816164E-02  0.1300439E+00
        -11   -1    0    0    0    0  0.00000000000E+00  0.00000000000E+00  0.45593999997E+02  0.45594000000E+02  0.51100000000E-03 0. -1.
         11   -1    0    0    0    0 -0.00000000000E+00 -0.00000000000E+00 -0.45593999997E+02  0.45594000000E+02  0.51100000000E-03 0.  1.
    9900012    2    1    2    0    0 -0.36963621365E+02 -0.19317108846E+01  0.16826317294E+02  0.50528858777E+02  0.29999996738E+02 0.  0.
        -12    1    1    2    0    0  0.36963621365E+02  0.19317108846E+01 -0.16826317294E+02  0.40659141223E+02  0.00000000000E+00 0.  1.
         11    1    3    3    0    0 -0.26838979330E+02  0.31462849405E+00  0.74424885836E+01  0.27853553439E+02  0.51100000000E-03 0. -1.
        -11    1    3    3    0    0 -0.19911418751E+01  0.34486316065E+01 -0.42402615902E+01  0.58170030547E+01  0.51100000000E-03 0.  1.
         12    1    3    3    0    0 -0.81335001592E+01 -0.56949709852E+01  0.13624090300E+02  0.16858302283E+02  0.00000000000E+00 0. -1.
</event>
<event>
 7    1  0.5373252E-013  0.5052885E+02  0.7816164E-02  0.1300439E+00
        -11   -1    0    0    0    0  0.00000000000E+00  0.00000000000E+00  0.45593999997E+02  0.45594000000E+02  0.51100000000E-03 0.  1.
         11   -1    0    0    0    0 -0.00000000000E+00 -0.00000000000E+00 -0.45593999997E+02  0.45594000000E+02  0.51100000000E-03 0. -1.
    9900012    2    1    2    0    0  0.15915190429E+02 -0.70625792434E+01 -0.36742250103E+02  0.50528852757E+02  0.29999978439E+02 0.  0.
        -12    1    1    2    0    0 -0.15915190429E+02  0.70625792434E+01  0.36742250103E+02  0.40659147243E+02  0.00000000000E+00 0.  1.
         11    1    3    3    0    0  0.10750667424E+02 -0.15154390169E+01 -0.14096156774E+02  0.17792555790E+02  0.51100000000E-03 0. -1.
        -11    1    3    3    0    0  0.43516275490E+01  0.64097433863E+01 -0.76099757795E+00  0.77846380891E+01  0.51100000000E-03 0.  1.
         12    1    3    3    0    0  0.81289545607E+00 -0.11956883613E+02 -0.21885095751E+02  0.24951658878E+02  0.00000000000E+00 0. -1.
</event>
<event>
 7    1  0.5373252E-013  0.5052885E+02  0.7816164E-02  0.1300439E+00
        -11   -1    0    0    0    0  0.00000000000E+00  0.00000000000E+00  0.45593999997E+02  0.45594000000E+02  0.51100000000E-03 0.  1.
         11   -1    0    0    0    0 -0.00000000000E+00 -0.00000000000E+00 -0.45593999997E+02  0.45594000000E+02  0.51100000000E-03 0. -1.
    9900012    2    1    2    0    0  0.51222810508E+01  0.37556342213E+02 -0.14712227464E+02  0.50528852929E+02  0.29999978964E+02 0.  0.
        -12    1    1    2    0    0 -0.51222810508E+01 -0.37556342213E+02  0.14712227464E+02  0.40659147071E+02  0.00000000000E+00 0.  1.
         11    1    3    3    0    0  0.30847513466E+01  0.43754289965E+01  0.60523778850E+01  0.80803061884E+01  0.51100000000E-03 0. -1.
        -11    1    3    3    0    0  0.69466527361E+01  0.55090098829E+01 -0.59666718846E+01  0.10686737003E+02  0.51100000000E-03 0.  1.
         12    1    3    3    0    0 -0.49091230319E+01  0.27671903333E+02 -0.14797933464E+02  0.31761809738E+02  0.00000000000E+00 0. -1.
</event>
<event>
 7    1  0.6390177E-013  0.5052884E+02  0.7816164E-02  0.1300439E+00
        -11   -1    0    0    0    0  0.00000000000E+00  0.00000000000E+00  0.45593999997E+02  0.45594000000E+02  0.51100000000E-03 0. -1.
         11   -1    0    0    0    0 -0.00000000000E+00 -0.00000000000E+00 -0.45593999997E+02  0.45594000000E+02  0.51100000000E-03 0.  1.
    9900012    2    1    2    0    0 -0.14413408616E+02 -0.41323453551E+01  0.37793443634E+02  0.50528843494E+02  0.29999950286E+02 0.  0.
        -12    1    1    2    0    0  0.14413408616E+02  0.41323453551E+01 -0.37793443634E+02  0.40659156506E+02  0.00000000000E+00 0.  1.
         11    1    3    3    0    0 -0.14982314642E+01  0.58712685773E+00  0.27875107316E+02  0.27921515425E+02  0.51100000000E-03 0. -1.
        -11    1    3    3    0    0 -0.36571416300E+01  0.51656107281E+01  0.54307030603E+01  0.83397095325E+01  0.51100000000E-03 0.  1.
        -12    1    3    3    0    0 -0.92580355216E+01 -0.98850829410E+01  0.44876332571E+01  0.14267618537E+02  0.00000000000E+00 0.  1.
</event>
<event>
 7    1  0.5373252E-013  0.5052888E+02  0.7816164E-02  0.1300439E+00
        -11   -1    0    0    0    0  0.00000000000E+00  0.00000000000E+00  0.45593999997E+02  0.45594000000E+02  0.51100000000E-03 0. -1.
         11   -1    0    0    0    0 -0.00000000000E+00 -0.00000000000E+00 -0.45593999997E+02  0.45594000000E+02  0.51100000000E-03 0.  1.
    9900012    2    1    2    0    0  0.87050147030E+01  0.39711381843E+02 -0.62694549688E+00  0.50528878151E+02  0.30000055627E+02 0.  0.
        -12    1    1    2    0    0 -0.87050147030E+01 -0.39711381843E+02  0.62694549688E+00  0.40659121849E+02  0.00000000000E+00 0.  1.
         11    1    3    3    0    0  0.57037829018E+00  0.85516059145E+01 -0.76152549034E+01  0.11465051357E+02  0.51100000000E-03 0. -1.
        -11    1    3    3    0    0 -0.64134725742E+01  0.42129624024E+01  0.27370966524E+01  0.81469860077E+01  0.51100000000E-03 0.  1.
         12    1    3    3    0    0  0.14548108987E+02  0.26946813526E+02  0.42512127541E+01  0.30916840786E+02  0.00000000000E+00 0. -1.
</event>
<event>
 7    1  0.5373252E-013  0.5052886E+02  0.7816164E-02  0.1300439E+00
        -11   -1    0    0    0    0  0.00000000000E+00  0.00000000000E+00  0.45593999997E+02  0.45594000000E+02  0.51100000000E-03 0. -1.
         11   -1    0    0    0    0 -0.00000000000E+00 -0.00000000000E+00 -0.45593999997E+02  0.45594000000E+02  0.51100000000E-03 0.  1.
    9900012    2    1    2    0    0 -0.38548982449E+02 -0.19745634338E+01  0.12776638623E+02  0.50528862735E+02  0.30000008769E+02 0.  0.
        -12    1    1    2    0    0  0.38548982449E+02  0.19745634338E+01 -0.12776638623E+02  0.40659137265E+02  0.00000000000E+00 0.  1.
         11    1    3    3    0    0 -0.27985643472E+02  0.44975665908E+01  0.10030841941E+02  0.30067293461E+02  0.51100000000E-03 0. -1.
        -11    1    3    3    0    0 -0.63697380245E+01 -0.97049326032E+01  0.70986914008E+01  0.13607009194E+02  0.51100000000E-03 0.  1.
        -12    1    3    3    0    0 -0.41936009532E+01  0.32328025786E+01 -0.43528947184E+01  0.68545600805E+01  0.00000000000E+00 0.  1.
</event>
<event>
 7    1  0.5373252E-013  0.5052884E+02  0.7816164E-02  0.1300439E+00
        -11   -1    0    0    0    0  0.00000000000E+00  0.00000000000E+00  0.45593999997E+02  0.45594000000E+02  0.51100000000E-03 0.  1.
         11   -1    0    0    0    0 -0.00000000000E+00 -0.00000000000E+00 -0.45593999997E+02  0.45594000000E+02  0.51100000000E-03 0. -1.
    9900012    2    1    2    0    0  0.31349002986E+02 -0.41079235076E+01 -0.25564273616E+02  0.50528842246E+02  0.29999946491E+02 0.  0.
        -12    1    1    2    0    0 -0.31349002986E+02  0.41079235076E+01  0.25564273616E+02  0.40659157754E+02  0.00000000000E+00 0.  1.
         11    1    3    3    0    0  0.19673004009E+02 -0.14033450624E+01 -0.12382268643E+02  0.23287701499E+02  0.51100000000E-03 0. -1.
        -11    1    3    3    0    0  0.90552739390E+01 -0.66497099597E+01  0.19345633841E+01  0.11399963351E+02  0.51100000000E-03 0.  1.
        -12    1    3    3    0    0  0.26207250378E+01  0.39451315144E+01 -0.15116568357E+02  0.15841177396E+02  0.00000000000E+00 0.  1.
</event>
<event>
 7    1  0.5373252E-013  0.5052888E+02  0.7816164E-02  0.1300439E+00
        -11   -1    0    0    0    0  0.00000000000E+00  0.00000000000E+00  0.45593999997E+02  0.45594000000E+02  0.51100000000E-03 0.  1.
         11   -1    0    0    0    0 -0.00000000000E+00 -0.00000000000E+00 -0.45593999997E+02  0.45594000000E+02  0.51100000000E-03 0. -1.
    9900012    2    1    2    0    0 -0.13855544770E+02 -0.37963735638E+02 -0.44657235027E+01  0.50528880102E+02  0.30000061557E+02 0.  0.
        -12    1    1    2    0    0  0.13855544770E+02  0.37963735638E+02  0.44657235027E+01  0.40659119898E+02  0.00000000000E+00 0.  1.
         11    1    3    3    0    0 -0.20000191935E+01 -0.84921066964E+01  0.42210406935E+01  0.96919109424E+01  0.51100000000E-03 0. -1.
        -11    1    3    3    0    0  0.30052722890E+01  0.28880767003E+01 -0.19277897769E+01  0.45922785458E+01  0.51100000000E-03 0.  1.
         12    1    3    3    0    0 -0.14860797866E+02 -0.32359705642E+02 -0.67589744193E+01  0.36244690613E+02  0.00000000000E+00 0. -1.
</event>
<event>
 7    1  0.5373252E-013  0.5052885E+02  0.7816164E-02  0.1300439E+00
        -11   -1    0    0    0    0  0.00000000000E+00  0.00000000000E+00  0.45593999997E+02  0.45594000000E+02  0.51100000000E-03 0.  1.
         11   -1    0    0    0    0 -0.00000000000E+00 -0.00000000000E+00 -0.45593999997E+02  0.45594000000E+02  0.51100000000E-03 0. -1.
    9900012    2    1    2    0    0 -0.16275407541E+02 -0.12616727710E+02 -0.35058457745E+02  0.50528853818E+02  0.29999981666E+02 0.  0.
        -12    1    1    2    0    0  0.16275407541E+02  0.12616727710E+02  0.35058457745E+02  0.40659146182E+02  0.00000000000E+00 0.  1.
         11    1    3    3    0    0 -0.82671160425E+01  0.49235947875E+01 -0.14374522051E+02  0.17297799795E+02  0.51100000000E-03 0. -1.
        -11    1    3    3    0    0 -0.12335737395E+02 -0.12489108676E+02 -0.19896211762E+02  0.26533139568E+02  0.51100000000E-03 0.  1.
         12    1    3    3    0    0  0.43274458963E+01 -0.50512138213E+01 -0.78772393229E+00  0.66979144550E+01  0.00000000000E+00 0. -1.
</event>
<event>
 7    1  0.5373252E-013  0.5052887E+02  0.7816164E-02  0.1300439E+00
        -11   -1    0    0    0    0  0.00000000000E+00  0.00000000000E+00  0.45593999997E+02  0.45594000000E+02  0.51100000000E-03 0.  1.
         11   -1    0    0    0    0 -0.00000000000E+00 -0.00000000000E+00 -0.45593999997E+02  0.45594000000E+02  0.51100000000E-03 0. -1.
    9900012    2    1    2    0    0  0.23632507713E+02 -0.87736630206E+01 -0.31901291877E+02  0.50528868098E+02  0.30000025070E+02 0.  0.
        -12    1    1    2    0    0 -0.23632507713E+02  0.87736630206E+01  0.31901291877E+02  0.40659131902E+02  0.00000000000E+00 0.  1.
         11    1    3    3    0    0  0.12208157430E+02 -0.28213690196E+01 -0.22500052573E+02  0.25753671525E+02  0.51100000000E-03 0. -1.
        -11    1    3    3    0    0 -0.32320209240E+01 -0.12094609103E+01 -0.86945230883E+01  0.93543298499E+01  0.51100000000E-03 0.  1.
         12    1    3    3    0    0  0.14656371207E+02 -0.47428330906E+01 -0.70671621595E+00  0.15420866723E+02  0.00000000000E+00 0. -1.
</event>
<event>
 7    1  0.5373252E-013  0.5052885E+02  0.7816164E-02  0.1300439E+00
        -11   -1    0    0    0    0  0.00000000000E+00  0.00000000000E+00  0.45593999997E+02  0.45594000000E+02  0.51100000000E-03 0.  1.
         11   -1    0    0    0    0 -0.00000000000E+00 -0.00000000000E+00 -0.45593999997E+02  0.45594000000E+02  0.51100000000E-03 0. -1.
    9900012    2    1    2    0    0  0.73597706784E+01  0.33541174324E+02 -0.21771316512E+02  0.50528845777E+02  0.29999957223E+02 0.  0.
        -12    1    1    2    0    0 -0.73597706784E+01 -0.33541174324E+02  0.21771316512E+02  0.40659154223E+02  0.00000000000E+00 0.  1.
         11    1    3    3    0    0  0.38279946779E+01  0.72160215228E+01  0.42883893503E+01  0.92257679004E+01  0.51100000000E-03 0. -1.
        -11    1    3    3    0    0  0.69297557064E+01  0.98387668594E+01 -0.24077943686E+01  0.12272747103E+02  0.51100000000E-03 0.  1.
         12    1    3    3    0    0 -0.33979797060E+01  0.16486385942E+02 -0.23651911494E+02  0.29030330774E+02  0.00000000000E+00 0. -1.
</event>
<event>
 7    1  0.5373252E-013  0.5052886E+02  0.7816164E-02  0.1300439E+00
        -11   -1    0    0    0    0  0.00000000000E+00  0.00000000000E+00  0.45593999997E+02  0.45594000000E+02  0.51100000000E-03 0. -1.
         11   -1    0    0    0    0 -0.00000000000E+00 -0.00000000000E+00 -0.45593999997E+02  0.45594000000E+02  0.51100000000E-03 0.  1.
    9900012    2    1    2    0    0 -0.13238201330E+02  0.13273420568E+02  0.36079517736E+02  0.50528864888E+02  0.30000015314E+02 0.  0.
        -12    1    1    2    0    0  0.13238201330E+02 -0.13273420568E+02 -0.36079517736E+02  0.40659135112E+02  0.00000000000E+00 0.  1.
         11    1    3    3    0    0 -0.14098037785E+02  0.67518229102E+01  0.16725226810E+02  0.22892684293E+02  0.51100000000E-03 0. -1.
        -11    1    3    3    0    0 -0.58437716801E+00  0.11227755975E+02  0.47154381929E+01  0.12191774216E+02  0.51100000000E-03 0.  1.
         12    1    3    3    0    0  0.14442136232E+01 -0.47061583178E+01  0.14638852732E+02  0.15444406380E+02  0.00000000000E+00 0. -1.
</event>
<event>
 7    1  0.5373252E-013  0.5052886E+02  0.7816164E-02  0.1300439E+00
        -11   -1    0    0    0    0  0.00000000000E+00  0.00000000000E+00  0.45593999997E+02  0.45594000000E+02  0.51100000000E-03 0.  1.
         11   -1    0    0    0    0 -0.00000000000E+00 -0.00000000000E+00 -0.45593999997E+02  0.45594000000E+02  0.51100000000E-03 0. -1.
    9900012    2    1    2    0    0 -0.78245685066E+01  0.24741087413E+02 -0.31302076899E+02  0.50528864534E+02  0.30000014236E+02 0.  0.
        -12    1    1    2    0    0  0.78245685066E+01 -0.24741087413E+02  0.31302076899E+02  0.40659135466E+02  0.00000000000E+00 0.  1.
         11    1    3    3    0    0 -0.10340568931E+02  0.43985239150E+01 -0.60151836340E+01  0.12745854732E+02  0.51100000000E-03 0.  1.
        -11    1    3    3    0    0 -0.34798571427E+01  0.11038748477E+02 -0.23993413746E+02  0.26639205640E+02  0.51100000000E-03 0. -1.
        -12    1    3    3    0    0  0.59958575672E+01  0.93038150217E+01 -0.12934795185E+01  0.11143804161E+02  0.00000000000E+00 0.  1.
</event>
<event>
 7    1  0.5373252E-013  0.5052886E+02  0.7816164E-02  0.1300439E+00
        -11   -1    0    0    0    0  0.00000000000E+00  0.00000000000E+00  0.45593999997E+02  0.45594000000E+02  0.51100000000E-03 0.  1.
         11   -1    0    0    0    0 -0.00000000000E+00 -0.00000000000E+00 -0.45593999997E+02  0.45594000000E+02  0.51100000000E-03 0. -1.
    9900012    2    1    2    0    0 -0.20028439198E+02  0.28589497180E+02 -0.20848692492E+02  0.50528859523E+02  0.29999999007E+02 0.  0.
        -12    1    1    2    0    0  0.20028439198E+02 -0.28589497180E+02  0.20848692492E+02  0.40659140477E+02  0.00000000000E+00 0.  1.
         11    1    3    3    0    0 -0.11733667143E+01 -0.40261517028E+01  0.79197321509E+00  0.42677756284E+01  0.51100000000E-03 0. -1.
        -11    1    3    3    0    0  0.25339171538E+00  0.12432889604E+02 -0.29901419103E+01  0.12789914002E+02  0.51100000000E-03 0.  1.
         12    1    3    3    0    0 -0.19108464199E+02  0.20182759279E+02 -0.18650523797E+02  0.33471169893E+02  0.00000000000E+00 0. -1.
</event>
<event>
 7    1  0.5373252E-013  0.5052886E+02  0.7816164E-02  0.1300439E+00
        -11   -1    0    0    0    0  0.00000000000E+00  0.00000000000E+00  0.45593999997E+02  0.45594000000E+02  0.51100000000E-03 0.  1.
         11   -1    0    0    0    0 -0.00000000000E+00 -0.00000000000E+00 -0.45593999997E+02  0.45594000000E+02  0.51100000000E-03 0. -1.
    9900012    2    1    2    0    0 -0.71490351185E+01 -0.25033571202E+02 -0.31231024623E+02  0.50528864627E+02  0.30000014521E+02 0.  0.
        -12    1    1    2    0    0  0.71490351185E+01  0.25033571202E+02  0.31231024623E+02  0.40659135373E+02  0.00000000000E+00 0.  1.
         11    1    3    3    0    0 -0.84334735752E+01 -0.51724080563E+01 -0.12437736798E+02  0.15892595086E+02  0.51100000000E-03 0. -1.
        -11    1    3    3    0    0 -0.60735071408E+01 -0.13499712684E+02 -0.16090212431E+01  0.14890220991E+02  0.51100000000E-03 0.  1.
         12    1    3    3    0    0  0.73579455975E+01 -0.63614504616E+01 -0.17184266582E+02  0.19746048550E+02  0.00000000000E+00 0. -1.
</event>
<event>
 7    1  0.5373252E-013  0.5052887E+02  0.7816164E-02  0.1300439E+00
        -11   -1    0    0    0    0  0.00000000000E+00  0.00000000000E+00  0.45593999997E+02  0.45594000000E+02  0.51100000000E-03 0.  1.
         11   -1    0    0    0    0 -0.00000000000E+00 -0.00000000000E+00 -0.45593999997E+02  0.45594000000E+02  0.51100000000E-03 0. -1.
    9900012    2    1    2    0    0  0.39959245157E+02 -0.56812499292E-01  0.75113522206E+01  0.50528869250E+02  0.30000028572E+02 0.  0.
        -12    1    1    2    0    0 -0.39959245157E+02  0.56812499292E-01 -0.75113522206E+01  0.40659130750E+02  0.00000000000E+00 0.  1.
         11    1    3    3    0    0  0.20894163487E+02 -0.94578852146E+00 -0.13518654177E+01  0.20959201419E+02  0.51100000000E-03 0. -1.
        -11    1    3    3    0    0  0.13131290043E+01 -0.69388859128E+01 -0.19926343897E+01  0.73377815153E+01  0.51100000000E-03 0.  1.
         12    1    3    3    0    0  0.17751952665E+02  0.78278619350E+01  0.10855852028E+02  0.22231886316E+02  0.00000000000E+00 0. -1.
</event>
<event>
 7    1  0.5373252E-013  0.5052886E+02  0.7816164E-02  0.1300439E+00
        -11   -1    0    0    0    0  0.00000000000E+00  0.00000000000E+00  0.45593999997E+02  0.45594000000E+02  0.51100000000E-03 0. -1.
         11   -1    0    0    0    0 -0.00000000000E+00 -0.00000000000E+00 -0.45593999997E+02  0.45594000000E+02  0.51100000000E-03 0.  1.
    9900012    2    1    2    0    0  0.37958795703E+02  0.25747145869E+01 -0.14341067899E+02  0.50528861360E+02  0.30000004591E+02 0.  0.
        -12    1    1    2    0    0 -0.37958795703E+02 -0.25747145869E+01  0.14341067899E+02  0.40659138640E+02  0.00000000000E+00 0.  1.
         11    1    3    3    0    0  0.14752707764E+02 -0.17930783239E+01 -0.22324792318E+01  0.15028023158E+02  0.51100000000E-03 0. -1.
        -11    1    3    3    0    0 -0.23966256941E+00 -0.39937852146E+01  0.41537797465E+01  0.57672909525E+01  0.51100000000E-03 0.  1.
         12    1    3    3    0    0  0.23445750508E+02  0.83615781254E+01 -0.16262368414E+02  0.29733547250E+02  0.00000000000E+00 0. -1.
</event>
<event>
 7    1  0.5373252E-013  0.5052888E+02  0.7816164E-02  0.1300439E+00
        -11   -1    0    0    0    0  0.00000000000E+00  0.00000000000E+00  0.45593999997E+02  0.45594000000E+02  0.51100000000E-03 0.  1.
         11   -1    0    0    0    0 -0.00000000000E+00 -0.00000000000E+00 -0.45593999997E+02  0.45594000000E+02  0.51100000000E-03 0. -1.
    9900012    2    1    2    0    0 -0.37233285916E+01  0.35667038858E+02 -0.19161503761E+02  0.50528879706E+02  0.30000060354E+02 0.  0.
        -12    1    1    2    0    0  0.37233285916E+01 -0.35667038858E+02  0.19161503761E+02  0.40659120294E+02  0.00000000000E+00 0.  1.
         11    1    3    3    0    0 -0.94657728871E+01  0.74984632272E+01 -0.14428082711E+02  0.18814818045E+02  0.51100000000E-03 0. -1.
        -11    1    3    3    0    0  0.25331844203E+01  0.16885494554E+01  0.26511595274E+01  0.40369381555E+01  0.51100000000E-03 0.  1.
         12    1    3    3    0    0  0.32092598751E+01  0.26480026175E+02 -0.73845805782E+01  0.27677123505E+02  0.00000000000E+00 0. -1.
</event>
<event>
 7    1  0.5373252E-013  0.5052886E+02  0.7816164E-02  0.1300439E+00
        -11   -1    0    0    0    0  0.00000000000E+00  0.00000000000E+00  0.45593999997E+02  0.45594000000E+02  0.51100000000E-03 0. -1.
         11   -1    0    0    0    0 -0.00000000000E+00 -0.00000000000E+00 -0.45593999997E+02  0.45594000000E+02  0.51100000000E-03 0.  1.
    9900012    2    1    2    0    0 -0.19104525232E+02  0.78129386538E+01  0.35030566660E+02  0.50528862093E+02  0.30000006819E+02 0.  0.
        -12    1    1    2    0    0  0.19104525232E+02 -0.78129386538E+01 -0.35030566660E+02  0.40659137907E+02  0.00000000000E+00 0.  1.
         11    1    3    3    0    0 -0.16795162571E+01 -0.30936790586E+01  0.14639550620E+02  0.15056827939E+02  0.51100000000E-03 0. -1.
        -11    1    3    3    0    0 -0.78367070308E+01  0.92269115394E+01  0.22465087880E+02  0.25519209379E+02  0.51100000000E-03 0.  1.
        -12    1    3    3    0    0 -0.95883019443E+01  0.16797061731E+01 -0.20740718392E+01  0.99528247748E+01  0.00000000000E+00 0.  1.
</event>
<event>
 7    1  0.5373252E-013  0.5052885E+02  0.7816164E-02  0.1300439E+00
        -11   -1    0    0    0    0  0.00000000000E+00  0.00000000000E+00  0.45593999997E+02  0.45594000000E+02  0.51100000000E-03 0.  1.
         11   -1    0    0    0    0 -0.00000000000E+00 -0.00000000000E+00 -0.45593999997E+02  0.45594000000E+02  0.51100000000E-03 0. -1.
    9900012    2    1    2    0    0 -0.22678400176E+02  0.33727937115E+02  0.11327857404E+01  0.50528846294E+02  0.29999958795E+02 0.  0.
        -12    1    1    2    0    0  0.22678400176E+02 -0.33727937115E+02 -0.11327857404E+01  0.40659153706E+02  0.00000000000E+00 0.  1.
         11    1    3    3    0    0 -0.33094767522E+01  0.11179007160E+02 -0.50726922482E+01  0.12714363702E+02  0.51100000000E-03 0. -1.
        -11    1    3    3    0    0 -0.73484943054E+01  0.12519394619E+02 -0.80862413744E+01  0.16616946470E+02  0.51100000000E-03 0.  1.
        -12    1    3    3    0    0 -0.12020429118E+02  0.10029535336E+02  0.14291719363E+02  0.21197536121E+02  0.00000000000E+00 0.  1.
</event>
<event>
 7    1  0.5373252E-013  0.5052886E+02  0.7816164E-02  0.1300439E+00
        -11   -1    0    0    0    0  0.00000000000E+00  0.00000000000E+00  0.45593999997E+02  0.45594000000E+02  0.51100000000E-03 0. -1.
         11   -1    0    0    0    0 -0.00000000000E+00 -0.00000000000E+00 -0.45593999997E+02  0.45594000000E+02  0.51100000000E-03 0.  1.
    9900012    2    1    2    0    0 -0.98729301451E+00 -0.40636589705E+02 -0.92646686682E+00  0.50528861898E+02  0.30000006225E+02 0.  0.
        -12    1    1    2    0    0  0.98729301451E+00  0.40636589705E+02  0.92646686682E+00  0.40659138102E+02  0.00000000000E+00 0.  1.
         11    1    3    3    0    0 -0.22755593070E+01 -0.14672679984E+02  0.15556225533E+01  0.14929355976E+02  0.51100000000E-03 0. -1.
        -11    1    3    3    0    0  0.83634279489E+01 -0.13682802847E+02  0.80480164130E+01  0.17942591486E+02  0.51100000000E-03 0.  1.
        -12    1    3    3    0    0 -0.70751616564E+01 -0.12281106874E+02 -0.10530105833E+02  0.17656914435E+02  0.00000000000E+00 0.  1.
</event>
<event>
 7    1  0.5373252E-013  0.5052895E+02  0.7816164E-02  0.1300438E+00
        -11   -1    0    0    0    0  0.00000000000E+00  0.00000000000E+00  0.45593999997E+02  0.45594000000E+02  0.51100000000E-03 0.  1.
         11   -1    0    0    0    0 -0.00000000000E+00 -0.00000000000E+00 -0.45593999997E+02  0.45594000000E+02  0.51100000000E-03 0. -1.
    9900012    2    1    2    0    0  0.35987562958E+01 -0.78117101458E+01 -0.39738955732E+02  0.50528948548E+02  0.30000269606E+02 0.  0.
        -12    1    1    2    0    0 -0.35987562958E+01  0.78117101458E+01  0.39738955732E+02  0.40659051452E+02  0.00000000000E+00 0.  1.
         11    1    3    3    0    0  0.11498325464E+02 -0.14793397617E+01 -0.12375499528E+02  0.16957385513E+02  0.51100000000E-03 0. -1.
        -11    1    3    3    0    0 -0.21022782339E+01 -0.70496629513E+00  0.20796959732E+01  0.30400142849E+01  0.51100000000E-03 0.  1.
        -12    1    3    3    0    0 -0.57972909344E+01 -0.56274040890E+01 -0.29443152177E+02  0.30531548750E+02  0.00000000000E+00 0.  1.
</event>
<event>
 7    1  0.5373252E-013  0.5052886E+02  0.7816164E-02  0.1300439E+00
        -11   -1    0    0    0    0  0.00000000000E+00  0.00000000000E+00  0.45593999997E+02  0.45594000000E+02  0.51100000000E-03 0. -1.
         11   -1    0    0    0    0 -0.00000000000E+00 -0.00000000000E+00 -0.45593999997E+02  0.45594000000E+02  0.51100000000E-03 0.  1.
    9900012    2    1    2    0    0  0.26436732089E+02  0.42933157744E+01  0.30591380737E+02  0.50528856634E+02  0.29999990225E+02 0.  0.
        -12    1    1    2    0    0 -0.26436732089E+02 -0.42933157744E+01 -0.30591380737E+02  0.40659143366E+02  0.00000000000E+00 0.  1.
         11    1    3    3    0    0 -0.53092716229E+00 -0.40456862189E+01  0.10960286830E+02  0.11695184833E+02  0.51100000000E-03 0. -1.
        -11    1    3    3    0    0  0.92307051404E+01 -0.98608271118E+00 -0.18404343531E+01  0.94639038124E+01  0.51100000000E-03 0.  1.
         12    1    3    3    0    0  0.17736954111E+02  0.93250847045E+01  0.21471528260E+02  0.29369767989E+02  0.00000000000E+00 0. -1.
</event>
<event>
 7    1  0.5373252E-013  0.5052886E+02  0.7816164E-02  0.1300439E+00
        -11   -1    0    0    0    0  0.00000000000E+00  0.00000000000E+00  0.45593999997E+02  0.45594000000E+02  0.51100000000E-03 0. -1.
         11   -1    0    0    0    0 -0.00000000000E+00 -0.00000000000E+00 -0.45593999997E+02  0.45594000000E+02  0.51100000000E-03 0.  1.
    9900012    2    1    2    0    0 -0.61865046012E-01 -0.23205943821E+02  0.33386317646E+02  0.50528857586E+02  0.29999993117E+02 0.  0.
        -12    1    1    2    0    0  0.61865046012E-01  0.23205943821E+02 -0.33386317646E+02  0.40659142414E+02  0.00000000000E+00 0.  1.
         11    1    3    3    0    0 -0.57456491455E+01  0.23980338408E+01  0.78041378032E+01  0.99833670431E+01  0.51100000000E-03 0. -1.
        -11    1    3    3    0    0  0.11796090602E+00 -0.69806437615E+01  0.18641846777E+02  0.19906324463E+02  0.51100000000E-03 0.  1.
         12    1    3    3    0    0  0.55658231935E+01 -0.18623333900E+02  0.69403330656E+01  0.20639166079E+02  0.00000000000E+00 0. -1.
</event>
<event>
 7    1  0.5373252E-013  0.5052886E+02  0.7816164E-02  0.1300439E+00
        -11   -1    0    0    0    0  0.00000000000E+00  0.00000000000E+00  0.45593999997E+02  0.45594000000E+02  0.51100000000E-03 0.  1.
         11   -1    0    0    0    0 -0.00000000000E+00 -0.00000000000E+00 -0.45593999997E+02  0.45594000000E+02  0.51100000000E-03 0. -1.
    9900012    2    1    2    0    0 -0.35886605046E+01  0.34124029469E+02 -0.21813711146E+02  0.50528857542E+02  0.29999992986E+02 0.  0.
        -12    1    1    2    0    0  0.35886605046E+01 -0.34124029469E+02  0.21813711146E+02  0.40659142458E+02  0.00000000000E+00 0.  1.
         11    1    3    3    0    0 -0.75285891450E+01  0.41281228427E+01 -0.97649554624E+01  0.13002899991E+02  0.51100000000E-03 0. -1.
        -11    1    3    3    0    0 -0.68462520925E+01  0.18639852353E+02 -0.61167444087E+01  0.20778109295E+02  0.51100000000E-03 0.  1.
         12    1    3    3    0    0  0.10786180733E+02  0.11356054274E+02 -0.59320112746E+01  0.16747848257E+02  0.00000000000E+00 0. -1.
</event>
<event>
 7    1  0.5373252E-013  0.5052886E+02  0.7816164E-02  0.1300439E+00
        -11   -1    0    0    0    0  0.00000000000E+00  0.00000000000E+00  0.45593999997E+02  0.45594000000E+02  0.51100000000E-03 0.  1.
         11   -1    0    0    0    0 -0.00000000000E+00 -0.00000000000E+00 -0.45593999997E+02  0.45594000000E+02  0.51100000000E-03 0. -1.
    9900012    2    1    2    0    0  0.12098251664E+02  0.40283155126E+01 -0.38607908825E+02  0.50528860276E+02  0.30000001296E+02 0.  0.
        -12    1    1    2    0    0 -0.12098251664E+02 -0.40283155126E+01  0.38607908825E+02  0.40659139724E+02  0.00000000000E+00 0.  1.
         11    1    3    3    0    0  0.10252037997E+02 -0.14486628315E+01 -0.24819258611E+02  0.26892350313E+02  0.51100000000E-03 0. -1.
        -11    1    3    3    0    0  0.88813670658E+01 -0.14076619318E+01 -0.43116072559E+01  0.99724696270E+01  0.51100000000E-03 0.  1.
         12    1    3    3    0    0 -0.70351533992E+01  0.68846402758E+01 -0.94770429583E+01  0.13664040336E+02  0.00000000000E+00 0. -1.
</event>
<event>
 7    1  0.5373252E-013  0.5052885E+02  0.7816164E-02  0.1300439E+00
        -11   -1    0    0    0    0  0.00000000000E+00  0.00000000000E+00  0.45593999997E+02  0.45594000000E+02  0.51100000000E-03 0.  1.
         11   -1    0    0    0    0 -0.00000000000E+00 -0.00000000000E+00 -0.45593999997E+02  0.45594000000E+02  0.51100000000E-03 0. -1.
    9900012    2    1    2    0    0 -0.29199127183E+02  0.12906713640E+02 -0.25179235752E+02  0.50528853449E+02  0.29999980544E+02 0.  0.
        -12    1    1    2    0    0  0.29199127183E+02 -0.12906713640E+02  0.25179235752E+02  0.40659146551E+02  0.00000000000E+00 0.  1.
         11    1    3    3    0    0 -0.26664007593E+01  0.71983077103E+00  0.26757167486E+01  0.38454271190E+01  0.51100000000E-03 0. -1.
        -11    1    3    3    0    0 -0.63322085234E+01  0.75670290689E+01 -0.23529705137E+02  0.25514776460E+02  0.51100000000E-03 0.  1.
         12    1    3    3    0    0 -0.20200517900E+02  0.46198538003E+01 -0.43252473633E+01  0.21168649870E+02  0.00000000000E+00 0. -1.
</event>
<event>
 7    1  0.5516451E-013  0.5052886E+02  0.7816164E-02  0.1300439E+00
        -11   -1    0    0    0    0  0.00000000000E+00  0.00000000000E+00  0.45593999997E+02  0.45594000000E+02  0.51100000000E-03 0. -1.
         11   -1    0    0    0    0 -0.00000000000E+00 -0.00000000000E+00 -0.45593999997E+02  0.45594000000E+02  0.51100000000E-03 0.  1.
    9900012    2    1    2    0    0 -0.36952701207E+02  0.16937491981E+02 -0.88598886366E+00  0.50528859116E+02  0.29999997770E+02 0.  0.
        -12    1    1    2    0    0  0.36952701207E+02 -0.16937491981E+02  0.88598886366E+00  0.40659140884E+02  0.00000000000E+00 0.  1.
         11    1    3    3    0    0 -0.24462036370E+02  0.58675329532E+01 -0.77032008932E+01  0.26308904778E+02  0.51100000000E-03 0. -1.
        -11    1    3    3    0    0 -0.15636092807E+02  0.73696844335E+01  0.82539883063E+01  0.19155364004E+02  0.51100000000E-03 0.  1.
        -12    1    3    3    0    0  0.31454279698E+01  0.37002745947E+01 -0.14367762768E+01  0.50645903348E+01  0.00000000000E+00 0.  1.
</event>
<event>
 7    1  0.5373252E-013  0.5052886E+02  0.7816164E-02  0.1300439E+00
        -11   -1    0    0    0    0  0.00000000000E+00  0.00000000000E+00  0.45593999997E+02  0.45594000000E+02  0.51100000000E-03 0.  1.
         11   -1    0    0    0    0 -0.00000000000E+00 -0.00000000000E+00 -0.45593999997E+02  0.45594000000E+02  0.51100000000E-03 0. -1.
    9900012    2    1    2    0    0 -0.31059123738E+02  0.11700834606E+02  0.23485886135E+02  0.50528861477E+02  0.30000004947E+02 0.  0.
        -12    1    1    2    0    0  0.31059123738E+02 -0.11700834606E+02 -0.23485886135E+02  0.40659138523E+02  0.00000000000E+00 0.  1.
         11    1    3    3    0    0 -0.10340671100E+02  0.78639169836E+01  0.93614854903E+01  0.16012747421E+02  0.51100000000E-03 0.  1.
        -11    1    3    3    0    0 -0.17384251877E+02  0.94027376081E+01  0.89860472384E+00  0.19784619748E+02  0.51100000000E-03 0. -1.
        -12    1    3    3    0    0 -0.33342007617E+01 -0.55658199861E+01  0.13225795921E+02  0.14731494309E+02  0.00000000000E+00 0.  1.
</event>
<event>
 7    1  0.5373252E-013  0.5052886E+02  0.7816164E-02  0.1300439E+00
        -11   -1    0    0    0    0  0.00000000000E+00  0.00000000000E+00  0.45593999997E+02  0.45594000000E+02  0.51100000000E-03 0.  1.
         11   -1    0    0    0    0 -0.00000000000E+00 -0.00000000000E+00 -0.45593999997E+02  0.45594000000E+02  0.51100000000E-03 0. -1.
    9900012    2    1    2    0    0 -0.39460967464E+02  0.97561311893E+01 -0.90317554033E+00  0.50528858653E+02  0.29999996363E+02 0.  0.
        -12    1    1    2    0    0  0.39460967464E+02 -0.97561311893E+01  0.90317554033E+00  0.40659141347E+02  0.00000000000E+00 0.  1.
         11    1    3    3    0    0 -0.13676287476E+02 -0.72755359079E+01 -0.22784208349E+01  0.15657760492E+02  0.51100000000E-03 0. -1.
        -11    1    3    3    0    0 -0.20422422785E+02  0.48430857380E+01 -0.21436488258E+01  0.21098010864E+02  0.51100000000E-03 0.  1.
        -12    1    3    3    0    0 -0.53622572036E+01  0.12188581359E+02  0.35188941204E+01  0.13773087297E+02  0.00000000000E+00 0.  1.
</event>
<event>
 7    1  0.5373252E-013  0.5052882E+02  0.7816164E-02  0.1300439E+00
        -11   -1    0    0    0    0  0.00000000000E+00  0.00000000000E+00  0.45593999997E+02  0.45594000000E+02  0.51100000000E-03 0.  1.
         11   -1    0    0    0    0 -0.00000000000E+00 -0.00000000000E+00 -0.45593999997E+02  0.45594000000E+02  0.51100000000E-03 0. -1.
    9900012    2    1    2    0    0 -0.33847294117E+01  0.10697564837E+02 -0.39080365010E+02  0.50528816340E+02  0.29999867746E+02 0.  0.
        -12    1    1    2    0    0  0.33847294117E+01 -0.10697564837E+02  0.39080365010E+02  0.40659183660E+02  0.00000000000E+00 0.  1.
         11    1    3    3    0    0 -0.40081478570E+01  0.12991809064E+02 -0.54392144898E+01  0.14643681454E+02  0.51100000000E-03 0. -1.
        -11    1    3    3    0    0  0.15585642406E+01  0.39851547829E+01 -0.23745940250E+02  0.24128411878E+02  0.51100000000E-03 0.  1.
        -12    1    3    3    0    0 -0.93514579529E+00 -0.62793990101E+01 -0.98952102696E+01  0.11756723007E+02  0.00000000000E+00 0.  1.
</event>
<event>
 7    1  0.5373252E-013  0.5052888E+02  0.7816164E-02  0.1300439E+00
        -11   -1    0    0    0    0  0.00000000000E+00  0.00000000000E+00  0.45593999997E+02  0.45594000000E+02  0.51100000000E-03 0. -1.
         11   -1    0    0    0    0 -0.00000000000E+00 -0.00000000000E+00 -0.45593999997E+02  0.45594000000E+02  0.51100000000E-03 0.  1.
    9900012    2    1    2    0    0  0.31496590797E+01  0.39160931741E+02 -0.10472129155E+02  0.50528875363E+02  0.30000047154E+02 0.  0.
        -12    1    1    2    0    0 -0.31496590797E+01 -0.39160931741E+02  0.10472129155E+02  0.40659124637E+02  0.00000000000E+00 0.  1.
         11    1    3    3    0    0  0.10593732797E+02  0.27075764809E+02 -0.13332481774E+02  0.31985610594E+02  0.51100000000E-03 0. -1.
        -11    1    3    3    0    0  0.19419855825E+01  0.34416155238E+01  0.41355502498E+01  0.57200351000E+01  0.51100000000E-03 0.  1.
        -12    1    3    3    0    0 -0.93860593002E+01  0.86435514088E+01 -0.12751976309E+01  0.12823229669E+02  0.00000000000E+00 0.  1.
</event>
<event>
 7    1  0.5373252E-013  0.5052886E+02  0.7816164E-02  0.1300439E+00
        -11   -1    0    0    0    0  0.00000000000E+00  0.00000000000E+00  0.45593999997E+02  0.45594000000E+02  0.51100000000E-03 0.  1.
         11   -1    0    0    0    0 -0.00000000000E+00 -0.00000000000E+00 -0.45593999997E+02  0.45594000000E+02  0.51100000000E-03 0. -1.
    9900012    2    1    2    0    0  0.16487635878E+02 -0.28646488402E+02 -0.23679152575E+02  0.50528859560E+02  0.29999999120E+02 0.  0.
        -12    1    1    2    0    0 -0.16487635878E+02  0.28646488402E+02  0.23679152575E+02  0.40659140440E+02  0.00000000000E+00 0.  1.
         11    1    3    3    0    0  0.81316576705E+01 -0.21311399909E+02 -0.13105050898E+02  0.26306690819E+02  0.51100000000E-03 0. -1.
        -11    1    3    3    0    0 -0.53418584584E+01 -0.10534877044E+01  0.57742478762E+00  0.54752815251E+01  0.51100000000E-03 0.  1.
        -12    1    3    3    0    0  0.13697836666E+02 -0.62816007882E+01 -0.11151526465E+02  0.18746887216E+02  0.00000000000E+00 0.  1.
</event>
<event>
 7    1  0.5373252E-013  0.5052886E+02  0.7816164E-02  0.1300439E+00
        -11   -1    0    0    0    0  0.00000000000E+00  0.00000000000E+00  0.45593999997E+02  0.45594000000E+02  0.51100000000E-03 0.  1.
         11   -1    0    0    0    0 -0.00000000000E+00 -0.00000000000E+00 -0.45593999997E+02  0.45594000000E+02  0.51100000000E-03 0. -1.
    9900012    2    1    2    0    0  0.26415178080E+01  0.13213981784E+02 -0.38361165727E+02  0.50528856294E+02  0.29999989192E+02 0.  0.
        -12    1    1    2    0    0 -0.26415178080E+01 -0.13213981784E+02  0.38361165727E+02  0.40659143706E+02  0.00000000000E+00 0.  1.
         11    1    3    3    0    0  0.74448694581E+01  0.59137326939E+01 -0.34786369614E+02  0.36062304790E+02  0.51100000000E-03 0. -1.
        -11    1    3    3    0    0 -0.33905051540E+01 -0.22949057501E+01  0.99234672597E-01  0.40953590053E+01  0.51100000000E-03 0.  1.
        -12    1    3    3    0    0 -0.14128464962E+01  0.95951548401E+01 -0.36740307862E+01  0.10371192499E+02  0.00000000000E+00 0.  1.
</event>
<event>
 7    1  0.5373252E-013  0.5052885E+02  0.7816164E-02  0.1300439E+00
        -11   -1    0    0    0    0  0.00000000000E+00  0.00000000000E+00  0.45593999997E+02  0.45594000000E+02  0.51100000000E-03 0. -1.
         11   -1    0    0    0    0 -0.00000000000E+00 -0.00000000000E+00 -0.45593999997E+02  0.45594000000E+02  0.51100000000E-03 0.  1.
    9900012    2    1    2    0    0  0.27351987208E+01  0.33873966406E+02  0.22321289359E+02  0.50528845179E+02  0.29999955405E+02 0.  0.
        -12    1    1    2    0    0 -0.27351987208E+01 -0.33873966406E+02 -0.22321289359E+02  0.40659154821E+02  0.00000000000E+00 0.  1.
         11    1    3    3    0    0  0.70205149025E+01  0.46277756562E+01  0.70974619573E+00  0.84384641342E+01  0.51100000000E-03 0. -1.
        -11    1    3    3    0    0  0.27459487033E+01  0.11080281491E+01  0.10700347600E+02  0.11102495201E+02  0.51100000000E-03 0.  1.
         12    1    3    3    0    0 -0.70312648850E+01  0.28138162601E+02  0.10911195563E+02  0.30987885843E+02  0.00000000000E+00 0. -1.
</event>
<event>
 7    1  0.5373252E-013  0.5052886E+02  0.7816164E-02  0.1300439E+00
        -11   -1    0    0    0    0  0.00000000000E+00  0.00000000000E+00  0.45593999997E+02  0.45594000000E+02  0.51100000000E-03 0.  1.
         11   -1    0    0    0    0 -0.00000000000E+00 -0.00000000000E+00 -0.45593999997E+02  0.45594000000E+02  0.51100000000E-03 0. -1.
    9900012    2    1    2    0    0 -0.20786130991E+02  0.31452460960E+02 -0.15226460672E+02  0.50528860233E+02  0.30000001164E+02 0.  0.
        -12    1    1    2    0    0  0.20786130991E+02 -0.31452460960E+02  0.15226460672E+02  0.40659139767E+02  0.00000000000E+00 0.  1.
         11    1    3    3    0    0 -0.50824855125E+01  0.52474349550E+01 -0.13018524241E+01  0.74203808923E+01  0.51100000000E-03 0. -1.
        -11    1    3    3    0    0 -0.68211557876E+01 -0.26213595561E+01 -0.10440904228E+02  0.12744103482E+02  0.51100000000E-03 0.  1.
        -12    1    3    3    0    0 -0.88824896914E+01  0.28826385561E+02 -0.34837040199E+01  0.30364375859E+02  0.00000000000E+00 0.  1.
</event>
<event>
 7    1  0.5373252E-013  0.5052890E+02  0.7816164E-02  0.1300439E+00
        -11   -1    0    0    0    0  0.00000000000E+00  0.00000000000E+00  0.45593999997E+02  0.45594000000E+02  0.51100000000E-03 0.  1.
         11   -1    0    0    0    0 -0.00000000000E+00 -0.00000000000E+00 -0.45593999997E+02  0.45594000000E+02  0.51100000000E-03 0. -1.
    9900012    2    1    2    0    0 -0.25244696071E+01 -0.81810978040E+01 -0.39747446554E+02  0.50528895046E+02  0.30000106982E+02 0.  0.
        -12    1    1    2    0    0  0.25244696071E+01  0.81810978040E+01  0.39747446554E+02  0.40659104954E+02  0.00000000000E+00 0.  1.
         11    1    3    3    0    0 -0.29300848533E+00 -0.14517268203E+02 -0.11139709056E+02  0.18301094179E+02  0.51100000000E-03 0. -1.
        -11    1    3    3    0    0 -0.67065380939E+01  0.21816935113E+00 -0.91575901070E+01  0.11352828190E+02  0.51100000000E-03 0.  1.
        -12    1    3    3    0    0  0.44750769721E+01  0.61180010481E+01 -0.19450147391E+02  0.20874972677E+02  0.00000000000E+00 0.  1.
</event>
<event>
 7    1  0.5373252E-013  0.5052887E+02  0.7816164E-02  0.1300439E+00
        -11   -1    0    0    0    0  0.00000000000E+00  0.00000000000E+00  0.45593999997E+02  0.45594000000E+02  0.51100000000E-03 0. -1.
         11   -1    0    0    0    0 -0.00000000000E+00 -0.00000000000E+00 -0.45593999997E+02  0.45594000000E+02  0.51100000000E-03 0.  1.
    9900012    2    1    2    0    0 -0.26479892621E+02  0.81477244388E+01  0.29758944340E+02  0.50528869476E+02  0.30000029259E+02 0.  0.
        -12    1    1    2    0    0  0.26479892621E+02 -0.81477244388E+01 -0.29758944340E+02  0.40659130524E+02  0.00000000000E+00 0.  1.
         11    1    3    3    0    0 -0.60260756223E+00 -0.99108963374E+00  0.91532308175E+01  0.92264310107E+01  0.51100000000E-03 0. -1.
        -11    1    3    3    0    0  0.12800976163E+00 -0.26084010903E+01 -0.32073791847E+01  0.41361122135E+01  0.51100000000E-03 0.  1.
         12    1    3    3    0    0 -0.26005294821E+02  0.11747215163E+02  0.23813092707E+02  0.37166326252E+02  0.00000000000E+00 0. -1.
</event>
<event>
 7    1  0.5373252E-013  0.5052885E+02  0.7816164E-02  0.1300439E+00
        -11   -1    0    0    0    0  0.00000000000E+00  0.00000000000E+00  0.45593999997E+02  0.45594000000E+02  0.51100000000E-03 0.  1.
         11   -1    0    0    0    0 -0.00000000000E+00 -0.00000000000E+00 -0.45593999997E+02  0.45594000000E+02  0.51100000000E-03 0. -1.
    9900012    2    1    2    0    0  0.98562902604E+01  0.12673926236E+02 -0.37354944824E+02  0.50528846458E+02  0.29999959294E+02 0.  0.
        -12    1    1    2    0    0 -0.98562902604E+01 -0.12673926236E+02  0.37354944824E+02  0.40659153542E+02  0.00000000000E+00 0.  1.
         11    1    3    3    0    0 -0.32184841091E+01  0.14670521465E+01 -0.58479128184E+01  0.68343958441E+01  0.51100000000E-03 0. -1.
        -11    1    3    3    0    0  0.10424627592E+02 -0.75866631315E+00 -0.62657189787E+00  0.10470961160E+02  0.51100000000E-03 0.  1.
         12    1    3    3    0    0  0.26501467779E+01  0.11965540403E+02 -0.30880460108E+02  0.33223489455E+02  0.00000000000E+00 0. -1.
</event>
<event>
 7    1  0.5373252E-013  0.5052883E+02  0.7816164E-02  0.1300439E+00
        -11   -1    0    0    0    0  0.00000000000E+00  0.00000000000E+00  0.45593999997E+02  0.45594000000E+02  0.51100000000E-03 0. -1.
         11   -1    0    0    0    0 -0.00000000000E+00 -0.00000000000E+00 -0.45593999997E+02  0.45594000000E+02  0.51100000000E-03 0.  1.
    9900012    2    1    2    0    0  0.29558939181E+02  0.23647058283E+02  0.14840955046E+02  0.50528828862E+02  0.29999905809E+02 0.  0.
        -12    1    1    2    0    0 -0.29558939181E+02 -0.23647058283E+02 -0.14840955046E+02  0.40659171138E+02  0.00000000000E+00 0.  1.
         11    1    3    3    0    0  0.26784490823E+02  0.23036107113E+02  0.13085729325E+02  0.37673697612E+02  0.51100000000E-03 0. -1.
        -11    1    3    3    0    0  0.74185960829E+01  0.63278479273E-01  0.30212396010E+01  0.80104594747E+01  0.51100000000E-03 0.  1.
         12    1    3    3    0    0 -0.46441477251E+01  0.54767269167E+00 -0.12660138795E+01  0.48446717756E+01  0.00000000000E+00 0. -1.
</event>
<event>
 7    1  0.5373252E-013  0.5052890E+02  0.7816164E-02  0.1300439E+00
        -11   -1    0    0    0    0  0.00000000000E+00  0.00000000000E+00  0.45593999997E+02  0.45594000000E+02  0.51100000000E-03 0. -1.
         11   -1    0    0    0    0 -0.00000000000E+00 -0.00000000000E+00 -0.45593999997E+02  0.45594000000E+02  0.51100000000E-03 0.  1.
    9900012    2    1    2    0    0 -0.36329344229E+02 -0.16095750498E+02 -0.86178940276E+01  0.50528898514E+02  0.30000117522E+02 0.  0.
        -12    1    1    2    0    0  0.36329344229E+02  0.16095750498E+02  0.86178940276E+01  0.40659101486E+02  0.00000000000E+00 0.  1.
         11    1    3    3    0    0 -0.15007435322E+02 -0.43422969020E+00  0.74134142326E+01  0.16744264129E+02  0.51100000000E-03 0. -1.
        -11    1    3    3    0    0 -0.13926827048E+01 -0.61237786086E+01  0.33520184068E+00  0.62890849969E+01  0.51100000000E-03 0.  1.
        -12    1    3    3    0    0 -0.19929226202E+02 -0.95377421992E+01 -0.16366510101E+02  0.27495549388E+02  0.00000000000E+00 0.  1.
</event>
<event>
 7    1  0.5373252E-013  0.5052886E+02  0.7816164E-02  0.1300439E+00
        -11   -1    0    0    0    0  0.00000000000E+00  0.00000000000E+00  0.45593999997E+02  0.45594000000E+02  0.51100000000E-03 0.  1.
         11   -1    0    0    0    0 -0.00000000000E+00 -0.00000000000E+00 -0.45593999997E+02  0.45594000000E+02  0.51100000000E-03 0. -1.
    9900012    2    1    2    0    0 -0.18036394107E+02 -0.34641181107E+02 -0.11306752830E+02  0.50528860800E+02  0.30000002889E+02 0.  0.
        -12    1    1    2    0    0  0.18036394107E+02  0.34641181107E+02  0.11306752830E+02  0.40659139200E+02  0.00000000000E+00 0.  1.
         11    1    3    3    0    0 -0.12624086966E+01 -0.11931896152E+02  0.66434101687E+01  0.13714908692E+02  0.51100000000E-03 0. -1.
        -11    1    3    3    0    0 -0.87240933157E+01 -0.24306305310E+01 -0.85567629503E+00  0.90967000139E+01  0.51100000000E-03 0.  1.
        -12    1    3    3    0    0 -0.80498920948E+01 -0.20278654425E+02 -0.17094486704E+02  0.27717252095E+02  0.00000000000E+00 0.  1.
</event>
<event>
 7    1  0.5373252E-013  0.5052886E+02  0.7816164E-02  0.1300439E+00
        -11   -1    0    0    0    0  0.00000000000E+00  0.00000000000E+00  0.45593999997E+02  0.45594000000E+02  0.51100000000E-03 0.  1.
         11   -1    0    0    0    0 -0.00000000000E+00 -0.00000000000E+00 -0.45593999997E+02  0.45594000000E+02  0.51100000000E-03 0. -1.
    9900012    2    1    2    0    0  0.96007062085E+01 -0.36349194999E+02 -0.15483156256E+02  0.50528860013E+02  0.30000000497E+02 0.  0.
        -12    1    1    2    0    0 -0.96007062085E+01  0.36349194999E+02  0.15483156256E+02  0.40659139987E+02  0.00000000000E+00 0.  1.
         11    1    3    3    0    0  0.86459536458E+01 -0.39355670204E+02 -0.69089859239E+01  0.40882213473E+02  0.51100000000E-03 0. -1.
        -11    1    3    3    0    0 -0.63123455701E+00  0.14798699116E+00 -0.23498437915E+00  0.68961955822E+00  0.51100000000E-03 0.  1.
         12    1    3    3    0    0  0.15859871197E+01  0.28584882138E+01 -0.83391859527E+01  0.89570269825E+01  0.00000000000E+00 0. -1.
</event>
<event>
 7    1  0.5373252E-013  0.5052893E+02  0.7816164E-02  0.1300439E+00
        -11   -1    0    0    0    0  0.00000000000E+00  0.00000000000E+00  0.45593999997E+02  0.45594000000E+02  0.51100000000E-03 0.  1.
         11   -1    0    0    0    0 -0.00000000000E+00 -0.00000000000E+00 -0.45593999997E+02  0.45594000000E+02  0.51100000000E-03 0. -1.
    9900012    2    1    2    0    0 -0.28257196483E+02 -0.26851568853E+01 -0.29111527156E+02  0.50528926795E+02  0.30000203485E+02 0.  0.
        -12    1    1    2    0    0  0.28257196483E+02  0.26851568853E+01  0.29111527156E+02  0.40659073205E+02  0.00000000000E+00 0.  1.
         11    1    3    3    0    0  0.59088545163E+01 -0.28435847055E+00 -0.16796714835E+01  0.61495298998E+01  0.51100000000E-03 0. -1.
        -11    1    3    3    0    0 -0.53821252671E+01 -0.66144789644E+00 -0.15715551709E+01  0.56457569579E+01  0.51100000000E-03 0.  1.
         12    1    3    3    0    0 -0.28783925732E+02 -0.17393505183E+01 -0.25860300501E+02  0.38733639937E+02  0.00000000000E+00 0. -1.
</event>
<event>
 7    1  0.5373252E-013  0.5052886E+02  0.7816164E-02  0.1300439E+00
        -11   -1    0    0    0    0  0.00000000000E+00  0.00000000000E+00  0.45593999997E+02  0.45594000000E+02  0.51100000000E-03 0.  1.
         11   -1    0    0    0    0 -0.00000000000E+00 -0.00000000000E+00 -0.45593999997E+02  0.45594000000E+02  0.51100000000E-03 0. -1.
    9900012    2    1    2    0    0 -0.22361356366E+02 -0.12935075146E+02 -0.31397764933E+02  0.50528855021E+02  0.29999985323E+02 0.  0.
        -12    1    1    2    0    0  0.22361356366E+02  0.12935075146E+02  0.31397764933E+02  0.40659144979E+02  0.00000000000E+00 0.  1.
         11    1    3    3    0    0 -0.30516261229E+01 -0.72418010801E-02 -0.15955310387E+02  0.16244519207E+02  0.51100000000E-03 0.  1.
        -11    1    3    3    0    0 -0.10758739175E+02 -0.10409722433E+01  0.25307566088E+01  0.11101298173E+02  0.51100000000E-03 0. -1.
         12    1    3    3    0    0 -0.85509910686E+01 -0.11886861102E+02 -0.17973211155E+02  0.23183037642E+02  0.00000000000E+00 0. -1.
</event>
<event>
 7    1  0.5373252E-013  0.5052885E+02  0.7816164E-02  0.1300439E+00
        -11   -1    0    0    0    0  0.00000000000E+00  0.00000000000E+00  0.45593999997E+02  0.45594000000E+02  0.51100000000E-03 0.  1.
         11   -1    0    0    0    0 -0.00000000000E+00 -0.00000000000E+00 -0.45593999997E+02  0.45594000000E+02  0.51100000000E-03 0. -1.
    9900012    2    1    2    0    0  0.95768212955E+01  0.29049848617E+02 -0.26787255967E+02  0.50528852284E+02  0.29999977002E+02 0.  0.
        -12    1    1    2    0    0 -0.95768212955E+01 -0.29049848617E+02  0.26787255967E+02  0.40659147716E+02  0.00000000000E+00 0.  1.
         11    1    3    3    0    0  0.13983358627E+01  0.32674246952E+01 -0.91973002024E+00  0.36711457196E+01  0.51100000000E-03 0. -1.
        -11    1    3    3    0    0  0.13660281690E+02  0.11821844193E+02 -0.13490862490E+01  0.18115720520E+02  0.51100000000E-03 0.  1.
         12    1    3    3    0    0 -0.54817962575E+01  0.13960579728E+02 -0.24518439698E+02  0.28741986044E+02  0.00000000000E+00 0. -1.
</event>
<event>
 7    1  0.5373252E-013  0.5052885E+02  0.7816164E-02  0.1300439E+00
        -11   -1    0    0    0    0  0.00000000000E+00  0.00000000000E+00  0.45593999997E+02  0.45594000000E+02  0.51100000000E-03 0. -1.
         11   -1    0    0    0    0 -0.00000000000E+00 -0.00000000000E+00 -0.45593999997E+02  0.45594000000E+02  0.51100000000E-03 0.  1.
    9900012    2    1    2    0    0 -0.57047317630E+00 -0.40599395384E+02  0.21283719240E+01  0.50528852047E+02  0.29999976282E+02 0.  0.
        -12    1    1    2    0    0  0.57047317630E+00  0.40599395384E+02 -0.21283719240E+01  0.40659147953E+02  0.00000000000E+00 0.  1.
         11    1    3    3    0    0  0.29384511211E+01  0.27140940157E+00 -0.42335088226E+01  0.51604995172E+01  0.51100000000E-03 0. -1.
        -11    1    3    3    0    0 -0.59093715210E+01 -0.56022179918E+01  0.58290466269E+01  0.10014155134E+02  0.51100000000E-03 0.  1.
         12    1    3    3    0    0  0.24004472235E+01 -0.35268586794E+02  0.53283411973E+00  0.35354197396E+02  0.00000000000E+00 0. -1.
</event>
<event>
 7    1  0.5373252E-013  0.5052887E+02  0.7816164E-02  0.1300439E+00
        -11   -1    0    0    0    0  0.00000000000E+00  0.00000000000E+00  0.45593999997E+02  0.45594000000E+02  0.51100000000E-03 0.  1.
         11   -1    0    0    0    0 -0.00000000000E+00 -0.00000000000E+00 -0.45593999997E+02  0.45594000000E+02  0.51100000000E-03 0. -1.
    9900012    2    1    2    0    0  0.26046712543E+02  0.29105515688E+02 -0.11296137070E+02  0.50528868301E+02  0.30000025688E+02 0.  0.
        -12    1    1    2    0    0 -0.26046712543E+02 -0.29105515688E+02  0.11296137070E+02  0.40659131699E+02  0.00000000000E+00 0.  1.
         11    1    3    3    0    0  0.14525346609E+02  0.19335747909E+02  0.77324166462E-01  0.24183937244E+02  0.51100000000E-03 0. -1.
        -11    1    3    3    0    0  0.69163507831E+01  0.14831991187E+02 -0.10504546772E+02  0.19446577434E+02  0.51100000000E-03 0.  1.
         12    1    3    3    0    0  0.46050151508E+01 -0.50622234077E+01 -0.86891446431E+00  0.68983536235E+01  0.00000000000E+00 0. -1.
</event>
<event>
 7    1  0.5373252E-013  0.5052886E+02  0.7816164E-02  0.1300439E+00
        -11   -1    0    0    0    0  0.00000000000E+00  0.00000000000E+00  0.45593999997E+02  0.45594000000E+02  0.51100000000E-03 0. -1.
         11   -1    0    0    0    0 -0.00000000000E+00 -0.00000000000E+00 -0.45593999997E+02  0.45594000000E+02  0.51100000000E-03 0.  1.
    9900012    2    1    2    0    0  0.23356166370E+02 -0.29329931627E+02  0.15729284434E+02  0.50528858524E+02  0.29999995971E+02 0.  0.
        -12    1    1    2    0    0 -0.23356166370E+02  0.29329931627E+02 -0.15729284434E+02  0.40659141476E+02  0.00000000000E+00 0.  1.
         11    1    3    3    0    0  0.10208631425E+02 -0.55239294850E+01 -0.19468441914E+01  0.11769458573E+02  0.51100000000E-03 0. -1.
        -11    1    3    3    0    0  0.11777005597E+00 -0.16362901251E+02  0.11003734492E+01  0.16400281373E+02  0.51100000000E-03 0.  1.
         12    1    3    3    0    0  0.13029764889E+02 -0.74431008906E+01  0.16575755176E+02  0.22359118578E+02  0.00000000000E+00 0. -1.
</event>
<event>
 7    1  0.5373252E-013  0.5052886E+02  0.7816164E-02  0.1300439E+00
        -11   -1    0    0    0    0  0.00000000000E+00  0.00000000000E+00  0.45593999997E+02  0.45594000000E+02  0.51100000000E-03 0. -1.
         11   -1    0    0    0    0 -0.00000000000E+00 -0.00000000000E+00 -0.45593999997E+02  0.45594000000E+02  0.51100000000E-03 0.  1.
    9900012    2    1    2    0    0  0.19124040763E+02  0.52035545976E+01  0.35501551208E+02  0.50528855227E+02  0.29999985947E+02 0.  0.
        -12    1    1    2    0    0 -0.19124040763E+02 -0.52035545976E+01 -0.35501551208E+02  0.40659144773E+02  0.00000000000E+00 0.  1.
         11    1    3    3    0    0 -0.12072181588E+01  0.71458616184E+00 -0.16794094552E+01  0.21882471170E+01  0.51100000000E-03 0.  1.
        -11    1    3    3    0    0  0.10792028112E+02 -0.16711903332E+01  0.35146997633E+02  0.36804513185E+02  0.51100000000E-03 0. -1.
         12    1    3    3    0    0  0.95392308099E+01  0.61601587689E+01  0.20339630295E+01  0.11536094925E+02  0.00000000000E+00 0. -1.
</event>
<event>
 7    1  0.5373252E-013  0.5052887E+02  0.7816164E-02  0.1300439E+00
        -11   -1    0    0    0    0  0.00000000000E+00  0.00000000000E+00  0.45593999997E+02  0.45594000000E+02  0.51100000000E-03 0. -1.
         11   -1    0    0    0    0 -0.00000000000E+00 -0.00000000000E+00 -0.45593999997E+02  0.45594000000E+02  0.51100000000E-03 0.  1.
    9900012    2    1    2    0    0 -0.19688680565E+02  0.24260098368E+02  0.26018615084E+02  0.50528870077E+02  0.30000031086E+02 0.  0.
        -12    1    1    2    0    0  0.19688680565E+02 -0.24260098368E+02 -0.26018615084E+02  0.40659129923E+02  0.00000000000E+00 0.  1.
         11    1    3    3    0    0 -0.15910775219E+01  0.26872298615E+01  0.12743698159E+02  0.13120768843E+02  0.51100000000E-03 0. -1.
        -11    1    3    3    0    0  0.97869937909E+00  0.12532435038E+02  0.99626388208E+01  0.16039761625E+02  0.51100000000E-03 0.  1.
         12    1    3    3    0    0 -0.19076302422E+02  0.90404334683E+01  0.33122781042E+01  0.21368339609E+02  0.00000000000E+00 0. -1.
</event>
<event>
 7    1  0.5373252E-013  0.5052884E+02  0.7816164E-02  0.1300439E+00
        -11   -1    0    0    0    0  0.00000000000E+00  0.00000000000E+00  0.45593999997E+02  0.45594000000E+02  0.51100000000E-03 0.  1.
         11   -1    0    0    0    0 -0.00000000000E+00 -0.00000000000E+00 -0.45593999997E+02  0.45594000000E+02  0.51100000000E-03 0. -1.
    9900012    2    1    2    0    0  0.34863112370E+02  0.14450437530E+02 -0.15129958873E+02  0.50528838617E+02  0.29999935459E+02 0.  0.
        -12    1    1    2    0    0 -0.34863112370E+02 -0.14450437530E+02  0.15129958873E+02  0.40659161383E+02  0.00000000000E+00 0.  1.
         11    1    3    3    0    0  0.10787905700E+02  0.10574918188E+02  0.16419460731E+01  0.15195518788E+02  0.51100000000E-03 0.  1.
        -11    1    3    3    0    0  0.26200531972E+01  0.10481829885E+01  0.42902343764E+01  0.51351219653E+01  0.51100000000E-03 0. -1.
         12    1    3    3    0    0  0.21455153472E+02  0.28273363539E+01 -0.21062139322E+02  0.30198197863E+02  0.00000000000E+00 0. -1.
</event>
<event>
 7    1  0.5373252E-013  0.5052887E+02  0.7816164E-02  0.1300439E+00
        -11   -1    0    0    0    0  0.00000000000E+00  0.00000000000E+00  0.45593999997E+02  0.45594000000E+02  0.51100000000E-03 0.  1.
         11   -1    0    0    0    0 -0.00000000000E+00 -0.00000000000E+00 -0.45593999997E+02  0.45594000000E+02  0.51100000000E-03 0. -1.
    9900012    2    1    2    0    0  0.63190107597E+01  0.24869813689E+02 -0.31539301438E+02  0.50528867384E+02  0.30000022901E+02 0.  0.
        -12    1    1    2    0    0 -0.63190107597E+01 -0.24869813689E+02  0.31539301438E+02  0.40659132616E+02  0.00000000000E+00 0.  1.
         11    1    3    3    0    0  0.12415522385E+02  0.93579390101E+01 -0.21042482203E+02  0.26162994403E+02  0.51100000000E-03 0. -1.
        -11    1    3    3    0    0 -0.68004993875E+01  0.42953024649E+00 -0.42159122179E+01  0.80128150012E+01  0.51100000000E-03 0.  1.
         12    1    3    3    0    0  0.70398776216E+00  0.15082344432E+02 -0.62809070167E+01  0.16353057980E+02  0.00000000000E+00 0. -1.
</event>
<event>
 7    1  0.5373252E-013  0.5052886E+02  0.7816164E-02  0.1300439E+00
        -11   -1    0    0    0    0  0.00000000000E+00  0.00000000000E+00  0.45593999997E+02  0.45594000000E+02  0.51100000000E-03 0. -1.
         11   -1    0    0    0    0 -0.00000000000E+00 -0.00000000000E+00 -0.45593999997E+02  0.45594000000E+02  0.51100000000E-03 0.  1.
    9900012    2    1    2    0    0  0.38289674967E+02  0.12752760853E+01  0.13617652523E+02  0.50528855907E+02  0.29999988014E+02 0.  0.
        -12    1    1    2    0    0 -0.38289674967E+02 -0.12752760853E+01 -0.13617652523E+02  0.40659144093E+02  0.00000000000E+00 0.  1.
         11    1    3    3    0    0  0.18395358104E+02 -0.71356622748E+01  0.15797052608E+02  0.25275556319E+02  0.51100000000E-03 0. -1.
        -11    1    3    3    0    0  0.10215926192E+02 -0.25213960656E+01 -0.25006245225E+00  0.10525450944E+02  0.51100000000E-03 0.  1.
        -12    1    3    3    0    0  0.96783906715E+01  0.10932334426E+02 -0.19293376334E+01  0.14727848644E+02  0.00000000000E+00 0.  1.
</event>
<event>
 7    1  0.5373252E-013  0.5052886E+02  0.7816164E-02  0.1300439E+00
        -11   -1    0    0    0    0  0.00000000000E+00  0.00000000000E+00  0.45593999997E+02  0.45594000000E+02  0.51100000000E-03 0.  1.
         11   -1    0    0    0    0 -0.00000000000E+00 -0.00000000000E+00 -0.45593999997E+02  0.45594000000E+02  0.51100000000E-03 0. -1.
    9900012    2    1    2    0    0  0.24795130058E+02  0.51207946106E+01 -0.31814217081E+02  0.50528863013E+02  0.30000009614E+02 0.  0.
        -12    1    1    2    0    0 -0.24795130058E+02 -0.51207946106E+01  0.31814217081E+02  0.40659136987E+02  0.00000000000E+00 0.  1.
         11    1    3    3    0    0  0.43764521155E+01  0.93043116543E+01 -0.55192698969E+01  0.11669870991E+02  0.51100000000E-03 0. -1.
        -11    1    3    3    0    0  0.31315647568E+01 -0.15059533852E+00  0.31709418162E+01  0.44591758258E+01  0.51100000000E-03 0.  1.
         12    1    3    3    0    0  0.17287113186E+02 -0.40329217052E+01 -0.29465889000E+02  0.34399816197E+02  0.00000000000E+00 0. -1.
</event>
<event>
 7    1  0.5373252E-013  0.5052886E+02  0.7816164E-02  0.1300439E+00
        -11   -1    0    0    0    0  0.00000000000E+00  0.00000000000E+00  0.45593999997E+02  0.45594000000E+02  0.51100000000E-03 0.  1.
         11   -1    0    0    0    0 -0.00000000000E+00 -0.00000000000E+00 -0.45593999997E+02  0.45594000000E+02  0.51100000000E-03 0. -1.
    9900012    2    1    2    0    0 -0.33419383109E+02 -0.19740190956E+02 -0.12109298628E+02  0.50528863024E+02  0.30000009649E+02 0.  0.
        -12    1    1    2    0    0  0.33419383109E+02  0.19740190956E+02  0.12109298628E+02  0.40659136976E+02  0.00000000000E+00 0.  1.
         11    1    3    3    0    0 -0.15165091403E+02 -0.31808266299E+01 -0.67451838285E+00  0.15509759206E+02  0.51100000000E-03 0. -1.
        -11    1    3    3    0    0 -0.21261106857E+02 -0.19514386022E+02 -0.95192767796E+01  0.30388526737E+02  0.51100000000E-03 0.  1.
        -12    1    3    3    0    0  0.30068151511E+01  0.29550216963E+01 -0.19155034650E+01  0.46305770810E+01  0.00000000000E+00 0.  1.
</event>
<event>
 7    1  0.5373252E-013  0.5052887E+02  0.7816164E-02  0.1300439E+00
        -11   -1    0    0    0    0  0.00000000000E+00  0.00000000000E+00  0.45593999997E+02  0.45594000000E+02  0.51100000000E-03 0.  1.
         11   -1    0    0    0    0 -0.00000000000E+00 -0.00000000000E+00 -0.45593999997E+02  0.45594000000E+02  0.51100000000E-03 0. -1.
    9900012    2    1    2    0    0 -0.55468964245E+01  0.21802995619E+02 -0.33867776867E+02  0.50528868334E+02  0.30000025789E+02 0.  0.
        -12    1    1    2    0    0  0.55468964245E+01 -0.21802995619E+02  0.33867776867E+02  0.40659131666E+02  0.00000000000E+00 0.  1.
         11    1    3    3    0    0  0.55827406061E+00  0.14835040013E+02 -0.27614534802E+02  0.31352075126E+02  0.51100000000E-03 0. -1.
        -11    1    3    3    0    0  0.21409350198E+01 -0.26130858076E+01 -0.55737509122E+01  0.65175547324E+01  0.51100000000E-03 0.  1.
         12    1    3    3    0    0 -0.82461055049E+01  0.95810414137E+01 -0.67949115291E+00  0.12659238476E+02  0.00000000000E+00 0. -1.
</event>
<event>
 7    1  0.5373252E-013  0.5052887E+02  0.7816164E-02  0.1300439E+00
        -11   -1    0    0    0    0  0.00000000000E+00  0.00000000000E+00  0.45593999997E+02  0.45594000000E+02  0.51100000000E-03 0. -1.
         11   -1    0    0    0    0 -0.00000000000E+00 -0.00000000000E+00 -0.45593999997E+02  0.45594000000E+02  0.51100000000E-03 0.  1.
    9900012    2    1    2    0    0  0.26575984501E+02 -0.56896007433E+01  0.30240872925E+02  0.50528869364E+02  0.30000028919E+02 0.  0.
        -12    1    1    2    0    0 -0.26575984501E+02  0.56896007433E+01 -0.30240872925E+02  0.40659130636E+02  0.00000000000E+00 0.  1.
         11    1    3    3    0    0  0.14539088501E+02 -0.16378689233E+01  0.18035688503E+02  0.23223991240E+02  0.51100000000E-03 0. -1.
        -11    1    3    3    0    0  0.12770642615E+02  0.10900218884E+01 -0.12540405725E+01  0.12878279331E+02  0.51100000000E-03 0.  1.
        -12    1    3    3    0    0 -0.73374661504E+00 -0.51417537084E+01  0.13459224994E+02  0.14426598793E+02  0.00000000000E+00 0.  1.
</event>
<event>
 7    1  0.5373252E-013  0.5052886E+02  0.7816164E-02  0.1300439E+00
        -11   -1    0    0    0    0  0.00000000000E+00  0.00000000000E+00  0.45593999997E+02  0.45594000000E+02  0.51100000000E-03 0.  1.
         11   -1    0    0    0    0 -0.00000000000E+00 -0.00000000000E+00 -0.45593999997E+02  0.45594000000E+02  0.51100000000E-03 0. -1.
    9900012    2    1    2    0    0  0.13232262677E+02 -0.37190985197E+02  0.97418375628E+01  0.50528861365E+02  0.30000004605E+02 0.  0.
        -12    1    1    2    0    0 -0.13232262677E+02  0.37190985197E+02 -0.97418375628E+01  0.40659138635E+02  0.00000000000E+00 0.  1.
         11    1    3    3    0    0  0.21884858687E+01 -0.21116065569E+02  0.13581190365E+02  0.25201714774E+02  0.51100000000E-03 0. -1.
        -11    1    3    3    0    0  0.14593100557E+01 -0.61378504344E+01  0.57350544202E+01  0.85260567238E+01  0.51100000000E-03 0.  1.
         12    1    3    3    0    0  0.95844667524E+01 -0.99370691928E+01 -0.95744072226E+01  0.16801089867E+02  0.00000000000E+00 0. -1.
</event>
<event>
 7    1  0.5373252E-013  0.5052887E+02  0.7816164E-02  0.1300439E+00
        -11   -1    0    0    0    0  0.00000000000E+00  0.00000000000E+00  0.45593999997E+02  0.45594000000E+02  0.51100000000E-03 0.  1.
         11   -1    0    0    0    0 -0.00000000000E+00 -0.00000000000E+00 -0.45593999997E+02  0.45594000000E+02  0.51100000000E-03 0. -1.
    9900012    2    1    2    0    0 -0.33691764452E+02 -0.13446958176E+02 -0.18363266549E+02  0.50528865302E+02  0.30000016571E+02 0.  0.
        -12    1    1    2    0    0  0.33691764452E+02  0.13446958176E+02  0.18363266549E+02  0.40659134698E+02  0.00000000000E+00 0.  1.
         11    1    3    3    0    0  0.17313076159E+01  0.12878389918E+01 -0.39565663715E+00  0.21937410434E+01  0.51100000000E-03 0.  1.
        -11    1    3    3    0    0 -0.35740523344E+02 -0.16193140644E+02 -0.21326942278E+02  0.44659167927E+02  0.51100000000E-03 0. -1.
         12    1    3    3    0    0  0.31745127613E+00  0.14583434757E+01  0.33593323654E+01  0.36759563310E+01  0.00000000000E+00 0. -1.
</event>
<event>
 7    1  0.5373252E-013  0.5052886E+02  0.7816164E-02  0.1300439E+00
        -11   -1    0    0    0    0  0.00000000000E+00  0.00000000000E+00  0.45593999997E+02  0.45594000000E+02  0.51100000000E-03 0.  1.
         11   -1    0    0    0    0 -0.00000000000E+00 -0.00000000000E+00 -0.45593999997E+02  0.45594000000E+02  0.51100000000E-03 0. -1.
    9900012    2    1    2    0    0  0.20011100303E+02  0.33650454846E+02 -0.10971266813E+02  0.50528856599E+02  0.29999990117E+02 0.  0.
        -12    1    1    2    0    0 -0.20011100303E+02 -0.33650454846E+02  0.10971266813E+02  0.40659143401E+02  0.00000000000E+00 0.  1.
         11    1    3    3    0    0  0.87027092937E+01  0.20040764847E+02 -0.68103669623E+01  0.22885595975E+02  0.51100000000E-03 0. -1.
        -11    1    3    3    0    0 -0.47491150663E+01 -0.22220942889E+00 -0.43570721778E+01  0.64488409165E+01  0.51100000000E-03 0.  1.
         12    1    3    3    0    0  0.16057506076E+02  0.13831899428E+02  0.19617232696E+00  0.21194419707E+02  0.00000000000E+00 0. -1.
</event>
<event>
 7    1  0.5373252E-013  0.5052886E+02  0.7816164E-02  0.1300439E+00
        -11   -1    0    0    0    0  0.00000000000E+00  0.00000000000E+00  0.45593999997E+02  0.45594000000E+02  0.51100000000E-03 0.  1.
         11   -1    0    0    0    0 -0.00000000000E+00 -0.00000000000E+00 -0.45593999997E+02  0.45594000000E+02  0.51100000000E-03 0. -1.
    9900012    2    1    2    0    0  0.21289683514E+02 -0.32699839303E+02 -0.11429592247E+02  0.50528859656E+02  0.29999999410E+02 0.  0.
        -12    1    1    2    0    0 -0.21289683514E+02  0.32699839303E+02  0.11429592247E+02  0.40659140344E+02  0.00000000000E+00 0.  1.
         11    1    3    3    0    0  0.95481811357E+01 -0.15087204688E+02  0.32811388358E+01  0.18153715340E+02  0.51100000000E-03 0. -1.
        -11    1    3    3    0    0  0.86341247092E+01 -0.96777573581E+00  0.16345207026E+01  0.88406084382E+01  0.51100000000E-03 0.  1.
        -12    1    3    3    0    0  0.31073776693E+01 -0.16644858879E+02 -0.16345251785E+02  0.23534535878E+02  0.00000000000E+00 0.  1.
</event>
<event>
 7    1  0.8892649E-013  0.5052885E+02  0.7816164E-02  0.1300439E+00
        -11   -1    0    0    0    0  0.00000000000E+00  0.00000000000E+00  0.45593999997E+02  0.45594000000E+02  0.51100000000E-03 0. -1.
         11   -1    0    0    0    0 -0.00000000000E+00 -0.00000000000E+00 -0.45593999997E+02  0.45594000000E+02  0.51100000000E-03 0.  1.
    9900012    2    1    2    0    0  0.36384183455E+02  0.20503401183E+01  0.18032014014E+02  0.50528853063E+02  0.29999979370E+02 0.  0.
        -12    1    1    2    0    0 -0.36384183455E+02 -0.20503401183E+01 -0.18032014014E+02  0.40659146937E+02  0.00000000000E+00 0.  1.
         11    1    3    3    0    0  0.21950528697E+02  0.45426766654E+01  0.11026257584E+02  0.24980792180E+02  0.51100000000E-03 0. -1.
        -11    1    3    3    0    0  0.16465642245E+02  0.49026315115E+00 -0.12677672004E+01  0.16521651444E+02  0.51100000000E-03 0.  1.
        -12    1    3    3    0    0 -0.20319874870E+01 -0.29825996982E+01  0.82735236303E+01  0.90264094394E+01  0.00000000000E+00 0.  1.
</event>
<event>
 7    1  0.5373252E-013  0.5052887E+02  0.7816164E-02  0.1300439E+00
        -11   -1    0    0    0    0  0.00000000000E+00  0.00000000000E+00  0.45593999997E+02  0.45594000000E+02  0.51100000000E-03 0. -1.
         11   -1    0    0    0    0 -0.00000000000E+00 -0.00000000000E+00 -0.45593999997E+02  0.45594000000E+02  0.51100000000E-03 0.  1.
    9900012    2    1    2    0    0 -0.26442394626E+02  0.30629078995E+02  0.39779875770E+01  0.50528866969E+02  0.30000021640E+02 0.  0.
        -12    1    1    2    0    0  0.26442394626E+02 -0.30629078995E+02 -0.39779875770E+01  0.40659133031E+02  0.00000000000E+00 0.  1.
         11    1    3    3    0    0 -0.18799662116E+02  0.21148841253E+02  0.65174780709E+01  0.29037532655E+02  0.51100000000E-03 0. -1.
        -11    1    3    3    0    0 -0.52353276778E+01  0.33338117786E+01  0.73381581993E+01  0.96110105030E+01  0.51100000000E-03 0.  1.
        -12    1    3    3    0    0 -0.24074048319E+01  0.61464259635E+01 -0.98776486932E+01  0.11880323811E+02  0.00000000000E+00 0.  1.
</event>
<event>
 7    1  0.5373252E-013  0.5052885E+02  0.7816164E-02  0.1300439E+00
        -11   -1    0    0    0    0  0.00000000000E+00  0.00000000000E+00  0.45593999997E+02  0.45594000000E+02  0.51100000000E-03 0. -1.
         11   -1    0    0    0    0 -0.00000000000E+00 -0.00000000000E+00 -0.45593999997E+02  0.45594000000E+02  0.51100000000E-03 0.  1.
    9900012    2    1    2    0    0  0.28489008500E+02  0.25948187834E+02  0.12970507277E+02  0.50528854458E+02  0.29999983611E+02 0.  0.
        -12    1    1    2    0    0 -0.28489008500E+02 -0.25948187834E+02 -0.12970507277E+02  0.40659145542E+02  0.00000000000E+00 0.  1.
         11    1    3    3    0    0  0.12090914901E+02  0.35748199511E+01  0.11349108322E+02  0.16963838622E+02  0.51100000000E-03 0. -1.
        -11    1    3    3    0    0  0.36083787851E+01  0.38137902716E+00  0.67028034006E+01  0.76219040342E+01  0.51100000000E-03 0.  1.
        -12    1    3    3    0    0  0.12789714813E+02  0.21991988856E+02 -0.50814044447E+01  0.25943111802E+02  0.00000000000E+00 0.  1.
</event>
<event>
 7    1  0.5373252E-013  0.5052886E+02  0.7816164E-02  0.1300439E+00
        -11   -1    0    0    0    0  0.00000000000E+00  0.00000000000E+00  0.45593999997E+02  0.45594000000E+02  0.51100000000E-03 0. -1.
         11   -1    0    0    0    0 -0.00000000000E+00 -0.00000000000E+00 -0.45593999997E+02  0.45594000000E+02  0.51100000000E-03 0.  1.
    9900012    2    1    2    0    0 -0.40341269992E+02 -0.11632068747E+00  0.50728652005E+01  0.50528861342E+02  0.30000004536E+02 0.  0.
        -12    1    1    2    0    0  0.40341269992E+02  0.11632068747E+00 -0.50728652005E+01  0.40659138658E+02  0.00000000000E+00 0.  1.
         11    1    3    3    0    0 -0.13532816631E+02 -0.40003549560E+01 -0.65078625986E+01  0.15540020644E+02  0.51100000000E-03 0. -1.
        -11    1    3    3    0    0  0.13552036941E+01 -0.36129657004E+01  0.10351737600E+01  0.39952075264E+01  0.51100000000E-03 0.  1.
        -12    1    3    3    0    0 -0.28163657055E+02  0.74969999689E+01  0.10545554039E+02  0.30993633172E+02  0.00000000000E+00 0.  1.
</event>
<event>
 7    1  0.5373252E-013  0.5052885E+02  0.7816164E-02  0.1300439E+00
        -11   -1    0    0    0    0  0.00000000000E+00  0.00000000000E+00  0.45593999997E+02  0.45594000000E+02  0.51100000000E-03 0.  1.
         11   -1    0    0    0    0 -0.00000000000E+00 -0.00000000000E+00 -0.45593999997E+02  0.45594000000E+02  0.51100000000E-03 0. -1.
    9900012    2    1    2    0    0  0.60157663258E+01  0.26703888689E+02 -0.30064590411E+02  0.50528847129E+02  0.29999961334E+02 0.  0.
        -12    1    1    2    0    0 -0.60157663258E+01 -0.26703888689E+02  0.30064590411E+02  0.40659152871E+02  0.00000000000E+00 0.  1.
         11    1    3    3    0    0  0.73777151276E+01  0.14335249369E+02 -0.82984037123E+01  0.18132665535E+02  0.51100000000E-03 0. -1.
        -11    1    3    3    0    0  0.53001868419E+01 -0.19195011841E+01 -0.14643383513E+00  0.56389634228E+01  0.51100000000E-03 0.  1.
         12    1    3    3    0    0 -0.66621356437E+01  0.14288140504E+02 -0.21619752864E+02  0.26757218171E+02  0.00000000000E+00 0. -1.
</event>
<event>
 7    1  0.5373252E-013  0.5052886E+02  0.7816164E-02  0.1300439E+00
        -11   -1    0    0    0    0  0.00000000000E+00  0.00000000000E+00  0.45593999997E+02  0.45594000000E+02  0.51100000000E-03 0.  1.
         11   -1    0    0    0    0 -0.00000000000E+00 -0.00000000000E+00 -0.45593999997E+02  0.45594000000E+02  0.51100000000E-03 0. -1.
    9900012    2    1    2    0    0  0.27132493925E+02  0.28571372881E+02 -0.10033437352E+02  0.50528862774E+02  0.30000008887E+02 0.  0.
        -12    1    1    2    0    0 -0.27132493925E+02 -0.28571372881E+02  0.10033437352E+02  0.40659137226E+02  0.00000000000E+00 0.  1.
         11    1    3    3    0    0  0.40586051960E+01 -0.12769702992E+01  0.67597749984E+00  0.43081173525E+01  0.51100000000E-03 0. -1.
        -11    1    3    3    0    0  0.20005183977E+02  0.65433475921E+01 -0.19605024885E+01  0.21139213655E+02  0.51100000000E-03 0.  1.
         12    1    3    3    0    0  0.30687047519E+01  0.23304995588E+02 -0.87489123638E+01  0.25081531766E+02  0.00000000000E+00 0. -1.
</event>
<event>
 7    1  0.5373252E-013  0.5052886E+02  0.7816164E-02  0.1300439E+00
        -11   -1    0    0    0    0  0.00000000000E+00  0.00000000000E+00  0.45593999997E+02  0.45594000000E+02  0.51100000000E-03 0.  1.
         11   -1    0    0    0    0 -0.00000000000E+00 -0.00000000000E+00 -0.45593999997E+02  0.45594000000E+02  0.51100000000E-03 0. -1.
    9900012    2    1    2    0    0  0.40623641789E+02  0.14648748065E+01 -0.86006540919E+00  0.50528857819E+02  0.29999993826E+02 0.  0.
        -12    1    1    2    0    0 -0.40623641789E+02 -0.14648748065E+01  0.86006540919E+00  0.40659142181E+02  0.00000000000E+00 0.  1.
         11    1    3    3    0    0  0.13739326991E+02  0.65863229390E+01 -0.37254071254E+01  0.15685261060E+02  0.51100000000E-03 0. -1.
        -11    1    3    3    0    0  0.79115367564E+01 -0.31525272845E+01 -0.89911380624E+01  0.12384320976E+02  0.51100000000E-03 0.  1.
         12    1    3    3    0    0  0.18972778041E+02 -0.19689208480E+01  0.11856479779E+02  0.22459275782E+02  0.00000000000E+00 0. -1.
</event>
<event>
 7    1  0.5373252E-013  0.5052886E+02  0.7816164E-02  0.1300439E+00
        -11   -1    0    0    0    0  0.00000000000E+00  0.00000000000E+00  0.45593999997E+02  0.45594000000E+02  0.51100000000E-03 0.  1.
         11   -1    0    0    0    0 -0.00000000000E+00 -0.00000000000E+00 -0.45593999997E+02  0.45594000000E+02  0.51100000000E-03 0. -1.
    9900012    2    1    2    0    0  0.28535594149E+02 -0.26721290198E+02 -0.11173984257E+02  0.50528863173E+02  0.30000010102E+02 0.  0.
        -12    1    1    2    0    0 -0.28535594149E+02  0.26721290198E+02  0.11173984257E+02  0.40659136827E+02  0.00000000000E+00 0.  1.
         11    1    3    3    0    0  0.16390731923E+02 -0.88661737670E+00 -0.36470243727E+01  0.16814962693E+02  0.51100000000E-03 0. -1.
        -11    1    3    3    0    0 -0.32015303263E+01 -0.22199986156E+01 -0.35510742086E+01  0.52714626604E+01  0.51100000000E-03 0.  1.
         12    1    3    3    0    0  0.15346392552E+02 -0.23614674206E+02 -0.39758856759E+01  0.28442437820E+02  0.00000000000E+00 0. -1.
</event>
<event>
 7    1  0.5373252E-013  0.5052889E+02  0.7816164E-02  0.1300439E+00
        -11   -1    0    0    0    0  0.00000000000E+00  0.00000000000E+00  0.45593999997E+02  0.45594000000E+02  0.51100000000E-03 0.  1.
         11   -1    0    0    0    0 -0.00000000000E+00 -0.00000000000E+00 -0.45593999997E+02  0.45594000000E+02  0.51100000000E-03 0. -1.
    9900012    2    1    2    0    0  0.86718445162E+01 -0.33709523820E+02 -0.21014997691E+02  0.50528892638E+02  0.30000099663E+02 0.  0.
        -12    1    1    2    0    0 -0.86718445162E+01  0.33709523820E+02  0.21014997691E+02  0.40659107362E+02  0.00000000000E+00 0.  1.
         11    1    3    3    0    0  0.64628126305E+01 -0.18583887726E+02 -0.86055496283E+01  0.21475202322E+02  0.51100000000E-03 0. -1.
        -11    1    3    3    0    0  0.91840231137E+01 -0.50415123402E+01  0.14187005141E+01  0.10572409311E+02  0.51100000000E-03 0.  1.
         12    1    3    3    0    0 -0.69749912280E+01 -0.10084123754E+02 -0.13828148577E+02  0.18481281005E+02  0.00000000000E+00 0. -1.
</event>
<event>
 7    1  0.5373252E-013  0.5052886E+02  0.7816164E-02  0.1300439E+00
        -11   -1    0    0    0    0  0.00000000000E+00  0.00000000000E+00  0.45593999997E+02  0.45594000000E+02  0.51100000000E-03 0. -1.
         11   -1    0    0    0    0 -0.00000000000E+00 -0.00000000000E+00 -0.45593999997E+02  0.45594000000E+02  0.51100000000E-03 0.  1.
    9900012    2    1    2    0    0  0.39800154391E+02  0.56576287519E+01 -0.60913738710E+01  0.50528857261E+02  0.29999992129E+02 0.  0.
        -12    1    1    2    0    0 -0.39800154391E+02 -0.56576287519E+01  0.60913738710E+01  0.40659142739E+02  0.00000000000E+00 0.  1.
         11    1    3    3    0    0  0.10762479313E+02 -0.35790182350E+01 -0.66921363202E+00  0.11361697920E+02  0.51100000000E-03 0. -1.
        -11    1    3    3    0    0  0.26628263539E+02  0.96231795834E+01  0.47473184012E+01  0.28709006195E+02  0.51100000000E-03 0.  1.
        -12    1    3    3    0    0  0.24094115395E+01 -0.38653259653E+00 -0.10169478640E+02  0.10458153146E+02  0.00000000000E+00 0.  1.
</event>
<event>
 7    1  0.5373252E-013  0.5052886E+02  0.7816164E-02  0.1300439E+00
        -11   -1    0    0    0    0  0.00000000000E+00  0.00000000000E+00  0.45593999997E+02  0.45594000000E+02  0.51100000000E-03 0.  1.
         11   -1    0    0    0    0 -0.00000000000E+00 -0.00000000000E+00 -0.45593999997E+02  0.45594000000E+02  0.51100000000E-03 0. -1.
    9900012    2    1    2    0    0 -0.17259657887E+02  0.19355992255E+02 -0.31314779517E+02  0.50528860280E+02  0.30000001309E+02 0.  0.
        -12    1    1    2    0    0  0.17259657887E+02 -0.19355992255E+02  0.31314779517E+02  0.40659139720E+02  0.00000000000E+00 0.  1.
         11    1    3    3    0    0 -0.18142265597E+02  0.66942550587E+01 -0.32294818847E+02  0.37641867334E+02  0.51100000000E-03 0.  1.
        -11    1    3    3    0    0 -0.61423381299E+00  0.34566923581E+01  0.11278255173E-01  0.35108592531E+01  0.51100000000E-03 0. -1.
        -12    1    3    3    0    0  0.14968415234E+01  0.92050448379E+01  0.96876107462E+00  0.93761336933E+01  0.00000000000E+00 0.  1.
</event>
<event>
 7    1  0.5373252E-013  0.5052887E+02  0.7816164E-02  0.1300439E+00
        -11   -1    0    0    0    0  0.00000000000E+00  0.00000000000E+00  0.45593999997E+02  0.45594000000E+02  0.51100000000E-03 0.  1.
         11   -1    0    0    0    0 -0.00000000000E+00 -0.00000000000E+00 -0.45593999997E+02  0.45594000000E+02  0.51100000000E-03 0. -1.
    9900012    2    1    2    0    0  0.81115225098E+01 -0.28222863681E+02 -0.28121848536E+02  0.50528865763E+02  0.30000017974E+02 0.  0.
        -12    1    1    2    0    0 -0.81115225098E+01  0.28222863681E+02  0.28121848536E+02  0.40659134237E+02  0.00000000000E+00 0.  1.
         11    1    3    3    0    0 -0.20088872575E+01 -0.50870579093E+01 -0.67692801621E+01  0.87026973037E+01  0.51100000000E-03 0. -1.
        -11    1    3    3    0    0 -0.69552392861E+01 -0.11565108319E+02 -0.15145570835E+02  0.20285842357E+02  0.51100000000E-03 0.  1.
         12    1    3    3    0    0  0.17075649053E+02 -0.11570697453E+02 -0.62069975390E+01  0.21540326102E+02  0.00000000000E+00 0. -1.
</event>
<event>
 7    1  0.5373252E-013  0.5052894E+02  0.7816164E-02  0.1300439E+00
        -11   -1    0    0    0    0  0.00000000000E+00  0.00000000000E+00  0.45593999997E+02  0.45594000000E+02  0.51100000000E-03 0.  1.
         11   -1    0    0    0    0 -0.00000000000E+00 -0.00000000000E+00 -0.45593999997E+02  0.45594000000E+02  0.51100000000E-03 0. -1.
    9900012    2    1    2    0    0  0.16580557971E+02  0.13762537851E+02 -0.34479516789E+02  0.50528936696E+02  0.30000233580E+02 0.  0.
        -12    1    1    2    0    0 -0.16580557971E+02 -0.13762537851E+02  0.34479516789E+02  0.40659063304E+02  0.00000000000E+00 0.  1.
         11    1    3    3    0    0  0.50221660047E+01  0.10800454019E+02 -0.13665547211E+02  0.18127855340E+02  0.51100000000E-03 0. -1.
        -11    1    3    3    0    0  0.41082299795E+01  0.11389869324E+02 -0.52490579225E+01  0.13196942302E+02  0.51100000000E-03 0.  1.
        -12    1    3    3    0    0  0.74501619869E+01 -0.84277854924E+01 -0.15564911656E+02  0.19204139054E+02  0.00000000000E+00 0.  1.
</event>
<event>
 7    1  0.5373252E-013  0.5052888E+02  0.7816164E-02  0.1300439E+00
        -11   -1    0    0    0    0  0.00000000000E+00  0.00000000000E+00  0.45593999997E+02  0.45594000000E+02  0.51100000000E-03 0.  1.
         11   -1    0    0    0    0 -0.00000000000E+00 -0.00000000000E+00 -0.45593999997E+02  0.45594000000E+02  0.51100000000E-03 0. -1.
    9900012    2    1    2    0    0  0.34267336062E+02  0.34136682073E+01 -0.21616217714E+02  0.50528876550E+02  0.30000050763E+02 0.  0.
        -12    1    1    2    0    0 -0.34267336062E+02 -0.34136682073E+01  0.21616217714E+02  0.40659123450E+02  0.00000000000E+00 0.  1.
         11    1    3    3    0    0  0.18091853531E+01  0.66147160331E+01 -0.56682952115E+01  0.88970326911E+01  0.51100000000E-03 0. -1.
        -11    1    3    3    0    0 -0.15393284006E+01 -0.41697581565E+01 -0.18248144687E+01  0.48048270640E+01  0.51100000000E-03 0.  1.
         12    1    3    3    0    0  0.33997479110E+02  0.96871033080E+00 -0.14123108034E+02  0.36827016795E+02  0.00000000000E+00 0. -1.
</event>
<event>
 7    1  0.5373252E-013  0.5052886E+02  0.7816164E-02  0.1300439E+00
        -11   -1    0    0    0    0  0.00000000000E+00  0.00000000000E+00  0.45593999997E+02  0.45594000000E+02  0.51100000000E-03 0. -1.
         11   -1    0    0    0    0 -0.00000000000E+00 -0.00000000000E+00 -0.45593999997E+02  0.45594000000E+02  0.51100000000E-03 0.  1.
    9900012    2    1    2    0    0 -0.72482063722E+01  0.39829983431E+02 -0.37685098793E+01  0.50528859054E+02  0.29999997582E+02 0.  0.
        -12    1    1    2    0    0  0.72482063722E+01 -0.39829983431E+02  0.37685098793E+01  0.40659140946E+02  0.00000000000E+00 0.  1.
         11    1    3    3    0    0  0.24352691726E+01  0.30981700320E+02 -0.77036737787E+01  0.32017852530E+02  0.51100000000E-03 0. -1.
        -11    1    3    3    0    0  0.22903681914E+01 -0.58878060688E+00 -0.87957060883E+00  0.25231119222E+01  0.51100000000E-03 0.  1.
        -12    1    3    3    0    0 -0.11973843736E+02  0.94370637177E+01  0.48147345082E+01  0.15987894602E+02  0.00000000000E+00 0.  1.
</event>
<event>
 7    1  0.5373252E-013  0.5052886E+02  0.7816164E-02  0.1300439E+00
        -11   -1    0    0    0    0  0.00000000000E+00  0.00000000000E+00  0.45593999997E+02  0.45594000000E+02  0.51100000000E-03 0.  1.
         11   -1    0    0    0    0 -0.00000000000E+00 -0.00000000000E+00 -0.45593999997E+02  0.45594000000E+02  0.51100000000E-03 0. -1.
    9900012    2    1    2    0    0 -0.20409483853E+02  0.34336294656E+02 -0.75919325807E+01  0.50528860779E+02  0.30000002825E+02 0.  0.
        -12    1    1    2    0    0  0.20409483853E+02 -0.34336294656E+02  0.75919325807E+01  0.40659139221E+02  0.00000000000E+00 0.  1.
         11    1    3    3    0    0 -0.18840861420E+02  0.30084781078E+02 -0.56395098270E+01  0.35942679128E+02  0.51100000000E-03 0. -1.
        -11    1    3    3    0    0  0.81540379643E+00  0.68807417859E+01  0.37431328266E+01  0.78753117077E+01  0.51100000000E-03 0.  1.
        -12    1    3    3    0    0 -0.23840262292E+01 -0.26292282079E+01 -0.56955555802E+01  0.67108699435E+01  0.00000000000E+00 0.  1.
</event>
<event>
 7    1  0.5373252E-013  0.5052886E+02  0.7816164E-02  0.1300439E+00
        -11   -1    0    0    0    0  0.00000000000E+00  0.00000000000E+00  0.45593999997E+02  0.45594000000E+02  0.51100000000E-03 0.  1.
         11   -1    0    0    0    0 -0.00000000000E+00 -0.00000000000E+00 -0.45593999997E+02  0.45594000000E+02  0.51100000000E-03 0. -1.
    9900012    2    1    2    0    0  0.64175973766E+01 -0.32627260153E+02 -0.23397477937E+02  0.50528860375E+02  0.30000001597E+02 0.  0.
        -12    1    1    2    0    0 -0.64175973766E+01  0.32627260153E+02  0.23397477937E+02  0.40659139625E+02  0.00000000000E+00 0.  1.
         11    1    3    3    0    0 -0.17651576979E+01 -0.12922997604E+02 -0.23811613669E+02  0.27149817578E+02  0.51100000000E-03 0. -1.
        -11    1    3    3    0    0  0.50368470876E-01  0.26234842625E+00  0.17577795149E+01  0.17779630940E+01  0.51100000000E-03 0.  1.
        -12    1    3    3    0    0  0.81323866037E+01 -0.19966610976E+02 -0.13436437832E+01  0.21601079703E+02  0.00000000000E+00 0.  1.
</event>
<event>
 7    1  0.5373252E-013  0.5052888E+02  0.7816164E-02  0.1300439E+00
        -11   -1    0    0    0    0  0.00000000000E+00  0.00000000000E+00  0.45593999997E+02  0.45594000000E+02  0.51100000000E-03 0. -1.
         11   -1    0    0    0    0 -0.00000000000E+00 -0.00000000000E+00 -0.45593999997E+02  0.45594000000E+02  0.51100000000E-03 0.  1.
    9900012    2    1    2    0    0  0.31917406241E+02  0.25081635988E+02 -0.23141016874E+01  0.50528876158E+02  0.30000049570E+02 0.  0.
        -12    1    1    2    0    0 -0.31917406241E+02 -0.25081635988E+02  0.23141016874E+01  0.40659123842E+02  0.00000000000E+00 0.  1.
         11    1    3    3    0    0  0.11729963222E+02  0.67600975957E+01 -0.72136554090E+01  0.15340397039E+02  0.51100000000E-03 0. -1.
        -11    1    3    3    0    0  0.18983801173E+02  0.22994244609E+02  0.28773185720E+01  0.29956617875E+02  0.51100000000E-03 0.  1.
        -12    1    3    3    0    0  0.12036418460E+01 -0.46727062164E+01  0.20222351496E+01  0.52318612442E+01  0.00000000000E+00 0.  1.
</event>
<event>
 7    1  0.6637906E-013  0.5052885E+02  0.7816164E-02  0.1300439E+00
        -11   -1    0    0    0    0  0.00000000000E+00  0.00000000000E+00  0.45593999997E+02  0.45594000000E+02  0.51100000000E-03 0.  1.
         11   -1    0    0    0    0 -0.00000000000E+00 -0.00000000000E+00 -0.45593999997E+02  0.45594000000E+02  0.51100000000E-03 0. -1.
    9900012    2    1    2    0    0  0.16433917117E+02  0.31739668646E+02 -0.19382621365E+02  0.50528853322E+02  0.29999980157E+02 0.  0.
        -12    1    1    2    0    0 -0.16433917117E+02 -0.31739668646E+02  0.19382621365E+02  0.40659146678E+02  0.00000000000E+00 0.  1.
         11    1    3    3    0    0  0.98218044156E+01  0.14531702513E+02 -0.19160529412E+02  0.25976221964E+02  0.51100000000E-03 0. -1.
        -11    1    3    3    0    0  0.73477599244E+01  0.11195930628E+01 -0.33397976431E+01  0.81484546444E+01  0.51100000000E-03 0.  1.
        -12    1    3    3    0    0 -0.73564722294E+00  0.16088373071E+02  0.31177056893E+01  0.16404176714E+02  0.00000000000E+00 0.  1.
</event>
<event>
 7    1  0.5373252E-013  0.5052887E+02  0.7816164E-02  0.1300439E+00
        -11   -1    0    0    0    0  0.00000000000E+00  0.00000000000E+00  0.45593999997E+02  0.45594000000E+02  0.51100000000E-03 0.  1.
         11   -1    0    0    0    0 -0.00000000000E+00 -0.00000000000E+00 -0.45593999997E+02  0.45594000000E+02  0.51100000000E-03 0. -1.
    9900012    2    1    2    0    0  0.72478271407E+00 -0.17194568244E+02 -0.36837290442E+02  0.50528874896E+02  0.30000045735E+02 0.  0.
        -12    1    1    2    0    0 -0.72478271407E+00  0.17194568244E+02  0.36837290442E+02  0.40659125104E+02  0.00000000000E+00 0.  1.
         11    1    3    3    0    0  0.65618960453E+01 -0.92088992243E+01 -0.20998761693E+02  0.23849744182E+02  0.51100000000E-03 0. -1.
        -11    1    3    3    0    0 -0.51331156338E+01 -0.13375747425E+02 -0.61946216639E+01  0.15608742201E+02  0.51100000000E-03 0.  1.
        -12    1    3    3    0    0 -0.70399769750E+00  0.53900784055E+01 -0.96439070855E+01  0.11070388514E+02  0.00000000000E+00 0.  1.
</event>
<event>
 7    1  0.5373252E-013  0.5052888E+02  0.7816164E-02  0.1300439E+00
        -11   -1    0    0    0    0  0.00000000000E+00  0.00000000000E+00  0.45593999997E+02  0.45594000000E+02  0.51100000000E-03 0. -1.
         11   -1    0    0    0    0 -0.00000000000E+00 -0.00000000000E+00 -0.45593999997E+02  0.45594000000E+02  0.51100000000E-03 0.  1.
    9900012    2    1    2    0    0  0.30495127687E+02  0.21099264062E+02  0.16674309676E+02  0.50528876058E+02  0.30000049265E+02 0.  0.
        -12    1    1    2    0    0 -0.30495127687E+02 -0.21099264062E+02 -0.16674309676E+02  0.40659123942E+02  0.00000000000E+00 0.  1.
         11    1    3    3    0    0  0.50451294012E+01  0.24780384618E+01 -0.37415205991E+01  0.67522575445E+01  0.51100000000E-03 0. -1.
        -11    1    3    3    0    0  0.52111722303E+01  0.21851867790E+00 -0.44145533622E+01  0.68331799387E+01  0.51100000000E-03 0.  1.
         12    1    3    3    0    0  0.20238826055E+02  0.18402706922E+02  0.24830383637E+02  0.36943438575E+02  0.00000000000E+00 0. -1.
</event>
<event>
 7    1  0.5373252E-013  0.5052885E+02  0.7816164E-02  0.1300439E+00
        -11   -1    0    0    0    0  0.00000000000E+00  0.00000000000E+00  0.45593999997E+02  0.45594000000E+02  0.51100000000E-03 0.  1.
         11   -1    0    0    0    0 -0.00000000000E+00 -0.00000000000E+00 -0.45593999997E+02  0.45594000000E+02  0.51100000000E-03 0. -1.
    9900012    2    1    2    0    0  0.15670065224E+02  0.35440100884E+02 -0.12313182860E+02  0.50528853834E+02  0.29999981714E+02 0.  0.
        -12    1    1    2    0    0 -0.15670065224E+02 -0.35440100884E+02  0.12313182860E+02  0.40659146166E+02  0.00000000000E+00 0.  1.
         11    1    3    3    0    0  0.46670728469E+01  0.25216284287E+01 -0.54445506363E+01  0.76015334495E+01  0.51100000000E-03 0. -1.
        -11    1    3    3    0    0 -0.20607978179E+01 -0.30807301683E+01  0.98267236602E+00  0.38345053470E+01  0.51100000000E-03 0.  1.
        -12    1    3    3    0    0  0.13063790195E+02  0.35999202624E+02 -0.78513045901E+01  0.39092815038E+02  0.00000000000E+00 0.  1.
</event>
<event>
 7    1  0.5373252E-013  0.5052885E+02  0.7816164E-02  0.1300439E+00
        -11   -1    0    0    0    0  0.00000000000E+00  0.00000000000E+00  0.45593999997E+02  0.45594000000E+02  0.51100000000E-03 0.  1.
         11   -1    0    0    0    0 -0.00000000000E+00 -0.00000000000E+00 -0.45593999997E+02  0.45594000000E+02  0.51100000000E-03 0. -1.
    9900012    2    1    2    0    0 -0.93927902837E+01 -0.38981432732E+02 -0.67371893277E+01  0.50528851863E+02  0.29999975724E+02 0.  0.
        -12    1    1    2    0    0  0.93927902837E+01  0.38981432732E+02  0.67371893277E+01  0.40659148137E+02  0.00000000000E+00 0.  1.
         11    1    3    3    0    0  0.11516386537E+01 -0.65041784701E+01  0.70110920751E-01  0.66057191101E+01  0.51100000000E-03 0. -1.
        -11    1    3    3    0    0 -0.18078711256E+00 -0.24161720037E+02  0.65993881643E+01  0.25047421494E+02  0.51100000000E-03 0.  1.
        -12    1    3    3    0    0 -0.10363641825E+02 -0.83155342253E+01 -0.13406688413E+02  0.18875711259E+02  0.00000000000E+00 0.  1.
</event>
<event>
 7    1  0.5373252E-013  0.5052886E+02  0.7816164E-02  0.1300439E+00
        -11   -1    0    0    0    0  0.00000000000E+00  0.00000000000E+00  0.45593999997E+02  0.45594000000E+02  0.51100000000E-03 0. -1.
         11   -1    0    0    0    0 -0.00000000000E+00 -0.00000000000E+00 -0.45593999997E+02  0.45594000000E+02  0.51100000000E-03 0.  1.
    9900012    2    1    2    0    0  0.25112075830E+02 -0.85268024819E+01  0.30819517063E+02  0.50528863941E+02  0.30000012435E+02 0.  0.
        -12    1    1    2    0    0 -0.25112075830E+02  0.85268024819E+01 -0.30819517063E+02  0.40659136059E+02  0.00000000000E+00 0.  1.
         11    1    3    3    0    0  0.19646951706E+02  0.69127763199E+01  0.13627766129E+02  0.24889861343E+02  0.51100000000E-03 0. -1.
        -11    1    3    3    0    0 -0.30677999018E+00 -0.58869468652E+01  0.11914945051E+02  0.13293463551E+02  0.51100000000E-03 0.  1.
        -12    1    3    3    0    0  0.57719041142E+01 -0.95526319365E+01  0.52768058839E+01  0.12345539047E+02  0.00000000000E+00 0.  1.
</event>
<event>
 7    1  0.5373252E-013  0.5052885E+02  0.7816164E-02  0.1300439E+00
        -11   -1    0    0    0    0  0.00000000000E+00  0.00000000000E+00  0.45593999997E+02  0.45594000000E+02  0.51100000000E-03 0. -1.
         11   -1    0    0    0    0 -0.00000000000E+00 -0.00000000000E+00 -0.45593999997E+02  0.45594000000E+02  0.51100000000E-03 0.  1.
    9900012    2    1    2    0    0 -0.66526073854E+01  0.30343882675E+02  0.26232765250E+02  0.50528851294E+02  0.29999973994E+02 0.  0.
        -12    1    1    2    0    0  0.66526073854E+01 -0.30343882675E+02 -0.26232765250E+02  0.40659148706E+02  0.00000000000E+00 0.  1.
         11    1    3    3    0    0 -0.13928115671E+01  0.96828147739E+01  0.23739671975E+02  0.25676231261E+02  0.51100000000E-03 0. -1.
        -11    1    3    3    0    0  0.13746007244E+01  0.14216078319E+02  0.52249901952E+01  0.15208120618E+02  0.51100000000E-03 0.  1.
        -12    1    3    3    0    0 -0.66343965427E+01  0.64449895818E+01 -0.27318969200E+01  0.96444994156E+01  0.00000000000E+00 0.  1.
</event>
<event>
 7    1  0.5373252E-013  0.5052886E+02  0.7816164E-02  0.1300439E+00
        -11   -1    0    0    0    0  0.00000000000E+00  0.00000000000E+00  0.45593999997E+02  0.45594000000E+02  0.51100000000E-03 0. -1.
         11   -1    0    0    0    0 -0.00000000000E+00 -0.00000000000E+00 -0.45593999997E+02  0.45594000000E+02  0.51100000000E-03 0.  1.
    9900012    2    1    2    0    0 -0.80685001705E+01 -0.39437577556E+01  0.39654906294E+02  0.50528861871E+02  0.30000006143E+02 0.  0.
        -12    1    1    2    0    0  0.80685001705E+01  0.39437577556E+01 -0.39654906294E+02  0.40659138129E+02  0.00000000000E+00 0.  1.
         11    1    3    3    0    0 -0.57399424832E+01 -0.13169464113E+01  0.28877239178E+01  0.65589814185E+01  0.51100000000E-03 0. -1.
        -11    1    3    3    0    0 -0.75720339728E+01 -0.10600642308E+02  0.28528946666E+02  0.31362559110E+02  0.51100000000E-03 0.  1.
        -12    1    3    3    0    0  0.52434762856E+01  0.79738309641E+01  0.82382357102E+01  0.12607321342E+02  0.00000000000E+00 0.  1.
</event>
<event>
 7    1  0.5373252E-013  0.5052886E+02  0.7816164E-02  0.1300439E+00
        -11   -1    0    0    0    0  0.00000000000E+00  0.00000000000E+00  0.45593999997E+02  0.45594000000E+02  0.51100000000E-03 0.  1.
         11   -1    0    0    0    0 -0.00000000000E+00 -0.00000000000E+00 -0.45593999997E+02  0.45594000000E+02  0.51100000000E-03 0. -1.
    9900012    2    1    2    0    0 -0.13732424758E+02  0.12262952608E+02 -0.36251982313E+02  0.50528859354E+02  0.29999998493E+02 0.  0.
        -12    1    1    2    0    0  0.13732424758E+02 -0.12262952608E+02  0.36251982313E+02  0.40659140646E+02  0.00000000000E+00 0.  1.
         11    1    3    3    0    0 -0.12429152975E+02  0.39659807303E+01 -0.24458632598E+02  0.27720706261E+02  0.51100000000E-03 0. -1.
        -11    1    3    3    0    0 -0.18619319171E+01 -0.54525098294E+01 -0.35012824349E+01  0.67420792678E+01  0.51100000000E-03 0.  1.
         12    1    3    3    0    0  0.55866013436E+00  0.13749481707E+02 -0.82920672808E+01  0.16066073825E+02  0.00000000000E+00 0. -1.
</event>
<event>
 7    1  0.5373252E-013  0.5052885E+02  0.7816164E-02  0.1300439E+00
        -11   -1    0    0    0    0  0.00000000000E+00  0.00000000000E+00  0.45593999997E+02  0.45594000000E+02  0.51100000000E-03 0.  1.
         11   -1    0    0    0    0 -0.00000000000E+00 -0.00000000000E+00 -0.45593999997E+02  0.45594000000E+02  0.51100000000E-03 0. -1.
    9900012    2    1    2    0    0 -0.16088317623E+02  0.27388558476E+02 -0.25381079703E+02  0.50528852122E+02  0.29999976509E+02 0.  0.
        -12    1    1    2    0    0  0.16088317623E+02 -0.27388558476E+02  0.25381079703E+02  0.40659147878E+02  0.00000000000E+00 0.  1.
         11    1    3    3    0    0  0.75534401191E+00  0.13106345425E+01 -0.36304694439E+01  0.39330161612E+01  0.51100000000E-03 0. -1.
        -11    1    3    3    0    0 -0.20184944472E+02  0.28365665883E+02 -0.13379701405E+02  0.37296908643E+02  0.51100000000E-03 0.  1.
        -12    1    3    3    0    0  0.33412828378E+01 -0.22877419497E+01 -0.83709088535E+01  0.92989273179E+01  0.00000000000E+00 0.  1.
</event>
<event>
 7    1  0.5373252E-013  0.5052884E+02  0.7816164E-02  0.1300439E+00
        -11   -1    0    0    0    0  0.00000000000E+00  0.00000000000E+00  0.45593999997E+02  0.45594000000E+02  0.51100000000E-03 0.  1.
         11   -1    0    0    0    0 -0.00000000000E+00 -0.00000000000E+00 -0.45593999997E+02  0.45594000000E+02  0.51100000000E-03 0. -1.
    9900012    2    1    2    0    0 -0.25647124208E+01 -0.23502403120E+02 -0.33079090228E+02  0.50528844665E+02  0.29999953843E+02 0.  0.
        -12    1    1    2    0    0  0.25647124208E+01  0.23502403120E+02  0.33079090228E+02  0.40659155335E+02  0.00000000000E+00 0.  1.
         11    1    3    3    0    0 -0.56095564848E+01 -0.74158521091E+01 -0.30264071144E+01  0.97786055623E+01  0.51100000000E-03 0. -1.
        -11    1    3    3    0    0 -0.49453968087E+01  0.39946116941E+00  0.64311174622E+00  0.50030102738E+01  0.51100000000E-03 0.  1.
         12    1    3    3    0    0  0.79902408727E+01 -0.16486012181E+02 -0.30695794860E+02  0.35747228829E+02  0.00000000000E+00 0. -1.
</event>
<event>
 7    1  0.5373252E-013  0.5052886E+02  0.7816164E-02  0.1300439E+00
        -11   -1    0    0    0    0  0.00000000000E+00  0.00000000000E+00  0.45593999997E+02  0.45594000000E+02  0.51100000000E-03 0.  1.
         11   -1    0    0    0    0 -0.00000000000E+00 -0.00000000000E+00 -0.45593999997E+02  0.45594000000E+02  0.51100000000E-03 0. -1.
    9900012    2    1    2    0    0  0.29554324980E+02 -0.26385739043E+02 -0.91378703706E+01  0.50528855582E+02  0.29999987028E+02 0.  0.
        -12    1    1    2    0    0 -0.29554324980E+02  0.26385739043E+02  0.91378703706E+01  0.40659144418E+02  0.00000000000E+00 0.  1.
         11    1    3    3    0    0  0.19329640077E+02 -0.15889721096E+02 -0.95909574480E+01  0.26797475386E+02  0.51100000000E-03 0. -1.
        -11    1    3    3    0    0  0.92718078008E+01 -0.15766961074E+02  0.11637535564E+01  0.18328060563E+02  0.51100000000E-03 0.  1.
         12    1    3    3    0    0  0.95287710184E+00  0.52709431267E+01 -0.71066647903E+00  0.54033196334E+01  0.00000000000E+00 0. -1.
</event>
<event>
 7    1  0.5373252E-013  0.5052886E+02  0.7816164E-02  0.1300439E+00
        -11   -1    0    0    0    0  0.00000000000E+00  0.00000000000E+00  0.45593999997E+02  0.45594000000E+02  0.51100000000E-03 0.  1.
         11   -1    0    0    0    0 -0.00000000000E+00 -0.00000000000E+00 -0.45593999997E+02  0.45594000000E+02  0.51100000000E-03 0. -1.
    9900012    2    1    2    0    0  0.12144488788E+02 -0.29782019588E+02 -0.24873840967E+02  0.50528864949E+02  0.30000015500E+02 0.  0.
        -12    1    1    2    0    0 -0.12144488788E+02  0.29782019588E+02  0.24873840967E+02  0.40659135051E+02  0.00000000000E+00 0.  1.
         11    1    3    3    0    0  0.70316556537E+01 -0.55266977469E+01  0.22806404494E+01  0.92298369616E+01  0.51100000000E-03 0. -1.
        -11    1    3    3    0    0 -0.63218693785E+01 -0.31303087617E+01 -0.52956807445E+01  0.88209466720E+01  0.51100000000E-03 0.  1.
         12    1    3    3    0    0  0.11434702512E+02 -0.21125013079E+02 -0.21858800672E+02  0.32478081316E+02  0.00000000000E+00 0. -1.
</event>
<event>
 7    1  0.5373252E-013  0.5052886E+02  0.7816164E-02  0.1300439E+00
        -11   -1    0    0    0    0  0.00000000000E+00  0.00000000000E+00  0.45593999997E+02  0.45594000000E+02  0.51100000000E-03 0.  1.
         11   -1    0    0    0    0 -0.00000000000E+00 -0.00000000000E+00 -0.45593999997E+02  0.45594000000E+02  0.51100000000E-03 0. -1.
    9900012    2    1    2    0    0 -0.21583384166E+02 -0.14006818087E+02 -0.31482253069E+02  0.50528859782E+02  0.29999999793E+02 0.  0.
        -12    1    1    2    0    0  0.21583384166E+02  0.14006818087E+02  0.31482253069E+02  0.40659140218E+02  0.00000000000E+00 0.  1.
         11    1    3    3    0    0 -0.21907218378E+01 -0.10326738690E+01 -0.25882833341E+02  0.25995898513E+02  0.51100000000E-03 0. -1.
        -11    1    3    3    0    0 -0.60365309678E+01 -0.56656702558E+01 -0.40879476688E+01  0.92331382518E+01  0.51100000000E-03 0.  1.
        -12    1    3    3    0    0 -0.13356131360E+02 -0.73084739623E+01 -0.15114720596E+01  0.15299823017E+02  0.00000000000E+00 0.  1.
</event>
<event>
 7    1  0.6114496E-013  0.5052886E+02  0.7816164E-02  0.1300439E+00
        -11   -1    0    0    0    0  0.00000000000E+00  0.00000000000E+00  0.45593999997E+02  0.45594000000E+02  0.51100000000E-03 0. -1.
         11   -1    0    0    0    0 -0.00000000000E+00 -0.00000000000E+00 -0.45593999997E+02  0.45594000000E+02  0.51100000000E-03 0.  1.
    9900012    2    1    2    0    0  0.23755954688E+02 -0.10561240148E+02  0.31261488706E+02  0.50528857698E+02  0.29999993459E+02 0.  0.
        -12    1    1    2    0    0 -0.23755954688E+02  0.10561240148E+02 -0.31261488706E+02  0.40659142302E+02  0.00000000000E+00 0.  1.
         11    1    3    3    0    0  0.98585034733E+01  0.41829287943E+00  0.17465819168E+02  0.20060406255E+02  0.51100000000E-03 0.  1.
        -11    1    3    3    0    0  0.27144114337E+01 -0.11033638007E+02  0.15434400001E+02  0.19165852466E+02  0.51100000000E-03 0. -1.
        -12    1    3    3    0    0  0.11183039781E+02  0.54104979250E-01 -0.16387304626E+01  0.11302598977E+02  0.00000000000E+00 0.  1.
</event>
<event>
 7    1  0.6543726E-013  0.5052886E+02  0.7816164E-02  0.1300439E+00
        -11   -1    0    0    0    0  0.00000000000E+00  0.00000000000E+00  0.45593999997E+02  0.45594000000E+02  0.51100000000E-03 0. -1.
         11   -1    0    0    0    0 -0.00000000000E+00 -0.00000000000E+00 -0.45593999997E+02  0.45594000000E+02  0.51100000000E-03 0.  1.
    9900012    2    1    2    0    0 -0.32248236585E+02  0.55824196245E+01  0.24125780501E+02  0.50528862571E+02  0.30000008270E+02 0.  0.
        -12    1    1    2    0    0  0.32248236585E+02 -0.55824196245E+01 -0.24125780501E+02  0.40659137429E+02  0.00000000000E+00 0.  1.
         11    1    3    3    0    0 -0.19211940506E+02  0.25551521073E+01  0.20099206226E+02  0.27921417433E+02  0.51100000000E-03 0.  1.
        -11    1    3    3    0    0 -0.16467872092E+02 -0.15148321643E+01  0.33672944964E+01  0.16876735472E+02  0.51100000000E-03 0. -1.
        -12    1    3    3    0    0  0.34315760126E+01  0.45420996815E+01  0.65927977878E+00  0.57307096658E+01  0.00000000000E+00 0.  1.
</event>
<event>
 7    1  0.5698242E-013  0.5052885E+02  0.7816164E-02  0.1300439E+00
        -11   -1    0    0    0    0  0.00000000000E+00  0.00000000000E+00  0.45593999997E+02  0.45594000000E+02  0.51100000000E-03 0.  1.
         11   -1    0    0    0    0 -0.00000000000E+00 -0.00000000000E+00 -0.45593999997E+02  0.45594000000E+02  0.51100000000E-03 0. -1.
    9900012    2    1    2    0    0  0.84442172511E+01  0.37052459636E+02 -0.14456026957E+02  0.50528852377E+02  0.29999977285E+02 0.  0.
        -12    1    1    2    0    0 -0.84442172511E+01 -0.37052459636E+02  0.14456026957E+02  0.40659147623E+02  0.00000000000E+00 0.  1.
         11    1    3    3    0    0  0.60731395274E+01  0.17613580193E+02 -0.30190637760E+01  0.18874214614E+02  0.51100000000E-03 0. -1.
        -11    1    3    3    0    0  0.11061831098E+02  0.10982741810E+02 -0.11756923643E+02  0.19524599323E+02  0.51100000000E-03 0.  1.
        -12    1    3    3    0    0 -0.86907533741E+01  0.84561376322E+01  0.31996046216E+00  0.12130038440E+02  0.00000000000E+00 0.  1.
</event>
<event>
 7    1  0.5373252E-013  0.5052886E+02  0.7816164E-02  0.1300439E+00
        -11   -1    0    0    0    0  0.00000000000E+00  0.00000000000E+00  0.45593999997E+02  0.45594000000E+02  0.51100000000E-03 0.  1.
         11   -1    0    0    0    0 -0.00000000000E+00 -0.00000000000E+00 -0.45593999997E+02  0.45594000000E+02  0.51100000000E-03 0. -1.
    9900012    2    1    2    0    0 -0.11920139572E+02  0.19847578716E+02 -0.33423789275E+02  0.50528858374E+02  0.29999995513E+02 0.  0.
        -12    1    1    2    0    0  0.11920139572E+02 -0.19847578716E+02  0.33423789275E+02  0.40659141626E+02  0.00000000000E+00 0.  1.
         11    1    3    3    0    0 -0.49388206533E+01 -0.79683328514E+00 -0.15386794654E+02  0.16179627398E+02  0.51100000000E-03 0. -1.
        -11    1    3    3    0    0 -0.12827590688E+02  0.12193503254E+02 -0.63887079616E+01  0.18816062132E+02  0.51100000000E-03 0.  1.
         12    1    3    3    0    0  0.58462717695E+01  0.84509087465E+01 -0.11648286659E+02  0.15533168844E+02  0.00000000000E+00 0. -1.
</event>
<event>
 7    1  0.5373252E-013  0.5052885E+02  0.7816164E-02  0.1300439E+00
        -11   -1    0    0    0    0  0.00000000000E+00  0.00000000000E+00  0.45593999997E+02  0.45594000000E+02  0.51100000000E-03 0.  1.
         11   -1    0    0    0    0 -0.00000000000E+00 -0.00000000000E+00 -0.45593999997E+02  0.45594000000E+02  0.51100000000E-03 0. -1.
    9900012    2    1    2    0    0  0.98854974111E+01  0.28204997754E+02 -0.27566668944E+02  0.50528853500E+02  0.29999980700E+02 0.  0.
        -12    1    1    2    0    0 -0.98854974111E+01 -0.28204997754E+02  0.27566668944E+02  0.40659146500E+02  0.00000000000E+00 0.  1.
         11    1    3    3    0    0  0.52238243815E+01  0.62018362490E+00 -0.15458733620E+02  0.16329280887E+02  0.51100000000E-03 0. -1.
        -11    1    3    3    0    0  0.88719414375E+01  0.80273764913E+01 -0.40347473744E+01  0.12626531782E+02  0.51100000000E-03 0.  1.
        -12    1    3    3    0    0 -0.42102684078E+01  0.19557437638E+02 -0.80731879502E+01  0.21573040831E+02  0.00000000000E+00 0.  1.
</event>
<event>
 7    1  0.5373252E-013  0.5052886E+02  0.7816164E-02  0.1300439E+00
        -11   -1    0    0    0    0  0.00000000000E+00  0.00000000000E+00  0.45593999997E+02  0.45594000000E+02  0.51100000000E-03 0.  1.
         11   -1    0    0    0    0 -0.00000000000E+00 -0.00000000000E+00 -0.45593999997E+02  0.45594000000E+02  0.51100000000E-03 0. -1.
    9900012    2    1    2    0    0  0.19717385182E+02  0.12006144365E+02 -0.33470024525E+02  0.50528864217E+02  0.30000013273E+02 0.  0.
        -12    1    1    2    0    0 -0.19717385182E+02 -0.12006144365E+02  0.33470024525E+02  0.40659135783E+02  0.00000000000E+00 0.  1.
         11    1    3    3    0    0  0.92902843378E-01  0.21235092383E+01  0.44314721585E+01  0.49148619692E+01  0.51100000000E-03 0. -1.
        -11    1    3    3    0    0 -0.12548232609E+01  0.27673351762E+01 -0.71533272427E+01  0.77719248772E+01  0.51100000000E-03 0.  1.
         12    1    3    3    0    0  0.20879305600E+02  0.71152999503E+01 -0.30748169441E+02  0.37842077370E+02  0.00000000000E+00 0. -1.
</event>
<event>
 7    1  0.5373252E-013  0.5052885E+02  0.7816164E-02  0.1300439E+00
        -11   -1    0    0    0    0  0.00000000000E+00  0.00000000000E+00  0.45593999997E+02  0.45594000000E+02  0.51100000000E-03 0.  1.
         11   -1    0    0    0    0 -0.00000000000E+00 -0.00000000000E+00 -0.45593999997E+02  0.45594000000E+02  0.51100000000E-03 0. -1.
    9900012    2    1    2    0    0  0.12644801624E+02  0.29963257488E+02 -0.24402426548E+02  0.50528853073E+02  0.29999979401E+02 0.  0.
        -12    1    1    2    0    0 -0.12644801624E+02 -0.29963257488E+02  0.24402426548E+02  0.40659146927E+02  0.00000000000E+00 0.  1.
         11    1    3    3    0    0  0.37153958331E+00  0.15820365530E+02 -0.14795474728E+02  0.21663981164E+02  0.51100000000E-03 0. -1.
        -11    1    3    3    0    0  0.10214050987E+02  0.93188057615E+01 -0.15636839433E+02  0.20872894531E+02  0.51100000000E-03 0.  1.
        -12    1    3    3    0    0  0.20592110543E+01  0.48240861963E+01  0.60298876130E+01  0.79919773787E+01  0.00000000000E+00 0.  1.
</event>
<event>
 7    1  0.5373252E-013  0.5052883E+02  0.7816164E-02  0.1300439E+00
        -11   -1    0    0    0    0  0.00000000000E+00  0.00000000000E+00  0.45593999997E+02  0.45594000000E+02  0.51100000000E-03 0. -1.
         11   -1    0    0    0    0 -0.00000000000E+00 -0.00000000000E+00 -0.45593999997E+02  0.45594000000E+02  0.51100000000E-03 0.  1.
    9900012    2    1    2    0    0  0.19172332083E+02 -0.22091018066E+02  0.28241398166E+02  0.50528831697E+02  0.29999914427E+02 0.  0.
        -12    1    1    2    0    0 -0.19172332083E+02  0.22091018066E+02 -0.28241398166E+02  0.40659168303E+02  0.00000000000E+00 0.  1.
         11    1    3    3    0    0  0.10307734475E+02 -0.69643046220E+01  0.15914498521E+02  0.20199559211E+02  0.51100000000E-03 0. -1.
        -11    1    3    3    0    0 -0.42937372380E+00  0.22594731246E+01  0.10251055128E+02  0.10505889401E+02  0.51100000000E-03 0.  1.
         12    1    3    3    0    0  0.92939713316E+01 -0.17386186569E+02  0.20758445168E+01  0.19823383086E+02  0.00000000000E+00 0. -1.
</event>
<event>
 7    1  0.5373252E-013  0.5052886E+02  0.7816164E-02  0.1300439E+00
        -11   -1    0    0    0    0  0.00000000000E+00  0.00000000000E+00  0.45593999997E+02  0.45594000000E+02  0.51100000000E-03 0.  1.
         11   -1    0    0    0    0 -0.00000000000E+00 -0.00000000000E+00 -0.45593999997E+02  0.45594000000E+02  0.51100000000E-03 0. -1.
    9900012    2    1    2    0    0 -0.26328246553E+02 -0.10226601548E+01 -0.30966802800E+02  0.50528864790E+02  0.30000015017E+02 0.  0.
        -12    1    1    2    0    0  0.26328246553E+02  0.10226601548E+01  0.30966802800E+02  0.40659135210E+02  0.00000000000E+00 0.  1.
         11    1    3    3    0    0 -0.89607359297E+01  0.76760094991E+01 -0.27182242772E+02  0.29632587343E+02  0.51100000000E-03 0.  1.
        -11    1    3    3    0    0 -0.12257856117E+02 -0.30584849212E+01 -0.40911578597E+01  0.13279568498E+02  0.51100000000E-03 0. -1.
        -12    1    3    3    0    0 -0.51096545066E+01 -0.56401847327E+01  0.30659783230E+00  0.76167089499E+01  0.00000000000E+00 0.  1.
</event>
<event>
 7    1  0.5373252E-013  0.5052892E+02  0.7816164E-02  0.1300439E+00
        -11   -1    0    0    0    0  0.00000000000E+00  0.00000000000E+00  0.45593999997E+02  0.45594000000E+02  0.51100000000E-03 0.  1.
         11   -1    0    0    0    0 -0.00000000000E+00 -0.00000000000E+00 -0.45593999997E+02  0.45594000000E+02  0.51100000000E-03 0. -1.
    9900012    2    1    2    0    0  0.35737685715E+02  0.17033118504E+02 -0.92656230091E+01  0.50528916440E+02  0.30000172009E+02 0.  0.
        -12    1    1    2    0    0 -0.35737685715E+02 -0.17033118504E+02  0.92656230091E+01  0.40659083560E+02  0.00000000000E+00 0.  1.
         11    1    3    3    0    0 -0.11938299945E+01  0.98925047927E+00 -0.53219993186E-01  0.15513475418E+01  0.51100000000E-03 0. -1.
        -11    1    3    3    0    0  0.19349356318E+02  0.21219520171E+01  0.76543207827E+01  0.20916235254E+02  0.51100000000E-03 0.  1.
         12    1    3    3    0    0  0.17582159391E+02  0.13921916008E+02 -0.16866723799E+02  0.28061333644E+02  0.00000000000E+00 0. -1.
</event>
<event>
 7    1  0.5373252E-013  0.5052886E+02  0.7816164E-02  0.1300439E+00
        -11   -1    0    0    0    0  0.00000000000E+00  0.00000000000E+00  0.45593999997E+02  0.45594000000E+02  0.51100000000E-03 0.  1.
         11   -1    0    0    0    0 -0.00000000000E+00 -0.00000000000E+00 -0.45593999997E+02  0.45594000000E+02  0.51100000000E-03 0. -1.
    9900012    2    1    2    0    0  0.27731473962E+02  0.17871157893E+02 -0.23764521838E+02  0.50528862887E+02  0.30000009231E+02 0.  0.
        -12    1    1    2    0    0 -0.27731473962E+02 -0.17871157893E+02  0.23764521838E+02  0.40659137113E+02  0.00000000000E+00 0.  1.
         11    1    3    3    0    0  0.77094321593E+01  0.15954886764E+02 -0.92201664301E+01  0.19975115147E+02  0.51100000000E-03 0. -1.
        -11    1    3    3    0    0  0.23933555406E+01  0.78550529077E+01 -0.35551064743E+01  0.89481165187E+01  0.51100000000E-03 0.  1.
        -12    1    3    3    0    0  0.17628686262E+02 -0.59387817782E+01 -0.10989248934E+02  0.21605631221E+02  0.00000000000E+00 0.  1.
</event>
<event>
 7    1  0.5373252E-013  0.5052887E+02  0.7816164E-02  0.1300439E+00
        -11   -1    0    0    0    0  0.00000000000E+00  0.00000000000E+00  0.45593999997E+02  0.45594000000E+02  0.51100000000E-03 0.  1.
         11   -1    0    0    0    0 -0.00000000000E+00 -0.00000000000E+00 -0.45593999997E+02  0.45594000000E+02  0.51100000000E-03 0. -1.
    9900012    2    1    2    0    0  0.31466893728E+02 -0.22403204955E+02  0.12692366581E+02  0.50528866185E+02  0.30000019255E+02 0.  0.
        -12    1    1    2    0    0 -0.31466893728E+02  0.22403204955E+02 -0.12692366581E+02  0.40659133815E+02  0.00000000000E+00 0.  1.
         11    1    3    3    0    0  0.15462445046E+02 -0.24053706098E+02  0.56695598047E+01  0.29151533278E+02  0.51100000000E-03 0. -1.
        -11    1    3    3    0    0  0.12813811289E+02 -0.40099985243E+01  0.30748804089E+01  0.13774205520E+02  0.51100000000E-03 0.  1.
         12    1    3    3    0    0  0.31906373938E+01  0.56604996668E+01  0.39479263678E+01  0.76031273869E+01  0.00000000000E+00 0. -1.
</event>
<event>
 7    1  0.5373252E-013  0.5052886E+02  0.7816164E-02  0.1300439E+00
        -11   -1    0    0    0    0  0.00000000000E+00  0.00000000000E+00  0.45593999997E+02  0.45594000000E+02  0.51100000000E-03 0.  1.
         11   -1    0    0    0    0 -0.00000000000E+00 -0.00000000000E+00 -0.45593999997E+02  0.45594000000E+02  0.51100000000E-03 0. -1.
    9900012    2    1    2    0    0 -0.35281983447E+02  0.19033465738E+02  0.67877940386E+01  0.50528864226E+02  0.30000013303E+02 0.  0.
        -12    1    1    2    0    0  0.35281983447E+02 -0.19033465738E+02 -0.67877940386E+01  0.40659135774E+02  0.00000000000E+00 0.  1.
         11    1    3    3    0    0 -0.97109351387E+01  0.71627956726E+01 -0.65637296371E+01  0.13736464251E+02  0.51100000000E-03 0. -1.
        -11    1    3    3    0    0  0.10163939235E+01 -0.31412109337E+01  0.32480305349E+01  0.46314107305E+01  0.51100000000E-03 0.  1.
        -12    1    3    3    0    0 -0.26587442232E+02  0.15011880999E+02  0.10103493141E+02  0.32160989245E+02  0.00000000000E+00 0.  1.
</event>
<event>
 7    1  0.5373252E-013  0.5052886E+02  0.7816164E-02  0.1300439E+00
        -11   -1    0    0    0    0  0.00000000000E+00  0.00000000000E+00  0.45593999997E+02  0.45594000000E+02  0.51100000000E-03 0. -1.
         11   -1    0    0    0    0 -0.00000000000E+00 -0.00000000000E+00 -0.45593999997E+02  0.45594000000E+02  0.51100000000E-03 0.  1.
    9900012    2    1    2    0    0  0.35085729297E+02  0.21451354663E+01  0.20434175996E+02  0.50528861358E+02  0.30000004584E+02 0.  0.
        -12    1    1    2    0    0 -0.35085729297E+02 -0.21451354663E+01 -0.20434175996E+02  0.40659138642E+02  0.00000000000E+00 0.  1.
         11    1    3    3    0    0  0.31340046470E+02 -0.38228288254E+01  0.48786789942E+01  0.31947050599E+02  0.51100000000E-03 0. -1.
        -11    1    3    3    0    0  0.36383355984E+01  0.51568075679E+01  0.51541717006E+01  0.81483517596E+01  0.51100000000E-03 0.  1.
        -12    1    3    3    0    0  0.10734722816E+00  0.81115672380E+00  0.10401325302E+02  0.10433458999E+02  0.00000000000E+00 0.  1.
</event>
<event>
 7    1  0.5373252E-013  0.5052885E+02  0.7816164E-02  0.1300439E+00
        -11   -1    0    0    0    0  0.00000000000E+00  0.00000000000E+00  0.45593999997E+02  0.45594000000E+02  0.51100000000E-03 0. -1.
         11   -1    0    0    0    0 -0.00000000000E+00 -0.00000000000E+00 -0.45593999997E+02  0.45594000000E+02  0.51100000000E-03 0.  1.
    9900012    2    1    2    0    0 -0.33370719984E+02  0.16808799365E+02  0.16032035748E+02  0.50528845329E+02  0.29999955861E+02 0.  0.
        -12    1    1    2    0    0  0.33370719984E+02 -0.16808799365E+02 -0.16032035748E+02  0.40659154671E+02  0.00000000000E+00 0.  1.
         11    1    3    3    0    0 -0.59597963842E+01  0.51161834301E+01  0.41066376899E+01  0.88633503377E+01  0.51100000000E-03 0. -1.
        -11    1    3    3    0    0 -0.16828185378E+02  0.61794425044E+01 -0.70389907490E+01  0.19259302267E+02  0.51100000000E-03 0.  1.
        -12    1    3    3    0    0 -0.10582738222E+02  0.55131734308E+01  0.18964388807E+02  0.22406192724E+02  0.00000000000E+00 0.  1.
</event>
<event>
 7    1  0.5373252E-013  0.5052886E+02  0.7816164E-02  0.1300439E+00
        -11   -1    0    0    0    0  0.00000000000E+00  0.00000000000E+00  0.45593999997E+02  0.45594000000E+02  0.51100000000E-03 0.  1.
         11   -1    0    0    0    0 -0.00000000000E+00 -0.00000000000E+00 -0.45593999997E+02  0.45594000000E+02  0.51100000000E-03 0. -1.
    9900012    2    1    2    0    0 -0.17623104721E+02  0.16195850337E+02 -0.32867705477E+02  0.50528862632E+02  0.30000008458E+02 0.  0.
        -12    1    1    2    0    0  0.17623104721E+02 -0.16195850337E+02  0.32867705477E+02  0.40659137368E+02  0.00000000000E+00 0.  1.
         11    1    3    3    0    0 -0.15163927649E+01  0.43342459360E+01 -0.13872906960E+02  0.14613099693E+02  0.51100000000E-03 0. -1.
        -11    1    3    3    0    0 -0.39201865287E+01  0.16860149726E+02 -0.10826266683E+02  0.20416673621E+02  0.51100000000E-03 0.  1.
         12    1    3    3    0    0 -0.12186525428E+02 -0.49985453256E+01 -0.81685318344E+01  0.15499089318E+02  0.00000000000E+00 0. -1.
</event>
<event>
 7    1  0.5373252E-013  0.5052886E+02  0.7816164E-02  0.1300439E+00
        -11   -1    0    0    0    0  0.00000000000E+00  0.00000000000E+00  0.45593999997E+02  0.45594000000E+02  0.51100000000E-03 0.  1.
         11   -1    0    0    0    0 -0.00000000000E+00 -0.00000000000E+00 -0.45593999997E+02  0.45594000000E+02  0.51100000000E-03 0. -1.
    9900012    2    1    2    0    0  0.20914136631E+02  0.73843369522E+01 -0.34076916144E+02  0.50528858874E+02  0.29999997033E+02 0.  0.
        -12    1    1    2    0    0 -0.20914136631E+02 -0.73843369522E+01  0.34076916144E+02  0.40659141126E+02  0.00000000000E+00 0.  1.
         11    1    3    3    0    0  0.47175546129E+01 -0.44979488724E+00 -0.22214416508E+02  0.22714267279E+02  0.51100000000E-03 0. -1.
        -11    1    3    3    0    0  0.51272854802E+01 -0.54957017727E+01 -0.56686822654E+01  0.94141251987E+01  0.51100000000E-03 0.  1.
         12    1    3    3    0    0  0.11069296538E+02  0.13329833612E+02 -0.61938173700E+01  0.18400466396E+02  0.00000000000E+00 0. -1.
</event>
<event>
 7    1  0.5373252E-013  0.5052886E+02  0.7816164E-02  0.1300439E+00
        -11   -1    0    0    0    0  0.00000000000E+00  0.00000000000E+00  0.45593999997E+02  0.45594000000E+02  0.51100000000E-03 0.  1.
         11   -1    0    0    0    0 -0.00000000000E+00 -0.00000000000E+00 -0.45593999997E+02  0.45594000000E+02  0.51100000000E-03 0. -1.
    9900012    2    1    2    0    0 -0.13717060654E+02 -0.26617959690E+02  0.27504405454E+02  0.50528857726E+02  0.29999993544E+02 0.  0.
        -12    1    1    2    0    0  0.13717060654E+02  0.26617959690E+02 -0.27504405454E+02  0.40659142274E+02  0.00000000000E+00 0.  1.
         11    1    3    3    0    0 -0.64559456291E+01 -0.96404721381E+01  0.18449899418E+02  0.21794878430E+02  0.51100000000E-03 0. -1.
        -11    1    3    3    0    0 -0.13293771730E+02 -0.14335342438E+02  0.29837740603E+01  0.19776989597E+02  0.51100000000E-03 0.  1.
        -12    1    3    3    0    0  0.60326567053E+01 -0.26421451146E+01  0.60707319763E+01  0.89569896985E+01  0.00000000000E+00 0.  1.
</event>
<event>
 7    1  0.5373252E-013  0.5052886E+02  0.7816164E-02  0.1300439E+00
        -11   -1    0    0    0    0  0.00000000000E+00  0.00000000000E+00  0.45593999997E+02  0.45594000000E+02  0.51100000000E-03 0. -1.
         11   -1    0    0    0    0 -0.00000000000E+00 -0.00000000000E+00 -0.45593999997E+02  0.45594000000E+02  0.51100000000E-03 0.  1.
    9900012    2    1    2    0    0  0.24267106797E+02  0.20100603686E+02  0.25695116194E+02  0.50528859121E+02  0.29999997784E+02 0.  0.
        -12    1    1    2    0    0 -0.24267106797E+02 -0.20100603686E+02 -0.25695116194E+02  0.40659140879E+02  0.00000000000E+00 0.  1.
         11    1    3    3    0    0  0.65352600703E+01  0.12544596732E+02  0.98283810284E+00  0.14178945742E+02  0.51100000000E-03 0. -1.
        -11    1    3    3    0    0  0.12503772696E+02  0.59775417937E+01  0.32924263652E+01  0.14244837983E+02  0.51100000000E-03 0.  1.
         12    1    3    3    0    0  0.52280740307E+01  0.15784651605E+01  0.21419851726E+02  0.22105075396E+02  0.00000000000E+00 0. -1.
</event>
<event>
 7    1  0.5373252E-013  0.5052886E+02  0.7816164E-02  0.1300439E+00
        -11   -1    0    0    0    0  0.00000000000E+00  0.00000000000E+00  0.45593999997E+02  0.45594000000E+02  0.51100000000E-03 0.  1.
         11   -1    0    0    0    0 -0.00000000000E+00 -0.00000000000E+00 -0.45593999997E+02  0.45594000000E+02  0.51100000000E-03 0. -1.
    9900012    2    1    2    0    0  0.33500467077E+01 -0.37840102111E+02  0.14493780790E+02  0.50528858072E+02  0.29999994596E+02 0.  0.
        -12    1    1    2    0    0 -0.33500467077E+01  0.37840102111E+02 -0.14493780790E+02  0.40659141928E+02  0.00000000000E+00 0.  1.
         11    1    3    3    0    0  0.42556701658E+01 -0.11093641550E+02  0.27611563545E+01  0.12198507944E+02  0.51100000000E-03 0. -1.
        -11    1    3    3    0    0  0.90356131033E+01 -0.24006821411E+01  0.68344675716E+01  0.11580825797E+02  0.51100000000E-03 0.  1.
         12    1    3    3    0    0 -0.99412365614E+01 -0.24345778420E+02  0.48981568638E+01  0.26749524331E+02  0.00000000000E+00 0. -1.
</event>
<event>
 7    1  0.5373252E-013  0.5052886E+02  0.7816164E-02  0.1300439E+00
        -11   -1    0    0    0    0  0.00000000000E+00  0.00000000000E+00  0.45593999997E+02  0.45594000000E+02  0.51100000000E-03 0. -1.
         11   -1    0    0    0    0 -0.00000000000E+00 -0.00000000000E+00 -0.45593999997E+02  0.45594000000E+02  0.51100000000E-03 0.  1.
    9900012    2    1    2    0    0 -0.32996104635E+02  0.14980140762E+02  0.18439575136E+02  0.50528862411E+02  0.30000007784E+02 0.  0.
        -12    1    1    2    0    0  0.32996104635E+02 -0.14980140762E+02 -0.18439575136E+02  0.40659137589E+02  0.00000000000E+00 0.  1.
         11    1    3    3    0    0 -0.14645792679E+02  0.43894313838E+01  0.14676368441E+00  0.15290123966E+02  0.51100000000E-03 0. -1.
        -11    1    3    3    0    0 -0.21795745034E+02  0.32872644070E+01  0.13526742309E+02  0.25861812903E+02  0.51100000000E-03 0.  1.
         12    1    3    3    0    0  0.34454330780E+01  0.73034449712E+01  0.47660691425E+01  0.93769255417E+01  0.00000000000E+00 0. -1.
</event>
<event>
 7    1  0.5373252E-013  0.5052886E+02  0.7816164E-02  0.1300439E+00
        -11   -1    0    0    0    0  0.00000000000E+00  0.00000000000E+00  0.45593999997E+02  0.45594000000E+02  0.51100000000E-03 0.  1.
         11   -1    0    0    0    0 -0.00000000000E+00 -0.00000000000E+00 -0.45593999997E+02  0.45594000000E+02  0.51100000000E-03 0. -1.
    9900012    2    1    2    0    0 -0.13436536538E+02  0.11345047602E+02 -0.36659443967E+02  0.50528862636E+02  0.30000008469E+02 0.  0.
        -12    1    1    2    0    0  0.13436536538E+02 -0.11345047602E+02  0.36659443967E+02  0.40659137364E+02  0.00000000000E+00 0.  1.
         11    1    3    3    0    0 -0.62662455425E+01  0.92349218664E+00 -0.26209193849E+01  0.68547713092E+01  0.51100000000E-03 0. -1.
        -11    1    3    3    0    0 -0.60956465510E+01  0.10434649870E+02 -0.27841217301E+01  0.12401216023E+02  0.51100000000E-03 0.  1.
         12    1    3    3    0    0 -0.10746444444E+01 -0.13094454941E-01 -0.31254402852E+02  0.31272875304E+02  0.00000000000E+00 0. -1.
</event>
<event>
 7    1  0.5373252E-013  0.5052888E+02  0.7816164E-02  0.1300439E+00
        -11   -1    0    0    0    0  0.00000000000E+00  0.00000000000E+00  0.45593999997E+02  0.45594000000E+02  0.51100000000E-03 0.  1.
         11   -1    0    0    0    0 -0.00000000000E+00 -0.00000000000E+00 -0.45593999997E+02  0.45594000000E+02  0.51100000000E-03 0. -1.
    9900012    2    1    2    0    0  0.20157293229E+02 -0.21756548206E+02 -0.27811867118E+02  0.50528882785E+02  0.30000069713E+02 0.  0.
        -12    1    1    2    0    0 -0.20157293229E+02  0.21756548206E+02  0.27811867118E+02  0.40659117215E+02  0.00000000000E+00 0.  1.
         11    1    3    3    0    0  0.96492593807E+00  0.80639164773E+00  0.22304370413E+01  0.25605076082E+01  0.51100000000E-03 0. -1.
        -11    1    3    3    0    0  0.10875416177E+02 -0.62947851281E+01  0.27768146606E+00  0.12568854526E+02  0.51100000000E-03 0.  1.
         12    1    3    3    0    0  0.83169511135E+01 -0.16268154725E+02 -0.30319985625E+02  0.35399520651E+02  0.00000000000E+00 0. -1.
</event>
<event>
 7    1  0.5373252E-013  0.5052887E+02  0.7816164E-02  0.1300439E+00
        -11   -1    0    0    0    0  0.00000000000E+00  0.00000000000E+00  0.45593999997E+02  0.45594000000E+02  0.51100000000E-03 0.  1.
         11   -1    0    0    0    0 -0.00000000000E+00 -0.00000000000E+00 -0.45593999997E+02  0.45594000000E+02  0.51100000000E-03 0. -1.
    9900012    2    1    2    0    0  0.18432559694E+02  0.20000705960E+02 -0.30222134754E+02  0.50528869109E+02  0.30000028142E+02 0.  0.
        -12    1    1    2    0    0 -0.18432559694E+02 -0.20000705960E+02  0.30222134754E+02  0.40659130891E+02  0.00000000000E+00 0.  1.
         11    1    3    3    0    0  0.11542023026E+02 -0.39070696212E+01 -0.13872404378E+02  0.18464211114E+02  0.51100000000E-03 0. -1.
        -11    1    3    3    0    0  0.99881826909E+00  0.55043785373E+01 -0.10462534626E+02  0.11864251012E+02  0.51100000000E-03 0.  1.
        -12    1    3    3    0    0  0.58917183986E+01  0.18403397044E+02 -0.58871957489E+01  0.20200406982E+02  0.00000000000E+00 0.  1.
</event>
<event>
 7    1  0.5373252E-013  0.5052886E+02  0.7816164E-02  0.1300439E+00
        -11   -1    0    0    0    0  0.00000000000E+00  0.00000000000E+00  0.45593999997E+02  0.45594000000E+02  0.51100000000E-03 0.  1.
         11   -1    0    0    0    0 -0.00000000000E+00 -0.00000000000E+00 -0.45593999997E+02  0.45594000000E+02  0.51100000000E-03 0. -1.
    9900012    2    1    2    0    0  0.12830553682E+02  0.32202462769E+02 -0.21249561641E+02  0.50528860977E+02  0.30000003426E+02 0.  0.
        -12    1    1    2    0    0 -0.12830553682E+02 -0.32202462769E+02  0.21249561641E+02  0.40659139023E+02  0.00000000000E+00 0.  1.
         11    1    3    3    0    0  0.90018916833E+01  0.29797665623E+02 -0.54941502299E+01  0.31608869285E+02  0.51100000000E-03 0. -1.
        -11    1    3    3    0    0  0.59715944562E+01 -0.42174030453E+00 -0.57347065712E+01  0.82900340743E+01  0.51100000000E-03 0.  1.
        -12    1    3    3    0    0 -0.21429324573E+01  0.28265374505E+01 -0.10020704840E+02  0.10629957618E+02  0.00000000000E+00 0.  1.
</event>
<event>
 7    1  0.6003211E-013  0.5052888E+02  0.7816164E-02  0.1300439E+00
        -11   -1    0    0    0    0  0.00000000000E+00  0.00000000000E+00  0.45593999997E+02  0.45594000000E+02  0.51100000000E-03 0. -1.
         11   -1    0    0    0    0 -0.00000000000E+00 -0.00000000000E+00 -0.45593999997E+02  0.45594000000E+02  0.51100000000E-03 0.  1.
    9900012    2    1    2    0    0  0.10084967834E+02  0.39264816430E+02  0.31195306484E+01  0.50528882241E+02  0.30000068059E+02 0.  0.
        -12    1    1    2    0    0 -0.10084967834E+02 -0.39264816430E+02 -0.31195306484E+01  0.40659117759E+02  0.00000000000E+00 0.  1.
         11    1    3    3    0    0 -0.28391567731E+01  0.18039521189E+02  0.46559068573E+00  0.18267509706E+02  0.51100000000E-03 0. -1.
        -11    1    3    3    0    0 -0.14366400275E+01 -0.31048404945E+01 -0.14442749579E+01  0.37134753911E+01  0.51100000000E-03 0.  1.
        -12    1    3    3    0    0  0.14360764634E+02  0.24330135736E+02  0.40982149205E+01  0.28547897144E+02  0.00000000000E+00 0.  1.
</event>
<event>
 7    1  0.5373252E-013  0.5052886E+02  0.7816164E-02  0.1300439E+00
        -11   -1    0    0    0    0  0.00000000000E+00  0.00000000000E+00  0.45593999997E+02  0.45594000000E+02  0.51100000000E-03 0.  1.
         11   -1    0    0    0    0 -0.00000000000E+00 -0.00000000000E+00 -0.45593999997E+02  0.45594000000E+02  0.51100000000E-03 0. -1.
    9900012    2    1    2    0    0 -0.57275395094E+01  0.21116988594E+01 -0.40198276324E+02  0.50528863261E+02  0.30000010369E+02 0.  0.
        -12    1    1    2    0    0  0.57275395094E+01 -0.21116988594E+01  0.40198276324E+02  0.40659136739E+02  0.00000000000E+00 0.  1.
         11    1    3    3    0    0 -0.49218242694E+00 -0.55743195676E+01 -0.17484269835E+02  0.18357967592E+02  0.51100000000E-03 0. -1.
        -11    1    3    3    0    0 -0.12123802383E+02  0.14839258254E+01 -0.18050551726E+02  0.21794747944E+02  0.51100000000E-03 0.  1.
         12    1    3    3    0    0  0.68884453002E+01  0.62020926017E+01 -0.46634547631E+01  0.10376147726E+02  0.00000000000E+00 0. -1.
</event>
<event>
 7    1  0.5792795E-013  0.5052889E+02  0.7816164E-02  0.1300439E+00
        -11   -1    0    0    0    0  0.00000000000E+00  0.00000000000E+00  0.45593999997E+02  0.45594000000E+02  0.51100000000E-03 0. -1.
         11   -1    0    0    0    0 -0.00000000000E+00 -0.00000000000E+00 -0.45593999997E+02  0.45594000000E+02  0.51100000000E-03 0.  1.
    9900012    2    1    2    0    0  0.35523160263E+02  0.10738544069E+00  0.19780203659E+02  0.50528893966E+02  0.30000103699E+02 0.  0.
        -12    1    1    2    0    0 -0.35523160263E+02 -0.10738544069E+00 -0.19780203659E+02  0.40659106034E+02  0.00000000000E+00 0.  1.
         11    1    3    3    0    0  0.32401752493E+02 -0.32861340883E+01  0.16102131570E+02  0.36331128296E+02  0.51100000000E-03 0. -1.
        -11    1    3    3    0    0  0.63063135995E+01  0.32904320009E+01 -0.22559309698E+01  0.74622891105E+01  0.51100000000E-03 0.  1.
        -12    1    3    3    0    0 -0.31849058298E+01  0.10308752810E+00  0.59340030589E+01  0.67354765597E+01  0.00000000000E+00 0.  1.
</event>
<event>
 7    1  0.5373252E-013  0.5052886E+02  0.7816164E-02  0.1300439E+00
        -11   -1    0    0    0    0  0.00000000000E+00  0.00000000000E+00  0.45593999997E+02  0.45594000000E+02  0.51100000000E-03 0.  1.
         11   -1    0    0    0    0 -0.00000000000E+00 -0.00000000000E+00 -0.45593999997E+02  0.45594000000E+02  0.51100000000E-03 0. -1.
    9900012    2    1    2    0    0  0.28707836187E+02  0.91196421225E+00 -0.28778362858E+02  0.50528859502E+02  0.29999998943E+02 0.  0.
        -12    1    1    2    0    0 -0.28707836187E+02 -0.91196421225E+00  0.28778362858E+02  0.40659140498E+02  0.00000000000E+00 0.  1.
         11    1    3    3    0    0  0.77677200891E+01  0.31375633610E+01 -0.44049046299E+01  0.94649334011E+01  0.51100000000E-03 0. -1.
        -11    1    3    3    0    0 -0.43622812732E+01  0.38351737552E+01 -0.93857420682E+01  0.11037672312E+02  0.51100000000E-03 0.  1.
         12    1    3    3    0    0  0.25302397371E+02 -0.60607729040E+01 -0.14987716160E+02  0.30026253789E+02  0.00000000000E+00 0. -1.
</event>
<event>
 7    1  0.5373252E-013  0.5052887E+02  0.7816164E-02  0.1300439E+00
        -11   -1    0    0    0    0  0.00000000000E+00  0.00000000000E+00  0.45593999997E+02  0.45594000000E+02  0.51100000000E-03 0. -1.
         11   -1    0    0    0    0 -0.00000000000E+00 -0.00000000000E+00 -0.45593999997E+02  0.45594000000E+02  0.51100000000E-03 0.  1.
    9900012    2    1    2    0    0  0.39672984719E+02 -0.59966479352E+01  0.65771897138E+01  0.50528869076E+02  0.30000028044E+02 0.  0.
        -12    1    1    2    0    0 -0.39672984719E+02  0.59966479352E+01 -0.65771897138E+01  0.40659130924E+02  0.00000000000E+00 0.  1.
         11    1    3    3    0    0  0.95754346901E+01  0.40226275512E+01  0.69256459490E+01  0.12483391126E+02  0.51100000000E-03 0. -1.
        -11    1    3    3    0    0  0.17804386183E+02 -0.12018926378E+02  0.81413361087E+01  0.22972420693E+02  0.51100000000E-03 0.  1.
        -12    1    3    3    0    0  0.12293163846E+02  0.19996508913E+01 -0.84897923440E+01  0.15073057257E+02  0.00000000000E+00 0.  1.
</event>
<event>
 7    1  0.5373252E-013  0.5052885E+02  0.7816164E-02  0.1300439E+00
        -11   -1    0    0    0    0  0.00000000000E+00  0.00000000000E+00  0.45593999997E+02  0.45594000000E+02  0.51100000000E-03 0.  1.
         11   -1    0    0    0    0 -0.00000000000E+00 -0.00000000000E+00 -0.45593999997E+02  0.45594000000E+02  0.51100000000E-03 0. -1.
    9900012    2    1    2    0    0 -0.20313009533E+02 -0.17642025278E+02 -0.30484544697E+02  0.50528845095E+02  0.29999955150E+02 0.  0.
        -12    1    1    2    0    0  0.20313009533E+02  0.17642025278E+02  0.30484544697E+02  0.40659154905E+02  0.00000000000E+00 0.  1.
         11    1    3    3    0    0 -0.11404476816E+02 -0.50516355947E+01  0.36536549762E+01  0.12997319284E+02  0.51100000000E-03 0.  1.
        -11    1    3    3    0    0 -0.94466679315E+00 -0.22250513761E+01 -0.70826462194E+01  0.74837909315E+01  0.51100000000E-03 0. -1.
        -12    1    3    3    0    0 -0.79638659242E+01 -0.10365338307E+02 -0.27055553454E+02  0.30047734880E+02  0.00000000000E+00 0.  1.
</event>
<event>
 7    1  0.5373252E-013  0.5052883E+02  0.7816164E-02  0.1300439E+00
        -11   -1    0    0    0    0  0.00000000000E+00  0.00000000000E+00  0.45593999997E+02  0.45594000000E+02  0.51100000000E-03 0.  1.
         11   -1    0    0    0    0 -0.00000000000E+00 -0.00000000000E+00 -0.45593999997E+02  0.45594000000E+02  0.51100000000E-03 0. -1.
    9900012    2    1    2    0    0 -0.18593484282E+02 -0.10790005202E+02 -0.34511249622E+02  0.50528828581E+02  0.29999904956E+02 0.  0.
        -12    1    1    2    0    0  0.18593484282E+02  0.10790005202E+02  0.34511249622E+02  0.40659171419E+02  0.00000000000E+00 0.  1.
         11    1    3    3    0    0 -0.54565944607E+01 -0.15213071071E+01 -0.11252717350E+02  0.12598112813E+02  0.51100000000E-03 0. -1.
        -11    1    3    3    0    0  0.48700239546E+01 -0.10788337505E+02 -0.10342023249E+02  0.15718231599E+02  0.51100000000E-03 0.  1.
         12    1    3    3    0    0 -0.18006913776E+02  0.15196394104E+01 -0.12916509022E+02  0.22212484170E+02  0.00000000000E+00 0. -1.
</event>
<event>
 7    1  0.5373252E-013  0.5052886E+02  0.7816164E-02  0.1300439E+00
        -11   -1    0    0    0    0  0.00000000000E+00  0.00000000000E+00  0.45593999997E+02  0.45594000000E+02  0.51100000000E-03 0.  1.
         11   -1    0    0    0    0 -0.00000000000E+00 -0.00000000000E+00 -0.45593999997E+02  0.45594000000E+02  0.51100000000E-03 0. -1.
    9900012    2    1    2    0    0  0.31982613477E+02 -0.20911936766E+02 -0.13891341278E+02  0.50528855560E+02  0.29999986959E+02 0.  0.
        -12    1    1    2    0    0 -0.31982613477E+02  0.20911936766E+02  0.13891341278E+02  0.40659144440E+02  0.00000000000E+00 0.  1.
         11    1    3    3    0    0  0.91550959361E+01 -0.10910537962E+01 -0.50061158254E+01  0.10491300010E+02  0.51100000000E-03 0. -1.
        -11    1    3    3    0    0 -0.23096564075E-01 -0.98893812343E+01 -0.11286930695E+02  0.15006505237E+02  0.51100000000E-03 0.  1.
         12    1    3    3    0    0  0.22850614105E+02 -0.99315017359E+01  0.24017052425E+01  0.25031050313E+02  0.00000000000E+00 0. -1.
</event>
<event>
 7    1  0.5373252E-013  0.5052886E+02  0.7816164E-02  0.1300439E+00
        -11   -1    0    0    0    0  0.00000000000E+00  0.00000000000E+00  0.45593999997E+02  0.45594000000E+02  0.51100000000E-03 0.  1.
         11   -1    0    0    0    0 -0.00000000000E+00 -0.00000000000E+00 -0.45593999997E+02  0.45594000000E+02  0.51100000000E-03 0. -1.
    9900012    2    1    2    0    0 -0.26789982809E+01  0.26061263893E+02 -0.31093393754E+02  0.50528860282E+02  0.30000001313E+02 0.  0.
        -12    1    1    2    0    0  0.26789982809E+01 -0.26061263893E+02  0.31093393754E+02  0.40659139718E+02  0.00000000000E+00 0.  1.
         11    1    3    3    0    0  0.45506735761E+01  0.10577172089E+02 -0.11986736665E+02  0.16621283209E+02  0.51100000000E-03 0. -1.
        -11    1    3    3    0    0 -0.84480665996E+01  0.20696333810E+02 -0.13305990898E+02  0.26014562393E+02  0.51100000000E-03 0.  1.
        -12    1    3    3    0    0  0.12183947426E+01 -0.52122420061E+01 -0.58006661910E+01  0.78930146800E+01  0.00000000000E+00 0.  1.
</event>
<event>
 7    1  0.5373252E-013  0.5052886E+02  0.7816164E-02  0.1300439E+00
        -11   -1    0    0    0    0  0.00000000000E+00  0.00000000000E+00  0.45593999997E+02  0.45594000000E+02  0.51100000000E-03 0.  1.
         11   -1    0    0    0    0 -0.00000000000E+00 -0.00000000000E+00 -0.45593999997E+02  0.45594000000E+02  0.51100000000E-03 0. -1.
    9900012    2    1    2    0    0  0.30748738289E+02  0.27380915156E+01 -0.26460979793E+02  0.50528861997E+02  0.30000006527E+02 0.  0.
        -12    1    1    2    0    0 -0.30748738289E+02 -0.27380915156E+01  0.26460979793E+02  0.40659138003E+02  0.00000000000E+00 0.  1.
         11    1    3    3    0    0  0.79368154258E+01  0.89267964099E+01 -0.17445568653E+02  0.21143050848E+02  0.51100000000E-03 0. -1.
        -11    1    3    3    0    0  0.25271733652E+01 -0.66111130602E+01 -0.50964317023E+01  0.87216419022E+01  0.51100000000E-03 0.  1.
         12    1    3    3    0    0  0.20284749498E+02  0.42240816593E+00 -0.39189794370E+01  0.20664169248E+02  0.00000000000E+00 0. -1.
</event>
<event>
 7    1  0.5373252E-013  0.5052886E+02  0.7816164E-02  0.1300439E+00
        -11   -1    0    0    0    0  0.00000000000E+00  0.00000000000E+00  0.45593999997E+02  0.45594000000E+02  0.51100000000E-03 0. -1.
         11   -1    0    0    0    0 -0.00000000000E+00 -0.00000000000E+00 -0.45593999997E+02  0.45594000000E+02  0.51100000000E-03 0.  1.
    9900012    2    1    2    0    0  0.77418841556E+01  0.28433625943E+02  0.28013531584E+02  0.50528858268E+02  0.29999995192E+02 0.  0.
        -12    1    1    2    0    0 -0.77418841556E+01 -0.28433625943E+02 -0.28013531584E+02  0.40659141732E+02  0.00000000000E+00 0.  1.
         11    1    3    3    0    0 -0.62717031994E+00  0.24634029387E+00  0.10750047372E+02  0.10771144085E+02  0.51100000000E-03 0. -1.
        -11    1    3    3    0    0 -0.61325621842E+01  0.66655342984E+01  0.95592596443E+00  0.91077692733E+01  0.51100000000E-03 0.  1.
         12    1    3    3    0    0  0.14501616660E+02  0.21521751351E+02  0.16307558248E+02  0.30649944910E+02  0.00000000000E+00 0. -1.
</event>
<event>
 7    1  0.5373252E-013  0.5052886E+02  0.7816164E-02  0.1300439E+00
        -11   -1    0    0    0    0  0.00000000000E+00  0.00000000000E+00  0.45593999997E+02  0.45594000000E+02  0.51100000000E-03 0.  1.
         11   -1    0    0    0    0 -0.00000000000E+00 -0.00000000000E+00 -0.45593999997E+02  0.45594000000E+02  0.51100000000E-03 0. -1.
    9900012    2    1    2    0    0  0.37309509146E+02 -0.12426535541E+01 -0.16112793839E+02  0.50528858520E+02  0.29999995958E+02 0.  0.
        -12    1    1    2    0    0 -0.37309509146E+02  0.12426535541E+01  0.16112793839E+02  0.40659141480E+02  0.00000000000E+00 0.  1.
         11    1    3    3    0    0  0.19434010386E+02 -0.13746177113E+00 -0.10612551928E+02  0.22143304047E+02  0.51100000000E-03 0. -1.
        -11    1    3    3    0    0  0.46715547972E+01  0.93487631594E+01 -0.48765396074E+01  0.11532711547E+02  0.51100000000E-03 0.  1.
        -12    1    3    3    0    0  0.13203943963E+02 -0.10453954942E+02 -0.62370230334E+00  0.16852842926E+02  0.00000000000E+00 0.  1.
</event>
<event>
 7    1  0.5373252E-013  0.5052887E+02  0.7816164E-02  0.1300439E+00
        -11   -1    0    0    0    0  0.00000000000E+00  0.00000000000E+00  0.45593999997E+02  0.45594000000E+02  0.51100000000E-03 0. -1.
         11   -1    0    0    0    0 -0.00000000000E+00 -0.00000000000E+00 -0.45593999997E+02  0.45594000000E+02  0.51100000000E-03 0.  1.
    9900012    2    1    2    0    0 -0.14052335886E+02  0.37839986727E+02  0.48818059425E+01  0.50528871030E+02  0.30000033983E+02 0.  0.
        -12    1    1    2    0    0  0.14052335886E+02 -0.37839986727E+02 -0.48818059425E+01  0.40659128970E+02  0.00000000000E+00 0.  1.
         11    1    3    3    0    0 -0.42631121237E+01  0.23782943673E+02 -0.11206520494E+01  0.24187980404E+02  0.51100000000E-03 0. -1.
        -11    1    3    3    0    0 -0.52230169772E+01 -0.46713900939E+00 -0.52412592837E+01  0.74141030704E+01  0.51100000000E-03 0.  1.
         12    1    3    3    0    0 -0.45662067852E+01  0.14524182063E+02  0.11243717276E+02  0.18926787556E+02  0.00000000000E+00 0. -1.
</event>
<event>
 7    1  0.5373252E-013  0.5052885E+02  0.7816164E-02  0.1300439E+00
        -11   -1    0    0    0    0  0.00000000000E+00  0.00000000000E+00  0.45593999997E+02  0.45594000000E+02  0.51100000000E-03 0. -1.
         11   -1    0    0    0    0 -0.00000000000E+00 -0.00000000000E+00 -0.45593999997E+02  0.45594000000E+02  0.51100000000E-03 0.  1.
    9900012    2    1    2    0    0  0.66311972046E+01  0.36514970188E+01  0.39948215494E+02  0.50528854313E+02  0.29999983170E+02 0.  0.
        -12    1    1    2    0    0 -0.66311972046E+01 -0.36514970188E+01 -0.39948215494E+02  0.40659145687E+02  0.00000000000E+00 0.  1.
         11    1    3    3    0    0 -0.20114472269E+01  0.47399635730E+01  0.17702816669E+02  0.18436455541E+02  0.51100000000E-03 0. -1.
        -11    1    3    3    0    0 -0.53038530196E+01 -0.12324009785E+01 -0.43954511672E+00  0.54628627290E+01  0.51100000000E-03 0.  1.
         12    1    3    3    0    0  0.13946497451E+02  0.14393442430E+00  0.22684943941E+02  0.26629536044E+02  0.00000000000E+00 0. -1.
</event>
<event>
 7    1  0.5373252E-013  0.5052886E+02  0.7816164E-02  0.1300439E+00
        -11   -1    0    0    0    0  0.00000000000E+00  0.00000000000E+00  0.45593999997E+02  0.45594000000E+02  0.51100000000E-03 0.  1.
         11   -1    0    0    0    0 -0.00000000000E+00 -0.00000000000E+00 -0.45593999997E+02  0.45594000000E+02  0.51100000000E-03 0. -1.
    9900012    2    1    2    0    0  0.98608624194E+01 -0.53388351741E+01 -0.39082293891E+02  0.50528862473E+02  0.30000007973E+02 0.  0.
        -12    1    1    2    0    0 -0.98608624194E+01  0.53388351741E+01  0.39082293891E+02  0.40659137527E+02  0.00000000000E+00 0.  1.
         11    1    3    3    0    0  0.15450074072E+02 -0.80016576874E+01 -0.10792236988E+02  0.20474464438E+02  0.51100000000E-03 0.  1.
        -11    1    3    3    0    0  0.12163542984E+01  0.30556306011E+01 -0.10498648882E+02  0.11001728263E+02  0.51100000000E-03 0. -1.
        -12    1    3    3    0    0 -0.68055659506E+01 -0.39280808784E+00 -0.17791408020E+02  0.19052669772E+02  0.00000000000E+00 0.  1.
</event>
<event>
 7    1  0.5373252E-013  0.5052893E+02  0.7816164E-02  0.1300439E+00
        -11   -1    0    0    0    0  0.00000000000E+00  0.00000000000E+00  0.45593999997E+02  0.45594000000E+02  0.51100000000E-03 0.  1.
         11   -1    0    0    0    0 -0.00000000000E+00 -0.00000000000E+00 -0.45593999997E+02  0.45594000000E+02  0.51100000000E-03 0. -1.
    9900012    2    1    2    0    0 -0.33958045799E+02  0.14256994209E+02 -0.17226402170E+02  0.50528933483E+02  0.30000223813E+02 0.  0.
        -12    1    1    2    0    0  0.33958045799E+02 -0.14256994209E+02  0.17226402170E+02  0.40659066517E+02  0.00000000000E+00 0.  1.
         11    1    3    3    0    0 -0.21875546471E+02  0.49924417488E+01 -0.32095819689E+01  0.22666394171E+02  0.51100000000E-03 0. -1.
        -11    1    3    3    0    0 -0.79064583067E+01 -0.16891542401E+01 -0.13968682421E+02  0.16139684441E+02  0.51100000000E-03 0.  1.
         12    1    3    3    0    0 -0.41760410204E+01  0.10953706700E+02 -0.48137780152E-01  0.11722854871E+02  0.00000000000E+00 0. -1.
</event>
<event>
 7    1  0.5373252E-013  0.5052886E+02  0.7816164E-02  0.1300439E+00
        -11   -1    0    0    0    0  0.00000000000E+00  0.00000000000E+00  0.45593999997E+02  0.45594000000E+02  0.51100000000E-03 0. -1.
         11   -1    0    0    0    0 -0.00000000000E+00 -0.00000000000E+00 -0.45593999997E+02  0.45594000000E+02  0.51100000000E-03 0.  1.
    9900012    2    1    2    0    0  0.40437298287E+02 -0.28259937725E+01  0.31629322895E+01  0.50528862353E+02  0.30000007608E+02 0.  0.
        -12    1    1    2    0    0 -0.40437298287E+02  0.28259937725E+01 -0.31629322895E+01  0.40659137647E+02  0.00000000000E+00 0.  1.
         11    1    3    3    0    0  0.73160776260E+01 -0.71347976403E+01 -0.55857129083E+01  0.11646051612E+02  0.51100000000E-03 0. -1.
        -11    1    3    3    0    0  0.20544649140E+02  0.35507589352E+00 -0.35515217482E+01  0.20852385815E+02  0.51100000000E-03 0.  1.
         12    1    3    3    0    0  0.12576571521E+02  0.39537279742E+01  0.12300166946E+02  0.18030424926E+02  0.00000000000E+00 0. -1.
</event>
<event>
 7    1  0.5373252E-013  0.5052881E+02  0.7816164E-02  0.1300439E+00
        -11   -1    0    0    0    0  0.00000000000E+00  0.00000000000E+00  0.45593999997E+02  0.45594000000E+02  0.51100000000E-03 0.  1.
         11   -1    0    0    0    0 -0.00000000000E+00 -0.00000000000E+00 -0.45593999997E+02  0.45594000000E+02  0.51100000000E-03 0. -1.
    9900012    2    1    2    0    0  0.21016801481E+02 -0.55387806770E+01 -0.34362559157E+02  0.50528812751E+02  0.29999856838E+02 0.  0.
        -12    1    1    2    0    0 -0.21016801481E+02  0.55387806770E+01  0.34362559157E+02  0.40659187249E+02  0.00000000000E+00 0.  1.
         11    1    3    3    0    0  0.68633223281E+01 -0.73418401960E+01 -0.83804387580E+01  0.13085853617E+02  0.51100000000E-03 0.  1.
        -11    1    3    3    0    0  0.18275637855E+02 -0.18796321882E+01 -0.26095660320E+02  0.31914188756E+02  0.51100000000E-03 0. -1.
        -12    1    3    3    0    0 -0.41221587024E+01  0.36826917072E+01  0.11353992070E+00  0.55287703779E+01  0.00000000000E+00 0.  1.
</event>
<event>
 7    1  0.5373252E-013  0.5052884E+02  0.7816164E-02  0.1300439E+00
        -11   -1    0    0    0    0  0.00000000000E+00  0.00000000000E+00  0.45593999997E+02  0.45594000000E+02  0.51100000000E-03 0.  1.
         11   -1    0    0    0    0 -0.00000000000E+00 -0.00000000000E+00 -0.45593999997E+02  0.45594000000E+02  0.51100000000E-03 0. -1.
    9900012    2    1    2    0    0  0.10594120674E+01 -0.37847096272E+02 -0.14820330772E+02  0.50528840462E+02  0.29999941067E+02 0.  0.
        -12    1    1    2    0    0 -0.10594120674E+01  0.37847096272E+02  0.14820330772E+02  0.40659159538E+02  0.00000000000E+00 0.  1.
         11    1    3    3    0    0  0.57468266897E+01 -0.68058635529E+00  0.10420759948E+01  0.58800627062E+01  0.51100000000E-03 0. -1.
        -11    1    3    3    0    0 -0.37461733572E+01 -0.10544873233E+02  0.34908778803E+01  0.11722388620E+02  0.51100000000E-03 0.  1.
         12    1    3    3    0    0 -0.94124126507E+00 -0.26621636684E+02 -0.19353284647E+02  0.32926389135E+02  0.00000000000E+00 0. -1.
</event>
<event>
 7    1  0.5373252E-013  0.5052886E+02  0.7816164E-02  0.1300439E+00
        -11   -1    0    0    0    0  0.00000000000E+00  0.00000000000E+00  0.45593999997E+02  0.45594000000E+02  0.51100000000E-03 0.  1.
         11   -1    0    0    0    0 -0.00000000000E+00 -0.00000000000E+00 -0.45593999997E+02  0.45594000000E+02  0.51100000000E-03 0. -1.
    9900012    2    1    2    0    0 -0.29409914096E+02  0.13710083325E+02 -0.24500123107E+02  0.50528862477E+02  0.30000007984E+02 0.  0.
        -12    1    1    2    0    0  0.29409914096E+02 -0.13710083325E+02  0.24500123107E+02  0.40659137523E+02  0.00000000000E+00 0.  1.
         11    1    3    3    0    0 -0.60526423217E+01 -0.41402814985E+01  0.26307077843E+01  0.77908301014E+01  0.51100000000E-03 0. -1.
        -11    1    3    3    0    0 -0.55672052162E+00  0.82304694767E+01 -0.75269761025E+01  0.11167181160E+02  0.51100000000E-03 0.  1.
         12    1    3    3    0    0 -0.22800551252E+02  0.96198953466E+01 -0.19603854789E+02  0.31570851215E+02  0.00000000000E+00 0. -1.
</event>
<event>
 7    1  0.5373252E-013  0.5052886E+02  0.7816164E-02  0.1300439E+00
        -11   -1    0    0    0    0  0.00000000000E+00  0.00000000000E+00  0.45593999997E+02  0.45594000000E+02  0.51100000000E-03 0.  1.
         11   -1    0    0    0    0 -0.00000000000E+00 -0.00000000000E+00 -0.45593999997E+02  0.45594000000E+02  0.51100000000E-03 0. -1.
    9900012    2    1    2    0    0 -0.36136801435E+02 -0.12904363734E+02  0.13445252749E+02  0.50528857820E+02  0.29999993831E+02 0.  0.
        -12    1    1    2    0    0  0.36136801435E+02  0.12904363734E+02 -0.13445252749E+02  0.40659142180E+02  0.00000000000E+00 0.  1.
         11    1    3    3    0    0 -0.34705310399E+01  0.24973180956E+01  0.52548091144E+01  0.67745259952E+01  0.51100000000E-03 0. -1.
        -11    1    3    3    0    0 -0.36531018836E+01 -0.49873311065E+01 -0.70418798287E+01  0.93705227560E+01  0.51100000000E-03 0.  1.
         12    1    3    3    0    0 -0.29013168511E+02 -0.10414350723E+02  0.15232323463E+02  0.34383809069E+02  0.00000000000E+00 0. -1.
</event>
<event>
 7    1  0.5373252E-013  0.5052884E+02  0.7816164E-02  0.1300439E+00
        -11   -1    0    0    0    0  0.00000000000E+00  0.00000000000E+00  0.45593999997E+02  0.45594000000E+02  0.51100000000E-03 0. -1.
         11   -1    0    0    0    0 -0.00000000000E+00 -0.00000000000E+00 -0.45593999997E+02  0.45594000000E+02  0.51100000000E-03 0.  1.
    9900012    2    1    2    0    0  0.24434451178E+02  0.16700731716E+02  0.27878493782E+02  0.50528840395E+02  0.29999940865E+02 0.  0.
        -12    1    1    2    0    0 -0.24434451178E+02 -0.16700731716E+02 -0.27878493782E+02  0.40659159605E+02  0.00000000000E+00 0.  1.
         11    1    3    3    0    0  0.67473646490E+01  0.88526538674E+01  0.21397225523E+02  0.24119238598E+02  0.51100000000E-03 0.  1.
        -11    1    3    3    0    0  0.23666123546E+01  0.96774598996E+01  0.90539575812E+00  0.10003690613E+02  0.51100000000E-03 0. -1.
        -12    1    3    3    0    0  0.15320474175E+02 -0.18293820509E+01  0.55758725010E+01  0.16405911184E+02  0.00000000000E+00 0.  1.
</event>
<event>
 7    1  0.5373252E-013  0.5052886E+02  0.7816164E-02  0.1300439E+00
        -11   -1    0    0    0    0  0.00000000000E+00  0.00000000000E+00  0.45593999997E+02  0.45594000000E+02  0.51100000000E-03 0.  1.
         11   -1    0    0    0    0 -0.00000000000E+00 -0.00000000000E+00 -0.45593999997E+02  0.45594000000E+02  0.51100000000E-03 0. -1.
    9900012    2    1    2    0    0  0.12977507749E+02 -0.33679707203E+02 -0.18719706008E+02  0.50528858621E+02  0.29999996264E+02 0.  0.
        -12    1    1    2    0    0 -0.12977507749E+02  0.33679707203E+02  0.18719706008E+02  0.40659141379E+02  0.00000000000E+00 0.  1.
         11    1    3    3    0    0  0.59960808444E+01 -0.82200997521E+00 -0.66931718795E+01  0.90237041154E+01  0.51100000000E-03 0. -1.
        -11    1    3    3    0    0  0.31709992801E+01 -0.84801786167E+01  0.60756640574E+01  0.10903318752E+02  0.51100000000E-03 0.  1.
         12    1    3    3    0    0  0.38104276246E+01 -0.24377518611E+02 -0.18102198186E+02  0.30601835753E+02  0.00000000000E+00 0. -1.
</event>
<event>
 7    1  0.5373252E-013  0.5052886E+02  0.7816164E-02  0.1300439E+00
        -11   -1    0    0    0    0  0.00000000000E+00  0.00000000000E+00  0.45593999997E+02  0.45594000000E+02  0.51100000000E-03 0. -1.
         11   -1    0    0    0    0 -0.00000000000E+00 -0.00000000000E+00 -0.45593999997E+02  0.45594000000E+02  0.51100000000E-03 0.  1.
    9900012    2    1    2    0    0 -0.39518865668E+01 -0.17134799442E+02  0.36659879029E+02  0.50528862161E+02  0.30000007026E+02 0.  0.
        -12    1    1    2    0    0  0.39518865668E+01  0.17134799442E+02 -0.36659879029E+02  0.40659137839E+02  0.00000000000E+00 0.  1.
         11    1    3    3    0    0  0.81121087561E+01 -0.74131899920E+01  0.75378636390E+01  0.13325955231E+02  0.51100000000E-03 0. -1.
        -11    1    3    3    0    0 -0.12272975523E+00  0.43541734059E+01  0.33143129440E+01  0.54734412569E+01  0.51100000000E-03 0.  1.
         12    1    3    3    0    0 -0.11941265568E+02 -0.14075782856E+02  0.25807702446E+02  0.31729465673E+02  0.00000000000E+00 0. -1.
</event>
<event>
 7    1  0.5373252E-013  0.5052887E+02  0.7816164E-02  0.1300439E+00
        -11   -1    0    0    0    0  0.00000000000E+00  0.00000000000E+00  0.45593999997E+02  0.45594000000E+02  0.51100000000E-03 0.  1.
         11   -1    0    0    0    0 -0.00000000000E+00 -0.00000000000E+00 -0.45593999997E+02  0.45594000000E+02  0.51100000000E-03 0. -1.
    9900012    2    1    2    0    0 -0.73083237116E+01  0.26590063583E+02 -0.29878453668E+02  0.50528867319E+02  0.30000022702E+02 0.  0.
        -12    1    1    2    0    0  0.73083237116E+01 -0.26590063583E+02  0.29878453668E+02  0.40659132681E+02  0.00000000000E+00 0.  1.
         11    1    3    3    0    0  0.59339094616E+01  0.64617144402E+01 -0.74902515936E+01  0.11535549584E+02  0.51100000000E-03 0.  1.
        -11    1    3    3    0    0 -0.61084812000E+01 -0.34172110960E+01 -0.73951191806E+01  0.10182271957E+02  0.51100000000E-03 0. -1.
         12    1    3    3    0    0 -0.71337519733E+01  0.23545560238E+02 -0.14993082894E+02  0.28811045778E+02  0.00000000000E+00 0. -1.
</event>
<event>
 7    1  0.5373252E-013  0.5052886E+02  0.7816164E-02  0.1300439E+00
        -11   -1    0    0    0    0  0.00000000000E+00  0.00000000000E+00  0.45593999997E+02  0.45594000000E+02  0.51100000000E-03 0. -1.
         11   -1    0    0    0    0 -0.00000000000E+00 -0.00000000000E+00 -0.45593999997E+02  0.45594000000E+02  0.51100000000E-03 0.  1.
    9900012    2    1    2    0    0  0.29500781091E+01  0.39552057225E+01  0.40358630987E+02  0.50528859474E+02  0.29999998857E+02 0.  0.
        -12    1    1    2    0    0 -0.29500781091E+01 -0.39552057225E+01 -0.40358630987E+02  0.40659140526E+02  0.00000000000E+00 0.  1.
         11    1    3    3    0    0  0.23780399355E+01  0.10517574724E+02  0.19379982371E+02  0.22177875664E+02  0.51100000000E-03 0. -1.
        -11    1    3    3    0    0  0.24733700472E+01 -0.10427926189E+02  0.50450724897E+01  0.11845334976E+02  0.51100000000E-03 0.  1.
         12    1    3    3    0    0 -0.19013318737E+01  0.38655571878E+01  0.15933576126E+02  0.16505648834E+02  0.00000000000E+00 0. -1.
</event>
<event>
 7    1  0.5373252E-013  0.5052886E+02  0.7816164E-02  0.1300439E+00
        -11   -1    0    0    0    0  0.00000000000E+00  0.00000000000E+00  0.45593999997E+02  0.45594000000E+02  0.51100000000E-03 0.  1.
         11   -1    0    0    0    0 -0.00000000000E+00 -0.00000000000E+00 -0.45593999997E+02  0.45594000000E+02  0.51100000000E-03 0. -1.
    9900012    2    1    2    0    0 -0.75141469143E+01 -0.21007558780E+02 -0.33990965871E+02  0.50528859692E+02  0.29999999519E+02 0.  0.
        -12    1    1    2    0    0  0.75141469143E+01  0.21007558780E+02  0.33990965871E+02  0.40659140308E+02  0.00000000000E+00 0.  1.
         11    1    3    3    0    0 -0.32081448926E+01  0.25332531281E+00 -0.58206936472E+01  0.66510782706E+01  0.51100000000E-03 0. -1.
        -11    1    3    3    0    0 -0.64897202204E+01 -0.31128219913E+01 -0.24098997408E+02  0.25150900692E+02  0.51100000000E-03 0.  1.
         12    1    3    3    0    0  0.21837181987E+01 -0.18148062101E+02 -0.40712748159E+01  0.18726880729E+02  0.00000000000E+00 0. -1.
</event>
<event>
 7    1  0.5373252E-013  0.5052886E+02  0.7816164E-02  0.1300439E+00
        -11   -1    0    0    0    0  0.00000000000E+00  0.00000000000E+00  0.45593999997E+02  0.45594000000E+02  0.51100000000E-03 0. -1.
         11   -1    0    0    0    0 -0.00000000000E+00 -0.00000000000E+00 -0.45593999997E+02  0.45594000000E+02  0.51100000000E-03 0.  1.
    9900012    2    1    2    0    0  0.47887843939E+01  0.28674499322E+02  0.28425456100E+02  0.50528856848E+02  0.29999990876E+02 0.  0.
        -12    1    1    2    0    0 -0.47887843939E+01 -0.28674499322E+02 -0.28425456100E+02  0.40659143152E+02  0.00000000000E+00 0.  1.
         11    1    3    3    0    0  0.13813659701E+02  0.14376835850E+02  0.14013076148E+02  0.24369589795E+02  0.51100000000E-03 0. -1.
        -11    1    3    3    0    0 -0.14556806148E+01 -0.27869932201E+01  0.20211746283E+01  0.37378448872E+01  0.51100000000E-03 0.  1.
        -12    1    3    3    0    0 -0.75691946921E+01  0.17084656692E+02  0.12391205324E+02  0.22421422166E+02  0.00000000000E+00 0.  1.
</event>
<event>
 7    1  0.5373252E-013  0.5052886E+02  0.7816164E-02  0.1300439E+00
        -11   -1    0    0    0    0  0.00000000000E+00  0.00000000000E+00  0.45593999997E+02  0.45594000000E+02  0.51100000000E-03 0.  1.
         11   -1    0    0    0    0 -0.00000000000E+00 -0.00000000000E+00 -0.45593999997E+02  0.45594000000E+02  0.51100000000E-03 0. -1.
    9900012    2    1    2    0    0 -0.41347485753E+01  0.25040339418E+02 -0.31765565981E+02  0.50528856797E+02  0.29999990719E+02 0.  0.
        -12    1    1    2    0    0  0.41347485753E+01 -0.25040339418E+02  0.31765565981E+02  0.40659143203E+02  0.00000000000E+00 0.  1.
         11    1    3    3    0    0  0.46548049848E+01  0.22348226548E+02 -0.19591952150E+02  0.30082470454E+02  0.51100000000E-03 0. -1.
        -11    1    3    3    0    0  0.28621772316E+01 -0.14896318071E+01 -0.55157149798E+01  0.63901622378E+01  0.51100000000E-03 0.  1.
        -12    1    3    3    0    0 -0.11651730792E+02  0.41817446766E+01 -0.66578988514E+01  0.14056224105E+02  0.00000000000E+00 0.  1.
</event>
<event>
 7    1  0.5373252E-013  0.5052886E+02  0.7816164E-02  0.1300439E+00
        -11   -1    0    0    0    0  0.00000000000E+00  0.00000000000E+00  0.45593999997E+02  0.45594000000E+02  0.51100000000E-03 0. -1.
         11   -1    0    0    0    0 -0.00000000000E+00 -0.00000000000E+00 -0.45593999997E+02  0.45594000000E+02  0.51100000000E-03 0.  1.
    9900012    2    1    2    0    0 -0.25987609996E+02 -0.28580931025E+02  0.12686231197E+02  0.50528856458E+02  0.29999989691E+02 0.  0.
        -12    1    1    2    0    0  0.25987609996E+02  0.28580931025E+02 -0.12686231197E+02  0.40659143542E+02  0.00000000000E+00 0.  1.
         11    1    3    3    0    0 -0.15329209504E+02 -0.12417518987E+02  0.14109884641E+02  0.24254242652E+02  0.51100000000E-03 0. -1.
        -11    1    3    3    0    0  0.22593791458E+01  0.24532669794E+01 -0.13950304321E+01  0.36151657174E+01  0.51100000000E-03 0.  1.
        -12    1    3    3    0    0 -0.12917779638E+02 -0.18616679018E+02 -0.28623011838E-01  0.22659448089E+02  0.00000000000E+00 0.  1.
</event>
<event>
 7    1  0.5373252E-013  0.5052887E+02  0.7816164E-02  0.1300439E+00
        -11   -1    0    0    0    0  0.00000000000E+00  0.00000000000E+00  0.45593999997E+02  0.45594000000E+02  0.51100000000E-03 0.  1.
         11   -1    0    0    0    0 -0.00000000000E+00 -0.00000000000E+00 -0.45593999997E+02  0.45594000000E+02  0.51100000000E-03 0. -1.
    9900012    2    1    2    0    0  0.15889550656E+02  0.10367611439E+02 -0.35961088050E+02  0.50528867683E+02  0.30000023810E+02 0.  0.
        -12    1    1    2    0    0 -0.15889550656E+02 -0.10367611439E+02  0.35961088050E+02  0.40659132317E+02  0.00000000000E+00 0.  1.
         11    1    3    3    0    0  0.12032343258E+02  0.55456061211E+01 -0.13390594197E+02  0.18837171888E+02  0.51100000000E-03 0. -1.
        -11    1    3    3    0    0  0.10606829360E+02  0.70402846830E+01 -0.68874325622E+01  0.14474362337E+02  0.51100000000E-03 0.  1.
         12    1    3    3    0    0 -0.67496219621E+01 -0.22182793648E+01 -0.15683061291E+02  0.17217333459E+02  0.00000000000E+00 0. -1.
</event>
<event>
 7    1  0.5373252E-013  0.5052885E+02  0.7816164E-02  0.1300439E+00
        -11   -1    0    0    0    0  0.00000000000E+00  0.00000000000E+00  0.45593999997E+02  0.45594000000E+02  0.51100000000E-03 0.  1.
         11   -1    0    0    0    0 -0.00000000000E+00 -0.00000000000E+00 -0.45593999997E+02  0.45594000000E+02  0.51100000000E-03 0. -1.
    9900012    2    1    2    0    0  0.49760831357E+01 -0.65318771071E+01 -0.39821342860E+02  0.50528853807E+02  0.29999981633E+02 0.  0.
        -12    1    1    2    0    0 -0.49760831357E+01  0.65318771071E+01  0.39821342860E+02  0.40659146193E+02  0.00000000000E+00 0.  1.
         11    1    3    3    0    0  0.34854386340E+01  0.24824133076E+01 -0.28243615718E+01  0.51271509487E+01  0.51100000000E-03 0. -1.
        -11    1    3    3    0    0  0.79299999185E+01 -0.13976458512E+02 -0.15125451539E+02  0.22068202821E+02  0.51100000000E-03 0.  1.
         12    1    3    3    0    0 -0.64393554168E+01  0.49621680971E+01 -0.21871529750E+02  0.23333500038E+02  0.00000000000E+00 0. -1.
</event>
<event>
 7    1  0.5566874E-013  0.5052887E+02  0.7816164E-02  0.1300439E+00
        -11   -1    0    0    0    0  0.00000000000E+00  0.00000000000E+00  0.45593999997E+02  0.45594000000E+02  0.51100000000E-03 0.  1.
         11   -1    0    0    0    0 -0.00000000000E+00 -0.00000000000E+00 -0.45593999997E+02  0.45594000000E+02  0.51100000000E-03 0. -1.
    9900012    2    1    2    0    0 -0.17919894529E+02 -0.32956746075E+02 -0.15681053698E+02  0.50528866009E+02  0.30000018722E+02 0.  0.
        -12    1    1    2    0    0  0.17919894529E+02  0.32956746075E+02  0.15681053698E+02  0.40659133991E+02  0.00000000000E+00 0.  1.
         11    1    3    3    0    0 -0.12754663152E+02 -0.94610534061E+01 -0.15160211323E+02  0.21955067098E+02  0.51100000000E-03 0. -1.
        -11    1    3    3    0    0  0.12141512571E+01  0.16372417691E+01 -0.16453214284E+01  0.26195050581E+01  0.51100000000E-03 0.  1.
         12    1    3    3    0    0 -0.63793826334E+01 -0.25132934438E+02  0.11244790532E+01  0.25954293853E+02  0.00000000000E+00 0. -1.
</event>
<event>
 7    1  0.5373252E-013  0.5052886E+02  0.7816164E-02  0.1300439E+00
        -11   -1    0    0    0    0  0.00000000000E+00  0.00000000000E+00  0.45593999997E+02  0.45594000000E+02  0.51100000000E-03 0.  1.
         11   -1    0    0    0    0 -0.00000000000E+00 -0.00000000000E+00 -0.45593999997E+02  0.45594000000E+02  0.51100000000E-03 0. -1.
    9900012    2    1    2    0    0  0.64018978162E+01 -0.26949852439E+02 -0.29763849542E+02  0.50528861031E+02  0.30000003591E+02 0.  0.
        -12    1    1    2    0    0 -0.64018978162E+01  0.26949852439E+02  0.29763849542E+02  0.40659138969E+02  0.00000000000E+00 0.  1.
         11    1    3    3    0    0  0.45746697904E+01  0.33276608310E+01 -0.54214257921E+01  0.78353550128E+01  0.51100000000E-03 0. -1.
        -11    1    3    3    0    0 -0.65332993847E+01 -0.67526354949E+01 -0.10711554978E+02  0.14248491053E+02  0.51100000000E-03 0.  1.
         12    1    3    3    0    0  0.83605274106E+01 -0.23524877775E+02 -0.13630868772E+02  0.28445014966E+02  0.00000000000E+00 0. -1.
</event>
<event>
 7    1  0.5373252E-013  0.5052885E+02  0.7816164E-02  0.1300439E+00
        -11   -1    0    0    0    0  0.00000000000E+00  0.00000000000E+00  0.45593999997E+02  0.45594000000E+02  0.51100000000E-03 0.  1.
         11   -1    0    0    0    0 -0.00000000000E+00 -0.00000000000E+00 -0.45593999997E+02  0.45594000000E+02  0.51100000000E-03 0. -1.
    9900012    2    1    2    0    0  0.10121905645E+01  0.23441317723E+02 -0.33206120753E+02  0.50528851438E+02  0.29999974432E+02 0.  0.
        -12    1    1    2    0    0 -0.10121905645E+01 -0.23441317723E+02  0.33206120753E+02  0.40659148562E+02  0.00000000000E+00 0.  1.
         11    1    3    3    0    0  0.87637143132E+00  0.11922283458E+02 -0.32000172944E+02  0.34160209871E+02  0.51100000000E-03 0. -1.
        -11    1    3    3    0    0  0.17237364125E+01  0.13586703032E+02 -0.13201237253E+01  0.13759087667E+02  0.51100000000E-03 0.  1.
        -12    1    3    3    0    0 -0.15879172793E+01 -0.20676687674E+01  0.11417591658E+00  0.26095539001E+01  0.00000000000E+00 0.  1.
</event>
<event>
 7    1  0.5373252E-013  0.5052886E+02  0.7816164E-02  0.1300439E+00
        -11   -1    0    0    0    0  0.00000000000E+00  0.00000000000E+00  0.45593999997E+02  0.45594000000E+02  0.51100000000E-03 0.  1.
         11   -1    0    0    0    0 -0.00000000000E+00 -0.00000000000E+00 -0.45593999997E+02  0.45594000000E+02  0.51100000000E-03 0. -1.
    9900012    2    1    2    0    0 -0.77737857027E+00 -0.40647104414E+02  0.61207525555E+00  0.50528855263E+02  0.29999986056E+02 0.  0.
        -12    1    1    2    0    0  0.77737857027E+00  0.40647104414E+02 -0.61207525555E+00  0.40659144737E+02  0.00000000000E+00 0.  1.
         11    1    3    3    0    0 -0.52988246713E+01 -0.55300508305E+01  0.85307561562E+00  0.77062794754E+01  0.51100000000E-03 0. -1.
        -11    1    3    3    0    0  0.77311408174E+01 -0.44973106018E+01  0.68056794048E+01  0.11238932930E+02  0.51100000000E-03 0.  1.
         12    1    3    3    0    0 -0.32096947164E+01 -0.30619742981E+02 -0.70466797648E+01  0.31583642857E+02  0.00000000000E+00 0. -1.
</event>
<event>
 7    1  0.5373252E-013  0.5052885E+02  0.7816164E-02  0.1300439E+00
        -11   -1    0    0    0    0  0.00000000000E+00  0.00000000000E+00  0.45593999997E+02  0.45594000000E+02  0.51100000000E-03 0.  1.
         11   -1    0    0    0    0 -0.00000000000E+00 -0.00000000000E+00 -0.45593999997E+02  0.45594000000E+02  0.51100000000E-03 0. -1.
    9900012    2    1    2    0    0  0.18886277389E+02  0.32147716777E+02 -0.16217257150E+02  0.50528848545E+02  0.29999965637E+02 0.  0.
        -12    1    1    2    0    0 -0.18886277389E+02 -0.32147716777E+02  0.16217257150E+02  0.40659151455E+02  0.00000000000E+00 0.  1.
         11    1    3    3    0    0 -0.27628987691E+01  0.67354233999E+01 -0.26588315679E+01  0.77504144116E+01  0.51100000000E-03 0. -1.
        -11    1    3    3    0    0  0.10510044863E+02  0.17476863118E+02  0.37324816720E+01  0.20732419231E+02  0.51100000000E-03 0.  1.
        -12    1    3    3    0    0  0.11139131295E+02  0.79354302587E+01 -0.17290907254E+02  0.22046014902E+02  0.00000000000E+00 0.  1.
</event>
<event>
 7    1  0.5373252E-013  0.5052886E+02  0.7816164E-02  0.1300439E+00
        -11   -1    0    0    0    0  0.00000000000E+00  0.00000000000E+00  0.45593999997E+02  0.45594000000E+02  0.51100000000E-03 0. -1.
         11   -1    0    0    0    0 -0.00000000000E+00 -0.00000000000E+00 -0.45593999997E+02  0.45594000000E+02  0.51100000000E-03 0.  1.
    9900012    2    1    2    0    0  0.13618417867E+02 -0.22440232285E+02  0.31050615385E+02  0.50528855321E+02  0.29999986235E+02 0.  0.
        -12    1    1    2    0    0 -0.13618417867E+02  0.22440232285E+02 -0.31050615385E+02  0.40659144679E+02  0.00000000000E+00 0.  1.
         11    1    3    3    0    0  0.28854309979E+00 -0.11280618693E+00 -0.52525932104E+01  0.52617219664E+01  0.51100000000E-03 0.  1.
        -11    1    3    3    0    0  0.42419519261E+01 -0.13764458972E+02  0.17051083142E+02  0.22320258142E+02  0.51100000000E-03 0. -1.
        -12    1    3    3    0    0  0.90879228415E+01 -0.85629671261E+01  0.19252125453E+02  0.22946875213E+02  0.00000000000E+00 0.  1.
</event>
<event>
 7    1  0.1113216E-012  0.5052885E+02  0.7816164E-02  0.1300439E+00
        -11   -1    0    0    0    0  0.00000000000E+00  0.00000000000E+00  0.45593999997E+02  0.45594000000E+02  0.51100000000E-03 0.  1.
         11   -1    0    0    0    0 -0.00000000000E+00 -0.00000000000E+00 -0.45593999997E+02  0.45594000000E+02  0.51100000000E-03 0. -1.
    9900012    2    1    2    0    0 -0.75690716558E+01  0.38311458750E+02  0.11318464197E+02  0.50528851595E+02  0.29999974907E+02 0.  0.
        -12    1    1    2    0    0  0.75690716558E+01 -0.38311458750E+02 -0.11318464197E+02  0.40659148405E+02  0.00000000000E+00 0.  1.
         11    1    3    3    0    0 -0.33479589762E+01  0.28845388070E+02  0.25616602235E+01  0.29151798325E+02  0.51100000000E-03 0. -1.
        -11    1    3    3    0    0 -0.20228270293E+01  0.46426037628E+01 -0.47029599030E+01  0.69111092452E+01  0.51100000000E-03 0.  1.
        -12    1    3    3    0    0 -0.21982856503E+01  0.48234669168E+01  0.13459763877E+02  0.14465944025E+02  0.00000000000E+00 0.  1.
</event>
<event>
 7    1  0.5373252E-013  0.5052887E+02  0.7816164E-02  0.1300439E+00
        -11   -1    0    0    0    0  0.00000000000E+00  0.00000000000E+00  0.45593999997E+02  0.45594000000E+02  0.51100000000E-03 0.  1.
         11   -1    0    0    0    0 -0.00000000000E+00 -0.00000000000E+00 -0.45593999997E+02  0.45594000000E+02  0.51100000000E-03 0. -1.
    9900012    2    1    2    0    0 -0.14636854282E+02 -0.37738339048E+02 -0.38399797559E+01  0.50528865948E+02  0.30000018534E+02 0.  0.
        -12    1    1    2    0    0  0.14636854282E+02  0.37738339048E+02  0.38399797559E+01  0.40659134052E+02  0.00000000000E+00 0.  1.
         11    1    3    3    0    0 -0.26183829250E+01 -0.13214693899E+02 -0.11312372606E+02  0.17591300072E+02  0.51100000000E-03 0. -1.
        -11    1    3    3    0    0 -0.14907233697E+02 -0.14249685784E+02  0.14262603032E+01  0.20671559694E+02  0.51100000000E-03 0.  1.
         12    1    3    3    0    0  0.28887623402E+01 -0.10273959364E+02  0.60461325468E+01  0.12266006182E+02  0.00000000000E+00 0. -1.
</event>
<event>
 7    1  0.5373252E-013  0.5052886E+02  0.7816164E-02  0.1300439E+00
        -11   -1    0    0    0    0  0.00000000000E+00  0.00000000000E+00  0.45593999997E+02  0.45594000000E+02  0.51100000000E-03 0.  1.
         11   -1    0    0    0    0 -0.00000000000E+00 -0.00000000000E+00 -0.45593999997E+02  0.45594000000E+02  0.51100000000E-03 0. -1.
    9900012    2    1    2    0    0 -0.86049796009E+01  0.36888050541E+02 -0.14778090393E+02  0.50528857088E+02  0.29999991604E+02 0.  0.
        -12    1    1    2    0    0  0.86049796009E+01 -0.36888050541E+02  0.14778090393E+02  0.40659142912E+02  0.00000000000E+00 0.  1.
         11    1    3    3    0    0 -0.12327771579E+02  0.16957699833E+02 -0.11957652661E+02  0.24135513111E+02  0.51100000000E-03 0.  1.
        -11    1    3    3    0    0  0.35313616449E+01  0.21010297709E+02 -0.67222103204E+01  0.22340349969E+02  0.51100000000E-03 0. -1.
        -12    1    3    3    0    0  0.19143033293E+00 -0.10799470010E+01  0.39017725878E+01  0.40529940074E+01  0.00000000000E+00 0.  1.
</event>
<event>
 7    1  0.5373252E-013  0.5052885E+02  0.7816164E-02  0.1300439E+00
        -11   -1    0    0    0    0  0.00000000000E+00  0.00000000000E+00  0.45593999997E+02  0.45594000000E+02  0.51100000000E-03 0.  1.
         11   -1    0    0    0    0 -0.00000000000E+00 -0.00000000000E+00 -0.45593999997E+02  0.45594000000E+02  0.51100000000E-03 0. -1.
    9900012    2    1    2    0    0 -0.65683361282E+01 -0.24806819715E+01 -0.40048342731E+02  0.50528848779E+02  0.29999966348E+02 0.  0.
        -12    1    1    2    0    0  0.65683361282E+01  0.24806819715E+01  0.40048342731E+02  0.40659151221E+02  0.00000000000E+00 0.  1.
         11    1    3    3    0    0 -0.36821174901E+01 -0.54716012132E+00 -0.19937947546E+02  0.20282483231E+02  0.51100000000E-03 0. -1.
        -11    1    3    3    0    0  0.36701340034E+01 -0.95045642626E+01 -0.16891735246E+02  0.19726564458E+02  0.51100000000E-03 0.  1.
         12    1    3    3    0    0 -0.65563526416E+01  0.75710424125E+01 -0.32186599390E+01  0.10519801090E+02  0.00000000000E+00 0. -1.
</event>
<event>
 7    1  0.5373252E-013  0.5052889E+02  0.7816164E-02  0.1300439E+00
        -11   -1    0    0    0    0  0.00000000000E+00  0.00000000000E+00  0.45593999997E+02  0.45594000000E+02  0.51100000000E-03 0.  1.
         11   -1    0    0    0    0 -0.00000000000E+00 -0.00000000000E+00 -0.45593999997E+02  0.45594000000E+02  0.51100000000E-03 0. -1.
    9900012    2    1    2    0    0  0.14086968933E+01  0.25315551856E+02 -0.31785243951E+02  0.50528888774E+02  0.30000087917E+02 0.  0.
        -12    1    1    2    0    0 -0.14086968933E+01 -0.25315551856E+02  0.31785243951E+02  0.40659111226E+02  0.00000000000E+00 0.  1.
         11    1    3    3    0    0  0.41588481527E+01  0.25215399005E+02 -0.15271315596E+02  0.29771218404E+02  0.51100000000E-03 0. -1.
        -11    1    3    3    0    0  0.42405165220E+00  0.55396592567E+01 -0.11259634032E+02  0.12555755783E+02  0.51100000000E-03 0.  1.
        -12    1    3    3    0    0 -0.31742029115E+01 -0.54395064061E+01 -0.52542943229E+01  0.82019145873E+01  0.00000000000E+00 0.  1.
</event>
<event>
 7    1  0.5373252E-013  0.5052886E+02  0.7816164E-02  0.1300439E+00
        -11   -1    0    0    0    0  0.00000000000E+00  0.00000000000E+00  0.45593999997E+02  0.45594000000E+02  0.51100000000E-03 0.  1.
         11   -1    0    0    0    0 -0.00000000000E+00 -0.00000000000E+00 -0.45593999997E+02  0.45594000000E+02  0.51100000000E-03 0. -1.
    9900012    2    1    2    0    0  0.44800373826E+01  0.36677495074E+02 -0.16966334364E+02  0.50528857343E+02  0.29999992381E+02 0.  0.
        -12    1    1    2    0    0 -0.44800373826E+01 -0.36677495074E+02  0.16966334364E+02  0.40659142657E+02  0.00000000000E+00 0.  1.
         11    1    3    3    0    0  0.45520783415E+01  0.33364187433E+02 -0.10021258703E+02  0.35132834308E+02  0.51100000000E-03 0. -1.
        -11    1    3    3    0    0  0.48167123474E+01  0.13475498668E+01  0.16906814123E+01  0.52796791929E+01  0.51100000000E-03 0.  1.
        -12    1    3    3    0    0 -0.48887533063E+01  0.19657577741E+01 -0.86357570729E+01  0.10116343842E+02  0.00000000000E+00 0.  1.
</event>
<event>
 7    1  0.5373252E-013  0.5052886E+02  0.7816164E-02  0.1300439E+00
        -11   -1    0    0    0    0  0.00000000000E+00  0.00000000000E+00  0.45593999997E+02  0.45594000000E+02  0.51100000000E-03 0.  1.
         11   -1    0    0    0    0 -0.00000000000E+00 -0.00000000000E+00 -0.45593999997E+02  0.45594000000E+02  0.51100000000E-03 0. -1.
    9900012    2    1    2    0    0  0.17047766470E+02 -0.18601416726E+02 -0.31883020896E+02  0.50528855060E+02  0.29999985439E+02 0.  0.
        -12    1    1    2    0    0 -0.17047766470E+02  0.18601416726E+02  0.31883020896E+02  0.40659144940E+02  0.00000000000E+00 0.  1.
         11    1    3    3    0    0  0.15607474638E+01 -0.19446526760E+01  0.48029938137E+01  0.54116870301E+01  0.51100000000E-03 0. -1.
        -11    1    3    3    0    0  0.22072072157E+01 -0.14712264928E+01  0.60377327729E+00  0.27204436251E+01  0.51100000000E-03 0.  1.
         12    1    3    3    0    0  0.13279811790E+02 -0.15185537557E+02 -0.37289787987E+02  0.42396724404E+02  0.00000000000E+00 0. -1.
</event>
<event>
 7    1  0.5373252E-013  0.5052887E+02  0.7816164E-02  0.1300439E+00
        -11   -1    0    0    0    0  0.00000000000E+00  0.00000000000E+00  0.45593999997E+02  0.45594000000E+02  0.51100000000E-03 0.  1.
         11   -1    0    0    0    0 -0.00000000000E+00 -0.00000000000E+00 -0.45593999997E+02  0.45594000000E+02  0.51100000000E-03 0. -1.
    9900012    2    1    2    0    0  0.23083654519E+02  0.85058486835E+01 -0.32372218210E+02  0.50528867205E+02  0.30000022356E+02 0.  0.
        -12    1    1    2    0    0 -0.23083654519E+02 -0.85058486835E+01  0.32372218210E+02  0.40659132795E+02  0.00000000000E+00 0.  1.
         11    1    3    3    0    0  0.16121204456E+02 -0.23835222513E+01 -0.27665631934E+02  0.32108590782E+02  0.51100000000E-03 0. -1.
        -11    1    3    3    0    0  0.25928563754E+01 -0.25288433069E+01 -0.28972254425E+00  0.36334408029E+01  0.51100000000E-03 0.  1.
        -12    1    3    3    0    0  0.43695936878E+01  0.13418214242E+02 -0.44168637323E+01  0.14786835620E+02  0.00000000000E+00 0.  1.
</event>
<event>
 7    1  0.5373252E-013  0.5052886E+02  0.7816164E-02  0.1300439E+00
        -11   -1    0    0    0    0  0.00000000000E+00  0.00000000000E+00  0.45593999997E+02  0.45594000000E+02  0.51100000000E-03 0.  1.
         11   -1    0    0    0    0 -0.00000000000E+00 -0.00000000000E+00 -0.45593999997E+02  0.45594000000E+02  0.51100000000E-03 0. -1.
    9900012    2    1    2    0    0  0.26145648394E+02 -0.12543020537E+02 -0.28499877186E+02  0.50528864572E+02  0.30000014352E+02 0.  0.
        -12    1    1    2    0    0 -0.26145648394E+02  0.12543020537E+02  0.28499877186E+02  0.40659135428E+02  0.00000000000E+00 0.  1.
         11    1    3    3    0    0 -0.38480202785E+01 -0.59826754951E+01 -0.13819160826E+02  0.15542486042E+02  0.51100000000E-03 0. -1.
        -11    1    3    3    0    0  0.34052706523E+01  0.18270022899E+01 -0.21178503873E+01  0.44067103498E+01  0.51100000000E-03 0.  1.
         12    1    3    3    0    0  0.26588398020E+02 -0.83873473322E+01 -0.12562865972E+02  0.30579668180E+02  0.00000000000E+00 0. -1.
</event>
<event>
 7    1  0.5373252E-013  0.5052885E+02  0.7816164E-02  0.1300439E+00
        -11   -1    0    0    0    0  0.00000000000E+00  0.00000000000E+00  0.45593999997E+02  0.45594000000E+02  0.51100000000E-03 0.  1.
         11   -1    0    0    0    0 -0.00000000000E+00 -0.00000000000E+00 -0.45593999997E+02  0.45594000000E+02  0.51100000000E-03 0. -1.
    9900012    2    1    2    0    0  0.31411933022E+02 -0.41912143271E+01 -0.25473331439E+02  0.50528850620E+02  0.29999971943E+02 0.  0.
        -12    1    1    2    0    0 -0.31411933022E+02  0.41912143271E+01  0.25473331439E+02  0.40659149380E+02  0.00000000000E+00 0.  1.
         11    1    3    3    0    0 -0.17260375709E+01  0.20135862023E+01 -0.69145527846E+01  0.74057258633E+01  0.51100000000E-03 0. -1.
        -11    1    3    3    0    0  0.22068600497E+02 -0.56679661980E+01 -0.21843691660E+02  0.31564154262E+02  0.51100000000E-03 0.  1.
         12    1    3    3    0    0  0.11069370096E+02 -0.53683433134E+00  0.32849130053E+01  0.11558970494E+02  0.00000000000E+00 0. -1.
</event>
<event>
 7    1  0.5373252E-013  0.5052887E+02  0.7816164E-02  0.1300439E+00
        -11   -1    0    0    0    0  0.00000000000E+00  0.00000000000E+00  0.45593999997E+02  0.45594000000E+02  0.51100000000E-03 0. -1.
         11   -1    0    0    0    0 -0.00000000000E+00 -0.00000000000E+00 -0.45593999997E+02  0.45594000000E+02  0.51100000000E-03 0.  1.
    9900012    2    1    2    0    0 -0.32727692347E+02 -0.20399554209E+02 -0.12881047620E+02  0.50528867618E+02  0.30000023612E+02 0.  0.
        -12    1    1    2    0    0  0.32727692347E+02  0.20399554209E+02  0.12881047620E+02  0.40659132382E+02  0.00000000000E+00 0.  1.
         11    1    3    3    0    0 -0.18572754178E-01 -0.70020512212E+00  0.28004051761E+01  0.28866765617E+01  0.51100000000E-03 0. -1.
        -11    1    3    3    0    0 -0.24143517175E+02 -0.18986352364E+01 -0.35943673195E+01  0.24483335435E+02  0.51100000000E-03 0.  1.
        -12    1    3    3    0    0 -0.85656024173E+01 -0.17800713851E+02 -0.12087085477E+02  0.23158855621E+02  0.00000000000E+00 0.  1.
</event>
<event>
 7    1  0.5373252E-013  0.5052885E+02  0.7816164E-02  0.1300439E+00
        -11   -1    0    0    0    0  0.00000000000E+00  0.00000000000E+00  0.45593999997E+02  0.45594000000E+02  0.51100000000E-03 0.  1.
         11   -1    0    0    0    0 -0.00000000000E+00 -0.00000000000E+00 -0.45593999997E+02  0.45594000000E+02  0.51100000000E-03 0. -1.
    9900012    2    1    2    0    0 -0.18178287493E+02 -0.28069695831E+02 -0.23125928353E+02  0.50528849463E+02  0.29999968426E+02 0.  0.
        -12    1    1    2    0    0  0.18178287493E+02  0.28069695831E+02  0.23125928353E+02  0.40659150537E+02  0.00000000000E+00 0.  1.
         11    1    3    3    0    0 -0.87201802384E+01 -0.33931217476E+01  0.94824279707E+00  0.94049977803E+01  0.51100000000E-03 0. -1.
        -11    1    3    3    0    0  0.94820812644E+00  0.28579458352E+01 -0.56375021164E+01  0.63912740061E+01  0.51100000000E-03 0.  1.
         12    1    3    3    0    0 -0.10406315381E+02 -0.27534519919E+02 -0.18436669034E+02  0.34732577676E+02  0.00000000000E+00 0. -1.
</event>
<event>
 7    1  0.5373252E-013  0.5052886E+02  0.7816164E-02  0.1300439E+00
        -11   -1    0    0    0    0  0.00000000000E+00  0.00000000000E+00  0.45593999997E+02  0.45594000000E+02  0.51100000000E-03 0.  1.
         11   -1    0    0    0    0 -0.00000000000E+00 -0.00000000000E+00 -0.45593999997E+02  0.45594000000E+02  0.51100000000E-03 0. -1.
    9900012    2    1    2    0    0 -0.15005864647E+02  0.35030450335E+02 -0.14172402795E+02  0.50528862953E+02  0.30000009431E+02 0.  0.
        -12    1    1    2    0    0  0.15005864647E+02 -0.35030450335E+02  0.14172402795E+02  0.40659137047E+02  0.00000000000E+00 0.  1.
         11    1    3    3    0    0 -0.79800552779E+01  0.78695621273E+01 -0.12829681206E+02  0.17035610069E+02  0.51100000000E-03 0. -1.
        -11    1    3    3    0    0  0.51087727289E+01  0.36469617781E+01  0.24976775334E+01  0.67556111736E+01  0.51100000000E-03 0.  1.
         12    1    3    3    0    0 -0.12134582098E+02  0.23513926429E+02 -0.38403991224E+01  0.26737641710E+02  0.00000000000E+00 0. -1.
</event>
<event>
 7    1  0.5373252E-013  0.5052886E+02  0.7816164E-02  0.1300439E+00
        -11   -1    0    0    0    0  0.00000000000E+00  0.00000000000E+00  0.45593999997E+02  0.45594000000E+02  0.51100000000E-03 0.  1.
         11   -1    0    0    0    0 -0.00000000000E+00 -0.00000000000E+00 -0.45593999997E+02  0.45594000000E+02  0.51100000000E-03 0. -1.
    9900012    2    1    2    0    0 -0.86676728398E+01 -0.25501603851E+02 -0.30458252404E+02  0.50528862147E+02  0.30000006982E+02 0.  0.
        -12    1    1    2    0    0  0.86676728398E+01  0.25501603851E+02  0.30458252404E+02  0.40659137853E+02  0.00000000000E+00 0.  1.
         11    1    3    3    0    0 -0.11548408221E+01  0.20561623665E+01 -0.27842290687E+01  0.36487522209E+01  0.51100000000E-03 0. -1.
        -11    1    3    3    0    0 -0.62679110976E+01  0.23929092351E+01 -0.10568661450E+01  0.67918841601E+01  0.51100000000E-03 0.  1.
         12    1    3    3    0    0 -0.12449209201E+01 -0.29950675453E+02 -0.26617157190E+02  0.40088225766E+02  0.00000000000E+00 0. -1.
</event>
<event>
 7    1  0.5373252E-013  0.5052885E+02  0.7816164E-02  0.1300439E+00
        -11   -1    0    0    0    0  0.00000000000E+00  0.00000000000E+00  0.45593999997E+02  0.45594000000E+02  0.51100000000E-03 0.  1.
         11   -1    0    0    0    0 -0.00000000000E+00 -0.00000000000E+00 -0.45593999997E+02  0.45594000000E+02  0.51100000000E-03 0. -1.
    9900012    2    1    2    0    0 -0.30871088832E+02 -0.11889111933E+02 -0.23638770385E+02  0.50528848834E+02  0.29999966517E+02 0.  0.
        -12    1    1    2    0    0  0.30871088832E+02  0.11889111933E+02  0.23638770385E+02  0.40659151166E+02  0.00000000000E+00 0.  1.
         11    1    3    3    0    0 -0.40512432910E+01 -0.12079550683E+01 -0.43166923300E+01  0.60419831664E+01  0.51100000000E-03 0. -1.
        -11    1    3    3    0    0  0.28455003539E+01 -0.54458141539E+01  0.31496945766E+01  0.69046607629E+01  0.51100000000E-03 0.  1.
        -12    1    3    3    0    0 -0.29665345895E+02 -0.52353427106E+01 -0.22471772631E+02  0.37582204905E+02  0.00000000000E+00 0.  1.
</event>
<event>
 7    1  0.5373252E-013  0.5052886E+02  0.7816164E-02  0.1300439E+00
        -11   -1    0    0    0    0  0.00000000000E+00  0.00000000000E+00  0.45593999997E+02  0.45594000000E+02  0.51100000000E-03 0.  1.
         11   -1    0    0    0    0 -0.00000000000E+00 -0.00000000000E+00 -0.45593999997E+02  0.45594000000E+02  0.51100000000E-03 0. -1.
    9900012    2    1    2    0    0  0.72815437294E+01  0.30555817810E+02 -0.25816411238E+02  0.50528856252E+02  0.29999989065E+02 0.  0.
        -12    1    1    2    0    0 -0.72815437294E+01 -0.30555817810E+02  0.25816411238E+02  0.40659143748E+02  0.00000000000E+00 0.  1.
         11    1    3    3    0    0  0.52707689619E+01  0.16477884980E+02 -0.18694606226E+01  0.17401051179E+02  0.51100000000E-03 0. -1.
        -11    1    3    3    0    0 -0.60403587546E+01  0.84359015694E+00 -0.23200855076E+01  0.65253639945E+01  0.51100000000E-03 0.  1.
         12    1    3    3    0    0  0.80511335221E+01  0.13234342673E+02 -0.21626865108E+02  0.26602441079E+02  0.00000000000E+00 0. -1.
</event>
<event>
 7    1  0.5373252E-013  0.5052886E+02  0.7816164E-02  0.1300439E+00
        -11   -1    0    0    0    0  0.00000000000E+00  0.00000000000E+00  0.45593999997E+02  0.45594000000E+02  0.51100000000E-03 0. -1.
         11   -1    0    0    0    0 -0.00000000000E+00 -0.00000000000E+00 -0.45593999997E+02  0.45594000000E+02  0.51100000000E-03 0.  1.
    9900012    2    1    2    0    0  0.40182697024E+02 -0.61545482499E+01 -0.79878026781E+00  0.50528860139E+02  0.30000000879E+02 0.  0.
        -12    1    1    2    0    0 -0.40182697024E+02  0.61545482499E+01  0.79878026781E+00  0.40659139861E+02  0.00000000000E+00 0.  1.
         11    1    3    3    0    0  0.31074710120E+02  0.45721496660E+01  0.93731091340E+00  0.31423251162E+02  0.51100000000E-03 0. -1.
        -11    1    3    3    0    0  0.99322582922E+01 -0.12185703456E+02  0.11559364065E+01  0.15763163158E+02  0.51100000000E-03 0.  1.
        -12    1    3    3    0    0 -0.82427138773E+00  0.14590055402E+01 -0.28920275877E+01  0.33424458193E+01  0.00000000000E+00 0.  1.
</event>
<event>
 7    1  0.5373252E-013  0.5052885E+02  0.7816164E-02  0.1300439E+00
        -11   -1    0    0    0    0  0.00000000000E+00  0.00000000000E+00  0.45593999997E+02  0.45594000000E+02  0.51100000000E-03 0.  1.
         11   -1    0    0    0    0 -0.00000000000E+00 -0.00000000000E+00 -0.45593999997E+02  0.45594000000E+02  0.51100000000E-03 0. -1.
    9900012    2    1    2    0    0  0.21062840162E+02  0.10187860771E+02 -0.33252534460E+02  0.50528846162E+02  0.29999958393E+02 0.  0.
        -12    1    1    2    0    0 -0.21062840162E+02 -0.10187860771E+02  0.33252534460E+02  0.40659153838E+02  0.00000000000E+00 0.  1.
         11    1    3    3    0    0  0.21204910121E+02  0.11785140895E+02 -0.35564194283E+02  0.43050547899E+02  0.51100000000E-03 0. -1.
        -11    1    3    3    0    0  0.15708200743E+01  0.17967911330E+01  0.27615771352E+01  0.36499647418E+01  0.51100000000E-03 0.  1.
        -12    1    3    3    0    0 -0.17128900324E+01 -0.33940712571E+01 -0.44991731310E+00  0.38283335212E+01  0.00000000000E+00 0.  1.
</event>
<event>
 7    1  0.5373252E-013  0.5052885E+02  0.7816164E-02  0.1300439E+00
        -11   -1    0    0    0    0  0.00000000000E+00  0.00000000000E+00  0.45593999997E+02  0.45594000000E+02  0.51100000000E-03 0. -1.
         11   -1    0    0    0    0 -0.00000000000E+00 -0.00000000000E+00 -0.45593999997E+02  0.45594000000E+02  0.51100000000E-03 0.  1.
    9900012    2    1    2    0    0 -0.36642044080E+02  0.94232876566E+01  0.14890555959E+02  0.50528850951E+02  0.29999972950E+02 0.  0.
        -12    1    1    2    0    0  0.36642044080E+02 -0.94232876566E+01 -0.14890555959E+02  0.40659149049E+02  0.00000000000E+00 0.  1.
         11    1    3    3    0    0 -0.41993631220E+01 -0.13747460223E+01  0.61958637711E+01  0.76100791972E+01  0.51100000000E-03 0. -1.
        -11    1    3    3    0    0 -0.88433615103E+01  0.14366475268E+02  0.88502940326E+01  0.19050678706E+02  0.51100000000E-03 0.  1.
         12    1    3    3    0    0 -0.23599319448E+02 -0.35684415895E+01 -0.15560184504E+00  0.23868093048E+02  0.00000000000E+00 0. -1.
</event>
<event>
 7    1  0.5373252E-013  0.5052886E+02  0.7816164E-02  0.1300439E+00
        -11   -1    0    0    0    0  0.00000000000E+00  0.00000000000E+00  0.45593999997E+02  0.45594000000E+02  0.51100000000E-03 0. -1.
         11   -1    0    0    0    0 -0.00000000000E+00 -0.00000000000E+00 -0.45593999997E+02  0.45594000000E+02  0.51100000000E-03 0.  1.
    9900012    2    1    2    0    0  0.15805693893E+02 -0.18535306609E+01  0.37415372373E+02  0.50528860496E+02  0.30000001965E+02 0.  0.
        -12    1    1    2    0    0 -0.15805693893E+02  0.18535306609E+01 -0.37415372373E+02  0.40659139504E+02  0.00000000000E+00 0.  1.
         11    1    3    3    0    0 -0.19612003361E+01 -0.10985879263E+02  0.11359925456E+02  0.15924313379E+02  0.51100000000E-03 0. -1.
        -11    1    3    3    0    0  0.36787953459E+01  0.39603235752E+01  0.15058479032E+02  0.15999234014E+02  0.51100000000E-03 0.  1.
        -12    1    3    3    0    0  0.14088098883E+02  0.51720250272E+01  0.10996967884E+02  0.18605313103E+02  0.00000000000E+00 0.  1.
</event>
<event>
 7    1  0.5373252E-013  0.5052885E+02  0.7816164E-02  0.1300439E+00
        -11   -1    0    0    0    0  0.00000000000E+00  0.00000000000E+00  0.45593999997E+02  0.45594000000E+02  0.51100000000E-03 0. -1.
         11   -1    0    0    0    0 -0.00000000000E+00 -0.00000000000E+00 -0.45593999997E+02  0.45594000000E+02  0.51100000000E-03 0.  1.
    9900012    2    1    2    0    0  0.21343149350E+01  0.20377701793E+02  0.35119234444E+02  0.50528847789E+02  0.29999963339E+02 0.  0.
        -12    1    1    2    0    0 -0.21343149350E+01 -0.20377701793E+02 -0.35119234444E+02  0.40659152211E+02  0.00000000000E+00 0.  1.
         11    1    3    3    0    0 -0.25444181456E+01  0.14738837752E+02  0.90752444784E+01  0.17494783925E+02  0.51100000000E-03 0. -1.
        -11    1    3    3    0    0 -0.24873111133E+01 -0.11438978182E+01  0.22320635178E+02  0.22487907279E+02  0.51100000000E-03 0.  1.
        -12    1    3    3    0    0  0.71660441939E+01  0.67827618592E+01  0.37233547870E+01  0.10546156584E+02  0.00000000000E+00 0.  1.
</event>
<event>
 7    1  0.5373252E-013  0.5052889E+02  0.7816164E-02  0.1300439E+00
        -11   -1    0    0    0    0  0.00000000000E+00  0.00000000000E+00  0.45593999997E+02  0.45594000000E+02  0.51100000000E-03 0. -1.
         11   -1    0    0    0    0 -0.00000000000E+00 -0.00000000000E+00 -0.45593999997E+02  0.45594000000E+02  0.51100000000E-03 0.  1.
    9900012    2    1    2    0    0  0.27367706537E+02  0.29940246868E+02  0.27844736134E+01  0.50528892325E+02  0.30000098712E+02 0.  0.
        -12    1    1    2    0    0 -0.27367706537E+02 -0.29940246868E+02 -0.27844736134E+01  0.40659107675E+02  0.00000000000E+00 0.  1.
         11    1    3    3    0    0  0.11359016674E+02  0.23888448700E+02 -0.68530338471E+00  0.26460439945E+02  0.51100000000E-03 0. -1.
        -11    1    3    3    0    0  0.19921277958E+01  0.72309341989E+01  0.62105362033E+01  0.97378510328E+01  0.51100000000E-03 0.  1.
        -12    1    3    3    0    0  0.14016562068E+02 -0.11791360311E+01 -0.27407592052E+01  0.14330601348E+02  0.00000000000E+00 0.  1.
</event>
<event>
 7    1  0.5373252E-013  0.5052885E+02  0.7816164E-02  0.1300439E+00
        -11   -1    0    0    0    0  0.00000000000E+00  0.00000000000E+00  0.45593999997E+02  0.45594000000E+02  0.51100000000E-03 0.  1.
         11   -1    0    0    0    0 -0.00000000000E+00 -0.00000000000E+00 -0.45593999997E+02  0.45594000000E+02  0.51100000000E-03 0. -1.
    9900012    2    1    2    0    0  0.14117127391E+02  0.38123395412E+02  0.69258388167E+00  0.50528852986E+02  0.29999979135E+02 0.  0.
        -12    1    1    2    0    0 -0.14117127391E+02 -0.38123395412E+02 -0.69258388167E+00  0.40659147014E+02  0.00000000000E+00 0.  1.
         11    1    3    3    0    0 -0.40178897617E+01  0.13390651857E+02  0.76057505872E+00  0.14001123882E+02  0.51100000000E-03 0. -1.
        -11    1    3    3    0    0  0.21197268324E+01  0.11060477552E+02 -0.82249576102E+01  0.13945513023E+02  0.51100000000E-03 0.  1.
        -12    1    3    3    0    0  0.16015290320E+02  0.13672266003E+02  0.81569664332E+01  0.22582216080E+02  0.00000000000E+00 0.  1.
</event>
<event>
 7    1  0.5373252E-013  0.5052882E+02  0.7816164E-02  0.1300439E+00
        -11   -1    0    0    0    0  0.00000000000E+00  0.00000000000E+00  0.45593999997E+02  0.45594000000E+02  0.51100000000E-03 0.  1.
         11   -1    0    0    0    0 -0.00000000000E+00 -0.00000000000E+00 -0.45593999997E+02  0.45594000000E+02  0.51100000000E-03 0. -1.
    9900012    2    1    2    0    0  0.13419421406E+02 -0.18901349428E+01 -0.38334255606E+02  0.50528823498E+02  0.29999889505E+02 0.  0.
        -12    1    1    2    0    0 -0.13419421406E+02  0.18901349428E+01  0.38334255606E+02  0.40659176502E+02  0.00000000000E+00 0.  1.
         11    1    3    3    0    0  0.12367991199E+02  0.21865257906E+01 -0.68903869781E+01  0.14325694897E+02  0.51100000000E-03 0. -1.
        -11    1    3    3    0    0 -0.13753740454E+01 -0.35640999067E+01  0.76733410030E+00  0.38965707735E+01  0.51100000000E-03 0.  1.
         12    1    3    3    0    0  0.24268042527E+01 -0.51256082673E+00 -0.32211202728E+02  0.32306557827E+02  0.00000000000E+00 0. -1.
</event>
<event>
 7    1  0.5373252E-013  0.5052886E+02  0.7816164E-02  0.1300439E+00
        -11   -1    0    0    0    0  0.00000000000E+00  0.00000000000E+00  0.45593999997E+02  0.45594000000E+02  0.51100000000E-03 0.  1.
         11   -1    0    0    0    0 -0.00000000000E+00 -0.00000000000E+00 -0.45593999997E+02  0.45594000000E+02  0.51100000000E-03 0. -1.
    9900012    2    1    2    0    0 -0.53629341271E+01  0.39237164755E+02  0.92113703057E+01  0.50528861994E+02  0.30000006518E+02 0.  0.
        -12    1    1    2    0    0  0.53629341271E+01 -0.39237164755E+02 -0.92113703057E+01  0.40659138006E+02  0.00000000000E+00 0.  1.
         11    1    3    3    0    0  0.11360147464E+02  0.20827471802E+02  0.80209850481E+01  0.25043416968E+02  0.51100000000E-03 0. -1.
        -11    1    3    3    0    0 -0.41179317854E+01  0.84191103308E+01  0.55727811373E+00  0.93887880000E+01  0.51100000000E-03 0.  1.
         12    1    3    3    0    0 -0.12605149806E+02  0.99905826223E+01  0.63310714393E+00  0.16096657026E+02  0.00000000000E+00 0. -1.
</event>
<event>
 7    1  0.5373252E-013  0.5052885E+02  0.7816164E-02  0.1300439E+00
        -11   -1    0    0    0    0  0.00000000000E+00  0.00000000000E+00  0.45593999997E+02  0.45594000000E+02  0.51100000000E-03 0. -1.
         11   -1    0    0    0    0 -0.00000000000E+00 -0.00000000000E+00 -0.45593999997E+02  0.45594000000E+02  0.51100000000E-03 0.  1.
    9900012    2    1    2    0    0 -0.24443829029E+02 -0.10517979263E+02  0.30741472230E+02  0.50528846292E+02  0.29999958789E+02 0.  0.
        -12    1    1    2    0    0  0.24443829029E+02  0.10517979263E+02 -0.30741472230E+02  0.40659153708E+02  0.00000000000E+00 0.  1.
         11    1    3    3    0    0 -0.82261523308E-01 -0.42497870890E+01  0.55679568479E+01  0.70049697345E+01  0.51100000000E-03 0. -1.
        -11    1    3    3    0    0 -0.10041807346E+02  0.75242492415E+01  0.18880422326E+02  0.22669860363E+02  0.51100000000E-03 0.  1.
         12    1    3    3    0    0 -0.14319760159E+02 -0.13792441415E+02  0.62930930569E+01  0.20854016194E+02  0.00000000000E+00 0. -1.
</event>
<event>
 7    1  0.5373252E-013  0.5052887E+02  0.7816164E-02  0.1300439E+00
        -11   -1    0    0    0    0  0.00000000000E+00  0.00000000000E+00  0.45593999997E+02  0.45594000000E+02  0.51100000000E-03 0.  1.
         11   -1    0    0    0    0 -0.00000000000E+00 -0.00000000000E+00 -0.45593999997E+02  0.45594000000E+02  0.51100000000E-03 0. -1.
    9900012    2    1    2    0    0  0.13999433080E+02  0.12672161190E+02 -0.36008293483E+02  0.50528868242E+02  0.30000025507E+02 0.  0.
        -12    1    1    2    0    0 -0.13999433080E+02 -0.12672161190E+02  0.36008293483E+02  0.40659131758E+02  0.00000000000E+00 0.  1.
         11    1    3    3    0    0  0.78407185531E+01  0.11652181181E+01 -0.10552908830E+02  0.13198427396E+02  0.51100000000E-03 0. -1.
        -11    1    3    3    0    0 -0.11904536339E+01  0.35606084974E+01 -0.26212690932E+02  0.26480186535E+02  0.51100000000E-03 0.  1.
        -12    1    3    3    0    0  0.73491681610E+01  0.79463345742E+01  0.75730627892E+00  0.10850254312E+02  0.00000000000E+00 0.  1.
</event>
<event>
 7    1  0.5373252E-013  0.5052888E+02  0.7816164E-02  0.1300439E+00
        -11   -1    0    0    0    0  0.00000000000E+00  0.00000000000E+00  0.45593999997E+02  0.45594000000E+02  0.51100000000E-03 0.  1.
         11   -1    0    0    0    0 -0.00000000000E+00 -0.00000000000E+00 -0.45593999997E+02  0.45594000000E+02  0.51100000000E-03 0. -1.
    9900012    2    1    2    0    0  0.57543987287E+01 -0.37687982809E+02  0.14130364359E+02  0.50528876179E+02  0.30000049634E+02 0.  0.
        -12    1    1    2    0    0 -0.57543987287E+01  0.37687982809E+02 -0.14130364359E+02  0.40659123821E+02  0.00000000000E+00 0.  1.
         11    1    3    3    0    0 -0.58526324748E+00 -0.15335968118E+01  0.94334301252E+01  0.95751791857E+01  0.51100000000E-03 0.  1.
        -11    1    3    3    0    0  0.24771747395E+01 -0.27032749337E+01 -0.47308895194E+01  0.59854328134E+01  0.51100000000E-03 0. -1.
        -12    1    3    3    0    0  0.38624872367E+01 -0.33451111064E+02  0.94278237533E+01  0.34968264180E+02  0.00000000000E+00 0.  1.
</event>
<event>
 7    1  0.5373252E-013  0.5052886E+02  0.7816164E-02  0.1300439E+00
        -11   -1    0    0    0    0  0.00000000000E+00  0.00000000000E+00  0.45593999997E+02  0.45594000000E+02  0.51100000000E-03 0. -1.
         11   -1    0    0    0    0 -0.00000000000E+00 -0.00000000000E+00 -0.45593999997E+02  0.45594000000E+02  0.51100000000E-03 0.  1.
    9900012    2    1    2    0    0  0.93879855292E+01  0.27935574270E+02  0.28011340120E+02  0.50528858870E+02  0.29999997022E+02 0.  0.
        -12    1    1    2    0    0 -0.93879855292E+01 -0.27935574270E+02 -0.28011340120E+02  0.40659141130E+02  0.00000000000E+00 0.  1.
         11    1    3    3    0    0  0.18862072058E+01  0.11740456337E+02  0.12089087288E+02  0.16957067092E+02  0.51100000000E-03 0. -1.
        -11    1    3    3    0    0 -0.84034012821E+01  0.60816748645E+01  0.32921391732E+01  0.10883110900E+02  0.51100000000E-03 0.  1.
        -12    1    3    3    0    0  0.15905179605E+02  0.10113443068E+02  0.12630113659E+02  0.22688680879E+02  0.00000000000E+00 0.  1.
</event>
<event>
 7    1  0.5373252E-013  0.5052887E+02  0.7816164E-02  0.1300439E+00
        -11   -1    0    0    0    0  0.00000000000E+00  0.00000000000E+00  0.45593999997E+02  0.45594000000E+02  0.51100000000E-03 0. -1.
         11   -1    0    0    0    0 -0.00000000000E+00 -0.00000000000E+00 -0.45593999997E+02  0.45594000000E+02  0.51100000000E-03 0.  1.
    9900012    2    1    2    0    0  0.34009096184E+02  0.54553920553E+01  0.21605204861E+02  0.50528870609E+02  0.30000032704E+02 0.  0.
        -12    1    1    2    0    0 -0.34009096184E+02 -0.54553920553E+01 -0.21605204861E+02  0.40659129391E+02  0.00000000000E+00 0.  1.
         11    1    3    3    0    0  0.11740295373E+02  0.16104508606E+01  0.44712769634E+01  0.12665717720E+02  0.51100000000E-03 0. -1.
        -11    1    3    3    0    0  0.17927179760E+01  0.79009936143E+01 -0.32106959156E+01  0.87148210744E+01  0.51100000000E-03 0.  1.
         12    1    3    3    0    0  0.20476082835E+02 -0.40560524196E+01  0.20344623814E+02  0.29148331815E+02  0.00000000000E+00 0. -1.
</event>
<event>
 7    1  0.5373252E-013  0.5052886E+02  0.7816164E-02  0.1300439E+00
        -11   -1    0    0    0    0  0.00000000000E+00  0.00000000000E+00  0.45593999997E+02  0.45594000000E+02  0.51100000000E-03 0.  1.
         11   -1    0    0    0    0 -0.00000000000E+00 -0.00000000000E+00 -0.45593999997E+02  0.45594000000E+02  0.51100000000E-03 0. -1.
    9900012    2    1    2    0    0 -0.31380398298E+01  0.21236243459E+02 -0.34530276179E+02  0.50528864455E+02  0.30000013999E+02 0.  0.
        -12    1    1    2    0    0  0.31380398298E+01 -0.21236243459E+02  0.34530276179E+02  0.40659135545E+02  0.00000000000E+00 0.  1.
         11    1    3    3    0    0 -0.37424037493E+01  0.11514716531E+02 -0.15364353219E+02  0.19561636760E+02  0.51100000000E-03 0. -1.
        -11    1    3    3    0    0  0.11398561380E+02  0.59755966471E+01 -0.10892094215E+02  0.16860387702E+02  0.51100000000E-03 0.  1.
        -12    1    3    3    0    0 -0.10794197461E+02  0.37459302805E+01 -0.82738287455E+01  0.14106839993E+02  0.00000000000E+00 0.  1.
</event>
<event>
 7    1  0.5373252E-013  0.5052886E+02  0.7816164E-02  0.1300439E+00
        -11   -1    0    0    0    0  0.00000000000E+00  0.00000000000E+00  0.45593999997E+02  0.45594000000E+02  0.51100000000E-03 0. -1.
         11   -1    0    0    0    0 -0.00000000000E+00 -0.00000000000E+00 -0.45593999997E+02  0.45594000000E+02  0.51100000000E-03 0.  1.
    9900012    2    1    2    0    0  0.31460212628E+02  0.25575117242E+02 -0.30551973852E+01  0.50528857958E+02  0.29999994249E+02 0.  0.
        -12    1    1    2    0    0 -0.31460212628E+02 -0.25575117242E+02  0.30551973852E+01  0.40659142042E+02  0.00000000000E+00 0.  1.
         11    1    3    3    0    0 -0.11991976008E+01  0.13881882489E+01 -0.73716689291E+01  0.75964889628E+01  0.51100000000E-03 0.  1.
        -11    1    3    3    0    0  0.78887151924E+01  0.67563586669E+01 -0.45982718602E+01  0.11358887013E+02  0.51100000000E-03 0. -1.
        -12    1    3    3    0    0  0.24770695036E+02  0.17430570326E+02  0.89147434041E+01  0.31573481982E+02  0.00000000000E+00 0.  1.
</event>
<event>
 7    1  0.5373252E-013  0.5052886E+02  0.7816164E-02  0.1300439E+00
        -11   -1    0    0    0    0  0.00000000000E+00  0.00000000000E+00  0.45593999997E+02  0.45594000000E+02  0.51100000000E-03 0. -1.
         11   -1    0    0    0    0 -0.00000000000E+00 -0.00000000000E+00 -0.45593999997E+02  0.45594000000E+02  0.51100000000E-03 0.  1.
    9900012    2    1    2    0    0  0.10085285030E+01 -0.15904850815E+01  0.40615504229E+02  0.50528856424E+02  0.29999989587E+02 0.  0.
        -12    1    1    2    0    0 -0.10085285030E+01  0.15904850815E+01 -0.40615504229E+02  0.40659143576E+02  0.00000000000E+00 0.  1.
         11    1    3    3    0    0 -0.45117393953E+01  0.22356252683E+01  0.14797298596E+02  0.15630542495E+02  0.51100000000E-03 0. -1.
        -11    1    3    3    0    0 -0.69914149747E+01 -0.20021875832E+01  0.14075403816E+01  0.74074157878E+01  0.51100000000E-03 0.  1.
        -12    1    3    3    0    0  0.12511682873E+02 -0.18239227666E+01  0.24410665252E+02  0.27490898141E+02  0.00000000000E+00 0.  1.
</event>
<event>
 7    1  0.5373252E-013  0.5052886E+02  0.7816164E-02  0.1300439E+00
        -11   -1    0    0    0    0  0.00000000000E+00  0.00000000000E+00  0.45593999997E+02  0.45594000000E+02  0.51100000000E-03 0. -1.
         11   -1    0    0    0    0 -0.00000000000E+00 -0.00000000000E+00 -0.45593999997E+02  0.45594000000E+02  0.51100000000E-03 0.  1.
    9900012    2    1    2    0    0 -0.17232929628E+02 -0.31947515540E+02  0.18317967734E+02  0.50528861364E+02  0.30000004601E+02 0.  0.
        -12    1    1    2    0    0  0.17232929628E+02  0.31947515540E+02 -0.18317967734E+02  0.40659138636E+02  0.00000000000E+00 0.  1.
         11    1    3    3    0    0 -0.12575770763E+02 -0.15248231663E+02 -0.37852948120E+01  0.20124289707E+02  0.51100000000E-03 0. -1.
        -11    1    3    3    0    0 -0.34616786010E+01  0.57274364302E+00  0.29308845161E+01  0.45717981501E+01  0.51100000000E-03 0.  1.
        -12    1    3    3    0    0 -0.11954802637E+01 -0.17272027520E+02  0.19172378030E+02  0.25832773506E+02  0.00000000000E+00 0.  1.
</event>
<event>
 7    1  0.5373252E-013  0.5052890E+02  0.7816164E-02  0.1300439E+00
        -11   -1    0    0    0    0  0.00000000000E+00  0.00000000000E+00  0.45593999997E+02  0.45594000000E+02  0.51100000000E-03 0. -1.
         11   -1    0    0    0    0 -0.00000000000E+00 -0.00000000000E+00 -0.45593999997E+02  0.45594000000E+02  0.51100000000E-03 0.  1.
    9900012    2    1    2    0    0 -0.16271293743E+02 -0.23594158252E+02  0.28839611608E+02  0.50528898911E+02  0.30000118729E+02 0.  0.
        -12    1    1    2    0    0  0.16271293743E+02  0.23594158252E+02 -0.28839611608E+02  0.40659101089E+02  0.00000000000E+00 0.  1.
         11    1    3    3    0    0 -0.10416780597E+01 -0.12601421813E+02  0.59002068564E+01  0.13953256470E+02  0.51100000000E-03 0. -1.
        -11    1    3    3    0    0 -0.16144293871E+02 -0.13012857183E+02  0.92458772609E+01  0.22703720471E+02  0.51100000000E-03 0.  1.
        -12    1    3    3    0    0  0.91467818816E+00  0.20201207438E+01  0.13693527490E+02  0.13871921970E+02  0.00000000000E+00 0.  1.
</event>
<event>
 7    1  0.5373252E-013  0.5052883E+02  0.7816164E-02  0.1300439E+00
        -11   -1    0    0    0    0  0.00000000000E+00  0.00000000000E+00  0.45593999997E+02  0.45594000000E+02  0.51100000000E-03 0.  1.
         11   -1    0    0    0    0 -0.00000000000E+00 -0.00000000000E+00 -0.45593999997E+02  0.45594000000E+02  0.51100000000E-03 0. -1.
    9900012    2    1    2    0    0  0.38825356473E+02 -0.11110280939E+02 -0.47245188431E+01  0.50528834661E+02  0.29999923435E+02 0.  0.
        -12    1    1    2    0    0 -0.38825356473E+02  0.11110280939E+02  0.47245188431E+01  0.40659165339E+02  0.00000000000E+00 0.  1.
         11    1    3    3    0    0  0.18041695851E+02 -0.83145002661E+01  0.22227168199E+01  0.19989351519E+02  0.51100000000E-03 0. -1.
        -11    1    3    3    0    0  0.17988506479E+02  0.25001034419E+01  0.35020165069E+01  0.18495972601E+02  0.51100000000E-03 0.  1.
        -12    1    3    3    0    0  0.27951541428E+01 -0.52958841150E+01 -0.10449252170E+02  0.12043510541E+02  0.00000000000E+00 0.  1.
</event>
<event>
 7    1  0.5373252E-013  0.5052885E+02  0.7816164E-02  0.1300439E+00
        -11   -1    0    0    0    0  0.00000000000E+00  0.00000000000E+00  0.45593999997E+02  0.45594000000E+02  0.51100000000E-03 0.  1.
         11   -1    0    0    0    0 -0.00000000000E+00 -0.00000000000E+00 -0.45593999997E+02  0.45594000000E+02  0.51100000000E-03 0. -1.
    9900012    2    1    2    0    0  0.17492241953E+02 -0.22624161754E+02 -0.28902169558E+02  0.50528848154E+02  0.29999964450E+02 0.  0.
        -12    1    1    2    0    0 -0.17492241953E+02  0.22624161754E+02  0.28902169558E+02  0.40659151846E+02  0.00000000000E+00 0.  1.
         11    1    3    3    0    0  0.15536794778E+02 -0.68574018528E+01 -0.72154600261E+01  0.18452068063E+02  0.51100000000E-03 0. -1.
        -11    1    3    3    0    0  0.86917443221E+01 -0.14029136941E+02 -0.13410609522E+02  0.21265172246E+02  0.51100000000E-03 0.  1.
        -12    1    3    3    0    0 -0.67362971472E+01 -0.17376229607E+01 -0.82761000106E+01  0.10811607845E+02  0.00000000000E+00 0.  1.
</event>
<event>
 7    1  0.5373252E-013  0.5052886E+02  0.7816164E-02  0.1300439E+00
        -11   -1    0    0    0    0  0.00000000000E+00  0.00000000000E+00  0.45593999997E+02  0.45594000000E+02  0.51100000000E-03 0. -1.
         11   -1    0    0    0    0 -0.00000000000E+00 -0.00000000000E+00 -0.45593999997E+02  0.45594000000E+02  0.51100000000E-03 0.  1.
    9900012    2    1    2    0    0 -0.11254423680E+02 -0.33733662576E+02  0.19711508019E+02  0.50528860910E+02  0.30000003221E+02 0.  0.
        -12    1    1    2    0    0  0.11254423680E+02  0.33733662576E+02 -0.19711508019E+02  0.40659139090E+02  0.00000000000E+00 0.  1.
         11    1    3    3    0    0  0.10893319052E+01 -0.54369864688E+01  0.88577439558E+01  0.10450219812E+02  0.51100000000E-03 0. -1.
        -11    1    3    3    0    0  0.43182739242E+01 -0.25609213786E+01 -0.36058467476E+01  0.61812570744E+01  0.51100000000E-03 0.  1.
        -12    1    3    3    0    0 -0.16662029510E+02 -0.25735754729E+02  0.14459610810E+02  0.33897384024E+02  0.00000000000E+00 0.  1.
</event>
<event>
 7    1  0.5373252E-013  0.5052885E+02  0.7816164E-02  0.1300439E+00
        -11   -1    0    0    0    0  0.00000000000E+00  0.00000000000E+00  0.45593999997E+02  0.45594000000E+02  0.51100000000E-03 0.  1.
         11   -1    0    0    0    0 -0.00000000000E+00 -0.00000000000E+00 -0.45593999997E+02  0.45594000000E+02  0.51100000000E-03 0. -1.
    9900012    2    1    2    0    0  0.26300121139E+02 -0.23605283903E+02 -0.20106227070E+02  0.50528853832E+02  0.29999981709E+02 0.  0.
        -12    1    1    2    0    0 -0.26300121139E+02  0.23605283903E+02  0.20106227070E+02  0.40659146168E+02  0.00000000000E+00 0.  1.
         11    1    3    3    0    0 -0.47928461870E+00  0.68324614505E+00 -0.28045609393E+01  0.29261068613E+01  0.51100000000E-03 0.  1.
        -11    1    3    3    0    0  0.16144484113E+02 -0.28565363277E+02 -0.11615652608E+02  0.34807294238E+02  0.51100000000E-03 0. -1.
         12    1    3    3    0    0  0.10634921645E+02  0.42768332288E+01 -0.56860135232E+01  0.12795452733E+02  0.00000000000E+00 0. -1.
</event>
<event>
 7    1  0.5373252E-013  0.5052887E+02  0.7816164E-02  0.1300439E+00
        -11   -1    0    0    0    0  0.00000000000E+00  0.00000000000E+00  0.45593999997E+02  0.45594000000E+02  0.51100000000E-03 0.  1.
         11   -1    0    0    0    0 -0.00000000000E+00 -0.00000000000E+00 -0.45593999997E+02  0.45594000000E+02  0.51100000000E-03 0. -1.
    9900012    2    1    2    0    0 -0.14392825057E+02 -0.37993626339E+02 -0.15796953083E+01  0.50528874422E+02  0.30000044293E+02 0.  0.
        -12    1    1    2    0    0  0.14392825057E+02  0.37993626339E+02  0.15796953083E+01  0.40659125578E+02  0.00000000000E+00 0.  1.
         11    1    3    3    0    0 -0.90713544459E+01 -0.66628590666E+01 -0.54403797058E+01  0.12501235700E+02  0.51100000000E-03 0. -1.
        -11    1    3    3    0    0 -0.54633339393E+01 -0.50460065743E+01 -0.63990693226E+01  0.98111308490E+01  0.51100000000E-03 0.  1.
         12    1    3    3    0    0  0.14186332780E+00 -0.26284760698E+02  0.10259753720E+02  0.28216507873E+02  0.00000000000E+00 0. -1.
</event>
<event>
 7    1  0.5373252E-013  0.5052886E+02  0.7816164E-02  0.1300439E+00
        -11   -1    0    0    0    0  0.00000000000E+00  0.00000000000E+00  0.45593999997E+02  0.45594000000E+02  0.51100000000E-03 0. -1.
         11   -1    0    0    0    0 -0.00000000000E+00 -0.00000000000E+00 -0.45593999997E+02  0.45594000000E+02  0.51100000000E-03 0.  1.
    9900012    2    1    2    0    0 -0.34402887150E+02 -0.75662011607E+01  0.20306639903E+02  0.50528859965E+02  0.30000000350E+02 0.  0.
        -12    1    1    2    0    0  0.34402887150E+02  0.75662011607E+01 -0.20306639903E+02  0.40659140035E+02  0.00000000000E+00 0.  1.
         11    1    3    3    0    0 -0.50829641282E+01 -0.53766218915E+01  0.51740577969E+00  0.74170274568E+01  0.51100000000E-03 0.  1.
        -11    1    3    3    0    0 -0.10592212705E+02 -0.18623534199E+00 -0.52148145602E+01  0.11807791696E+02  0.51100000000E-03 0. -1.
         12    1    3    3    0    0 -0.18727710317E+02 -0.20033439273E+01  0.25004048683E+02  0.31304040812E+02  0.00000000000E+00 0. -1.
</event>
<event>
 7    1  0.5373252E-013  0.5052882E+02  0.7816164E-02  0.1300439E+00
        -11   -1    0    0    0    0  0.00000000000E+00  0.00000000000E+00  0.45593999997E+02  0.45594000000E+02  0.51100000000E-03 0. -1.
         11   -1    0    0    0    0 -0.00000000000E+00 -0.00000000000E+00 -0.45593999997E+02  0.45594000000E+02  0.51100000000E-03 0.  1.
    9900012    2    1    2    0    0 -0.39274920018E+02  0.10240219246E+02  0.24057337451E+01  0.50528819149E+02  0.29999876285E+02 0.  0.
        -12    1    1    2    0    0  0.39274920018E+02 -0.10240219246E+02 -0.24057337451E+01  0.40659180851E+02  0.00000000000E+00 0.  1.
         11    1    3    3    0    0 -0.20757711131E+02 -0.40804562576E+01  0.48225089651E+01  0.21697679315E+02  0.51100000000E-03 0. -1.
        -11    1    3    3    0    0  0.17122061066E+00 -0.15485587681E+01  0.33062088949E+01  0.36549101595E+01  0.51100000000E-03 0.  1.
        -12    1    3    3    0    0 -0.18688429497E+02  0.15869234272E+02 -0.57229841150E+01  0.25176229675E+02  0.00000000000E+00 0.  1.
</event>
<event>
 7    1  0.5373252E-013  0.5052886E+02  0.7816164E-02  0.1300439E+00
        -11   -1    0    0    0    0  0.00000000000E+00  0.00000000000E+00  0.45593999997E+02  0.45594000000E+02  0.51100000000E-03 0.  1.
         11   -1    0    0    0    0 -0.00000000000E+00 -0.00000000000E+00 -0.45593999997E+02  0.45594000000E+02  0.51100000000E-03 0. -1.
    9900012    2    1    2    0    0 -0.12211940015E+02  0.90068676109E+01 -0.37721487083E+02  0.50528859197E+02  0.29999998016E+02 0.  0.
        -12    1    1    2    0    0  0.12211940015E+02 -0.90068676109E+01  0.37721487083E+02  0.40659140803E+02  0.00000000000E+00 0.  1.
         11    1    3    3    0    0 -0.65732544064E+01 -0.41386388055E+01 -0.96033269107E+01  0.12351513780E+02  0.51100000000E-03 0. -1.
        -11    1    3    3    0    0 -0.11701585565E+02  0.75787955140E+01 -0.71848094680E+01  0.15683964216E+02  0.51100000000E-03 0.  1.
         12    1    3    3    0    0  0.60628999567E+01  0.55667109024E+01 -0.20933350704E+02  0.22493381201E+02  0.00000000000E+00 0. -1.
</event>
<event>
 7    1  0.5373252E-013  0.5052886E+02  0.7816164E-02  0.1300439E+00
        -11   -1    0    0    0    0  0.00000000000E+00  0.00000000000E+00  0.45593999997E+02  0.45594000000E+02  0.51100000000E-03 0.  1.
         11   -1    0    0    0    0 -0.00000000000E+00 -0.00000000000E+00 -0.45593999997E+02  0.45594000000E+02  0.51100000000E-03 0. -1.
    9900012    2    1    2    0    0  0.49479361774E+01  0.14129392199E+02 -0.37802693789E+02  0.50528862601E+02  0.30000008361E+02 0.  0.
        -12    1    1    2    0    0 -0.49479361774E+01 -0.14129392199E+02  0.37802693789E+02  0.40659137399E+02  0.00000000000E+00 0.  1.
         11    1    3    3    0    0  0.10091217137E+02  0.74195090931E+01 -0.20096528375E+02  0.23680207589E+02  0.51100000000E-03 0. -1.
        -11    1    3    3    0    0  0.58364569099E+01  0.32280507130E+00 -0.11108437835E+01  0.59499921469E+01  0.51100000000E-03 0.  1.
         12    1    3    3    0    0 -0.10979737869E+02  0.63870780346E+01 -0.16595321631E+02  0.20898662865E+02  0.00000000000E+00 0. -1.
</event>
<event>
 7    1  0.5373252E-013  0.5052887E+02  0.7816164E-02  0.1300439E+00
        -11   -1    0    0    0    0  0.00000000000E+00  0.00000000000E+00  0.45593999997E+02  0.45594000000E+02  0.51100000000E-03 0.  1.
         11   -1    0    0    0    0 -0.00000000000E+00 -0.00000000000E+00 -0.45593999997E+02  0.45594000000E+02  0.51100000000E-03 0. -1.
    9900012    2    1    2    0    0 -0.67340861729E+01 -0.12494636833E+02 -0.38101192625E+02  0.50528871312E+02  0.30000034841E+02 0.  0.
        -12    1    1    2    0    0  0.67340861729E+01  0.12494636833E+02  0.38101192625E+02  0.40659128688E+02  0.00000000000E+00 0.  1.
         11    1    3    3    0    0 -0.36331254509E+01 -0.15073230022E+02 -0.20349629905E+02  0.25583379397E+02  0.51100000000E-03 0. -1.
        -11    1    3    3    0    0 -0.24429251180E+01  0.91283292450E+00 -0.21039969354E+02  0.21200977754E+02  0.51100000000E-03 0.  1.
        -12    1    3    3    0    0 -0.65803560410E+00  0.16657602644E+01  0.32884066336E+01  0.37445141611E+01  0.00000000000E+00 0.  1.
</event>
<event>
 7    1  0.5373252E-013  0.5052885E+02  0.7816164E-02  0.1300439E+00
        -11   -1    0    0    0    0  0.00000000000E+00  0.00000000000E+00  0.45593999997E+02  0.45594000000E+02  0.51100000000E-03 0. -1.
         11   -1    0    0    0    0 -0.00000000000E+00 -0.00000000000E+00 -0.45593999997E+02  0.45594000000E+02  0.51100000000E-03 0.  1.
    9900012    2    1    2    0    0  0.17616480025E+02  0.30921308173E+01  0.36513898586E+02  0.50528850582E+02  0.29999971828E+02 0.  0.
        -12    1    1    2    0    0 -0.17616480025E+02 -0.30921308173E+01 -0.36513898586E+02  0.40659149418E+02  0.00000000000E+00 0.  1.
         11    1    3    3    0    0  0.11954154564E+02 -0.55397001074E+01  0.50123619833E+01  0.14096590422E+02  0.51100000000E-03 0. -1.
        -11    1    3    3    0    0  0.64020890498E+01 -0.10295533878E+01  0.49196410026E+01  0.81393852492E+01  0.51100000000E-03 0.  1.
         12    1    3    3    0    0 -0.73976358861E+00  0.96613843124E+01  0.26581895600E+02  0.28292874910E+02  0.00000000000E+00 0. -1.
</event>
<event>
 7    1  0.5373252E-013  0.5052886E+02  0.7816164E-02  0.1300439E+00
        -11   -1    0    0    0    0  0.00000000000E+00  0.00000000000E+00  0.45593999997E+02  0.45594000000E+02  0.51100000000E-03 0. -1.
         11   -1    0    0    0    0 -0.00000000000E+00 -0.00000000000E+00 -0.45593999997E+02  0.45594000000E+02  0.51100000000E-03 0.  1.
    9900012    2    1    2    0    0 -0.35659723773E+02 -0.30613681331E+01  0.19291913410E+02  0.50528858378E+02  0.29999995525E+02 0.  0.
        -12    1    1    2    0    0  0.35659723773E+02  0.30613681331E+01 -0.19291913410E+02  0.40659141622E+02  0.00000000000E+00 0.  1.
         11    1    3    3    0    0 -0.87283263702E+01  0.55266930224E+00  0.15210376755E+02  0.17545503295E+02  0.51100000000E-03 0. -1.
        -11    1    3    3    0    0 -0.18502340576E+02  0.18812144002E+01  0.10195794055E+02  0.21209191194E+02  0.51100000000E-03 0.  1.
         12    1    3    3    0    0 -0.84290568272E+01 -0.54952518355E+01 -0.61142574005E+01  0.11774163889E+02  0.00000000000E+00 0. -1.
</event>
<event>
 7    1  0.5373252E-013  0.5052886E+02  0.7816164E-02  0.1300439E+00
        -11   -1    0    0    0    0  0.00000000000E+00  0.00000000000E+00  0.45593999997E+02  0.45594000000E+02  0.51100000000E-03 0. -1.
         11   -1    0    0    0    0 -0.00000000000E+00 -0.00000000000E+00 -0.45593999997E+02  0.45594000000E+02  0.51100000000E-03 0.  1.
    9900012    2    1    2    0    0 -0.30823327804E+02 -0.19819889520E+02 -0.17614204135E+02  0.50528859025E+02  0.29999997493E+02 0.  0.
        -12    1    1    2    0    0  0.30823327804E+02  0.19819889520E+02  0.17614204135E+02  0.40659140975E+02  0.00000000000E+00 0.  1.
         11    1    3    3    0    0 -0.15338685242E+02 -0.44890716142E+01  0.13499679442E+01  0.16038997556E+02  0.51100000000E-03 0. -1.
        -11    1    3    3    0    0  0.32994437711E+01  0.13821563480E+01 -0.15123852795E+01  0.38838118986E+01  0.51100000000E-03 0.  1.
        -12    1    3    3    0    0 -0.18784086333E+02 -0.16712974254E+02 -0.17451786800E+02  0.30606049570E+02  0.00000000000E+00 0.  1.
</event>
<event>
 7    1  0.5373252E-013  0.5052885E+02  0.7816164E-02  0.1300439E+00
        -11   -1    0    0    0    0  0.00000000000E+00  0.00000000000E+00  0.45593999997E+02  0.45594000000E+02  0.51100000000E-03 0. -1.
         11   -1    0    0    0    0 -0.00000000000E+00 -0.00000000000E+00 -0.45593999997E+02  0.45594000000E+02  0.51100000000E-03 0.  1.
    9900012    2    1    2    0    0 -0.28030808018E+02  0.47412265343E+01  0.29068208810E+02  0.50528853543E+02  0.29999980829E+02 0.  0.
        -12    1    1    2    0    0  0.28030808018E+02 -0.47412265343E+01 -0.29068208810E+02  0.40659146457E+02  0.00000000000E+00 0.  1.
         11    1    3    3    0    0 -0.86015343613E+01  0.45287498429E+01  0.36022874030E+01  0.10366891690E+02  0.51100000000E-03 0.  1.
        -11    1    3    3    0    0 -0.50503698138E+01 -0.64190548562E+01  0.22651857137E+02  0.24079392279E+02  0.51100000000E-03 0. -1.
         12    1    3    3    0    0 -0.14378903843E+02  0.66315315475E+01  0.28140642696E+01  0.16082569574E+02  0.00000000000E+00 0. -1.
</event>
<event>
 7    1  0.5373252E-013  0.5052887E+02  0.7816164E-02  0.1300439E+00
        -11   -1    0    0    0    0  0.00000000000E+00  0.00000000000E+00  0.45593999997E+02  0.45594000000E+02  0.51100000000E-03 0.  1.
         11   -1    0    0    0    0 -0.00000000000E+00 -0.00000000000E+00 -0.45593999997E+02  0.45594000000E+02  0.51100000000E-03 0. -1.
    9900012    2    1    2    0    0  0.92857628235E+01  0.21829462395E+02 -0.33021422012E+02  0.50528866568E+02  0.30000020421E+02 0.  0.
        -12    1    1    2    0    0 -0.92857628235E+01 -0.21829462395E+02  0.33021422012E+02  0.40659133432E+02  0.00000000000E+00 0.  1.
         11    1    3    3    0    0  0.13026672674E+02  0.10818391481E+02 -0.20821928026E+02  0.26838116218E+02  0.51100000000E-03 0. -1.
        -11    1    3    3    0    0 -0.50648382739E+01  0.13465192478E+02 -0.14234871156E+02  0.20238467143E+02  0.51100000000E-03 0.  1.
        -12    1    3    3    0    0  0.13239284230E+01 -0.24541215633E+01  0.20353771694E+01  0.34522832066E+01  0.00000000000E+00 0.  1.
</event>
