<event>
 7    1  0.2700104E-013  0.7246152E+02  0.7816164E-02  0.1226708E+00
        -11   -1    0    0    0    0  0.00000000000E+00  0.00000000000E+00  0.45593999997E+02  0.45594000000E+02  0.51100000000E-03 0.  1.
         11   -1    0    0    0    0 -0.00000000000E+00 -0.00000000000E+00 -0.45593999997E+02  0.45594000000E+02  0.51100000000E-03 0. -1.
    9900012    2    1    2    0    0  0.13991153483E+02  0.58841479804E+01 -0.10968380171E+02  0.72461523107E+02  0.69999938530E+02 0.  0.
        -12    1    1    2    0    0 -0.13991153483E+02 -0.58841479804E+01  0.10968380171E+02  0.18726476893E+02  0.00000000000E+00 0.  1.
         11    1    3    3    0    0  0.93310540657E+00 -0.13447816796E+02 -0.37349464909E+01  0.13988005141E+02  0.51100000000E-03 0. -1.
        -11    1    3    3    0    0  0.60418085460E+01 -0.18210963926E+02  0.16603333030E+01  0.19258747741E+02  0.51100000000E-03 0.  1.
        -12    1    3    3    0    0  0.70162395303E+01  0.37542928702E+02 -0.88937669829E+01  0.39214770225E+02  0.00000000000E+00 0.  1.
</event>
<event>
 7    1  0.2700104E-013  0.7246177E+02  0.7816164E-02  0.1226707E+00
        -11   -1    0    0    0    0  0.00000000000E+00  0.00000000000E+00  0.45593999997E+02  0.45594000000E+02  0.51100000000E-03 0.  1.
         11   -1    0    0    0    0 -0.00000000000E+00 -0.00000000000E+00 -0.45593999997E+02  0.45594000000E+02  0.51100000000E-03 0. -1.
    9900012    2    1    2    0    0 -0.54654601164E+01 -0.12067880884E+02 -0.13235060665E+02  0.72461766152E+02  0.70000255141E+02 0.  0.
        -12    1    1    2    0    0  0.54654601164E+01  0.12067880884E+02  0.13235060665E+02  0.18726233848E+02  0.00000000000E+00 0.  1.
         11    1    3    3    0    0 -0.14036855976E+01 -0.66770734012E+01  0.16516615372E+02  0.17870428816E+02  0.51100000000E-03 0.  1.
        -11    1    3    3    0    0 -0.15962487656E+02 -0.20168411314E+02 -0.22839211971E+02  0.34397607923E+02  0.51100000000E-03 0. -1.
         12    1    3    3    0    0  0.11900713137E+02  0.14777603831E+02 -0.69124640658E+01  0.20193729413E+02  0.00000000000E+00 0. -1.
</event>
<event>
 7    1  0.2700104E-013  0.7246157E+02  0.7816164E-02  0.1226708E+00
        -11   -1    0    0    0    0  0.00000000000E+00  0.00000000000E+00  0.45593999997E+02  0.45594000000E+02  0.51100000000E-03 0.  1.
         11   -1    0    0    0    0 -0.00000000000E+00 -0.00000000000E+00 -0.45593999997E+02  0.45594000000E+02  0.51100000000E-03 0. -1.
    9900012    2    1    2    0    0 -0.85355879012E+01  0.15320590957E+02 -0.65652387476E+01  0.72461571405E+02  0.70000001447E+02 0.  0.
        -12    1    1    2    0    0  0.85355879012E+01 -0.15320590957E+02  0.65652387476E+01  0.18726428595E+02  0.00000000000E+00 0.  1.
         11    1    3    3    0    0 -0.16697537411E+02  0.28370186541E+02  0.30385291787E+01  0.33059157578E+02  0.51100000000E-03 0. -1.
        -11    1    3    3    0    0 -0.10727096696E+02  0.52228367974E+01 -0.27958961241E+01  0.12254210016E+02  0.51100000000E-03 0.  1.
        -12    1    3    3    0    0  0.18889046205E+02 -0.18272432381E+02 -0.68078718022E+01  0.27148203811E+02  0.00000000000E+00 0.  1.
</event>
<event>
 7    1  0.2700104E-013  0.7246118E+02  0.7816164E-02  0.1226709E+00
        -11   -1    0    0    0    0  0.00000000000E+00  0.00000000000E+00  0.45593999997E+02  0.45594000000E+02  0.51100000000E-03 0. -1.
         11   -1    0    0    0    0 -0.00000000000E+00 -0.00000000000E+00 -0.45593999997E+02  0.45594000000E+02  0.51100000000E-03 0.  1.
    9900012    2    1    2    0    0  0.80239159515E+01 -0.15176303206E+02  0.74826727270E+01  0.72461179732E+02  0.69999491218E+02 0.  0.
        -12    1    1    2    0    0 -0.80239159515E+01  0.15176303206E+02 -0.74826727270E+01  0.18726820268E+02  0.00000000000E+00 0.  1.
         11    1    3    3    0    0  0.97998159878E+00 -0.38718803875E+01 -0.14412330009E+01  0.42460539908E+01  0.51100000000E-03 0. -1.
        -11    1    3    3    0    0  0.28929728636E+02 -0.21798627106E+02 -0.98404037942E+01  0.37535888024E+02  0.51100000000E-03 0.  1.
         12    1    3    3    0    0 -0.21885794284E+02  0.10494204287E+02  0.18764309522E+02  0.30679237717E+02  0.00000000000E+00 0. -1.
</event>
<event>
 7    1  0.2700104E-013  0.7246155E+02  0.7816164E-02  0.1226708E+00
        -11   -1    0    0    0    0  0.00000000000E+00  0.00000000000E+00  0.45593999997E+02  0.45594000000E+02  0.51100000000E-03 0.  1.
         11   -1    0    0    0    0 -0.00000000000E+00 -0.00000000000E+00 -0.45593999997E+02  0.45594000000E+02  0.51100000000E-03 0. -1.
    9900012    2    1    2    0    0 -0.17493904309E+02 -0.66242594448E+01  0.87317507427E+00  0.72461549832E+02  0.69999973344E+02 0.  0.
        -12    1    1    2    0    0  0.17493904309E+02  0.66242594448E+01 -0.87317507427E+00  0.18726450168E+02  0.00000000000E+00 0.  1.
         11    1    3    3    0    0 -0.38718770862E+01 -0.69672225463E+01  0.10921430295E+02  0.13520771506E+02  0.51100000000E-03 0. -1.
        -11    1    3    3    0    0 -0.15956007264E+02 -0.19224751824E+02  0.13368422133E+02  0.28335489428E+02  0.51100000000E-03 0.  1.
        -12    1    3    3    0    0  0.23339800410E+01  0.19567714926E+02 -0.23416677354E+02  0.30605288898E+02  0.00000000000E+00 0.  1.
</event>
<event>
 7    1  0.2700104E-013  0.7246157E+02  0.7816164E-02  0.1226708E+00
        -11   -1    0    0    0    0  0.00000000000E+00  0.00000000000E+00  0.45593999997E+02  0.45594000000E+02  0.51100000000E-03 0.  1.
         11   -1    0    0    0    0 -0.00000000000E+00 -0.00000000000E+00 -0.45593999997E+02  0.45594000000E+02  0.51100000000E-03 0. -1.
    9900012    2    1    2    0    0  0.26780117843E+01  0.95697321494E+01 -0.15872225187E+02  0.72461573408E+02  0.70000004056E+02 0.  0.
        -12    1    1    2    0    0 -0.26780117843E+01 -0.95697321494E+01  0.15872225187E+02  0.18726426592E+02  0.00000000000E+00 0.  1.
         11    1    3    3    0    0 -0.16918399439E+02  0.15058446183E+02  0.28211990543E+00  0.22651018364E+02  0.51100000000E-03 0. -1.
        -11    1    3    3    0    0 -0.74155395603E+01  0.10340408298E+01  0.94281226194E+01  0.12039475229E+02  0.51100000000E-03 0.  1.
        -12    1    3    3    0    0  0.27011950783E+02 -0.65227548635E+01 -0.25582467712E+02  0.37771079815E+02  0.00000000000E+00 0.  1.
</event>
<event>
 7    1  0.2700104E-013  0.7246162E+02  0.7816164E-02  0.1226708E+00
        -11   -1    0    0    0    0  0.00000000000E+00  0.00000000000E+00  0.45593999997E+02  0.45594000000E+02  0.51100000000E-03 0. -1.
         11   -1    0    0    0    0 -0.00000000000E+00 -0.00000000000E+00 -0.45593999997E+02  0.45594000000E+02  0.51100000000E-03 0.  1.
    9900012    2    1    2    0    0 -0.16492033417E+01  0.93790011586E+01  0.16124256090E+02  0.72461623713E+02  0.70000069587E+02 0.  0.
        -12    1    1    2    0    0  0.16492033417E+01 -0.93790011586E+01 -0.16124256090E+02  0.18726376287E+02  0.00000000000E+00 0.  1.
         11    1    3    3    0    0  0.64022790418E+01  0.58625882745E-01  0.79939949199E+01  0.10241902605E+02  0.51100000000E-03 0. -1.
        -11    1    3    3    0    0  0.51389021889E+01 -0.22876872817E+02 -0.67167802547E+01  0.24390054589E+02  0.51100000000E-03 0.  1.
         12    1    3    3    0    0 -0.13190384572E+02  0.32197248093E+02  0.14847041425E+02  0.37829666520E+02  0.00000000000E+00 0. -1.
</event>
<event>
 7    1  0.2700104E-013  0.7246156E+02  0.7816164E-02  0.1226708E+00
        -11   -1    0    0    0    0  0.00000000000E+00  0.00000000000E+00  0.45593999997E+02  0.45594000000E+02  0.51100000000E-03 0. -1.
         11   -1    0    0    0    0 -0.00000000000E+00 -0.00000000000E+00 -0.45593999997E+02  0.45594000000E+02  0.51100000000E-03 0.  1.
    9900012    2    1    2    0    0 -0.53821711854E+01 -0.11845814268E+02  0.13468058455E+02  0.72461556641E+02  0.69999982214E+02 0.  0.
        -12    1    1    2    0    0  0.53821711854E+01  0.11845814268E+02 -0.13468058455E+02  0.18726443359E+02  0.00000000000E+00 0.  1.
         11    1    3    3    0    0 -0.21428804373E+02 -0.30618137137E+02  0.11575200246E+00  0.37372147080E+02  0.51100000000E-03 0. -1.
        -11    1    3    3    0    0  0.16083052439E+01  0.17382595916E+02  0.10292411309E+02  0.20265118242E+02  0.51100000000E-03 0.  1.
        -12    1    3    3    0    0  0.14438327944E+02  0.13897269535E+01  0.30598951427E+01  0.14824291319E+02  0.00000000000E+00 0.  1.
</event>
<event>
 7    1  0.2700104E-013  0.7246153E+02  0.7816164E-02  0.1226708E+00
        -11   -1    0    0    0    0  0.00000000000E+00  0.00000000000E+00  0.45593999997E+02  0.45594000000E+02  0.51100000000E-03 0.  1.
         11   -1    0    0    0    0 -0.00000000000E+00 -0.00000000000E+00 -0.45593999997E+02  0.45594000000E+02  0.51100000000E-03 0. -1.
    9900012    2    1    2    0    0 -0.17602115410E+02  0.63887532267E+01 -0.17320460029E+00  0.72461531178E+02  0.69999949044E+02 0.  0.
        -12    1    1    2    0    0  0.17602115410E+02 -0.63887532267E+01  0.17320460029E+00  0.18726468822E+02  0.00000000000E+00 0.  1.
         11    1    3    3    0    0 -0.10114022111E+01 -0.11539866279E+01 -0.21801882453E+01  0.26660533784E+01  0.51100000000E-03 0. -1.
        -11    1    3    3    0    0  0.25244042657E+01 -0.28524097270E+02 -0.24163011034E+01  0.28737349447E+02  0.51100000000E-03 0.  1.
         12    1    3    3    0    0 -0.19115117465E+02  0.36066837125E+02  0.44232847485E+01  0.41058128353E+02  0.00000000000E+00 0. -1.
</event>
<event>
 7    1  0.2700104E-013  0.7246159E+02  0.7816164E-02  0.1226708E+00
        -11   -1    0    0    0    0  0.00000000000E+00  0.00000000000E+00  0.45593999997E+02  0.45594000000E+02  0.51100000000E-03 0.  1.
         11   -1    0    0    0    0 -0.00000000000E+00 -0.00000000000E+00 -0.45593999997E+02  0.45594000000E+02  0.51100000000E-03 0. -1.
    9900012    2    1    2    0    0 -0.14347523807E+02 -0.10163054906E+02  0.64451088704E+01  0.72461586761E+02  0.70000021451E+02 0.  0.
        -12    1    1    2    0    0  0.14347523807E+02  0.10163054906E+02 -0.64451088704E+01  0.18726413239E+02  0.00000000000E+00 0.  1.
         11    1    3    3    0    0  0.13382905504E+02 -0.73520583618E+01  0.22365270662E+02  0.27080625066E+02  0.51100000000E-03 0. -1.
        -11    1    3    3    0    0 -0.27575166100E+01  0.83356809958E+01  0.57441527298E+01  0.10492033471E+02  0.51100000000E-03 0.  1.
        -12    1    3    3    0    0 -0.24972912701E+02 -0.11146677540E+02 -0.21664314522E+02  0.34888928225E+02  0.00000000000E+00 0.  1.
</event>
<event>
 7    1  0.2700104E-013  0.7246158E+02  0.7816164E-02  0.1226708E+00
        -11   -1    0    0    0    0  0.00000000000E+00  0.00000000000E+00  0.45593999997E+02  0.45594000000E+02  0.51100000000E-03 0. -1.
         11   -1    0    0    0    0 -0.00000000000E+00 -0.00000000000E+00 -0.45593999997E+02  0.45594000000E+02  0.51100000000E-03 0.  1.
    9900012    2    1    2    0    0 -0.71007838305E+01  0.10110558503E+02  0.14072458771E+02  0.72461584963E+02  0.70000019109E+02 0.  0.
        -12    1    1    2    0    0  0.71007838305E+01 -0.10110558503E+02 -0.14072458771E+02  0.18726415037E+02  0.00000000000E+00 0.  1.
         11    1    3    3    0    0 -0.24850865069E+02 -0.72945365795E+01  0.15140670442E+02  0.30000261004E+02  0.51100000000E-03 0. -1.
        -11    1    3    3    0    0 -0.46458316181E+01 -0.48197339012E+01 -0.77176077573E+01  0.10216411114E+02  0.51100000000E-03 0.  1.
         12    1    3    3    0    0  0.22395912857E+02  0.22224828984E+02  0.66493960870E+01  0.32244912845E+02  0.00000000000E+00 0. -1.
</event>
<event>
 7    1  0.2700104E-013  0.7246157E+02  0.7816164E-02  0.1226708E+00
        -11   -1    0    0    0    0  0.00000000000E+00  0.00000000000E+00  0.45593999997E+02  0.45594000000E+02  0.51100000000E-03 0.  1.
         11   -1    0    0    0    0 -0.00000000000E+00 -0.00000000000E+00 -0.45593999997E+02  0.45594000000E+02  0.51100000000E-03 0. -1.
    9900012    2    1    2    0    0  0.10898814780E+02 -0.14401758581E+02  0.49481494868E+01  0.72461574896E+02  0.70000005994E+02 0.  0.
        -12    1    1    2    0    0 -0.10898814780E+02  0.14401758581E+02 -0.49481494868E+01  0.18726425104E+02  0.00000000000E+00 0.  1.
         11    1    3    3    0    0 -0.96703911501E+01  0.15262539396E+02  0.16050814573E+01  0.18139400777E+02  0.51100000000E-03 0. -1.
        -11    1    3    3    0    0  0.16863128295E+02  0.60406456621E+01 -0.20239914152E+01  0.18026398348E+02  0.51100000000E-03 0.  1.
        -12    1    3    3    0    0  0.37060776359E+01 -0.35704943639E+02  0.53670594447E+01  0.36295775771E+02  0.00000000000E+00 0.  1.
</event>
<event>
 7    1  0.2700104E-013  0.7246158E+02  0.7816164E-02  0.1226708E+00
        -11   -1    0    0    0    0  0.00000000000E+00  0.00000000000E+00  0.45593999997E+02  0.45594000000E+02  0.51100000000E-03 0. -1.
         11   -1    0    0    0    0 -0.00000000000E+00 -0.00000000000E+00 -0.45593999997E+02  0.45594000000E+02  0.51100000000E-03 0.  1.
    9900012    2    1    2    0    0  0.13703190515E+02  0.45380310305E+01  0.11929279028E+02  0.72461578718E+02  0.70000010973E+02 0.  0.
        -12    1    1    2    0    0 -0.13703190515E+02 -0.45380310305E+01 -0.11929279028E+02  0.18726421282E+02  0.00000000000E+00 0.  1.
         11    1    3    3    0    0  0.41222097986E+01  0.22150658858E+02  0.30592739763E+01  0.22737710065E+02  0.51100000000E-03 0. -1.
        -11    1    3    3    0    0 -0.52173530898E+01  0.36984421324E+01 -0.13838305003E+02  0.15244603408E+02  0.51100000000E-03 0.  1.
        -12    1    3    3    0    0  0.14798333806E+02 -0.21311069960E+02  0.22708310054E+02  0.34479265244E+02  0.00000000000E+00 0.  1.
</event>
<event>
 7    1  0.2700104E-013  0.7246155E+02  0.7816164E-02  0.1226708E+00
        -11   -1    0    0    0    0  0.00000000000E+00  0.00000000000E+00  0.45593999997E+02  0.45594000000E+02  0.51100000000E-03 0. -1.
         11   -1    0    0    0    0 -0.00000000000E+00 -0.00000000000E+00 -0.45593999997E+02  0.45594000000E+02  0.51100000000E-03 0.  1.
    9900012    2    1    2    0    0 -0.16596143870E+02 -0.65682122124E+01  0.56662556514E+01  0.72461551962E+02  0.69999976118E+02 0.  0.
        -12    1    1    2    0    0  0.16596143870E+02  0.65682122124E+01 -0.56662556514E+01  0.18726448038E+02  0.00000000000E+00 0.  1.
         11    1    3    3    0    0 -0.37243903438E+01  0.50327242551E+01 -0.16422847977E+02  0.17575816703E+02  0.51100000000E-03 0. -1.
        -11    1    3    3    0    0 -0.60977471716E+01  0.45050509606E+01 -0.13361840411E+02  0.15362837764E+02  0.51100000000E-03 0.  1.
         12    1    3    3    0    0 -0.67740063546E+01 -0.16105987428E+02  0.35450944039E+02  0.39522897495E+02  0.00000000000E+00 0. -1.
</event>
<event>
 7    1  0.2700104E-013  0.7246147E+02  0.7816164E-02  0.1226708E+00
        -11   -1    0    0    0    0  0.00000000000E+00  0.00000000000E+00  0.45593999997E+02  0.45594000000E+02  0.51100000000E-03 0.  1.
         11   -1    0    0    0    0 -0.00000000000E+00 -0.00000000000E+00 -0.45593999997E+02  0.45594000000E+02  0.51100000000E-03 0. -1.
    9900012    2    1    2    0    0  0.47196491652E+01  0.17950775998E+02  0.24854362227E+01  0.72461472281E+02  0.69999872320E+02 0.  0.
        -12    1    1    2    0    0 -0.47196491652E+01 -0.17950775998E+02 -0.24854362227E+01  0.18726527719E+02  0.00000000000E+00 0.  1.
         11    1    3    3    0    0  0.13093628923E+02  0.19699266938E+01 -0.78987199293E+01  0.15417960511E+02  0.51100000000E-03 0. -1.
        -11    1    3    3    0    0  0.42163064956E+01  0.10177927271E+02 -0.20454214351E+02  0.23232355218E+02  0.51100000000E-03 0.  1.
        -12    1    3    3    0    0 -0.12590286253E+02  0.58029220336E+01  0.30838370503E+02  0.33811156552E+02  0.00000000000E+00 0.  1.
</event>
<event>
 7    1  0.2700104E-013  0.7246159E+02  0.7816164E-02  0.1226708E+00
        -11   -1    0    0    0    0  0.00000000000E+00  0.00000000000E+00  0.45593999997E+02  0.45594000000E+02  0.51100000000E-03 0. -1.
         11   -1    0    0    0    0 -0.00000000000E+00 -0.00000000000E+00 -0.45593999997E+02  0.45594000000E+02  0.51100000000E-03 0.  1.
    9900012    2    1    2    0    0 -0.11405805375E+02 -0.10134815211E+02  0.10856869450E+02  0.72461588441E+02  0.70000023639E+02 0.  0.
        -12    1    1    2    0    0  0.11405805375E+02  0.10134815211E+02 -0.10856869450E+02  0.18726411559E+02  0.00000000000E+00 0.  1.
         11    1    3    3    0    0  0.85111722575E+01 -0.23181621203E+01  0.31013375544E+01  0.93505199695E+01  0.51100000000E-03 0. -1.
        -11    1    3    3    0    0  0.13584569930E+02  0.16338784712E+02  0.11041484268E+01  0.21277113762E+02  0.51100000000E-03 0.  1.
         12    1    3    3    0    0 -0.33501547563E+02 -0.24155437803E+02  0.66513834687E+01  0.41833954709E+02  0.00000000000E+00 0. -1.
</event>
<event>
 7    1  0.2700104E-013  0.7246152E+02  0.7816164E-02  0.1226708E+00
        -11   -1    0    0    0    0  0.00000000000E+00  0.00000000000E+00  0.45593999997E+02  0.45594000000E+02  0.51100000000E-03 0. -1.
         11   -1    0    0    0    0 -0.00000000000E+00 -0.00000000000E+00 -0.45593999997E+02  0.45594000000E+02  0.51100000000E-03 0.  1.
    9900012    2    1    2    0    0 -0.18984041764E+01  0.86865147418E+01  0.16480944356E+02  0.72461521323E+02  0.69999936205E+02 0.  0.
        -12    1    1    2    0    0  0.18984041764E+01 -0.86865147418E+01 -0.16480944356E+02  0.18726478677E+02  0.00000000000E+00 0.  1.
         11    1    3    3    0    0 -0.67001811344E+01 -0.14219654082E+01  0.16164695055E+01  0.70375696643E+01  0.51100000000E-03 0. -1.
        -11    1    3    3    0    0 -0.25754995965E+02  0.63702799036E+01  0.21240317222E+02  0.33986046536E+02  0.51100000000E-03 0.  1.
        -12    1    3    3    0    0  0.30556772923E+02  0.37382002464E+01 -0.63758423709E+01  0.31437905122E+02  0.00000000000E+00 0.  1.
</event>
<event>
 7    1  0.2700104E-013  0.7246159E+02  0.7816164E-02  0.1226708E+00
        -11   -1    0    0    0    0  0.00000000000E+00  0.00000000000E+00  0.45593999997E+02  0.45594000000E+02  0.51100000000E-03 0.  1.
         11   -1    0    0    0    0 -0.00000000000E+00 -0.00000000000E+00 -0.45593999997E+02  0.45594000000E+02  0.51100000000E-03 0. -1.
    9900012    2    1    2    0    0  0.76501507025E+01  0.16518784764E+02 -0.43912982558E+01  0.72461586669E+02  0.70000021331E+02 0.  0.
        -12    1    1    2    0    0 -0.76501507025E+01 -0.16518784764E+02  0.43912982558E+01  0.18726413331E+02  0.00000000000E+00 0.  1.
         11    1    3    3    0    0 -0.28026523325E+01  0.28121995255E+02 -0.26076994873E+02  0.38454013303E+02  0.51100000000E-03 0. -1.
        -11    1    3    3    0    0  0.93317226695E+01 -0.35128175182E+01 -0.87945302361E+00  0.10009713921E+02  0.51100000000E-03 0.  1.
        -12    1    3    3    0    0  0.11210803655E+01 -0.80903929726E+01  0.22565149641E+02  0.23997859445E+02  0.00000000000E+00 0.  1.
</event>
<event>
 7    1  0.2700104E-013  0.7246157E+02  0.7816164E-02  0.1226708E+00
        -11   -1    0    0    0    0  0.00000000000E+00  0.00000000000E+00  0.45593999997E+02  0.45594000000E+02  0.51100000000E-03 0.  1.
         11   -1    0    0    0    0 -0.00000000000E+00 -0.00000000000E+00 -0.45593999997E+02  0.45594000000E+02  0.51100000000E-03 0. -1.
    9900012    2    1    2    0    0 -0.46214496949E+01  0.14126797446E+02 -0.11390998440E+02  0.72461573517E+02  0.70000004198E+02 0.  0.
        -12    1    1    2    0    0  0.46214496949E+01 -0.14126797446E+02  0.11390998440E+02  0.18726426483E+02  0.00000000000E+00 0.  1.
         11    1    3    3    0    0  0.12614913979E+01  0.12786433481E+02 -0.15470664973E+02  0.20110338552E+02  0.51100000000E-03 0. -1.
        -11    1    3    3    0    0 -0.26932808211E+02 -0.39931738834E+01 -0.67994643605E+01  0.28063398077E+02  0.51100000000E-03 0.  1.
        -12    1    3    3    0    0  0.21049867118E+02  0.53335378485E+01  0.10879130893E+02  0.24287836888E+02  0.00000000000E+00 0.  1.
</event>
<event>
 7    1  0.2700104E-013  0.7246164E+02  0.7816164E-02  0.1226708E+00
        -11   -1    0    0    0    0  0.00000000000E+00  0.00000000000E+00  0.45593999997E+02  0.45594000000E+02  0.51100000000E-03 0. -1.
         11   -1    0    0    0    0 -0.00000000000E+00 -0.00000000000E+00 -0.45593999997E+02  0.45594000000E+02  0.51100000000E-03 0.  1.
    9900012    2    1    2    0    0 -0.14461278186E+02  0.70288658405E+00 -0.11876612255E+02  0.72461640638E+02  0.70000091635E+02 0.  0.
        -12    1    1    2    0    0  0.14461278186E+02 -0.70288658405E+00  0.11876612255E+02  0.18726359362E+02  0.00000000000E+00 0.  1.
         11    1    3    3    0    0 -0.18913337608E+02 -0.14656760099E+02 -0.10428681962E+01  0.23950418168E+02  0.51100000000E-03 0. -1.
        -11    1    3    3    0    0 -0.18485243159E+02  0.12290668882E+02  0.15722163394E+01  0.22253912481E+02  0.51100000000E-03 0.  1.
        -12    1    3    3    0    0  0.22937302582E+02  0.30689778013E+01 -0.12405960398E+02  0.26257309989E+02  0.00000000000E+00 0.  1.
</event>
<event>
 7    1  0.2700104E-013  0.7246161E+02  0.7816164E-02  0.1226708E+00
        -11   -1    0    0    0    0  0.00000000000E+00  0.00000000000E+00  0.45593999997E+02  0.45594000000E+02  0.51100000000E-03 0. -1.
         11   -1    0    0    0    0 -0.00000000000E+00 -0.00000000000E+00 -0.45593999997E+02  0.45594000000E+02  0.51100000000E-03 0.  1.
    9900012    2    1    2    0    0 -0.43200275465E+01 -0.65692179819E+01  0.16995890139E+02  0.72461613682E+02  0.70000056521E+02 0.  0.
        -12    1    1    2    0    0  0.43200275465E+01  0.65692179819E+01 -0.16995890139E+02  0.18726386318E+02  0.00000000000E+00 0.  1.
         11    1    3    3    0    0 -0.48337084524E+01 -0.13697919668E+02  0.10354430439E+02  0.17838496871E+02  0.51100000000E-03 0. -1.
        -11    1    3    3    0    0 -0.64877457973E+01 -0.22657855201E+02  0.40661884931E+01  0.23916587068E+02  0.51100000000E-03 0.  1.
         12    1    3    3    0    0  0.70014267033E+01  0.29786556887E+02  0.25752712067E+01  0.30706529743E+02  0.00000000000E+00 0. -1.
</event>
<event>
 7    1  0.2700104E-013  0.7246161E+02  0.7816164E-02  0.1226708E+00
        -11   -1    0    0    0    0  0.00000000000E+00  0.00000000000E+00  0.45593999997E+02  0.45594000000E+02  0.51100000000E-03 0. -1.
         11   -1    0    0    0    0 -0.00000000000E+00 -0.00000000000E+00 -0.45593999997E+02  0.45594000000E+02  0.51100000000E-03 0.  1.
    9900012    2    1    2    0    0 -0.16837161980E+02 -0.81473399478E+01 -0.89924429156E+00  0.72461606539E+02  0.70000047215E+02 0.  0.
        -12    1    1    2    0    0  0.16837161980E+02  0.81473399478E+01  0.89924429156E+00  0.18726393461E+02  0.00000000000E+00 0.  1.
         11    1    3    3    0    0 -0.14932456249E+02 -0.13545318376E+02 -0.18672620337E+02  0.27479458693E+02  0.51100000000E-03 0. -1.
        -11    1    3    3    0    0 -0.30972891690E+01 -0.11408244583E+02 -0.79401740631E+01  0.14240351438E+02  0.51100000000E-03 0.  1.
         12    1    3    3    0    0  0.11925834378E+01  0.16806223012E+02  0.25713550109E+02  0.30741796408E+02  0.00000000000E+00 0. -1.
</event>
<event>
 7    1  0.2700104E-013  0.7246152E+02  0.7816164E-02  0.1226708E+00
        -11   -1    0    0    0    0  0.00000000000E+00  0.00000000000E+00  0.45593999997E+02  0.45594000000E+02  0.51100000000E-03 0.  1.
         11   -1    0    0    0    0 -0.00000000000E+00 -0.00000000000E+00 -0.45593999997E+02  0.45594000000E+02  0.51100000000E-03 0. -1.
    9900012    2    1    2    0    0  0.73577198370E+01  0.81652793062E+01 -0.15161571879E+02  0.72461519039E+02  0.69999933230E+02 0.  0.
        -12    1    1    2    0    0 -0.73577198370E+01 -0.81652793062E+01  0.15161571879E+02  0.18726480961E+02  0.00000000000E+00 0.  1.
         11    1    3    3    0    0 -0.60714710949E+01 -0.12602576539E+02  0.12678740037E+02  0.18879569536E+02  0.51100000000E-03 0.  1.
        -11    1    3    3    0    0  0.15047912508E+02  0.68286664954E+01  0.54940941811E+01  0.17414230620E+02  0.51100000000E-03 0. -1.
         12    1    3    3    0    0 -0.16187215763E+01  0.13939189350E+02 -0.33334406098E+02  0.36167718882E+02  0.00000000000E+00 0. -1.
</event>
<event>
 7    1  0.2700104E-013  0.7246158E+02  0.7816164E-02  0.1226708E+00
        -11   -1    0    0    0    0  0.00000000000E+00  0.00000000000E+00  0.45593999997E+02  0.45594000000E+02  0.51100000000E-03 0.  1.
         11   -1    0    0    0    0 -0.00000000000E+00 -0.00000000000E+00 -0.45593999997E+02  0.45594000000E+02  0.51100000000E-03 0. -1.
    9900012    2    1    2    0    0 -0.10775678537E+01  0.44415860775E+01 -0.18160122218E+02  0.72461578069E+02  0.70000010128E+02 0.  0.
        -12    1    1    2    0    0  0.10775678537E+01 -0.44415860775E+01  0.18160122218E+02  0.18726421931E+02  0.00000000000E+00 0.  1.
         11    1    3    3    0    0 -0.56805742733E+01 -0.52659001822E+01  0.67303758229E-01  0.77461705933E+01  0.51100000000E-03 0. -1.
        -11    1    3    3    0    0  0.18006353616E+02 -0.16961312700E+02 -0.23828447715E+02  0.34346904079E+02  0.51100000000E-03 0.  1.
         12    1    3    3    0    0 -0.13403347197E+02  0.26668798960E+02  0.56010217391E+01  0.30368503397E+02  0.00000000000E+00 0. -1.
</event>
<event>
 7    1  0.2700104E-013  0.7246158E+02  0.7816164E-02  0.1226708E+00
        -11   -1    0    0    0    0  0.00000000000E+00  0.00000000000E+00  0.45593999997E+02  0.45594000000E+02  0.51100000000E-03 0.  1.
         11   -1    0    0    0    0 -0.00000000000E+00 -0.00000000000E+00 -0.45593999997E+02  0.45594000000E+02  0.51100000000E-03 0. -1.
    9900012    2    1    2    0    0  0.15494358515E+02 -0.34452277753E+01 -0.99365088698E+01  0.72461576189E+02  0.70000007679E+02 0.  0.
        -12    1    1    2    0    0 -0.15494358515E+02  0.34452277753E+01  0.99365088698E+01  0.18726423811E+02  0.00000000000E+00 0.  1.
         11    1    3    3    0    0  0.18542507237E+02 -0.10788795581E+02 -0.85783822869E+01  0.23104357330E+02  0.51100000000E-03 0. -1.
        -11    1    3    3    0    0 -0.14275031646E+02  0.36850840988E+01  0.20062888799E+02  0.24897306692E+02  0.51100000000E-03 0.  1.
         12    1    3    3    0    0  0.11226882924E+02  0.36584837071E+01 -0.21421015382E+02  0.24459912167E+02  0.00000000000E+00 0. -1.
</event>
<event>
 7    1  0.2700104E-013  0.7246163E+02  0.7816164E-02  0.1226708E+00
        -11   -1    0    0    0    0  0.00000000000E+00  0.00000000000E+00  0.45593999997E+02  0.45594000000E+02  0.51100000000E-03 0.  1.
         11   -1    0    0    0    0 -0.00000000000E+00 -0.00000000000E+00 -0.45593999997E+02  0.45594000000E+02  0.51100000000E-03 0. -1.
    9900012    2    1    2    0    0  0.14736981909E+02  0.55740781388E+01 -0.10120667782E+02  0.72461630911E+02  0.70000078965E+02 0.  0.
        -12    1    1    2    0    0 -0.14736981909E+02 -0.55740781388E+01  0.10120667782E+02  0.18726369089E+02  0.00000000000E+00 0.  1.
         11    1    3    3    0    0 -0.15838452791E+02  0.12589861220E+02  0.12876543102E+00  0.20233086101E+02  0.51100000000E-03 0. -1.
        -11    1    3    3    0    0  0.17799311550E+01 -0.17177909677E+02  0.51606326946E+01  0.18024451888E+02  0.51100000000E-03 0.  1.
         12    1    3    3    0    0  0.28795503545E+02  0.10162126596E+02 -0.15410065907E+02  0.34204092923E+02  0.00000000000E+00 0. -1.
</event>
<event>
 7    1  0.2700104E-013  0.7246156E+02  0.7816164E-02  0.1226708E+00
        -11   -1    0    0    0    0  0.00000000000E+00  0.00000000000E+00  0.45593999997E+02  0.45594000000E+02  0.51100000000E-03 0.  1.
         11   -1    0    0    0    0 -0.00000000000E+00 -0.00000000000E+00 -0.45593999997E+02  0.45594000000E+02  0.51100000000E-03 0. -1.
    9900012    2    1    2    0    0 -0.89158554812E+01 -0.16291474580E+02 -0.24031286992E+01  0.72461557452E+02  0.69999983270E+02 0.  0.
        -12    1    1    2    0    0  0.89158554812E+01  0.16291474580E+02  0.24031286992E+01  0.18726442548E+02  0.00000000000E+00 0.  1.
         11    1    3    3    0    0 -0.94246005278E+01 -0.91320232053E+01 -0.92077333667E+01  0.16031197614E+02  0.51100000000E-03 0. -1.
        -11    1    3    3    0    0 -0.10883156405E+02 -0.28409344244E+02 -0.26372715818E+01  0.30536685075E+02  0.51100000000E-03 0.  1.
         12    1    3    3    0    0  0.11391901452E+02  0.21249892869E+02  0.94418762494E+01  0.25893674763E+02  0.00000000000E+00 0. -1.
</event>
<event>
 7    1  0.2700104E-013  0.7246156E+02  0.7816164E-02  0.1226708E+00
        -11   -1    0    0    0    0  0.00000000000E+00  0.00000000000E+00  0.45593999997E+02  0.45594000000E+02  0.51100000000E-03 0.  1.
         11   -1    0    0    0    0 -0.00000000000E+00 -0.00000000000E+00 -0.45593999997E+02  0.45594000000E+02  0.51100000000E-03 0. -1.
    9900012    2    1    2    0    0 -0.89106099233E+01 -0.16189147251E+02 -0.30318398475E+01  0.72461561183E+02  0.69999988130E+02 0.  0.
        -12    1    1    2    0    0  0.89106099233E+01  0.16189147251E+02  0.30318398475E+01  0.18726438817E+02  0.00000000000E+00 0.  1.
         11    1    3    3    0    0 -0.12297719688E+02  0.18435991624E+02  0.45923443182E+01  0.22632041960E+02  0.51100000000E-03 0. -1.
        -11    1    3    3    0    0  0.62040727349E+01 -0.35783110207E+01  0.11287020585E+02  0.13367560069E+02  0.51100000000E-03 0.  1.
        -12    1    3    3    0    0 -0.28169629702E+01 -0.31046827854E+02 -0.18911204751E+02  0.36461959153E+02  0.00000000000E+00 0.  1.
</event>
<event>
 7    1  0.2700104E-013  0.7246155E+02  0.7816164E-02  0.1226708E+00
        -11   -1    0    0    0    0  0.00000000000E+00  0.00000000000E+00  0.45593999997E+02  0.45594000000E+02  0.51100000000E-03 0. -1.
         11   -1    0    0    0    0 -0.00000000000E+00 -0.00000000000E+00 -0.45593999997E+02  0.45594000000E+02  0.51100000000E-03 0.  1.
    9900012    2    1    2    0    0  0.94299330748E+01 -0.15135605467E+02  0.57157389423E+01  0.72461551797E+02  0.69999975903E+02 0.  0.
        -12    1    1    2    0    0 -0.94299330748E+01  0.15135605467E+02 -0.57157389423E+01  0.18726448203E+02  0.00000000000E+00 0.  1.
         11    1    3    3    0    0  0.71039270134E+01 -0.28084402370E+02  0.53693396749E+01  0.29462336029E+02  0.51100000000E-03 0. -1.
        -11    1    3    3    0    0 -0.66773938064E+01  0.99278999488E+01 -0.18421193578E+02  0.21965681381E+02  0.51100000000E-03 0.  1.
         12    1    3    3    0    0  0.90033998677E+01  0.30208969535E+01  0.18767592845E+02  0.21033534387E+02  0.00000000000E+00 0. -1.
</event>
<event>
 7    1  0.2700104E-013  0.7246158E+02  0.7816164E-02  0.1226708E+00
        -11   -1    0    0    0    0  0.00000000000E+00  0.00000000000E+00  0.45593999997E+02  0.45594000000E+02  0.51100000000E-03 0.  1.
         11   -1    0    0    0    0 -0.00000000000E+00 -0.00000000000E+00 -0.45593999997E+02  0.45594000000E+02  0.51100000000E-03 0. -1.
    9900012    2    1    2    0    0  0.26421162693E+01 -0.81365684954E+00 -0.18521234877E+02  0.72461575963E+02  0.70000007385E+02 0.  0.
        -12    1    1    2    0    0 -0.26421162693E+01  0.81365684954E+00  0.18521234877E+02  0.18726424037E+02  0.00000000000E+00 0.  1.
         11    1    3    3    0    0  0.14405512739E+02 -0.12208651283E+02 -0.12175051193E+02  0.22467795514E+02  0.51100000000E-03 0. -1.
        -11    1    3    3    0    0 -0.79723631458E+00 -0.94742451352E+00  0.19383175326E+02  0.19422684802E+02  0.51100000000E-03 0.  1.
         12    1    3    3    0    0 -0.10966160155E+02  0.12342418947E+02 -0.25729359010E+02  0.30571095647E+02  0.00000000000E+00 0. -1.
</event>
<event>
 7    1  0.2700104E-013  0.7246154E+02  0.7816164E-02  0.1226708E+00
        -11   -1    0    0    0    0  0.00000000000E+00  0.00000000000E+00  0.45593999997E+02  0.45594000000E+02  0.51100000000E-03 0. -1.
         11   -1    0    0    0    0 -0.00000000000E+00 -0.00000000000E+00 -0.45593999997E+02  0.45594000000E+02  0.51100000000E-03 0.  1.
    9900012    2    1    2    0    0 -0.18528762289E+02 -0.11984977506E+00  0.27112228027E+01  0.72461544782E+02  0.69999966765E+02 0.  0.
        -12    1    1    2    0    0  0.18528762289E+02  0.11984977506E+00 -0.27112228027E+01  0.18726455218E+02  0.00000000000E+00 0.  1.
         11    1    3    3    0    0 -0.32858092394E+02 -0.37416949799E+01  0.63535705988E+01  0.33675248725E+02  0.51100000000E-03 0. -1.
        -11    1    3    3    0    0  0.45002243781E+01 -0.80217429954E+01  0.13190694476E+02  0.16080883097E+02  0.51100000000E-03 0.  1.
        -12    1    3    3    0    0  0.98291057261E+01  0.11643588200E+02 -0.16833042273E+02  0.22705412960E+02  0.00000000000E+00 0.  1.
</event>
<event>
 7    1  0.2700104E-013  0.7246155E+02  0.7816164E-02  0.1226708E+00
        -11   -1    0    0    0    0  0.00000000000E+00  0.00000000000E+00  0.45593999997E+02  0.45594000000E+02  0.51100000000E-03 0. -1.
         11   -1    0    0    0    0 -0.00000000000E+00 -0.00000000000E+00 -0.45593999997E+02  0.45594000000E+02  0.51100000000E-03 0.  1.
    9900012    2    1    2    0    0  0.16983217901E+02 -0.46515644391E+01  0.63728560843E+01  0.72461547141E+02  0.69999969838E+02 0.  0.
        -12    1    1    2    0    0 -0.16983217901E+02  0.46515644391E+01 -0.63728560843E+01  0.18726452859E+02  0.00000000000E+00 0.  1.
         11    1    3    3    0    0  0.34705506342E+02  0.12435207743E+02 -0.16073993978E+01  0.36901087994E+02  0.51100000000E-03 0. -1.
        -11    1    3    3    0    0 -0.60840943080E+01 -0.14460076173E+02 -0.63406746390E+01  0.16920820359E+02  0.51100000000E-03 0.  1.
        -12    1    3    3    0    0 -0.11638194133E+02 -0.26266960090E+01  0.14320930121E+02  0.18639638788E+02  0.00000000000E+00 0.  1.
</event>
<event>
 7    1  0.2700104E-013  0.7246157E+02  0.7816164E-02  0.1226708E+00
        -11   -1    0    0    0    0  0.00000000000E+00  0.00000000000E+00  0.45593999997E+02  0.45594000000E+02  0.51100000000E-03 0.  1.
         11   -1    0    0    0    0 -0.00000000000E+00 -0.00000000000E+00 -0.45593999997E+02  0.45594000000E+02  0.51100000000E-03 0. -1.
    9900012    2    1    2    0    0 -0.13063792279E+01  0.63697208910E+00 -0.18669945055E+02  0.72461569254E+02  0.69999998645E+02 0.  0.
        -12    1    1    2    0    0  0.13063792279E+01 -0.63697208910E+00  0.18669945055E+02  0.18726430746E+02  0.00000000000E+00 0.  1.
         11    1    3    3    0    0  0.13447512045E+02  0.13741067100E+02 -0.13626816848E+02  0.23565709048E+02  0.51100000000E-03 0. -1.
        -11    1    3    3    0    0  0.16015322134E+02 -0.44580393518E+01 -0.67572235617E+00  0.16637946355E+02  0.51100000000E-03 0.  1.
         12    1    3    3    0    0 -0.30769213408E+02 -0.86460556593E+01 -0.43674058505E+01  0.32257913852E+02  0.00000000000E+00 0. -1.
</event>
<event>
 7    1  0.2700104E-013  0.7246156E+02  0.7816164E-02  0.1226708E+00
        -11   -1    0    0    0    0  0.00000000000E+00  0.00000000000E+00  0.45593999997E+02  0.45594000000E+02  0.51100000000E-03 0. -1.
         11   -1    0    0    0    0 -0.00000000000E+00 -0.00000000000E+00 -0.45593999997E+02  0.45594000000E+02  0.51100000000E-03 0.  1.
    9900012    2    1    2    0    0  0.17531584639E+01  0.84217491766E+01  0.16633702861E+02  0.72461561613E+02  0.69999988691E+02 0.  0.
        -12    1    1    2    0    0 -0.17531584639E+01 -0.84217491766E+01 -0.16633702861E+02  0.18726438387E+02  0.00000000000E+00 0.  1.
         11    1    3    3    0    0 -0.93208504495E+01 -0.15681788600E+02 -0.93401675953E+01  0.20494767083E+02  0.51100000000E-03 0. -1.
        -11    1    3    3    0    0 -0.29585526383E+01 -0.40600031011E+01 -0.55088358621E+01  0.74554632124E+01  0.51100000000E-03 0.  1.
         12    1    3    3    0    0  0.14032561552E+02  0.28163540878E+02  0.31482706319E+02  0.44511331317E+02  0.00000000000E+00 0. -1.
</event>
<event>
 7    1  0.2700104E-013  0.7246151E+02  0.7816164E-02  0.1226708E+00
        -11   -1    0    0    0    0  0.00000000000E+00  0.00000000000E+00  0.45593999997E+02  0.45594000000E+02  0.51100000000E-03 0.  1.
         11   -1    0    0    0    0 -0.00000000000E+00 -0.00000000000E+00 -0.45593999997E+02  0.45594000000E+02  0.51100000000E-03 0. -1.
    9900012    2    1    2    0    0 -0.11651275200E+02 -0.13664733139E+02 -0.53107761764E+01  0.72461508360E+02  0.69999919319E+02 0.  0.
        -12    1    1    2    0    0  0.11651275200E+02  0.13664733139E+02  0.53107761764E+01  0.18726491640E+02  0.00000000000E+00 0.  1.
         11    1    3    3    0    0 -0.98770638821E+01 -0.13382352368E+01  0.67227660797E+01  0.12022597411E+02  0.51100000000E-03 0. -1.
        -11    1    3    3    0    0 -0.15087143388E+02 -0.69108692401E+01  0.19607134624E+02  0.25686995497E+02  0.51100000000E-03 0.  1.
         12    1    3    3    0    0  0.13312932070E+02 -0.54156286625E+01 -0.31640676880E+02  0.34751915451E+02  0.00000000000E+00 0. -1.
</event>
<event>
 7    1  0.2700104E-013  0.7246151E+02  0.7816164E-02  0.1226708E+00
        -11   -1    0    0    0    0  0.00000000000E+00  0.00000000000E+00  0.45593999997E+02  0.45594000000E+02  0.51100000000E-03 0. -1.
         11   -1    0    0    0    0 -0.00000000000E+00 -0.00000000000E+00 -0.45593999997E+02  0.45594000000E+02  0.51100000000E-03 0.  1.
    9900012    2    1    2    0    0 -0.18009780218E+02  0.35394722734E+01 -0.37150282073E+01  0.72461508549E+02  0.69999919565E+02 0.  0.
        -12    1    1    2    0    0  0.18009780218E+02 -0.35394722734E+01  0.37150282073E+01  0.18726491451E+02  0.00000000000E+00 0.  1.
         11    1    3    3    0    0 -0.54519350048E+01  0.57812814132E+01  0.37533952000E+01  0.87883323711E+01  0.51100000000E-03 0. -1.
        -11    1    3    3    0    0  0.19707608544E+02  0.12947373686E+02 -0.13992779500E+02  0.27419376329E+02  0.51100000000E-03 0.  1.
         12    1    3    3    0    0 -0.32265453757E+02 -0.15189182826E+02  0.65243560924E+01  0.36253799849E+02  0.00000000000E+00 0. -1.
</event>
<event>
 7    1  0.2700104E-013  0.7246166E+02  0.7816164E-02  0.1226708E+00
        -11   -1    0    0    0    0  0.00000000000E+00  0.00000000000E+00  0.45593999997E+02  0.45594000000E+02  0.51100000000E-03 0.  1.
         11   -1    0    0    0    0 -0.00000000000E+00 -0.00000000000E+00 -0.45593999997E+02  0.45594000000E+02  0.51100000000E-03 0. -1.
    9900012    2    1    2    0    0  0.26767589557E+01  0.12722678245E+02 -0.13477550621E+02  0.72461656231E+02  0.70000111948E+02 0.  0.
        -12    1    1    2    0    0 -0.26767589557E+01 -0.12722678245E+02  0.13477550621E+02  0.18726343769E+02  0.00000000000E+00 0.  1.
         11    1    3    3    0    0  0.36838765843E+01  0.17407553537E+02 -0.19652298527E+02  0.26510501777E+02  0.51100000000E-03 0. -1.
        -11    1    3    3    0    0  0.19403603720E+02  0.81983022865E+01  0.11188192467E+00  0.21064769534E+02  0.51100000000E-03 0.  1.
         12    1    3    3    0    0 -0.20410721348E+02 -0.12883177578E+02  0.60628659815E+01  0.24886384920E+02  0.00000000000E+00 0. -1.
</event>
<event>
 7    1  0.2700104E-013  0.7246148E+02  0.7816164E-02  0.1226708E+00
        -11   -1    0    0    0    0  0.00000000000E+00  0.00000000000E+00  0.45593999997E+02  0.45594000000E+02  0.51100000000E-03 0.  1.
         11   -1    0    0    0    0 -0.00000000000E+00 -0.00000000000E+00 -0.45593999997E+02  0.45594000000E+02  0.51100000000E-03 0. -1.
    9900012    2    1    2    0    0  0.72777265450E+01  0.16087685910E+02 -0.62372889038E+01  0.72461475643E+02  0.69999876699E+02 0.  0.
        -12    1    1    2    0    0 -0.72777265450E+01 -0.16087685910E+02  0.62372889038E+01  0.18726524357E+02  0.00000000000E+00 0.  1.
         11    1    3    3    0    0 -0.75321353683E+01  0.11331997834E+02  0.58356863992E+01  0.14805487973E+02  0.51100000000E-03 0. -1.
        -11    1    3    3    0    0  0.14750204532E+02  0.20278337943E+02  0.12940308576E+02  0.28217567396E+02  0.51100000000E-03 0.  1.
         12    1    3    3    0    0  0.59657381585E-01 -0.15522649866E+02 -0.25013283879E+02  0.29438420275E+02  0.00000000000E+00 0. -1.
</event>
<event>
 7    1  0.2700104E-013  0.7246168E+02  0.7816164E-02  0.1226708E+00
        -11   -1    0    0    0    0  0.00000000000E+00  0.00000000000E+00  0.45593999997E+02  0.45594000000E+02  0.51100000000E-03 0.  1.
         11   -1    0    0    0    0 -0.00000000000E+00 -0.00000000000E+00 -0.45593999997E+02  0.45594000000E+02  0.51100000000E-03 0. -1.
    9900012    2    1    2    0    0  0.11483374497E+02  0.14205525234E+02 -0.41243662331E+01  0.72461675379E+02  0.70000136892E+02 0.  0.
        -12    1    1    2    0    0 -0.11483374497E+02 -0.14205525234E+02  0.41243662331E+01  0.18726324621E+02  0.00000000000E+00 0.  1.
         11    1    3    3    0    0 -0.15468863902E+02 -0.73922435041E+01  0.10422905942E+02  0.20064096864E+02  0.51100000000E-03 0.  1.
        -11    1    3    3    0    0 -0.35664129258E+01  0.10646858991E+02 -0.16451262890E+02  0.19917805062E+02  0.51100000000E-03 0. -1.
         12    1    3    3    0    0  0.30518651324E+02  0.10950909747E+02  0.19039907154E+01  0.32479773453E+02  0.00000000000E+00 0. -1.
</event>
<event>
 7    1  0.2700104E-013  0.7246090E+02  0.7816164E-02  0.1226710E+00
        -11   -1    0    0    0    0  0.00000000000E+00  0.00000000000E+00  0.45593999997E+02  0.45594000000E+02  0.51100000000E-03 0.  1.
         11   -1    0    0    0    0 -0.00000000000E+00 -0.00000000000E+00 -0.45593999997E+02  0.45594000000E+02  0.51100000000E-03 0. -1.
    9900012    2    1    2    0    0  0.16146917396E+02 -0.91818618319E+00 -0.94413031213E+01  0.72460901669E+02  0.69999128986E+02 0.  0.
        -12    1    1    2    0    0 -0.16146917396E+02  0.91818618319E+00  0.94413031213E+01  0.18727098331E+02  0.00000000000E+00 0.  1.
         11    1    3    3    0    0  0.40882506635E+01  0.15321554896E+02 -0.28625288831E+02  0.32724165365E+02  0.51100000000E-03 0. -1.
        -11    1    3    3    0    0 -0.85156232951E+01 -0.99175448223E+01  0.93576464863E+01  0.16076040664E+02  0.51100000000E-03 0.  1.
        -12    1    3    3    0    0  0.20574290027E+02 -0.63221962570E+01  0.98263392235E+01  0.23660695640E+02  0.00000000000E+00 0.  1.
</event>
<event>
 7    1  0.2700104E-013  0.7246158E+02  0.7816164E-02  0.1226708E+00
        -11   -1    0    0    0    0  0.00000000000E+00  0.00000000000E+00  0.45593999997E+02  0.45594000000E+02  0.51100000000E-03 0.  1.
         11   -1    0    0    0    0 -0.00000000000E+00 -0.00000000000E+00 -0.45593999997E+02  0.45594000000E+02  0.51100000000E-03 0. -1.
    9900012    2    1    2    0    0 -0.14883504086E+02 -0.65882163700E+01 -0.92604360810E+01  0.72461575749E+02  0.70000007106E+02 0.  0.
        -12    1    1    2    0    0  0.14883504086E+02  0.65882163700E+01  0.92604360810E+01  0.18726424251E+02  0.00000000000E+00 0.  1.
         11    1    3    3    0    0  0.20547040596E+01 -0.16328055712E+02  0.59271124143E+01  0.17491651550E+02  0.51100000000E-03 0. -1.
        -11    1    3    3    0    0 -0.40569728875E+01 -0.19536221652E+02 -0.99478124493E+00  0.19977802067E+02  0.51100000000E-03 0.  1.
         12    1    3    3    0    0 -0.12881235258E+02  0.29276060994E+02 -0.14192767250E+02  0.34992122132E+02  0.00000000000E+00 0. -1.
</event>
<event>
 7    1  0.2700104E-013  0.7246151E+02  0.7816164E-02  0.1226708E+00
        -11   -1    0    0    0    0  0.00000000000E+00  0.00000000000E+00  0.45593999997E+02  0.45594000000E+02  0.51100000000E-03 0.  1.
         11   -1    0    0    0    0 -0.00000000000E+00 -0.00000000000E+00 -0.45593999997E+02  0.45594000000E+02  0.51100000000E-03 0. -1.
    9900012    2    1    2    0    0  0.88787693083E+00 -0.18454085749E+02 -0.30560879883E+01  0.72461513942E+02  0.69999926591E+02 0.  0.
        -12    1    1    2    0    0 -0.88787693083E+00  0.18454085749E+02  0.30560879883E+01  0.18726486058E+02  0.00000000000E+00 0.  1.
         11    1    3    3    0    0  0.18052874236E+02  0.20653856056E+02  0.70923969073E+01  0.28333551354E+02  0.51100000000E-03 0. -1.
        -11    1    3    3    0    0 -0.33686749887E+01 -0.10064347540E+02 -0.80278276103E+00  0.10643473259E+02  0.51100000000E-03 0.  1.
        -12    1    3    3    0    0 -0.13796322317E+02 -0.29043594265E+02 -0.93457021346E+01  0.33484489330E+02  0.00000000000E+00 0.  1.
</event>
<event>
 7    1  0.2700104E-013  0.7246152E+02  0.7816164E-02  0.1226708E+00
        -11   -1    0    0    0    0  0.00000000000E+00  0.00000000000E+00  0.45593999997E+02  0.45594000000E+02  0.51100000000E-03 0. -1.
         11   -1    0    0    0    0 -0.00000000000E+00 -0.00000000000E+00 -0.45593999997E+02  0.45594000000E+02  0.51100000000E-03 0.  1.
    9900012    2    1    2    0    0  0.43437462902E+01 -0.53621582246E+01  0.17408627149E+02  0.72461516831E+02  0.69999930354E+02 0.  0.
        -12    1    1    2    0    0 -0.43437462902E+01  0.53621582246E+01 -0.17408627149E+02  0.18726483169E+02  0.00000000000E+00 0.  1.
         11    1    3    3    0    0 -0.88011799757E+01  0.11319931419E+02  0.49049889837E+01  0.15154554876E+02  0.51100000000E-03 0. -1.
        -11    1    3    3    0    0 -0.11516559881E+02 -0.17564455504E+02 -0.10578680392E+02  0.23517009329E+02  0.51100000000E-03 0.  1.
         12    1    3    3    0    0  0.24661486147E+02  0.88236586107E+00  0.23082318558E+02  0.33789952627E+02  0.00000000000E+00 0. -1.
</event>
<event>
 7    1  0.3693701E-013  0.7246157E+02  0.7816164E-02  0.1226708E+00
        -11   -1    0    0    0    0  0.00000000000E+00  0.00000000000E+00  0.45593999997E+02  0.45594000000E+02  0.51100000000E-03 0. -1.
         11   -1    0    0    0    0 -0.00000000000E+00 -0.00000000000E+00 -0.45593999997E+02  0.45594000000E+02  0.51100000000E-03 0.  1.
    9900012    2    1    2    0    0  0.65125821998E+01  0.40184739834E+01  0.17091434699E+02  0.72461574817E+02  0.70000005892E+02 0.  0.
        -12    1    1    2    0    0 -0.65125821998E+01 -0.40184739834E+01 -0.17091434699E+02  0.18726425183E+02  0.00000000000E+00 0.  1.
         11    1    3    3    0    0  0.27178439950E+02  0.12243936551E+02  0.44807568648E+01  0.30143967269E+02  0.51100000000E-03 0. -1.
        -11    1    3    3    0    0 -0.28658756576E+01  0.45867718442E+01  0.18773162477E+02  0.19536717966E+02  0.51100000000E-03 0.  1.
        -12    1    3    3    0    0 -0.17799982093E+02 -0.12812234412E+02 -0.61624846430E+01  0.22780889581E+02  0.00000000000E+00 0.  1.
</event>
<event>
 7    1  0.2700104E-013  0.7246157E+02  0.7816164E-02  0.1226708E+00
        -11   -1    0    0    0    0  0.00000000000E+00  0.00000000000E+00  0.45593999997E+02  0.45594000000E+02  0.51100000000E-03 0. -1.
         11   -1    0    0    0    0 -0.00000000000E+00 -0.00000000000E+00 -0.45593999997E+02  0.45594000000E+02  0.51100000000E-03 0.  1.
    9900012    2    1    2    0    0  0.43461793203E+00  0.95701710306E+01  0.16090433100E+02  0.72461572053E+02  0.70000002292E+02 0.  0.
        -12    1    1    2    0    0 -0.43461793203E+00 -0.95701710306E+01 -0.16090433100E+02  0.18726427947E+02  0.00000000000E+00 0.  1.
         11    1    3    3    0    0 -0.40050742156E+01 -0.24371105862E+02  0.58015836713E+01  0.25370254113E+02  0.51100000000E-03 0. -1.
        -11    1    3    3    0    0 -0.12634583777E+02  0.11828485183E+02  0.79801067274E+01  0.19058538050E+02  0.51100000000E-03 0.  1.
        -12    1    3    3    0    0  0.17074275925E+02  0.22112791709E+02  0.23087427010E+01  0.28032779890E+02  0.00000000000E+00 0.  1.
</event>
<event>
 7    1  0.2700104E-013  0.7246168E+02  0.7816164E-02  0.1226708E+00
        -11   -1    0    0    0    0  0.00000000000E+00  0.00000000000E+00  0.45593999997E+02  0.45594000000E+02  0.51100000000E-03 0.  1.
         11   -1    0    0    0    0 -0.00000000000E+00 -0.00000000000E+00 -0.45593999997E+02  0.45594000000E+02  0.51100000000E-03 0. -1.
    9900012    2    1    2    0    0  0.56768284095E+01 -0.76165651932E+01 -0.16138045409E+02  0.72461682803E+02  0.70000146563E+02 0.  0.
        -12    1    1    2    0    0 -0.56768284095E+01  0.76165651932E+01  0.16138045409E+02  0.18726317197E+02  0.00000000000E+00 0.  1.
         11    1    3    3    0    0 -0.27061972718E+02  0.54764465848E+01 -0.23202955346E+02  0.36065481719E+02  0.51100000000E-03 0. -1.
        -11    1    3    3    0    0  0.31415519484E+01  0.41008945712E+00  0.47803506942E+00  0.32040661347E+01  0.51100000000E-03 0.  1.
        -12    1    3    3    0    0  0.29597249179E+02 -0.13503101235E+02  0.65868748677E+01  0.33192134949E+02  0.00000000000E+00 0.  1.
</event>
<event>
 7    1  0.2700104E-013  0.7246158E+02  0.7816164E-02  0.1226708E+00
        -11   -1    0    0    0    0  0.00000000000E+00  0.00000000000E+00  0.45593999997E+02  0.45594000000E+02  0.51100000000E-03 0.  1.
         11   -1    0    0    0    0 -0.00000000000E+00 -0.00000000000E+00 -0.45593999997E+02  0.45594000000E+02  0.51100000000E-03 0. -1.
    9900012    2    1    2    0    0  0.14853603932E+02 -0.11099514898E+02  0.26172669218E+01  0.72461578374E+02  0.70000010526E+02 0.  0.
        -12    1    1    2    0    0 -0.14853603932E+02  0.11099514898E+02 -0.26172669218E+01  0.18726421626E+02  0.00000000000E+00 0.  1.
         11    1    3    3    0    0 -0.92001064399E+01 -0.25281628595E+02  0.14108724876E+02  0.30378591488E+02  0.51100000000E-03 0. -1.
        -11    1    3    3    0    0  0.40553410193E+01 -0.89744139247E+01 -0.35942240454E+01  0.10483527213E+02  0.51100000000E-03 0.  1.
        -12    1    3    3    0    0  0.19998369353E+02  0.23156527621E+02 -0.78972339090E+01  0.31599459673E+02  0.00000000000E+00 0.  1.
</event>
<event>
 7    1  0.2700104E-013  0.7246156E+02  0.7816164E-02  0.1226708E+00
        -11   -1    0    0    0    0  0.00000000000E+00  0.00000000000E+00  0.45593999997E+02  0.45594000000E+02  0.51100000000E-03 0. -1.
         11   -1    0    0    0    0 -0.00000000000E+00 -0.00000000000E+00 -0.45593999997E+02  0.45594000000E+02  0.51100000000E-03 0.  1.
    9900012    2    1    2    0    0  0.52851011266E+01 -0.69981635869E+01  0.16546084030E+02  0.72461561892E+02  0.69999989054E+02 0.  0.
        -12    1    1    2    0    0 -0.52851011266E+01  0.69981635869E+01 -0.16546084030E+02  0.18726438108E+02  0.00000000000E+00 0.  1.
         11    1    3    3    0    0  0.75384857160E+01  0.58707820056E+01  0.90747044400E+01  0.13177446990E+02  0.51100000000E-03 0. -1.
        -11    1    3    3    0    0  0.16226798874E+02  0.16051250454E+02  0.98976099674E+01  0.24877988789E+02  0.51100000000E-03 0.  1.
         12    1    3    3    0    0 -0.18480183463E+02 -0.28920196047E+02 -0.24262303777E+01  0.34406126113E+02  0.00000000000E+00 0. -1.
</event>
<event>
 7    1  0.2700104E-013  0.7246114E+02  0.7816164E-02  0.1226709E+00
        -11   -1    0    0    0    0  0.00000000000E+00  0.00000000000E+00  0.45593999997E+02  0.45594000000E+02  0.51100000000E-03 0. -1.
         11   -1    0    0    0    0 -0.00000000000E+00 -0.00000000000E+00 -0.45593999997E+02  0.45594000000E+02  0.51100000000E-03 0.  1.
    9900012    2    1    2    0    0  0.83319853058E+01  0.49432977425E+01  0.16026140174E+02  0.72461138529E+02  0.69999437543E+02 0.  0.
        -12    1    1    2    0    0 -0.83319853058E+01 -0.49432977425E+01 -0.16026140174E+02  0.18726861471E+02  0.00000000000E+00 0.  1.
         11    1    3    3    0    0 -0.58247671332E+01  0.59186589229E+01 -0.11100128220E+02  0.13862585703E+02  0.51100000000E-03 0. -1.
        -11    1    3    3    0    0 -0.16937934660E+02 -0.25766103840E+01  0.20586735062E+02  0.26783319667E+02  0.51100000000E-03 0.  1.
         12    1    3    3    0    0  0.31094687098E+02  0.16012492036E+01  0.65395333314E+01  0.31815233159E+02  0.00000000000E+00 0. -1.
</event>
<event>
 7    1  0.2700104E-013  0.7246149E+02  0.7816164E-02  0.1226708E+00
        -11   -1    0    0    0    0  0.00000000000E+00  0.00000000000E+00  0.45593999997E+02  0.45594000000E+02  0.51100000000E-03 0. -1.
         11   -1    0    0    0    0 -0.00000000000E+00 -0.00000000000E+00 -0.45593999997E+02  0.45594000000E+02  0.51100000000E-03 0.  1.
    9900012    2    1    2    0    0  0.55209880895E+01 -0.11821687753E+02  0.13433116695E+02  0.72461488447E+02  0.69999893378E+02 0.  0.
        -12    1    1    2    0    0 -0.55209880895E+01  0.11821687753E+02 -0.13433116695E+02  0.18726511553E+02  0.00000000000E+00 0.  1.
         11    1    3    3    0    0 -0.13276291147E+02 -0.66010496488E+01 -0.38923017708E+01  0.15329180553E+02  0.51100000000E-03 0. -1.
        -11    1    3    3    0    0 -0.11426581985E+02 -0.43488584806E+01 -0.10443402157E+02  0.16079303306E+02  0.51100000000E-03 0.  1.
         12    1    3    3    0    0  0.30223861222E+02 -0.87177962389E+00  0.27768820622E+02  0.41053004587E+02  0.00000000000E+00 0. -1.
</event>
<event>
 7    1  0.2700104E-013  0.7246170E+02  0.7816164E-02  0.1226708E+00
        -11   -1    0    0    0    0  0.00000000000E+00  0.00000000000E+00  0.45593999997E+02  0.45594000000E+02  0.51100000000E-03 0.  1.
         11   -1    0    0    0    0 -0.00000000000E+00 -0.00000000000E+00 -0.45593999997E+02  0.45594000000E+02  0.51100000000E-03 0. -1.
    9900012    2    1    2    0    0  0.16800967454E+02 -0.11754125577E+01 -0.81865804838E+01  0.72461702926E+02  0.70000172777E+02 0.  0.
        -12    1    1    2    0    0 -0.16800967454E+02  0.11754125577E+01  0.81865804838E+01  0.18726297074E+02  0.00000000000E+00 0.  1.
         11    1    3    3    0    0 -0.20470440698E+02  0.11024132029E+01 -0.18117235281E+02  0.27358517352E+02  0.51100000000E-03 0. -1.
        -11    1    3    3    0    0 -0.33523096358E+00  0.41660665412E+01  0.51768739676E+01  0.66534588420E+01  0.51100000000E-03 0.  1.
        -12    1    3    3    0    0  0.37606639116E+02 -0.64438923018E+01  0.47537808297E+01  0.38449726732E+02  0.00000000000E+00 0.  1.
</event>
<event>
 7    1  0.2700104E-013  0.7246169E+02  0.7816164E-02  0.1226708E+00
        -11   -1    0    0    0    0  0.00000000000E+00  0.00000000000E+00  0.45593999997E+02  0.45594000000E+02  0.51100000000E-03 0.  1.
         11   -1    0    0    0    0 -0.00000000000E+00 -0.00000000000E+00 -0.45593999997E+02  0.45594000000E+02  0.51100000000E-03 0. -1.
    9900012    2    1    2    0    0 -0.11465660633E+02  0.77476653011E+01 -0.12616933265E+02  0.72461689728E+02  0.70000155585E+02 0.  0.
        -12    1    1    2    0    0  0.11465660633E+02 -0.77476653011E+01  0.12616933265E+02  0.18726310272E+02  0.00000000000E+00 0.  1.
         11    1    3    3    0    0  0.35387105251E+01 -0.41785131039E+00 -0.41517397049E+01  0.54711986563E+01  0.51100000000E-03 0. -1.
        -11    1    3    3    0    0  0.77166671773E+01  0.32080789269E+02 -0.82098213730E+01  0.34001840534E+02  0.51100000000E-03 0.  1.
         12    1    3    3    0    0 -0.22721038335E+02 -0.23915272658E+02 -0.25537218753E+00  0.32988650538E+02  0.00000000000E+00 0. -1.
</event>
<event>
 7    1  0.2700104E-013  0.7246158E+02  0.7816164E-02  0.1226708E+00
        -11   -1    0    0    0    0  0.00000000000E+00  0.00000000000E+00  0.45593999997E+02  0.45594000000E+02  0.51100000000E-03 0. -1.
         11   -1    0    0    0    0 -0.00000000000E+00 -0.00000000000E+00 -0.45593999997E+02  0.45594000000E+02  0.51100000000E-03 0.  1.
    9900012    2    1    2    0    0  0.12021382361E+02  0.13005977808E+02  0.60835504612E+01  0.72461583396E+02  0.70000017067E+02 0.  0.
        -12    1    1    2    0    0 -0.12021382361E+02 -0.13005977808E+02 -0.60835504612E+01  0.18726416604E+02  0.00000000000E+00 0.  1.
         11    1    3    3    0    0  0.18853577413E+02  0.12021537173E+02  0.80607123744E+01  0.23768673112E+02  0.51100000000E-03 0. -1.
        -11    1    3    3    0    0  0.16010193493E+02  0.78869104358E+01  0.11554100565E+02  0.21260924063E+02  0.51100000000E-03 0.  1.
         12    1    3    3    0    0 -0.22842388544E+02 -0.69024698016E+01 -0.13531262478E+02  0.27431986221E+02  0.00000000000E+00 0. -1.
</event>
<event>
 7    1  0.2700104E-013  0.7246158E+02  0.7816164E-02  0.1226708E+00
        -11   -1    0    0    0    0  0.00000000000E+00  0.00000000000E+00  0.45593999997E+02  0.45594000000E+02  0.51100000000E-03 0. -1.
         11   -1    0    0    0    0 -0.00000000000E+00 -0.00000000000E+00 -0.45593999997E+02  0.45594000000E+02  0.51100000000E-03 0.  1.
    9900012    2    1    2    0    0 -0.15395765352E+02  0.70988194272E+01  0.79533570237E+01  0.72461582404E+02  0.70000015775E+02 0.  0.
        -12    1    1    2    0    0  0.15395765352E+02 -0.70988194272E+01 -0.79533570237E+01  0.18726417596E+02  0.00000000000E+00 0.  1.
         11    1    3    3    0    0  0.37090630016E+01  0.36191188584E+01 -0.10554101520E+02  0.11757730598E+02  0.51100000000E-03 0. -1.
        -11    1    3    3    0    0 -0.39195749521E+01  0.28250659078E+02  0.11916933825E+02  0.30910776732E+02  0.51100000000E-03 0.  1.
         12    1    3    3    0    0 -0.15185253402E+02 -0.24770958509E+02  0.65905247188E+01  0.29793075074E+02  0.00000000000E+00 0. -1.
</event>
<event>
 7    1  0.2700104E-013  0.7246154E+02  0.7816164E-02  0.1226708E+00
        -11   -1    0    0    0    0  0.00000000000E+00  0.00000000000E+00  0.45593999997E+02  0.45594000000E+02  0.51100000000E-03 0. -1.
         11   -1    0    0    0    0 -0.00000000000E+00 -0.00000000000E+00 -0.45593999997E+02  0.45594000000E+02  0.51100000000E-03 0.  1.
    9900012    2    1    2    0    0 -0.47974282239E+01  0.11789473502E+02  0.13735844277E+02  0.72461536879E+02  0.69999956470E+02 0.  0.
        -12    1    1    2    0    0  0.47974282239E+01 -0.11789473502E+02 -0.13735844277E+02  0.18726463121E+02  0.00000000000E+00 0.  1.
         11    1    3    3    0    0 -0.10137445280E+02  0.32539745737E+02  0.97104778838E+01  0.35438626249E+02  0.51100000000E-03 0. -1.
        -11    1    3    3    0    0  0.46368274509E+01  0.35170996834E+01 -0.80298135221E+01  0.99170592644E+01  0.51100000000E-03 0.  1.
        -12    1    3    3    0    0  0.70318960536E+00 -0.24267371918E+02  0.12055179916E+02  0.27105851365E+02  0.00000000000E+00 0.  1.
</event>
<event>
 7    1  0.2700104E-013  0.7246158E+02  0.7816164E-02  0.1226708E+00
        -11   -1    0    0    0    0  0.00000000000E+00  0.00000000000E+00  0.45593999997E+02  0.45594000000E+02  0.51100000000E-03 0.  1.
         11   -1    0    0    0    0 -0.00000000000E+00 -0.00000000000E+00 -0.45593999997E+02  0.45594000000E+02  0.51100000000E-03 0. -1.
    9900012    2    1    2    0    0  0.77617547640E+01 -0.14448833760E+01 -0.16980765917E+02  0.72461576527E+02  0.70000008119E+02 0.  0.
        -12    1    1    2    0    0 -0.77617547640E+01  0.14448833760E+01  0.16980765917E+02  0.18726423473E+02  0.00000000000E+00 0.  1.
         11    1    3    3    0    0 -0.19349954094E+02 -0.24815375845E+01  0.84530461415E+01  0.21261061628E+02  0.51100000000E-03 0. -1.
        -11    1    3    3    0    0  0.96591520899E+01  0.31603021306E+01  0.83253333751E+01  0.13137652177E+02  0.51100000000E-03 0.  1.
        -12    1    3    3    0    0  0.17452556768E+02 -0.21236479221E+01 -0.33759145433E+02  0.38062862722E+02  0.00000000000E+00 0.  1.
</event>
<event>
 7    1  0.2700104E-013  0.7246158E+02  0.7816164E-02  0.1226708E+00
        -11   -1    0    0    0    0  0.00000000000E+00  0.00000000000E+00  0.45593999997E+02  0.45594000000E+02  0.51100000000E-03 0. -1.
         11   -1    0    0    0    0 -0.00000000000E+00 -0.00000000000E+00 -0.45593999997E+02  0.45594000000E+02  0.51100000000E-03 0.  1.
    9900012    2    1    2    0    0 -0.15516028257E+02 -0.16860765881E+01  0.10348366506E+02  0.72461583459E+02  0.70000017150E+02 0.  0.
        -12    1    1    2    0    0  0.15516028257E+02  0.16860765881E+01 -0.10348366506E+02  0.18726416541E+02  0.00000000000E+00 0.  1.
         11    1    3    3    0    0 -0.15421453712E+02 -0.68216882583E+01  0.11402097894E+02  0.20355945125E+02  0.51100000000E-03 0. -1.
        -11    1    3    3    0    0 -0.19662786525E+02  0.29615948751E+01 -0.17471688496E+02  0.26469909658E+02  0.51100000000E-03 0.  1.
         12    1    3    3    0    0  0.19568211981E+02  0.21740167950E+01  0.16417957109E+02  0.25635728676E+02  0.00000000000E+00 0. -1.
</event>
<event>
 7    1  0.2700104E-013  0.7246158E+02  0.7816164E-02  0.1226708E+00
        -11   -1    0    0    0    0  0.00000000000E+00  0.00000000000E+00  0.45593999997E+02  0.45594000000E+02  0.51100000000E-03 0.  1.
         11   -1    0    0    0    0 -0.00000000000E+00 -0.00000000000E+00 -0.45593999997E+02  0.45594000000E+02  0.51100000000E-03 0. -1.
    9900012    2    1    2    0    0  0.15900394236E+02  0.25928743039E+01 -0.95463720373E+01  0.72461581413E+02  0.70000014484E+02 0.  0.
        -12    1    1    2    0    0 -0.15900394236E+02 -0.25928743039E+01  0.95463720373E+01  0.18726418587E+02  0.00000000000E+00 0.  1.
         11    1    3    3    0    0  0.89555197948E+01  0.26290308304E+02  0.92162210178E+01  0.29262952271E+02  0.51100000000E-03 0. -1.
        -11    1    3    3    0    0 -0.10834772491E+01  0.69551878138E+01 -0.50979326568E+01  0.86912299537E+01  0.51100000000E-03 0.  1.
         12    1    3    3    0    0  0.80283516907E+01 -0.30652621814E+02 -0.13664660398E+02  0.34507399188E+02  0.00000000000E+00 0. -1.
</event>
<event>
 7    1  0.2700104E-013  0.7246158E+02  0.7816164E-02  0.1226708E+00
        -11   -1    0    0    0    0  0.00000000000E+00  0.00000000000E+00  0.45593999997E+02  0.45594000000E+02  0.51100000000E-03 0.  1.
         11   -1    0    0    0    0 -0.00000000000E+00 -0.00000000000E+00 -0.45593999997E+02  0.45594000000E+02  0.51100000000E-03 0. -1.
    9900012    2    1    2    0    0 -0.16805249529E+02 -0.64446902476E+01  0.51699564713E+01  0.72461577650E+02  0.70000009582E+02 0.  0.
        -12    1    1    2    0    0  0.16805249529E+02  0.64446902476E+01 -0.51699564713E+01  0.18726422350E+02  0.00000000000E+00 0.  1.
         11    1    3    3    0    0 -0.28033367427E+01  0.84812865346E+01 -0.15059527398E+01  0.90586319105E+01  0.51100000000E-03 0. -1.
        -11    1    3    3    0    0  0.37214261960E+01  0.21768443794E+02 -0.15014958768E+00  0.22084761790E+02  0.51100000000E-03 0.  1.
         12    1    3    3    0    0 -0.17723338983E+02 -0.36694420577E+02  0.68260587988E+01  0.41318183949E+02  0.00000000000E+00 0. -1.
</event>
<event>
 7    1  0.2700104E-013  0.7246155E+02  0.7816164E-02  0.1226708E+00
        -11   -1    0    0    0    0  0.00000000000E+00  0.00000000000E+00  0.45593999997E+02  0.45594000000E+02  0.51100000000E-03 0. -1.
         11   -1    0    0    0    0 -0.00000000000E+00 -0.00000000000E+00 -0.45593999997E+02  0.45594000000E+02  0.51100000000E-03 0.  1.
    9900012    2    1    2    0    0 -0.37997541795E+01 -0.64531017780E+01  0.17163897055E+02  0.72461547680E+02  0.69999970541E+02 0.  0.
        -12    1    1    2    0    0  0.37997541795E+01  0.64531017780E+01 -0.17163897055E+02  0.18726452320E+02  0.00000000000E+00 0.  1.
         11    1    3    3    0    0 -0.43416554242E+01 -0.68084081208E+01  0.16886314107E+02  0.18717692095E+02  0.51100000000E-03 0. -1.
        -11    1    3    3    0    0 -0.93509658030E+01 -0.13488255914E+02 -0.20902253135E+02  0.26575887482E+02  0.51100000000E-03 0.  1.
         12    1    3    3    0    0  0.98928670477E+01  0.13843562257E+02  0.21179836083E+02  0.27167968104E+02  0.00000000000E+00 0. -1.
</event>
<event>
 7    1  0.2700104E-013  0.7246156E+02  0.7816164E-02  0.1226708E+00
        -11   -1    0    0    0    0  0.00000000000E+00  0.00000000000E+00  0.45593999997E+02  0.45594000000E+02  0.51100000000E-03 0. -1.
         11   -1    0    0    0    0 -0.00000000000E+00 -0.00000000000E+00 -0.45593999997E+02  0.45594000000E+02  0.51100000000E-03 0.  1.
    9900012    2    1    2    0    0 -0.88456379873E+00  0.72046488942E+01  0.17262391396E+02  0.72461559454E+02  0.69999985879E+02 0.  0.
        -12    1    1    2    0    0  0.88456379873E+00 -0.72046488942E+01 -0.17262391396E+02  0.18726440546E+02  0.00000000000E+00 0.  1.
         11    1    3    3    0    0  0.24559381821E+02  0.25951474387E+01 -0.34241412138E+01  0.24932363887E+02  0.51100000000E-03 0. -1.
        -11    1    3    3    0    0 -0.61584917097E+01 -0.88297068480E+01 -0.57080720420E+01  0.12184942751E+02  0.51100000000E-03 0.  1.
        -12    1    3    3    0    0 -0.19285453910E+02  0.13439208303E+02  0.26394604652E+02  0.35344252816E+02  0.00000000000E+00 0.  1.
</event>
<event>
 7    1  0.2700104E-013  0.7246177E+02  0.7816164E-02  0.1226707E+00
        -11   -1    0    0    0    0  0.00000000000E+00  0.00000000000E+00  0.45593999997E+02  0.45594000000E+02  0.51100000000E-03 0.  1.
         11   -1    0    0    0    0 -0.00000000000E+00 -0.00000000000E+00 -0.45593999997E+02  0.45594000000E+02  0.51100000000E-03 0. -1.
    9900012    2    1    2    0    0  0.14908396660E+02  0.77104518957E+00 -0.11305607521E+02  0.72461773389E+02  0.70000264568E+02 0.  0.
        -12    1    1    2    0    0 -0.14908396660E+02 -0.77104518957E+00  0.11305607521E+02  0.18726226611E+02  0.00000000000E+00 0.  1.
         11    1    3    3    0    0 -0.37965664427E+01 -0.19659146651E+02  0.24552237828E+00  0.20023891862E+02  0.51100000000E-03 0. -1.
        -11    1    3    3    0    0 -0.11001313640E+02  0.18314392269E+02 -0.45148297998E+01  0.21836427235E+02  0.51100000000E-03 0.  1.
         12    1    3    3    0    0  0.29706276743E+02  0.21157995709E+01 -0.70363000996E+01  0.30601454293E+02  0.00000000000E+00 0. -1.
</event>
<event>
 7    1  0.2700104E-013  0.7246172E+02  0.7816164E-02  0.1226708E+00
        -11   -1    0    0    0    0  0.00000000000E+00  0.00000000000E+00  0.45593999997E+02  0.45594000000E+02  0.51100000000E-03 0.  1.
         11   -1    0    0    0    0 -0.00000000000E+00 -0.00000000000E+00 -0.45593999997E+02  0.45594000000E+02  0.51100000000E-03 0. -1.
    9900012    2    1    2    0    0 -0.28315752516E+01  0.10442271833E+02 -0.15284457883E+02  0.72461721346E+02  0.70000196772E+02 0.  0.
        -12    1    1    2    0    0  0.28315752516E+01 -0.10442271833E+02  0.15284457883E+02  0.18726278654E+02  0.00000000000E+00 0.  1.
         11    1    3    3    0    0  0.76981749528E+01 -0.18043064584E+01  0.76062542979E+01  0.10971441296E+02  0.51100000000E-03 0. -1.
        -11    1    3    3    0    0 -0.71328869794E+01 -0.21648266314E+02 -0.11794913688E+02  0.25664089702E+02  0.51100000000E-03 0.  1.
        -12    1    3    3    0    0 -0.33968632249E+01  0.33894844606E+02 -0.11095798494E+02  0.35826190348E+02  0.00000000000E+00 0.  1.
</event>
<event>
 7    1  0.2700104E-013  0.7246158E+02  0.7816164E-02  0.1226708E+00
        -11   -1    0    0    0    0  0.00000000000E+00  0.00000000000E+00  0.45593999997E+02  0.45594000000E+02  0.51100000000E-03 0.  1.
         11   -1    0    0    0    0 -0.00000000000E+00 -0.00000000000E+00 -0.45593999997E+02  0.45594000000E+02  0.51100000000E-03 0. -1.
    9900012    2    1    2    0    0  0.14755789822E+01  0.14886033249E+02 -0.11265324606E+02  0.72461578620E+02  0.70000010845E+02 0.  0.
        -12    1    1    2    0    0 -0.14755789822E+01 -0.14886033249E+02  0.11265324606E+02  0.18726421380E+02  0.00000000000E+00 0.  1.
         11    1    3    3    0    0  0.16220376642E+02  0.41680816074E+01 -0.12918926665E+02  0.21151174651E+02  0.51100000000E-03 0. -1.
        -11    1    3    3    0    0  0.13100704343E+02  0.49930735659E+01  0.14451411111E+02  0.20134610036E+02  0.51100000000E-03 0.  1.
        -12    1    3    3    0    0 -0.27845502003E+02  0.57248780760E+01 -0.12797809053E+02  0.31175793932E+02  0.00000000000E+00 0.  1.
</event>
<event>
 7    1  0.2700104E-013  0.7246157E+02  0.7816164E-02  0.1226708E+00
        -11   -1    0    0    0    0  0.00000000000E+00  0.00000000000E+00  0.45593999997E+02  0.45594000000E+02  0.51100000000E-03 0. -1.
         11   -1    0    0    0    0 -0.00000000000E+00 -0.00000000000E+00 -0.45593999997E+02  0.45594000000E+02  0.51100000000E-03 0.  1.
    9900012    2    1    2    0    0  0.56790932721E+01  0.21510665755E+00  0.17843228976E+02  0.72461569706E+02  0.69999999234E+02 0.  0.
        -12    1    1    2    0    0 -0.56790932721E+01 -0.21510665755E+00 -0.17843228976E+02  0.18726430294E+02  0.00000000000E+00 0.  1.
         11    1    3    3    0    0  0.16311997534E+01 -0.33990999309E+01  0.21946391399E+02  0.22267886938E+02  0.51100000000E-03 0.  1.
        -11    1    3    3    0    0 -0.17347188397E+01 -0.80456683361E+01  0.20648696475E+02  0.22228600829E+02  0.51100000000E-03 0. -1.
        -12    1    3    3    0    0  0.57826123585E+01  0.11659874925E+02 -0.24751858899E+02  0.27965081939E+02  0.00000000000E+00 0.  1.
</event>
<event>
 7    1  0.2700104E-013  0.7246176E+02  0.7816164E-02  0.1226708E+00
        -11   -1    0    0    0    0  0.00000000000E+00  0.00000000000E+00  0.45593999997E+02  0.45594000000E+02  0.51100000000E-03 0. -1.
         11   -1    0    0    0    0 -0.00000000000E+00 -0.00000000000E+00 -0.45593999997E+02  0.45594000000E+02  0.51100000000E-03 0.  1.
    9900012    2    1    2    0    0 -0.11737854990E+01 -0.17099258445E+02  0.75438402419E+01  0.72461763396E+02  0.70000251550E+02 0.  0.
        -12    1    1    2    0    0  0.11737854990E+01  0.17099258445E+02 -0.75438402419E+01  0.18726236604E+02  0.00000000000E+00 0.  1.
         11    1    3    3    0    0  0.15398471489E+02 -0.10222985028E+02  0.22062561576E+02  0.28781573456E+02  0.51100000000E-03 0. -1.
        -11    1    3    3    0    0  0.47203562613E+01 -0.11373193638E+02 -0.17828499115E+02  0.21667641259E+02  0.51100000000E-03 0.  1.
        -12    1    3    3    0    0 -0.21292613250E+02  0.44969202208E+01  0.33097777808E+01  0.22012548681E+02  0.00000000000E+00 0.  1.
</event>
<event>
 7    1  0.2700104E-013  0.7246158E+02  0.7816164E-02  0.1226708E+00
        -11   -1    0    0    0    0  0.00000000000E+00  0.00000000000E+00  0.45593999997E+02  0.45594000000E+02  0.51100000000E-03 0.  1.
         11   -1    0    0    0    0 -0.00000000000E+00 -0.00000000000E+00 -0.45593999997E+02  0.45594000000E+02  0.51100000000E-03 0. -1.
    9900012    2    1    2    0    0 -0.11179107019E+02 -0.13716155762E+02  0.61297036561E+01  0.72461584712E+02  0.70000018782E+02 0.  0.
        -12    1    1    2    0    0  0.11179107019E+02  0.13716155762E+02 -0.61297036561E+01  0.18726415288E+02  0.00000000000E+00 0.  1.
         11    1    3    3    0    0 -0.30028074292E+02 -0.23165104823E+02  0.13295781716E+02  0.40188121862E+02  0.51100000000E-03 0. -1.
        -11    1    3    3    0    0 -0.33956652244E+01 -0.41753990034E+01 -0.12996647269E+01  0.55365718470E+01  0.51100000000E-03 0.  1.
        -12    1    3    3    0    0  0.22244632497E+02  0.13624348064E+02 -0.58664133328E+01  0.26736891003E+02  0.00000000000E+00 0.  1.
</event>
<event>
 7    1  0.2700104E-013  0.7246156E+02  0.7816164E-02  0.1226708E+00
        -11   -1    0    0    0    0  0.00000000000E+00  0.00000000000E+00  0.45593999997E+02  0.45594000000E+02  0.51100000000E-03 0.  1.
         11   -1    0    0    0    0 -0.00000000000E+00 -0.00000000000E+00 -0.45593999997E+02  0.45594000000E+02  0.51100000000E-03 0. -1.
    9900012    2    1    2    0    0 -0.11733315459E+02  0.11125264630E+02 -0.94465622011E+01  0.72461555004E+02  0.69999980082E+02 0.  0.
        -12    1    1    2    0    0  0.11733315459E+02 -0.11125264630E+02  0.94465622011E+01  0.18726444996E+02  0.00000000000E+00 0.  1.
         11    1    3    3    0    0 -0.11060745102E+02  0.28599470555E+02  0.42618226517E+01  0.30958567971E+02  0.51100000000E-03 0. -1.
        -11    1    3    3    0    0  0.11574817249E+02 -0.93557517323E+01  0.67274484549E+01  0.16332943635E+02  0.51100000000E-03 0.  1.
        -12    1    3    3    0    0 -0.12247387606E+02 -0.81184541930E+01 -0.20435833308E+02  0.25170043398E+02  0.00000000000E+00 0.  1.
</event>
<event>
 7    1  0.2700104E-013  0.7246172E+02  0.7816164E-02  0.1226708E+00
        -11   -1    0    0    0    0  0.00000000000E+00  0.00000000000E+00  0.45593999997E+02  0.45594000000E+02  0.51100000000E-03 0.  1.
         11   -1    0    0    0    0 -0.00000000000E+00 -0.00000000000E+00 -0.45593999997E+02  0.45594000000E+02  0.51100000000E-03 0. -1.
    9900012    2    1    2    0    0  0.93698029595E+01  0.15961592967E+02 -0.28474391501E+01  0.72461719877E+02  0.70000194858E+02 0.  0.
        -12    1    1    2    0    0 -0.93698029595E+01 -0.15961592967E+02  0.28474391501E+01  0.18726280123E+02  0.00000000000E+00 0.  1.
         11    1    3    3    0    0  0.18628211821E+02 -0.13554108475E+02 -0.17449493664E+02  0.28899982035E+02  0.51100000000E-03 0. -1.
        -11    1    3    3    0    0  0.82271601486E+01  0.75748696837E+01 -0.13877744271E+01  0.11269016504E+02  0.51100000000E-03 0.  1.
        -12    1    3    3    0    0 -0.17485569011E+02  0.21940831759E+02  0.15989828941E+02  0.32292721338E+02  0.00000000000E+00 0.  1.
</event>
<event>
 7    1  0.2700104E-013  0.7246160E+02  0.7816164E-02  0.1226708E+00
        -11   -1    0    0    0    0  0.00000000000E+00  0.00000000000E+00  0.45593999997E+02  0.45594000000E+02  0.51100000000E-03 0.  1.
         11   -1    0    0    0    0 -0.00000000000E+00 -0.00000000000E+00 -0.45593999997E+02  0.45594000000E+02  0.51100000000E-03 0. -1.
    9900012    2    1    2    0    0  0.11019301883E+02  0.66488658017E+00 -0.15126500577E+02  0.72461598641E+02  0.70000036926E+02 0.  0.
        -12    1    1    2    0    0 -0.11019301883E+02 -0.66488658017E+00  0.15126500577E+02  0.18726401359E+02  0.00000000000E+00 0.  1.
         11    1    3    3    0    0  0.16105805158E+02 -0.16290471146E+02 -0.75538398952E+00  0.22920449716E+02  0.51100000000E-03 0. -1.
        -11    1    3    3    0    0 -0.14001768027E+02 -0.95053691563E+01 -0.13427049300E+02  0.21602944333E+02  0.51100000000E-03 0.  1.
        -12    1    3    3    0    0  0.89152647525E+01  0.26460726883E+02 -0.94406728779E+00  0.27938204592E+02  0.00000000000E+00 0.  1.
</event>
<event>
 7    1  0.2700104E-013  0.7246157E+02  0.7816164E-02  0.1226708E+00
        -11   -1    0    0    0    0  0.00000000000E+00  0.00000000000E+00  0.45593999997E+02  0.45594000000E+02  0.51100000000E-03 0.  1.
         11   -1    0    0    0    0 -0.00000000000E+00 -0.00000000000E+00 -0.45593999997E+02  0.45594000000E+02  0.51100000000E-03 0. -1.
    9900012    2    1    2    0    0 -0.47318979935E+01  0.17371023610E+02  0.51513092040E+01  0.72461566640E+02  0.69999995239E+02 0.  0.
        -12    1    1    2    0    0  0.47318979935E+01 -0.17371023610E+02 -0.51513092040E+01  0.18726433360E+02  0.00000000000E+00 0.  1.
         11    1    3    3    0    0  0.59373801306E+01 -0.96354871014E+00  0.27031446349E+01  0.65945356251E+01  0.51100000000E-03 0. -1.
        -11    1    3    3    0    0  0.29312333794E+01 -0.18015136515E+02 -0.14701047418E+02  0.23436255422E+02  0.51100000000E-03 0.  1.
         12    1    3    3    0    0 -0.13600511503E+02  0.36349708835E+02  0.17149211987E+02  0.42430775592E+02  0.00000000000E+00 0. -1.
</event>
<event>
 7    1  0.2700104E-013  0.7246160E+02  0.7816164E-02  0.1226708E+00
        -11   -1    0    0    0    0  0.00000000000E+00  0.00000000000E+00  0.45593999997E+02  0.45594000000E+02  0.51100000000E-03 0.  1.
         11   -1    0    0    0    0 -0.00000000000E+00 -0.00000000000E+00 -0.45593999997E+02  0.45594000000E+02  0.51100000000E-03 0. -1.
    9900012    2    1    2    0    0  0.99945134007E+00 -0.28167542161E+01 -0.18486351644E+02  0.72461596063E+02  0.70000033569E+02 0.  0.
        -12    1    1    2    0    0 -0.99945134007E+00  0.28167542161E+01  0.18486351644E+02  0.18726403937E+02  0.00000000000E+00 0.  1.
         11    1    3    3    0    0 -0.17163603685E+02  0.75721476251E+01  0.76076018180E+01  0.20243574704E+02  0.51100000000E-03 0. -1.
        -11    1    3    3    0    0 -0.88805865241E+01 -0.11934363999E+02 -0.39792298105E+00  0.14881270243E+02  0.51100000000E-03 0.  1.
         12    1    3    3    0    0  0.27043641549E+02  0.15454621579E+01 -0.25696030481E+02  0.37336751117E+02  0.00000000000E+00 0. -1.
</event>
<event>
 7    1  0.2700104E-013  0.7246135E+02  0.7816164E-02  0.1226709E+00
        -11   -1    0    0    0    0  0.00000000000E+00  0.00000000000E+00  0.45593999997E+02  0.45594000000E+02  0.51100000000E-03 0.  1.
         11   -1    0    0    0    0 -0.00000000000E+00 -0.00000000000E+00 -0.45593999997E+02  0.45594000000E+02  0.51100000000E-03 0. -1.
    9900012    2    1    2    0    0  0.11568804170E+02  0.35389449719E+01 -0.14294271406E+02  0.72461346362E+02  0.69999708286E+02 0.  0.
        -12    1    1    2    0    0 -0.11568804170E+02 -0.35389449719E+01  0.14294271406E+02  0.18726653638E+02  0.00000000000E+00 0.  1.
         11    1    3    3    0    0 -0.15105391026E+01 -0.14217702483E+02 -0.22482187445E+02  0.26643452194E+02  0.51100000000E-03 0. -1.
        -11    1    3    3    0    0  0.12280951268E+02 -0.24378414051E+01  0.19109068900E+02  0.22845598028E+02  0.51100000000E-03 0.  1.
         12    1    3    3    0    0  0.79839200484E+00  0.20194488860E+02 -0.10921152861E+02  0.22972296140E+02  0.00000000000E+00 0. -1.
</event>
<event>
 7    1  0.2700104E-013  0.7246158E+02  0.7816164E-02  0.1226708E+00
        -11   -1    0    0    0    0  0.00000000000E+00  0.00000000000E+00  0.45593999997E+02  0.45594000000E+02  0.51100000000E-03 0.  1.
         11   -1    0    0    0    0 -0.00000000000E+00 -0.00000000000E+00 -0.45593999997E+02  0.45594000000E+02  0.51100000000E-03 0. -1.
    9900012    2    1    2    0    0  0.18235486806E+02 -0.88513517986E+00 -0.41668104833E+01  0.72461581417E+02  0.70000014490E+02 0.  0.
        -12    1    1    2    0    0 -0.18235486806E+02  0.88513517986E+00  0.41668104833E+01  0.18726418583E+02  0.00000000000E+00 0.  1.
         11    1    3    3    0    0  0.94340923561E+01  0.11494288344E+02 -0.16764326110E+01  0.14964330579E+02  0.51100000000E-03 0.  1.
        -11    1    3    3    0    0  0.74254732799E+01 -0.32990450705E+02 -0.10398304753E+02  0.35378414791E+02  0.51100000000E-03 0. -1.
         12    1    3    3    0    0  0.13759211697E+01  0.20611027181E+02  0.79079268809E+01  0.22118836047E+02  0.00000000000E+00 0. -1.
</event>
<event>
 7    1  0.2700104E-013  0.7246161E+02  0.7816164E-02  0.1226708E+00
        -11   -1    0    0    0    0  0.00000000000E+00  0.00000000000E+00  0.45593999997E+02  0.45594000000E+02  0.51100000000E-03 0.  1.
         11   -1    0    0    0    0 -0.00000000000E+00 -0.00000000000E+00 -0.45593999997E+02  0.45594000000E+02  0.51100000000E-03 0. -1.
    9900012    2    1    2    0    0  0.12888698590E+02  0.93975625668E+01 -0.98104507676E+01  0.72461610124E+02  0.70000051885E+02 0.  0.
        -12    1    1    2    0    0 -0.12888698590E+02 -0.93975625668E+01  0.98104507676E+01  0.18726389876E+02  0.00000000000E+00 0.  1.
         11    1    3    3    0    0  0.26238339777E+01  0.46018788500E+01 -0.13518038390E+02  0.14518924060E+02  0.51100000000E-03 0. -1.
        -11    1    3    3    0    0  0.23574467470E+02  0.24393389361E+02  0.46121510661E+01  0.34235433380E+02  0.51100000000E-03 0.  1.
        -12    1    3    3    0    0 -0.13309602858E+02 -0.19597705644E+02 -0.90456344387E+00  0.23707252683E+02  0.00000000000E+00 0.  1.
</event>
<event>
 7    1  0.2700104E-013  0.7246113E+02  0.7816164E-02  0.1226709E+00
        -11   -1    0    0    0    0  0.00000000000E+00  0.00000000000E+00  0.45593999997E+02  0.45594000000E+02  0.51100000000E-03 0.  1.
         11   -1    0    0    0    0 -0.00000000000E+00 -0.00000000000E+00 -0.45593999997E+02  0.45594000000E+02  0.51100000000E-03 0. -1.
    9900012    2    1    2    0    0  0.15649835911E+02  0.64373988340E+01 -0.80211160250E+01  0.72461127061E+02  0.69999422604E+02 0.  0.
        -12    1    1    2    0    0 -0.15649835911E+02 -0.64373988340E+01  0.80211160250E+01  0.18726872939E+02  0.00000000000E+00 0.  1.
         11    1    3    3    0    0 -0.11443338701E+02  0.61035776689E+01 -0.46843177534E+01  0.13789361627E+02  0.51100000000E-03 0. -1.
        -11    1    3    3    0    0 -0.10774308788E+02 -0.73312289583E+01  0.11406541422E+02  0.17318828927E+02  0.51100000000E-03 0.  1.
        -12    1    3    3    0    0  0.37867483401E+02  0.76650501233E+01 -0.14743339694E+02  0.41352936508E+02  0.00000000000E+00 0.  1.
</event>
<event>
 7    1  0.2700104E-013  0.7246153E+02  0.7816164E-02  0.1226708E+00
        -11   -1    0    0    0    0  0.00000000000E+00  0.00000000000E+00  0.45593999997E+02  0.45594000000E+02  0.51100000000E-03 0.  1.
         11   -1    0    0    0    0 -0.00000000000E+00 -0.00000000000E+00 -0.45593999997E+02  0.45594000000E+02  0.51100000000E-03 0. -1.
    9900012    2    1    2    0    0 -0.88352137620E+01  0.14718460102E+02 -0.74824228288E+01  0.72461528859E+02  0.69999946023E+02 0.  0.
        -12    1    1    2    0    0  0.88352137620E+01 -0.14718460102E+02  0.74824228288E+01  0.18726471141E+02  0.00000000000E+00 0.  1.
         11    1    3    3    0    0 -0.25294771750E+02  0.10655181567E+02 -0.12670313724E+02  0.30230699996E+02  0.51100000000E-03 0. -1.
        -11    1    3    3    0    0 -0.89700638042E+01 -0.93746047242E+01  0.34032097909E+01  0.13413690601E+02  0.51100000000E-03 0.  1.
         12    1    3    3    0    0  0.25429621793E+02  0.13437883259E+02  0.17846811042E+01  0.28817138262E+02  0.00000000000E+00 0. -1.
</event>
<event>
 7    1  0.2700104E-013  0.7246159E+02  0.7816164E-02  0.1226708E+00
        -11   -1    0    0    0    0  0.00000000000E+00  0.00000000000E+00  0.45593999997E+02  0.45594000000E+02  0.51100000000E-03 0. -1.
         11   -1    0    0    0    0 -0.00000000000E+00 -0.00000000000E+00 -0.45593999997E+02  0.45594000000E+02  0.51100000000E-03 0.  1.
    9900012    2    1    2    0    0  0.30803983547E+01  0.59570764442E+01  0.17484356001E+02  0.72461593015E+02  0.70000029598E+02 0.  0.
        -12    1    1    2    0    0 -0.30803983547E+01 -0.59570764442E+01 -0.17484356001E+02  0.18726406985E+02  0.00000000000E+00 0.  1.
         11    1    3    3    0    0 -0.13512793416E+02  0.12265292060E+02 -0.58100915005E+01  0.19151765942E+02  0.51100000000E-03 0.  1.
        -11    1    3    3    0    0 -0.26603644362E+01 -0.13015937008E+02  0.29202640649E+02  0.32082493299E+02  0.51100000000E-03 0. -1.
         12    1    3    3    0    0  0.19253556206E+02  0.67077213917E+01 -0.59081931473E+01  0.21227333773E+02  0.00000000000E+00 0. -1.
</event>
<event>
 7    1  0.2700104E-013  0.7246164E+02  0.7816164E-02  0.1226708E+00
        -11   -1    0    0    0    0  0.00000000000E+00  0.00000000000E+00  0.45593999997E+02  0.45594000000E+02  0.51100000000E-03 0.  1.
         11   -1    0    0    0    0 -0.00000000000E+00 -0.00000000000E+00 -0.45593999997E+02  0.45594000000E+02  0.51100000000E-03 0. -1.
    9900012    2    1    2    0    0 -0.26458727252E+01  0.12271198379E+02 -0.13895812611E+02  0.72461639962E+02  0.70000090755E+02 0.  0.
        -12    1    1    2    0    0  0.26458727252E+01 -0.12271198379E+02  0.13895812611E+02  0.18726360038E+02  0.00000000000E+00 0.  1.
         11    1    3    3    0    0 -0.60853514603E+01  0.15670850264E+02  0.53616915752E+01  0.17645248290E+02  0.51100000000E-03 0. -1.
        -11    1    3    3    0    0  0.70320634939E+01  0.19985293613E+02  0.40892134012E+01  0.21577385019E+02  0.51100000000E-03 0.  1.
         12    1    3    3    0    0 -0.35925847589E+01 -0.23384945497E+02 -0.23346717588E+02  0.33239006653E+02  0.00000000000E+00 0. -1.
</event>
<event>
 7    1  0.2700104E-013  0.7246145E+02  0.7816164E-02  0.1226708E+00
        -11   -1    0    0    0    0  0.00000000000E+00  0.00000000000E+00  0.45593999997E+02  0.45594000000E+02  0.51100000000E-03 0.  1.
         11   -1    0    0    0    0 -0.00000000000E+00 -0.00000000000E+00 -0.45593999997E+02  0.45594000000E+02  0.51100000000E-03 0. -1.
    9900012    2    1    2    0    0  0.14598174571E+02 -0.33715021590E+01 -0.11234326298E+02  0.72461446260E+02  0.69999838422E+02 0.  0.
        -12    1    1    2    0    0 -0.14598174571E+02  0.33715021590E+01  0.11234326298E+02  0.18726553740E+02  0.00000000000E+00 0.  1.
         11    1    3    3    0    0 -0.16828081182E+01 -0.18920470416E+02 -0.30933419488E+02  0.36300034234E+02  0.51100000000E-03 0. -1.
        -11    1    3    3    0    0 -0.31441852197E+01 -0.67230800166E+00 -0.11056873384E+01  0.34000652195E+01  0.51100000000E-03 0.  1.
        -12    1    3    3    0    0  0.19425167909E+02  0.16221276259E+02  0.20804780528E+02  0.32761346807E+02  0.00000000000E+00 0.  1.
</event>
<event>
 7    1  0.2700104E-013  0.7246153E+02  0.7816164E-02  0.1226708E+00
        -11   -1    0    0    0    0  0.00000000000E+00  0.00000000000E+00  0.45593999997E+02  0.45594000000E+02  0.51100000000E-03 0.  1.
         11   -1    0    0    0    0 -0.00000000000E+00 -0.00000000000E+00 -0.45593999997E+02  0.45594000000E+02  0.51100000000E-03 0. -1.
    9900012    2    1    2    0    0 -0.15699108626E+02  0.62477226291E+01 -0.80736937712E+01  0.72461532613E+02  0.69999950913E+02 0.  0.
        -12    1    1    2    0    0  0.15699108626E+02 -0.62477226291E+01  0.80736937712E+01  0.18726467387E+02  0.00000000000E+00 0.  1.
         11    1    3    3    0    0 -0.23271909653E+02  0.83058848519E+01 -0.37376651482E+01  0.24990791165E+02  0.51100000000E-03 0. -1.
        -11    1    3    3    0    0  0.57338312524E+01  0.22115011470E+02 -0.18424171660E-01  0.22846244612E+02  0.51100000000E-03 0.  1.
         12    1    3    3    0    0  0.18389697746E+01 -0.24173173693E+02 -0.43176044513E+01  0.24624496836E+02  0.00000000000E+00 0. -1.
</event>
<event>
 7    1  0.2700104E-013  0.7246163E+02  0.7816164E-02  0.1226708E+00
        -11   -1    0    0    0    0  0.00000000000E+00  0.00000000000E+00  0.45593999997E+02  0.45594000000E+02  0.51100000000E-03 0. -1.
         11   -1    0    0    0    0 -0.00000000000E+00 -0.00000000000E+00 -0.45593999997E+02  0.45594000000E+02  0.51100000000E-03 0.  1.
    9900012    2    1    2    0    0 -0.21170791069E+01 -0.14060367618E+02  0.12186094792E+02  0.72461631751E+02  0.70000080059E+02 0.  0.
        -12    1    1    2    0    0  0.21170791069E+01  0.14060367618E+02 -0.12186094792E+02  0.18726368249E+02  0.00000000000E+00 0.  1.
         11    1    3    3    0    0  0.19979009728E+02 -0.34274336526E+01 -0.84692180474E+01  0.21968973252E+02  0.51100000000E-03 0. -1.
        -11    1    3    3    0    0  0.96782064609E+01  0.37917237963E+01  0.88590356972E+01  0.13657502092E+02  0.51100000000E-03 0.  1.
        -12    1    3    3    0    0 -0.31774295296E+02 -0.14424657762E+02  0.11796277142E+02  0.36835156407E+02  0.00000000000E+00 0.  1.
</event>
<event>
 7    1  0.2700104E-013  0.7246140E+02  0.7816164E-02  0.1226708E+00
        -11   -1    0    0    0    0  0.00000000000E+00  0.00000000000E+00  0.45593999997E+02  0.45594000000E+02  0.51100000000E-03 0.  1.
         11   -1    0    0    0    0 -0.00000000000E+00 -0.00000000000E+00 -0.45593999997E+02  0.45594000000E+02  0.51100000000E-03 0. -1.
    9900012    2    1    2    0    0  0.51348488123E+00 -0.14498286458E+02 -0.11841512906E+02  0.72461403810E+02  0.69999783123E+02 0.  0.
        -12    1    1    2    0    0 -0.51348488123E+00  0.14498286458E+02  0.11841512906E+02  0.18726596190E+02  0.00000000000E+00 0.  1.
         11    1    3    3    0    0 -0.17709456998E+01 -0.83072688245E+01  0.46624148884E+01  0.96894311931E+01  0.51100000000E-03 0. -1.
        -11    1    3    3    0    0  0.13234771604E+02 -0.14666661938E+02  0.17288852944E+02  0.26252134927E+02  0.51100000000E-03 0.  1.
         12    1    3    3    0    0 -0.10950341023E+02  0.84756443040E+01 -0.33792780738E+02  0.36519837690E+02  0.00000000000E+00 0. -1.
</event>
<event>
 7    1  0.2700104E-013  0.7246161E+02  0.7816164E-02  0.1226708E+00
        -11   -1    0    0    0    0  0.00000000000E+00  0.00000000000E+00  0.45593999997E+02  0.45594000000E+02  0.51100000000E-03 0.  1.
         11   -1    0    0    0    0 -0.00000000000E+00 -0.00000000000E+00 -0.45593999997E+02  0.45594000000E+02  0.51100000000E-03 0. -1.
    9900012    2    1    2    0    0  0.83715229489E+01 -0.13185270901E+02 -0.10331702163E+02  0.72461605932E+02  0.70000046424E+02 0.  0.
        -12    1    1    2    0    0 -0.83715229489E+01  0.13185270901E+02  0.10331702163E+02  0.18726394068E+02  0.00000000000E+00 0.  1.
         11    1    3    3    0    0  0.18210709964E+02  0.97043119630E+01 -0.32320933432E+01  0.20886599908E+02  0.51100000000E-03 0. -1.
        -11    1    3    3    0    0  0.16995872788E+02 -0.22508105715E+01 -0.38037073605E+01  0.17561151158E+02  0.51100000000E-03 0.  1.
         12    1    3    3    0    0 -0.26835059803E+02 -0.20638772292E+02 -0.32959014595E+01  0.34013854866E+02  0.00000000000E+00 0. -1.
</event>
<event>
 7    1  0.2700104E-013  0.7246157E+02  0.7816164E-02  0.1226708E+00
        -11   -1    0    0    0    0  0.00000000000E+00  0.00000000000E+00  0.45593999997E+02  0.45594000000E+02  0.51100000000E-03 0.  1.
         11   -1    0    0    0    0 -0.00000000000E+00 -0.00000000000E+00 -0.45593999997E+02  0.45594000000E+02  0.51100000000E-03 0. -1.
    9900012    2    1    2    0    0  0.37078945768E+01  0.50680928269E+01 -0.17642139013E+02  0.72461571722E+02  0.70000001860E+02 0.  0.
        -12    1    1    2    0    0 -0.37078945768E+01 -0.50680928269E+01  0.17642139013E+02  0.18726428278E+02  0.00000000000E+00 0.  1.
         11    1    3    3    0    0  0.55370240790E+01  0.36319728302E+01 -0.18736876202E+02  0.19872604066E+02  0.51100000000E-03 0. -1.
        -11    1    3    3    0    0  0.15686972445E+02  0.97000208376E+01 -0.17727459083E+02  0.25581913818E+02  0.51100000000E-03 0.  1.
        -12    1    3    3    0    0 -0.17516101948E+02 -0.82639008408E+01  0.18822196273E+02  0.27007053839E+02  0.00000000000E+00 0.  1.
</event>
<event>
 7    1  0.2700104E-013  0.7246154E+02  0.7816164E-02  0.1226708E+00
        -11   -1    0    0    0    0  0.00000000000E+00  0.00000000000E+00  0.45593999997E+02  0.45594000000E+02  0.51100000000E-03 0. -1.
         11   -1    0    0    0    0 -0.00000000000E+00 -0.00000000000E+00 -0.45593999997E+02  0.45594000000E+02  0.51100000000E-03 0.  1.
    9900012    2    1    2    0    0 -0.66530821474E+01  0.13656831321E+02  0.10950236248E+02  0.72461542309E+02  0.69999963544E+02 0.  0.
        -12    1    1    2    0    0  0.66530821474E+01 -0.13656831321E+02 -0.10950236248E+02  0.18726457691E+02  0.00000000000E+00 0.  1.
         11    1    3    3    0    0  0.15253129358E+02 -0.13086897013E+02  0.13116445905E+02  0.23999291284E+02  0.51100000000E-03 0. -1.
        -11    1    3    3    0    0 -0.77648967341E+01  0.12809940757E+01  0.13322977851E+02  0.15473729551E+02  0.51100000000E-03 0.  1.
        -12    1    3    3    0    0 -0.14141314772E+02  0.25462734258E+02 -0.15489187509E+02  0.32988521475E+02  0.00000000000E+00 0.  1.
</event>
<event>
 7    1  0.2700104E-013  0.7246157E+02  0.7816164E-02  0.1226708E+00
        -11   -1    0    0    0    0  0.00000000000E+00  0.00000000000E+00  0.45593999997E+02  0.45594000000E+02  0.51100000000E-03 0. -1.
         11   -1    0    0    0    0 -0.00000000000E+00 -0.00000000000E+00 -0.45593999997E+02  0.45594000000E+02  0.51100000000E-03 0.  1.
    9900012    2    1    2    0    0  0.76011323747E+01  0.15485038346E+02  0.72880459016E+01  0.72461568439E+02  0.69999997583E+02 0.  0.
        -12    1    1    2    0    0 -0.76011323747E+01 -0.15485038346E+02 -0.72880459016E+01  0.18726431561E+02  0.00000000000E+00 0.  1.
         11    1    3    3    0    0 -0.10986910560E+02  0.60978031127E+01 -0.75795458139E+01  0.14674635309E+02  0.51100000000E-03 0. -1.
        -11    1    3    3    0    0  0.53541450433E+01  0.89960048169E+01 -0.18850647376E+02  0.21562510952E+02  0.51100000000E-03 0.  1.
         12    1    3    3    0    0  0.13233897892E+02  0.39123041642E+00  0.33718239091E+02  0.36224422177E+02  0.00000000000E+00 0. -1.
</event>
<event>
 7    1  0.2700104E-013  0.7246152E+02  0.7816164E-02  0.1226708E+00
        -11   -1    0    0    0    0  0.00000000000E+00  0.00000000000E+00  0.45593999997E+02  0.45594000000E+02  0.51100000000E-03 0.  1.
         11   -1    0    0    0    0 -0.00000000000E+00 -0.00000000000E+00 -0.45593999997E+02  0.45594000000E+02  0.51100000000E-03 0. -1.
    9900012    2    1    2    0    0 -0.10662267005E+02  0.12387756235E+02  0.91400603826E+01  0.72461517521E+02  0.69999931253E+02 0.  0.
        -12    1    1    2    0    0  0.10662267005E+02 -0.12387756235E+02 -0.91400603826E+01  0.18726482479E+02  0.00000000000E+00 0.  1.
         11    1    3    3    0    0  0.32595402110E+01  0.17844514677E+02  0.11265905551E+02  0.21353499352E+02  0.51100000000E-03 0. -1.
        -11    1    3    3    0    0  0.59260118449E+01  0.17995665013E+02  0.49451823220E+01  0.19581021529E+02  0.51100000000E-03 0.  1.
        -12    1    3    3    0    0 -0.19847819061E+02 -0.23452423455E+02 -0.70710274906E+01  0.31526996640E+02  0.00000000000E+00 0.  1.
</event>
<event>
 7    1  0.2700104E-013  0.7246157E+02  0.7816164E-02  0.1226708E+00
        -11   -1    0    0    0    0  0.00000000000E+00  0.00000000000E+00  0.45593999997E+02  0.45594000000E+02  0.51100000000E-03 0. -1.
         11   -1    0    0    0    0 -0.00000000000E+00 -0.00000000000E+00 -0.45593999997E+02  0.45594000000E+02  0.51100000000E-03 0.  1.
    9900012    2    1    2    0    0  0.17079275635E+02  0.50369296787E+01  0.57971306680E+01  0.72461573731E+02  0.70000004477E+02 0.  0.
        -12    1    1    2    0    0 -0.17079275635E+02 -0.50369296787E+01 -0.57971306680E+01  0.18726426269E+02  0.00000000000E+00 0.  1.
         11    1    3    3    0    0  0.30669295685E+02 -0.41761617805E+01  0.18999640488E+02  0.36318485155E+02  0.51100000000E-03 0. -1.
        -11    1    3    3    0    0  0.89614225459E+01  0.60403852355E+01 -0.32099826810E+01  0.11273745470E+02  0.51100000000E-03 0.  1.
         12    1    3    3    0    0 -0.22551442596E+02  0.31727062238E+01 -0.99925271385E+01  0.24869343106E+02  0.00000000000E+00 0. -1.
</event>
<event>
 7    1  0.2700104E-013  0.7246156E+02  0.7816164E-02  0.1226708E+00
        -11   -1    0    0    0    0  0.00000000000E+00  0.00000000000E+00  0.45593999997E+02  0.45594000000E+02  0.51100000000E-03 0. -1.
         11   -1    0    0    0    0 -0.00000000000E+00 -0.00000000000E+00 -0.45593999997E+02  0.45594000000E+02  0.51100000000E-03 0.  1.
    9900012    2    1    2    0    0 -0.16067828122E+02 -0.67384436735E+01  0.68627724618E+01  0.72461564953E+02  0.69999993042E+02 0.  0.
        -12    1    1    2    0    0  0.16067828122E+02  0.67384436735E+01 -0.68627724618E+01  0.18726435047E+02  0.00000000000E+00 0.  1.
         11    1    3    3    0    0  0.23790709537E+00  0.25609863101E+01 -0.71463446312E+01  0.75950966100E+01  0.51100000000E-03 0.  1.
        -11    1    3    3    0    0  0.23123622840E+02 -0.46482404860E+01  0.64279099772E+01  0.24446392368E+02  0.51100000000E-03 0. -1.
         12    1    3    3    0    0 -0.39429358057E+02 -0.46511894975E+01  0.75812071158E+01  0.40420075976E+02  0.00000000000E+00 0. -1.
</event>
<event>
 7    1  0.2700104E-013  0.7246156E+02  0.7816164E-02  0.1226708E+00
        -11   -1    0    0    0    0  0.00000000000E+00  0.00000000000E+00  0.45593999997E+02  0.45594000000E+02  0.51100000000E-03 0. -1.
         11   -1    0    0    0    0 -0.00000000000E+00 -0.00000000000E+00 -0.45593999997E+02  0.45594000000E+02  0.51100000000E-03 0.  1.
    9900012    2    1    2    0    0 -0.17062317540E+02 -0.12885710843E+01  0.76089650658E+01  0.72461562948E+02  0.69999990431E+02 0.  0.
        -12    1    1    2    0    0  0.17062317540E+02  0.12885710843E+01 -0.76089650658E+01  0.18726437052E+02  0.00000000000E+00 0.  1.
         11    1    3    3    0    0 -0.19116396925E+02  0.94630905855E+01  0.77416079773E+01  0.22691831331E+02  0.51100000000E-03 0. -1.
        -11    1    3    3    0    0 -0.64547744320E+01 -0.26459319048E+02 -0.10413729462E+02  0.29158282511E+02  0.51100000000E-03 0.  1.
         12    1    3    3    0    0  0.85088538173E+01  0.15707657378E+02  0.10281086551E+02  0.20611449106E+02  0.00000000000E+00 0. -1.
</event>
<event>
 7    1  0.2700104E-013  0.7246156E+02  0.7816164E-02  0.1226708E+00
        -11   -1    0    0    0    0  0.00000000000E+00  0.00000000000E+00  0.45593999997E+02  0.45594000000E+02  0.51100000000E-03 0. -1.
         11   -1    0    0    0    0 -0.00000000000E+00 -0.00000000000E+00 -0.45593999997E+02  0.45594000000E+02  0.51100000000E-03 0.  1.
    9900012    2    1    2    0    0  0.11806149433E+02 -0.40247876869E+01  0.13967662430E+02  0.72461556821E+02  0.69999982449E+02 0.  0.
        -12    1    1    2    0    0 -0.11806149433E+02  0.40247876869E+01 -0.13967662430E+02  0.18726443179E+02  0.00000000000E+00 0.  1.
         11    1    3    3    0    0  0.40488742986E+01 -0.18780550865E+02  0.33962824160E+02  0.39020198603E+02  0.51100000000E-03 0. -1.
        -11    1    3    3    0    0 -0.40623289622E+01 -0.16496247713E+01  0.77726110888E+00  0.44528545424E+01  0.51100000000E-03 0.  1.
        -12    1    3    3    0    0  0.11819604097E+02  0.16405387949E+02 -0.20772422839E+02  0.28988503676E+02  0.00000000000E+00 0.  1.
</event>
<event>
 7    1  0.2700104E-013  0.7246174E+02  0.7816164E-02  0.1226708E+00
        -11   -1    0    0    0    0  0.00000000000E+00  0.00000000000E+00  0.45593999997E+02  0.45594000000E+02  0.51100000000E-03 0.  1.
         11   -1    0    0    0    0 -0.00000000000E+00 -0.00000000000E+00 -0.45593999997E+02  0.45594000000E+02  0.51100000000E-03 0. -1.
    9900012    2    1    2    0    0  0.11183405410E+02  0.95382541597E+01 -0.11602835609E+02  0.72461744551E+02  0.70000227001E+02 0.  0.
        -12    1    1    2    0    0 -0.11183405410E+02 -0.95382541597E+01  0.11602835609E+02  0.18726255449E+02  0.00000000000E+00 0.  1.
         11    1    3    3    0    0  0.33317626954E+01  0.18589676960E+02 -0.14067519022E+02  0.23549348693E+02  0.51100000000E-03 0. -1.
        -11    1    3    3    0    0  0.98517014243E+00 -0.97795372479E+01 -0.21677715618E+02  0.23801959240E+02  0.51100000000E-03 0.  1.
        -12    1    3    3    0    0  0.68664725717E+01  0.72811444711E+00  0.24142399031E+02  0.25110436619E+02  0.00000000000E+00 0.  1.
</event>
<event>
 7    1  0.2700104E-013  0.7246155E+02  0.7816164E-02  0.1226708E+00
        -11   -1    0    0    0    0  0.00000000000E+00  0.00000000000E+00  0.45593999997E+02  0.45594000000E+02  0.51100000000E-03 0.  1.
         11   -1    0    0    0    0 -0.00000000000E+00 -0.00000000000E+00 -0.45593999997E+02  0.45594000000E+02  0.51100000000E-03 0. -1.
    9900012    2    1    2    0    0 -0.14789540607E+02 -0.10471524398E+02 -0.47219087973E+01  0.72461554601E+02  0.69999979557E+02 0.  0.
        -12    1    1    2    0    0  0.14789540607E+02  0.10471524398E+02  0.47219087973E+01  0.18726445399E+02  0.00000000000E+00 0.  1.
         11    1    3    3    0    0 -0.46401075141E+01 -0.11428604321E+02 -0.20998705178E+02  0.24353423042E+02  0.51100000000E-03 0. -1.
        -11    1    3    3    0    0 -0.23318985123E+01  0.16427492765E+02 -0.78862142901E+01  0.18370972900E+02  0.51100000000E-03 0.  1.
        -12    1    3    3    0    0 -0.78175345804E+01 -0.15470412842E+02  0.24163010671E+02  0.29737158659E+02  0.00000000000E+00 0.  1.
</event>
<event>
 7    1  0.2700104E-013  0.7246156E+02  0.7816164E-02  0.1226708E+00
        -11   -1    0    0    0    0  0.00000000000E+00  0.00000000000E+00  0.45593999997E+02  0.45594000000E+02  0.51100000000E-03 0.  1.
         11   -1    0    0    0    0 -0.00000000000E+00 -0.00000000000E+00 -0.45593999997E+02  0.45594000000E+02  0.51100000000E-03 0. -1.
    9900012    2    1    2    0    0 -0.18570038102E+02  0.24149504399E+01 -0.33516552938E-01  0.72461563497E+02  0.69999991145E+02 0.  0.
        -12    1    1    2    0    0  0.18570038102E+02 -0.24149504399E+01  0.33516552938E-01  0.18726436503E+02  0.00000000000E+00 0.  1.
         11    1    3    3    0    0  0.60192503906E+01  0.83598068736E+01  0.61235711235E+01  0.11983983887E+02  0.51100000000E-03 0. -1.
        -11    1    3    3    0    0  0.31582822392E+01 -0.41947774266E+01  0.20979599302E+02  0.21626707829E+02  0.51100000000E-03 0.  1.
         12    1    3    3    0    0 -0.27747570732E+02 -0.17500790071E+01 -0.27136686979E+02  0.38850871782E+02  0.00000000000E+00 0. -1.
</event>
<event>
 7    1  0.2700104E-013  0.7246152E+02  0.7816164E-02  0.1226708E+00
        -11   -1    0    0    0    0  0.00000000000E+00  0.00000000000E+00  0.45593999997E+02  0.45594000000E+02  0.51100000000E-03 0. -1.
         11   -1    0    0    0    0 -0.00000000000E+00 -0.00000000000E+00 -0.45593999997E+02  0.45594000000E+02  0.51100000000E-03 0.  1.
    9900012    2    1    2    0    0 -0.25644041638E+01 -0.91948281296E+01  0.16110866298E+02  0.72461520194E+02  0.69999934736E+02 0.  0.
        -12    1    1    2    0    0  0.25644041638E+01  0.91948281296E+01 -0.16110866298E+02  0.18726479806E+02  0.00000000000E+00 0.  1.
         11    1    3    3    0    0  0.17639926371E+01 -0.57670290818E+01 -0.51159278549E+01  0.79084140339E+01  0.51100000000E-03 0. -1.
        -11    1    3    3    0    0  0.26614151116E+02  0.56235662555E+01  0.26149715817E+01  0.27327195496E+02  0.51100000000E-03 0.  1.
        -12    1    3    3    0    0 -0.30942547916E+02 -0.90513653033E+01  0.18611822571E+02  0.37225910665E+02  0.00000000000E+00 0.  1.
</event>
<event>
 7    1  0.2700104E-013  0.7246220E+02  0.7816164E-02  0.1226706E+00
        -11   -1    0    0    0    0  0.00000000000E+00  0.00000000000E+00  0.45593999997E+02  0.45594000000E+02  0.51100000000E-03 0.  1.
         11   -1    0    0    0    0 -0.00000000000E+00 -0.00000000000E+00 -0.45593999997E+02  0.45594000000E+02  0.51100000000E-03 0. -1.
    9900012    2    1    2    0    0 -0.12749699068E+01  0.93500386539E+01 -0.16174268616E+02  0.72462195976E+02  0.70000815062E+02 0.  0.
        -12    1    1    2    0    0  0.12749699068E+01 -0.93500386539E+01  0.16174268616E+02  0.18725804024E+02  0.00000000000E+00 0.  1.
         11    1    3    3    0    0  0.55386128809E+01 -0.11990992102E+02 -0.22388826316E+02  0.25994608447E+02  0.51100000000E-03 0. -1.
        -11    1    3    3    0    0  0.98309263851E+01  0.25574505542E+02 -0.19158762611E+01  0.27465852061E+02  0.51100000000E-03 0.  1.
        -12    1    3    3    0    0 -0.16644509173E+02 -0.42334747863E+01  0.81304339619E+01  0.19001735468E+02  0.00000000000E+00 0.  1.
</event>
<event>
 7    1  0.2700104E-013  0.7246166E+02  0.7816164E-02  0.1226708E+00
        -11   -1    0    0    0    0  0.00000000000E+00  0.00000000000E+00  0.45593999997E+02  0.45594000000E+02  0.51100000000E-03 0.  1.
         11   -1    0    0    0    0 -0.00000000000E+00 -0.00000000000E+00 -0.45593999997E+02  0.45594000000E+02  0.51100000000E-03 0. -1.
    9900012    2    1    2    0    0  0.13065043121E+02 -0.10085352349E+02  0.88468201348E+01  0.72461657318E+02  0.70000113364E+02 0.  0.
        -12    1    1    2    0    0 -0.13065043121E+02  0.10085352349E+02 -0.88468201348E+01  0.18726342682E+02  0.00000000000E+00 0.  1.
         11    1    3    3    0    0 -0.11672134131E+02 -0.68271493795E+01  0.49939352124E+01  0.14414855982E+02  0.51100000000E-03 0. -1.
        -11    1    3    3    0    0 -0.53483525834E+01 -0.75989059522E+01  0.21129873174E+02  0.23082889499E+02  0.51100000000E-03 0.  1.
         12    1    3    3    0    0  0.30085529835E+02  0.43407029823E+01 -0.17276988251E+02  0.34963911836E+02  0.00000000000E+00 0. -1.
</event>
<event>
 7    1  0.2700104E-013  0.7246163E+02  0.7816164E-02  0.1226708E+00
        -11   -1    0    0    0    0  0.00000000000E+00  0.00000000000E+00  0.45593999997E+02  0.45594000000E+02  0.51100000000E-03 0. -1.
         11   -1    0    0    0    0 -0.00000000000E+00 -0.00000000000E+00 -0.45593999997E+02  0.45594000000E+02  0.51100000000E-03 0.  1.
    9900012    2    1    2    0    0 -0.23692028859E+01 -0.16376093189E+02 -0.87685483774E+01  0.72461628459E+02  0.70000075770E+02 0.  0.
        -12    1    1    2    0    0  0.23692028859E+01  0.16376093189E+02  0.87685483774E+01  0.18726371541E+02  0.00000000000E+00 0.  1.
         11    1    3    3    0    0  0.11442682911E+01 -0.40169698522E+01 -0.13660390872E+02  0.14284665756E+02  0.51100000000E-03 0. -1.
        -11    1    3    3    0    0 -0.98471453118E+01 -0.31525026063E+02  0.14198054550E+02  0.35949663313E+02  0.51100000000E-03 0.  1.
         12    1    3    3    0    0  0.63336741347E+01  0.19165902726E+02 -0.93062120549E+01  0.22227299390E+02  0.00000000000E+00 0. -1.
</event>
<event>
 7    1  0.2700104E-013  0.7246155E+02  0.7816164E-02  0.1226708E+00
        -11   -1    0    0    0    0  0.00000000000E+00  0.00000000000E+00  0.45593999997E+02  0.45594000000E+02  0.51100000000E-03 0. -1.
         11   -1    0    0    0    0 -0.00000000000E+00 -0.00000000000E+00 -0.45593999997E+02  0.45594000000E+02  0.51100000000E-03 0.  1.
    9900012    2    1    2    0    0 -0.12480202899E+02  0.54327227263E+00  0.13950962808E+02  0.72461548857E+02  0.69999972074E+02 0.  0.
        -12    1    1    2    0    0  0.12480202899E+02 -0.54327227263E+00 -0.13950962808E+02  0.18726451143E+02  0.00000000000E+00 0.  1.
         11    1    3    3    0    0 -0.13654786612E+02 -0.30713156283E+01  0.41343586745E+01  0.14593803446E+02  0.51100000000E-03 0. -1.
        -11    1    3    3    0    0 -0.10260731111E+02 -0.31798664131E+01 -0.21394781793E+02  0.23940151244E+02  0.51100000000E-03 0.  1.
         12    1    3    3    0    0  0.11435314824E+02  0.67944543140E+01  0.31211385926E+02  0.33927594167E+02  0.00000000000E+00 0. -1.
</event>
<event>
 7    1  0.2700104E-013  0.7246160E+02  0.7816164E-02  0.1226708E+00
        -11   -1    0    0    0    0  0.00000000000E+00  0.00000000000E+00  0.45593999997E+02  0.45594000000E+02  0.51100000000E-03 0.  1.
         11   -1    0    0    0    0 -0.00000000000E+00 -0.00000000000E+00 -0.45593999997E+02  0.45594000000E+02  0.51100000000E-03 0. -1.
    9900012    2    1    2    0    0 -0.28095708275E+01 -0.26053626573E+00 -0.18512607417E+02  0.72461596161E+02  0.70000033696E+02 0.  0.
        -12    1    1    2    0    0  0.28095708275E+01  0.26053626573E+00  0.18512607417E+02  0.18726403839E+02  0.00000000000E+00 0.  1.
         11    1    3    3    0    0 -0.14593365912E+02 -0.22426400947E+02  0.77710117429E+01  0.27862132220E+02  0.51100000000E-03 0. -1.
        -11    1    3    3    0    0  0.92925654231E+00  0.69948902375E+00 -0.19598721585E+02  0.19633203780E+02  0.51100000000E-03 0.  1.
        -12    1    3    3    0    0  0.10854538543E+02  0.21466375658E+02 -0.66848975743E+01  0.24966260161E+02  0.00000000000E+00 0.  1.
</event>
<event>
 7    1  0.2700104E-013  0.7246156E+02  0.7816164E-02  0.1226708E+00
        -11   -1    0    0    0    0  0.00000000000E+00  0.00000000000E+00  0.45593999997E+02  0.45594000000E+02  0.51100000000E-03 0. -1.
         11   -1    0    0    0    0 -0.00000000000E+00 -0.00000000000E+00 -0.45593999997E+02  0.45594000000E+02  0.51100000000E-03 0.  1.
    9900012    2    1    2    0    0  0.11327138647E+02 -0.71923499328E+01  0.13063139530E+02  0.72461559285E+02  0.69999985658E+02 0.  0.
        -12    1    1    2    0    0 -0.11327138647E+02  0.71923499328E+01 -0.13063139530E+02  0.18726440715E+02  0.00000000000E+00 0.  1.
         11    1    3    3    0    0  0.38983028106E-01 -0.19862248163E+01 -0.30965236206E+01  0.36790036004E+01  0.51100000000E-03 0. -1.
        -11    1    3    3    0    0  0.16028279873E+02 -0.17201082427E+02 -0.19700209153E+02  0.30673787397E+02  0.51100000000E-03 0.  1.
         12    1    3    3    0    0 -0.47401242542E+01  0.11994957310E+02  0.35859872303E+02  0.38108768288E+02  0.00000000000E+00 0. -1.
</event>
<event>
 7    1  0.2700104E-013  0.7246156E+02  0.7816164E-02  0.1226708E+00
        -11   -1    0    0    0    0  0.00000000000E+00  0.00000000000E+00  0.45593999997E+02  0.45594000000E+02  0.51100000000E-03 0.  1.
         11   -1    0    0    0    0 -0.00000000000E+00 -0.00000000000E+00 -0.45593999997E+02  0.45594000000E+02  0.51100000000E-03 0. -1.
    9900012    2    1    2    0    0  0.18072940242E+02 -0.16725130218E+01  0.46098814211E+01  0.72461562125E+02  0.69999989357E+02 0.  0.
        -12    1    1    2    0    0 -0.18072940242E+02  0.16725130218E+01 -0.46098814211E+01  0.18726437875E+02  0.00000000000E+00 0.  1.
         11    1    3    3    0    0  0.94952622378E+00 -0.53538993638E+01 -0.31520686968E+01  0.62850119950E+01  0.51100000000E-03 0. -1.
        -11    1    3    3    0    0  0.17769290282E+02 -0.67444175182E+00 -0.26346045720E+02  0.31785478983E+02  0.51100000000E-03 0.  1.
        -12    1    3    3    0    0 -0.64587626399E+00  0.43558280938E+01  0.34107995838E+02  0.34391071147E+02  0.00000000000E+00 0.  1.
</event>
<event>
 7    1  0.2700104E-013  0.7246157E+02  0.7816164E-02  0.1226708E+00
        -11   -1    0    0    0    0  0.00000000000E+00  0.00000000000E+00  0.45593999997E+02  0.45594000000E+02  0.51100000000E-03 0.  1.
         11   -1    0    0    0    0 -0.00000000000E+00 -0.00000000000E+00 -0.45593999997E+02  0.45594000000E+02  0.51100000000E-03 0. -1.
    9900012    2    1    2    0    0 -0.30986003480E+01 -0.18083337005E+02 -0.37511235032E+01  0.72461566039E+02  0.69999994457E+02 0.  0.
        -12    1    1    2    0    0  0.30986003480E+01  0.18083337005E+02  0.37511235032E+01  0.18726433961E+02  0.00000000000E+00 0.  1.
         11    1    3    3    0    0 -0.14866269127E+02 -0.52807590066E+01 -0.12077907970E+02  0.19868775368E+02  0.51100000000E-03 0. -1.
        -11    1    3    3    0    0  0.18768268985E+02 -0.11556238630E+02 -0.16007869344E+02  0.27240529605E+02  0.51100000000E-03 0.  1.
         12    1    3    3    0    0 -0.70006002057E+01 -0.12463393680E+01  0.24334653811E+02  0.25352261066E+02  0.00000000000E+00 0. -1.
</event>
<event>
 7    1  0.2700104E-013  0.7246155E+02  0.7816164E-02  0.1226708E+00
        -11   -1    0    0    0    0  0.00000000000E+00  0.00000000000E+00  0.45593999997E+02  0.45594000000E+02  0.51100000000E-03 0. -1.
         11   -1    0    0    0    0 -0.00000000000E+00 -0.00000000000E+00 -0.45593999997E+02  0.45594000000E+02  0.51100000000E-03 0.  1.
    9900012    2    1    2    0    0  0.23773854594E+01  0.15608563852E+02  0.10069796644E+02  0.72461547277E+02  0.69999970016E+02 0.  0.
        -12    1    1    2    0    0 -0.23773854594E+01 -0.15608563852E+02 -0.10069796644E+02  0.18726452723E+02  0.00000000000E+00 0.  1.
         11    1    3    3    0    0  0.22754772459E+02  0.22090281263E+01 -0.59008550644E+01  0.23611005181E+02  0.51100000000E-03 0. -1.
        -11    1    3    3    0    0  0.67326304112E+01  0.25905101315E+01 -0.82247200249E+01  0.10940067401E+02  0.51100000000E-03 0.  1.
        -12    1    3    3    0    0 -0.27110017410E+02  0.10809025594E+02  0.24195371733E+02  0.37910474695E+02  0.00000000000E+00 0.  1.
</event>
<event>
 7    1  0.2700104E-013  0.7246158E+02  0.7816164E-02  0.1226708E+00
        -11   -1    0    0    0    0  0.00000000000E+00  0.00000000000E+00  0.45593999997E+02  0.45594000000E+02  0.51100000000E-03 0.  1.
         11   -1    0    0    0    0 -0.00000000000E+00 -0.00000000000E+00 -0.45593999997E+02  0.45594000000E+02  0.51100000000E-03 0. -1.
    9900012    2    1    2    0    0  0.85931378766E+01  0.55422782956E+00 -0.16629182679E+02  0.72461577394E+02  0.70000009248E+02 0.  0.
        -12    1    1    2    0    0 -0.85931378766E+01 -0.55422782956E+00  0.16629182679E+02  0.18726422606E+02  0.00000000000E+00 0.  1.
         11    1    3    3    0    0 -0.93888488746E+00  0.76380597251E+01 -0.13792419114E+02  0.15794058581E+02  0.51100000000E-03 0.  1.
        -11    1    3    3    0    0 -0.22294977700E+02  0.42950648261E+01 -0.27207648691E+01  0.22867360457E+02  0.51100000000E-03 0. -1.
        -12    1    3    3    0    0  0.31827000465E+02 -0.11378896722E+02 -0.11599869630E+00  0.33800158356E+02  0.00000000000E+00 0.  1.
</event>
<event>
 7    1  0.2700104E-013  0.7246159E+02  0.7816164E-02  0.1226708E+00
        -11   -1    0    0    0    0  0.00000000000E+00  0.00000000000E+00  0.45593999997E+02  0.45594000000E+02  0.51100000000E-03 0.  1.
         11   -1    0    0    0    0 -0.00000000000E+00 -0.00000000000E+00 -0.45593999997E+02  0.45594000000E+02  0.51100000000E-03 0. -1.
    9900012    2    1    2    0    0  0.16698385555E+02  0.80217572041E+01  0.27374847182E+01  0.72461588401E+02  0.70000023588E+02 0.  0.
        -12    1    1    2    0    0 -0.16698385555E+02 -0.80217572041E+01 -0.27374847182E+01  0.18726411599E+02  0.00000000000E+00 0.  1.
         11    1    3    3    0    0  0.15129531361E+02  0.65045745518E+01  0.11467120442E+02  0.20067562403E+02  0.51100000000E-03 0. -1.
        -11    1    3    3    0    0  0.16738610888E+02  0.95352480962E+00  0.16130562648E+02  0.23265540089E+02  0.51100000000E-03 0.  1.
         12    1    3    3    0    0 -0.15169756694E+02  0.56365784275E+00 -0.24860198372E+02  0.29128485910E+02  0.00000000000E+00 0. -1.
</event>
<event>
 7    1  0.2700104E-013  0.7246162E+02  0.7816164E-02  0.1226708E+00
        -11   -1    0    0    0    0  0.00000000000E+00  0.00000000000E+00  0.45593999997E+02  0.45594000000E+02  0.51100000000E-03 0.  1.
         11   -1    0    0    0    0 -0.00000000000E+00 -0.00000000000E+00 -0.45593999997E+02  0.45594000000E+02  0.51100000000E-03 0. -1.
    9900012    2    1    2    0    0 -0.18681492966E+02  0.12872882482E+01 -0.14899024557E+00  0.72461615176E+02  0.70000058467E+02 0.  0.
        -12    1    1    2    0    0  0.18681492966E+02 -0.12872882482E+01  0.14899024557E+00  0.18726384824E+02  0.00000000000E+00 0.  1.
         11    1    3    3    0    0 -0.76210274333E+01  0.17456643228E+02 -0.76530114411E+01  0.20527616431E+02  0.51100000000E-03 0. -1.
        -11    1    3    3    0    0  0.13440249670E+02  0.90658438662E+01  0.26886494986E+01  0.16433461978E+02  0.51100000000E-03 0.  1.
        -12    1    3    3    0    0 -0.24500715202E+02 -0.25235198846E+02  0.48153716969E+01  0.35500536768E+02  0.00000000000E+00 0.  1.
</event>
<event>
 7    1  0.2700104E-013  0.7246159E+02  0.7816164E-02  0.1226708E+00
        -11   -1    0    0    0    0  0.00000000000E+00  0.00000000000E+00  0.45593999997E+02  0.45594000000E+02  0.51100000000E-03 0.  1.
         11   -1    0    0    0    0 -0.00000000000E+00 -0.00000000000E+00 -0.45593999997E+02  0.45594000000E+02  0.51100000000E-03 0. -1.
    9900012    2    1    2    0    0  0.10709557068E+02 -0.14424200820E+02 -0.52845371959E+01  0.72461587763E+02  0.70000022756E+02 0.  0.
        -12    1    1    2    0    0 -0.10709557068E+02  0.14424200820E+02  0.52845371959E+01  0.18726412237E+02  0.00000000000E+00 0.  1.
         11    1    3    3    0    0  0.85678240755E+01 -0.22263475419E+02 -0.14226564423E+02  0.27775260262E+02  0.51100000000E-03 0. -1.
        -11    1    3    3    0    0 -0.15328553072E+02 -0.19626395169E+01 -0.89233305544E+01  0.17844952272E+02  0.51100000000E-03 0.  1.
         12    1    3    3    0    0  0.17470286065E+02  0.98019141158E+01  0.17865357781E+02  0.26841375228E+02  0.00000000000E+00 0. -1.
</event>
<event>
 7    1  0.2700104E-013  0.7246155E+02  0.7816164E-02  0.1226708E+00
        -11   -1    0    0    0    0  0.00000000000E+00  0.00000000000E+00  0.45593999997E+02  0.45594000000E+02  0.51100000000E-03 0. -1.
         11   -1    0    0    0    0 -0.00000000000E+00 -0.00000000000E+00 -0.45593999997E+02  0.45594000000E+02  0.51100000000E-03 0.  1.
    9900012    2    1    2    0    0  0.47066692237E+01  0.15423513324E+02 -0.95206361952E+01  0.72461547800E+02  0.69999970696E+02 0.  0.
        -12    1    1    2    0    0 -0.47066692237E+01 -0.15423513324E+02  0.95206361952E+01  0.18726452200E+02  0.00000000000E+00 0.  1.
         11    1    3    3    0    0 -0.13470078964E+02  0.17165688628E+02 -0.66588634811E+01  0.22813249582E+02  0.51100000000E-03 0. -1.
        -11    1    3    3    0    0 -0.13216724782E+02  0.94117843266E+01 -0.16669898384E+01  0.16310804811E+02  0.51100000000E-03 0.  1.
        -12    1    3    3    0    0  0.31393472970E+02 -0.11153959630E+02 -0.11947828757E+01  0.33337493407E+02  0.00000000000E+00 0.  1.
</event>
<event>
 7    1  0.2700104E-013  0.7246158E+02  0.7816164E-02  0.1226708E+00
        -11   -1    0    0    0    0  0.00000000000E+00  0.00000000000E+00  0.45593999997E+02  0.45594000000E+02  0.51100000000E-03 0. -1.
         11   -1    0    0    0    0 -0.00000000000E+00 -0.00000000000E+00 -0.45593999997E+02  0.45594000000E+02  0.51100000000E-03 0.  1.
    9900012    2    1    2    0    0  0.22558692977E+01  0.14952622784E+00  0.18589446335E+02  0.72461579642E+02  0.70000012177E+02 0.  0.
        -12    1    1    2    0    0 -0.22558692977E+01 -0.14952622784E+00 -0.18589446335E+02  0.18726420358E+02  0.00000000000E+00 0.  1.
         11    1    3    3    0    0  0.99808542236E+01  0.17780895471E+01  0.30612933347E+02  0.32247957173E+02  0.51100000000E-03 0. -1.
        -11    1    3    3    0    0  0.14161017740E+02  0.56278810445E+01 -0.35337073180E+01  0.15642715754E+02  0.51100000000E-03 0.  1.
        -12    1    3    3    0    0 -0.21886002666E+02 -0.72564443637E+01 -0.84897796938E+01  0.24570906714E+02  0.00000000000E+00 0.  1.
</event>
<event>
 7    1  0.2700104E-013  0.7246163E+02  0.7816164E-02  0.1226708E+00
        -11   -1    0    0    0    0  0.00000000000E+00  0.00000000000E+00  0.45593999997E+02  0.45594000000E+02  0.51100000000E-03 0.  1.
         11   -1    0    0    0    0 -0.00000000000E+00 -0.00000000000E+00 -0.45593999997E+02  0.45594000000E+02  0.51100000000E-03 0. -1.
    9900012    2    1    2    0    0 -0.14647054819E+02  0.13376902314E+01 -0.11590999135E+02  0.72461631132E+02  0.70000079253E+02 0.  0.
        -12    1    1    2    0    0  0.14647054819E+02 -0.13376902314E+01  0.11590999135E+02  0.18726368868E+02  0.00000000000E+00 0.  1.
         11    1    3    3    0    0 -0.20191938847E+01 -0.11371109853E+02  0.24684611419E+01  0.11809851138E+02  0.51100000000E-03 0. -1.
        -11    1    3    3    0    0 -0.10289347769E+02  0.44954992507E+00  0.21025885571E+02  0.23412830606E+02  0.51100000000E-03 0.  1.
         12    1    3    3    0    0 -0.23385131648E+01  0.12259250160E+02 -0.35085345848E+02  0.37238949389E+02  0.00000000000E+00 0. -1.
</event>
<event>
 7    1  0.2700104E-013  0.7246187E+02  0.7816164E-02  0.1226707E+00
        -11   -1    0    0    0    0  0.00000000000E+00  0.00000000000E+00  0.45593999997E+02  0.45594000000E+02  0.51100000000E-03 0.  1.
         11   -1    0    0    0    0 -0.00000000000E+00 -0.00000000000E+00 -0.45593999997E+02  0.45594000000E+02  0.51100000000E-03 0. -1.
    9900012    2    1    2    0    0 -0.22716482500E+01  0.12755742818E+02 -0.13520300234E+02  0.72461871755E+02  0.70000392708E+02 0.  0.
        -12    1    1    2    0    0  0.22716482500E+01 -0.12755742818E+02  0.13520300234E+02  0.18726128245E+02  0.00000000000E+00 0.  1.
         11    1    3    3    0    0  0.21411952923E+01 -0.48791955398E+01  0.26393499401E+01  0.59462117994E+01  0.51100000000E-03 0. -1.
        -11    1    3    3    0    0  0.10249882041E+02 -0.14190220116E+02  0.12283054423E+02  0.21384476964E+02  0.51100000000E-03 0.  1.
         12    1    3    3    0    0 -0.14662725583E+02  0.31825158474E+02 -0.28442704597E+02  0.45131182992E+02  0.00000000000E+00 0. -1.
</event>
<event>
 7    1  0.2700104E-013  0.7246164E+02  0.7816164E-02  0.1226708E+00
        -11   -1    0    0    0    0  0.00000000000E+00  0.00000000000E+00  0.45593999997E+02  0.45594000000E+02  0.51100000000E-03 0.  1.
         11   -1    0    0    0    0 -0.00000000000E+00 -0.00000000000E+00 -0.45593999997E+02  0.45594000000E+02  0.51100000000E-03 0. -1.
    9900012    2    1    2    0    0 -0.14830303480E+02 -0.87357694957E+01 -0.73773292810E+01  0.72461640041E+02  0.70000090858E+02 0.  0.
        -12    1    1    2    0    0  0.14830303480E+02  0.87357694957E+01  0.73773292810E+01  0.18726359959E+02  0.00000000000E+00 0.  1.
         11    1    3    3    0    0  0.77996076711E+01 -0.25417485180E-01 -0.28065923255E+02  0.29129548130E+02  0.51100000000E-03 0. -1.
        -11    1    3    3    0    0  0.67105272833E+01 -0.49226474145E+01  0.62794002251E+01  0.10425665515E+02  0.51100000000E-03 0.  1.
        -12    1    3    3    0    0 -0.29340438435E+02 -0.37877045960E+01  0.14409193748E+02  0.32906426396E+02  0.00000000000E+00 0.  1.
</event>
<event>
 7    1  0.2700104E-013  0.7246156E+02  0.7816164E-02  0.1226708E+00
        -11   -1    0    0    0    0  0.00000000000E+00  0.00000000000E+00  0.45593999997E+02  0.45594000000E+02  0.51100000000E-03 0. -1.
         11   -1    0    0    0    0 -0.00000000000E+00 -0.00000000000E+00 -0.45593999997E+02  0.45594000000E+02  0.51100000000E-03 0.  1.
    9900012    2    1    2    0    0 -0.99473216682E+01  0.68505572387E+01  0.14310839211E+02  0.72461562491E+02  0.69999989835E+02 0.  0.
        -12    1    1    2    0    0  0.99473216682E+01 -0.68505572387E+01 -0.14310839211E+02  0.18726437509E+02  0.00000000000E+00 0.  1.
         11    1    3    3    0    0  0.13170427761E+02  0.13824321482E+02  0.94245923537E+01  0.21293073361E+02  0.51100000000E-03 0. -1.
        -11    1    3    3    0    0 -0.14129745716E+02  0.16655746501E+02  0.11979211946E+02  0.24911144586E+02  0.51100000000E-03 0.  1.
         12    1    3    3    0    0 -0.89880037133E+01 -0.23629510744E+02 -0.70929650884E+01  0.26257344544E+02  0.00000000000E+00 0. -1.
</event>
<event>
 7    1  0.2700104E-013  0.7246169E+02  0.7816164E-02  0.1226708E+00
        -11   -1    0    0    0    0  0.00000000000E+00  0.00000000000E+00  0.45593999997E+02  0.45594000000E+02  0.51100000000E-03 0. -1.
         11   -1    0    0    0    0 -0.00000000000E+00 -0.00000000000E+00 -0.45593999997E+02  0.45594000000E+02  0.51100000000E-03 0.  1.
    9900012    2    1    2    0    0 -0.61651082913E+01 -0.15193886949E+02 -0.90449965787E+01  0.72461688992E+02  0.70000154625E+02 0.  0.
        -12    1    1    2    0    0  0.61651082913E+01  0.15193886949E+02  0.90449965787E+01  0.18726311008E+02  0.00000000000E+00 0.  1.
         11    1    3    3    0    0 -0.10462857784E+02 -0.61434499207E+01 -0.10178111213E+02  0.15836897362E+02  0.51100000000E-03 0. -1.
        -11    1    3    3    0    0  0.12062149773E+02  0.10242978216E+02 -0.20973186841E+02  0.26273344408E+02  0.51100000000E-03 0.  1.
         12    1    3    3    0    0 -0.77644002800E+01 -0.19293415244E+02  0.22106301475E+02  0.30351447221E+02  0.00000000000E+00 0. -1.
</event>
<event>
 7    1  0.2700104E-013  0.7246165E+02  0.7816164E-02  0.1226708E+00
        -11   -1    0    0    0    0  0.00000000000E+00  0.00000000000E+00  0.45593999997E+02  0.45594000000E+02  0.51100000000E-03 0.  1.
         11   -1    0    0    0    0 -0.00000000000E+00 -0.00000000000E+00 -0.45593999997E+02  0.45594000000E+02  0.51100000000E-03 0. -1.
    9900012    2    1    2    0    0  0.18676434837E+00  0.14480336621E+02 -0.11872703273E+02  0.72461651915E+02  0.70000106327E+02 0.  0.
        -12    1    1    2    0    0 -0.18676434837E+00 -0.14480336621E+02  0.11872703273E+02  0.18726348085E+02  0.00000000000E+00 0.  1.
         11    1    3    3    0    0 -0.12295363821E+02  0.30892882158E+01 -0.19679781074E+02  0.23409687237E+02  0.51100000000E-03 0. -1.
        -11    1    3    3    0    0  0.23643666187E-01  0.25662250706E+02 -0.50532297309E+01  0.26155053073E+02  0.51100000000E-03 0.  1.
        -12    1    3    3    0    0  0.12458484503E+02 -0.14271202301E+02  0.12860307531E+02  0.22896911605E+02  0.00000000000E+00 0.  1.
</event>
<event>
 7    1  0.2700104E-013  0.7246163E+02  0.7816164E-02  0.1226708E+00
        -11   -1    0    0    0    0  0.00000000000E+00  0.00000000000E+00  0.45593999997E+02  0.45594000000E+02  0.51100000000E-03 0.  1.
         11   -1    0    0    0    0 -0.00000000000E+00 -0.00000000000E+00 -0.45593999997E+02  0.45594000000E+02  0.51100000000E-03 0. -1.
    9900012    2    1    2    0    0 -0.49573729637E+01  0.85584054934E+01  0.15901421888E+02  0.72461626369E+02  0.70000073048E+02 0.  0.
        -12    1    1    2    0    0  0.49573729637E+01 -0.85584054934E+01 -0.15901421888E+02  0.18726373631E+02  0.00000000000E+00 0.  1.
         11    1    3    3    0    0 -0.35591349716E+00 -0.79155108633E+01  0.89401310023E+01  0.11946042409E+02  0.51100000000E-03 0. -1.
        -11    1    3    3    0    0  0.26275972148E+02  0.12067296603E+02  0.38751790712E+01  0.29172990466E+02  0.51100000000E-03 0.  1.
         12    1    3    3    0    0 -0.30877431615E+02  0.44066197537E+01  0.30861118148E+01  0.31342593494E+02  0.00000000000E+00 0. -1.
</event>
<event>
 7    1  0.2700104E-013  0.7246163E+02  0.7816164E-02  0.1226708E+00
        -11   -1    0    0    0    0  0.00000000000E+00  0.00000000000E+00  0.45593999997E+02  0.45594000000E+02  0.51100000000E-03 0.  1.
         11   -1    0    0    0    0 -0.00000000000E+00 -0.00000000000E+00 -0.45593999997E+02  0.45594000000E+02  0.51100000000E-03 0. -1.
    9900012    2    1    2    0    0  0.23323665897E+01  0.52269821172E+01 -0.17830194299E+02  0.72461625425E+02  0.70000071818E+02 0.  0.
        -12    1    1    2    0    0 -0.23323665897E+01 -0.52269821172E+01  0.17830194299E+02  0.18726374575E+02  0.00000000000E+00 0.  1.
         11    1    3    3    0    0  0.24918363403E+01  0.56272101191E+01  0.22763203376E+01  0.65617357927E+01  0.51100000000E-03 0. -1.
        -11    1    3    3    0    0 -0.97135190147E+01  0.22228314844E+02 -0.30719337316E+02  0.39142408176E+02  0.51100000000E-03 0.  1.
        -12    1    3    3    0    0  0.95540492641E+01 -0.22628542846E+02  0.10612822679E+02  0.26757481456E+02  0.00000000000E+00 0.  1.
</event>
<event>
 7    1  0.2700104E-013  0.7246159E+02  0.7816164E-02  0.1226708E+00
        -11   -1    0    0    0    0  0.00000000000E+00  0.00000000000E+00  0.45593999997E+02  0.45594000000E+02  0.51100000000E-03 0. -1.
         11   -1    0    0    0    0 -0.00000000000E+00 -0.00000000000E+00 -0.45593999997E+02  0.45594000000E+02  0.51100000000E-03 0.  1.
    9900012    2    1    2    0    0 -0.13553672844E+02 -0.20352151838E+01 -0.12760650695E+02  0.72461592054E+02  0.70000028346E+02 0.  0.
        -12    1    1    2    0    0  0.13553672844E+02  0.20352151838E+01  0.12760650695E+02  0.18726407946E+02  0.00000000000E+00 0.  1.
         11    1    3    3    0    0 -0.14320827982E+02 -0.51862639182E+01 -0.17249314570E+02  0.23011351566E+02  0.51100000000E-03 0. -1.
        -11    1    3    3    0    0 -0.23038898616E+02  0.53947387021E+01 -0.41554836243E+01  0.24024198208E+02  0.51100000000E-03 0.  1.
         12    1    3    3    0    0  0.23806053754E+02 -0.22436899676E+01  0.86441474993E+01  0.25426042280E+02  0.00000000000E+00 0. -1.
</event>
<event>
 7    1  0.2700104E-013  0.7246155E+02  0.7816164E-02  0.1226708E+00
        -11   -1    0    0    0    0  0.00000000000E+00  0.00000000000E+00  0.45593999997E+02  0.45594000000E+02  0.51100000000E-03 0. -1.
         11   -1    0    0    0    0 -0.00000000000E+00 -0.00000000000E+00 -0.45593999997E+02  0.45594000000E+02  0.51100000000E-03 0.  1.
    9900012    2    1    2    0    0  0.63679981068E+01  0.58089257309E+01  0.16624822583E+02  0.72461554957E+02  0.69999980020E+02 0.  0.
        -12    1    1    2    0    0 -0.63679981068E+01 -0.58089257309E+01 -0.16624822583E+02  0.18726445043E+02  0.00000000000E+00 0.  1.
         11    1    3    3    0    0  0.22141972264E+02 -0.77769590548E+00 -0.38879033773E+01  0.22494166790E+02  0.51100000000E-03 0. -1.
        -11    1    3    3    0    0 -0.10527580000E+02  0.24543363204E+02  0.10060793036E+02  0.28538152967E+02  0.51100000000E-03 0.  1.
         12    1    3    3    0    0 -0.52463941569E+01 -0.17956741567E+02  0.10451932925E+02  0.21429235199E+02  0.00000000000E+00 0. -1.
</event>
<event>
 7    1  0.2700104E-013  0.7246158E+02  0.7816164E-02  0.1226708E+00
        -11   -1    0    0    0    0  0.00000000000E+00  0.00000000000E+00  0.45593999997E+02  0.45594000000E+02  0.51100000000E-03 0.  1.
         11   -1    0    0    0    0 -0.00000000000E+00 -0.00000000000E+00 -0.45593999997E+02  0.45594000000E+02  0.51100000000E-03 0. -1.
    9900012    2    1    2    0    0 -0.13110244616E+02 -0.96408185043E+01 -0.92657954795E+01  0.72461578527E+02  0.70000010725E+02 0.  0.
        -12    1    1    2    0    0  0.13110244616E+02  0.96408185043E+01  0.92657954795E+01  0.18726421473E+02  0.00000000000E+00 0.  1.
         11    1    3    3    0    0 -0.68393064662E+01  0.26651284841E+02 -0.23181344957E+01  0.27612331383E+02  0.51100000000E-03 0. -1.
        -11    1    3    3    0    0  0.77026536463E+01 -0.13619595835E+02  0.38456523519E+01  0.16112520168E+02  0.51100000000E-03 0.  1.
        -12    1    3    3    0    0 -0.13973591796E+02 -0.22672507511E+02 -0.10793313336E+02  0.28736726975E+02  0.00000000000E+00 0.  1.
</event>
<event>
 7    1  0.2700104E-013  0.7246178E+02  0.7816164E-02  0.1226707E+00
        -11   -1    0    0    0    0  0.00000000000E+00  0.00000000000E+00  0.45593999997E+02  0.45594000000E+02  0.51100000000E-03 0. -1.
         11   -1    0    0    0    0 -0.00000000000E+00 -0.00000000000E+00 -0.45593999997E+02  0.45594000000E+02  0.51100000000E-03 0.  1.
    9900012    2    1    2    0    0 -0.21240765499E-03 -0.15405830233E+02  0.10645741279E+02  0.72461777407E+02  0.70000269802E+02 0.  0.
        -12    1    1    2    0    0  0.21240765499E-03  0.15405830233E+02 -0.10645741279E+02  0.18726222593E+02  0.00000000000E+00 0.  1.
         11    1    3    3    0    0 -0.54100025515E+01 -0.11633806544E+02  0.79991070307E+01  0.15119500516E+02  0.51100000000E-03 0. -1.
        -11    1    3    3    0    0 -0.23753337222E+02  0.39544088998E+01 -0.79615890554E+01  0.25362280644E+02  0.51100000000E-03 0.  1.
         12    1    3    3    0    0  0.29163127365E+02 -0.77264325893E+01  0.10608223304E+02  0.31979996247E+02  0.00000000000E+00 0. -1.
</event>
<event>
 7    1  0.2700104E-013  0.7246156E+02  0.7816164E-02  0.1226708E+00
        -11   -1    0    0    0    0  0.00000000000E+00  0.00000000000E+00  0.45593999997E+02  0.45594000000E+02  0.51100000000E-03 0.  1.
         11   -1    0    0    0    0 -0.00000000000E+00 -0.00000000000E+00 -0.45593999997E+02  0.45594000000E+02  0.51100000000E-03 0. -1.
    9900012    2    1    2    0    0  0.96721550961E+01  0.75290680188E+01 -0.14157762558E+02  0.72461556395E+02  0.69999981894E+02 0.  0.
        -12    1    1    2    0    0 -0.96721550961E+01 -0.75290680188E+01  0.14157762558E+02  0.18726443605E+02  0.00000000000E+00 0.  1.
         11    1    3    3    0    0  0.10911844703E+02  0.19118072379E+02  0.12259394958E+02  0.25196464262E+02  0.51100000000E-03 0.  1.
        -11    1    3    3    0    0  0.32652091185E+01  0.94658350369E+01 -0.23490641673E+02  0.25535737115E+02  0.51100000000E-03 0. -1.
        -12    1    3    3    0    0 -0.45048987253E+01 -0.21054839397E+02 -0.29265158430E+01  0.21729355019E+02  0.00000000000E+00 0.  1.
</event>
<event>
 7    1  0.2700104E-013  0.7246159E+02  0.7816164E-02  0.1226708E+00
        -11   -1    0    0    0    0  0.00000000000E+00  0.00000000000E+00  0.45593999997E+02  0.45594000000E+02  0.51100000000E-03 0.  1.
         11   -1    0    0    0    0 -0.00000000000E+00 -0.00000000000E+00 -0.45593999997E+02  0.45594000000E+02  0.51100000000E-03 0. -1.
    9900012    2    1    2    0    0  0.10907959656E+02  0.14234299838E+02  0.53925329750E+01  0.72461593841E+02  0.70000030674E+02 0.  0.
        -12    1    1    2    0    0 -0.10907959656E+02 -0.14234299838E+02 -0.53925329750E+01  0.18726406159E+02  0.00000000000E+00 0.  1.
         11    1    3    3    0    0  0.11791243408E+02  0.20490358168E+02  0.75594109194E+01  0.24820009925E+02  0.51100000000E-03 0. -1.
        -11    1    3    3    0    0  0.44681588906E+01  0.10114205392E+02  0.17997753091E+02  0.21122990110E+02  0.51100000000E-03 0.  1.
         12    1    3    3    0    0 -0.53514426424E+01 -0.16370263721E+02 -0.20164631036E+02  0.26518593806E+02  0.00000000000E+00 0. -1.
</event>
<event>
 7    1  0.2700104E-013  0.7246168E+02  0.7816164E-02  0.1226708E+00
        -11   -1    0    0    0    0  0.00000000000E+00  0.00000000000E+00  0.45593999997E+02  0.45594000000E+02  0.51100000000E-03 0. -1.
         11   -1    0    0    0    0 -0.00000000000E+00 -0.00000000000E+00 -0.45593999997E+02  0.45594000000E+02  0.51100000000E-03 0.  1.
    9900012    2    1    2    0    0 -0.32595621205E+01  0.17423112923E+02  0.60403076339E+01  0.72461683613E+02  0.70000147618E+02 0.  0.
        -12    1    1    2    0    0  0.32595621205E+01 -0.17423112923E+02 -0.60403076339E+01  0.18726316387E+02  0.00000000000E+00 0.  1.
         11    1    3    3    0    0 -0.19428433587E+02  0.11660491667E+02  0.15434048430E+02  0.27416070994E+02  0.51100000000E-03 0. -1.
        -11    1    3    3    0    0 -0.75028304873E+01 -0.41871665615E+01  0.97658390122E+01  0.13007553229E+02  0.51100000000E-03 0.  1.
        -12    1    3    3    0    0  0.23671701954E+02  0.99497878168E+01 -0.19159579808E+02  0.32038059389E+02  0.00000000000E+00 0.  1.
</event>
<event>
 7    1  0.2700104E-013  0.7246146E+02  0.7816164E-02  0.1226708E+00
        -11   -1    0    0    0    0  0.00000000000E+00  0.00000000000E+00  0.45593999997E+02  0.45594000000E+02  0.51100000000E-03 0.  1.
         11   -1    0    0    0    0 -0.00000000000E+00 -0.00000000000E+00 -0.45593999997E+02  0.45594000000E+02  0.51100000000E-03 0. -1.
    9900012    2    1    2    0    0  0.78720119918E+01 -0.44913349625E+01 -0.16387272856E+02  0.72461458028E+02  0.69999853753E+02 0.  0.
        -12    1    1    2    0    0 -0.78720119918E+01  0.44913349625E+01  0.16387272856E+02  0.18726541972E+02  0.00000000000E+00 0.  1.
         11    1    3    3    0    0  0.46632420455E+01 -0.18236272599E+02 -0.12541429916E+02  0.22618464344E+02  0.51100000000E-03 0. -1.
        -11    1    3    3    0    0  0.12769579913E+02 -0.13759450556E+02  0.49705620670E+01  0.19418834628E+02  0.51100000000E-03 0.  1.
        -12    1    3    3    0    0 -0.95608099670E+01  0.27504388192E+02 -0.88164050073E+01  0.30424159057E+02  0.00000000000E+00 0.  1.
</event>
<event>
 7    1  0.2700104E-013  0.7246159E+02  0.7816164E-02  0.1226708E+00
        -11   -1    0    0    0    0  0.00000000000E+00  0.00000000000E+00  0.45593999997E+02  0.45594000000E+02  0.51100000000E-03 0. -1.
         11   -1    0    0    0    0 -0.00000000000E+00 -0.00000000000E+00 -0.45593999997E+02  0.45594000000E+02  0.51100000000E-03 0.  1.
    9900012    2    1    2    0    0  0.45007890530E+01  0.17576348243E+02  0.46360795434E+01  0.72461592090E+02  0.70000028393E+02 0.  0.
        -12    1    1    2    0    0 -0.45007890530E+01 -0.17576348243E+02 -0.46360795434E+01  0.18726407910E+02  0.00000000000E+00 0.  1.
         11    1    3    3    0    0  0.48965358304E+01  0.11424111271E+01 -0.94831459277E+01  0.10733649112E+02  0.51100000000E-03 0. -1.
        -11    1    3    3    0    0 -0.28749107546E+02  0.11828091972E+02  0.10305542550E+02  0.32750864903E+02  0.51100000000E-03 0.  1.
         12    1    3    3    0    0  0.28353360768E+02  0.46058451445E+01  0.38136829213E+01  0.28977078075E+02  0.00000000000E+00 0. -1.
</event>
<event>
 7    1  0.2700104E-013  0.7246173E+02  0.7816164E-02  0.1226708E+00
        -11   -1    0    0    0    0  0.00000000000E+00  0.00000000000E+00  0.45593999997E+02  0.45594000000E+02  0.51100000000E-03 0.  1.
         11   -1    0    0    0    0 -0.00000000000E+00 -0.00000000000E+00 -0.45593999997E+02  0.45594000000E+02  0.51100000000E-03 0. -1.
    9900012    2    1    2    0    0 -0.17497390906E+02  0.37110835359E+01 -0.55445896052E+01  0.72461726921E+02  0.70000204035E+02 0.  0.
        -12    1    1    2    0    0  0.17497390906E+02 -0.37110835359E+01  0.55445896052E+01  0.18726273079E+02  0.00000000000E+00 0.  1.
         11    1    3    3    0    0  0.42356262392E+01  0.13137418282E+02  0.71319351802E+01  0.15536949136E+02  0.51100000000E-03 0. -1.
        -11    1    3    3    0    0 -0.25533686930E+02  0.15530353315E+02 -0.36166510654E+01  0.30103840411E+02  0.51100000000E-03 0.  1.
        -12    1    3    3    0    0  0.38006697846E+01 -0.24956688062E+02 -0.90598737201E+01  0.26820937374E+02  0.00000000000E+00 0.  1.
</event>
<event>
 7    1  0.2700104E-013  0.7246158E+02  0.7816164E-02  0.1226708E+00
        -11   -1    0    0    0    0  0.00000000000E+00  0.00000000000E+00  0.45593999997E+02  0.45594000000E+02  0.51100000000E-03 0.  1.
         11   -1    0    0    0    0 -0.00000000000E+00 -0.00000000000E+00 -0.45593999997E+02  0.45594000000E+02  0.51100000000E-03 0. -1.
    9900012    2    1    2    0    0  0.28259704991E+01 -0.13970319615E+02  0.12145901385E+02  0.72461578562E+02  0.70000010770E+02 0.  0.
        -12    1    1    2    0    0 -0.28259704991E+01  0.13970319615E+02 -0.12145901385E+02  0.18726421438E+02  0.00000000000E+00 0.  1.
         11    1    3    3    0    0  0.24676030166E+01 -0.53160804330E+01 -0.41921320035E+01  0.72058134040E+01  0.51100000000E-03 0. -1.
        -11    1    3    3    0    0 -0.12331248967E+02 -0.32938612244E+02  0.46891345222E+01  0.35482388033E+02  0.51100000000E-03 0.  1.
         12    1    3    3    0    0  0.12689616450E+02  0.24284373062E+02  0.11648898866E+02  0.29773377125E+02  0.00000000000E+00 0. -1.
</event>
<event>
 7    1  0.2700104E-013  0.7246175E+02  0.7816164E-02  0.1226708E+00
        -11   -1    0    0    0    0  0.00000000000E+00  0.00000000000E+00  0.45593999997E+02  0.45594000000E+02  0.51100000000E-03 0.  1.
         11   -1    0    0    0    0 -0.00000000000E+00 -0.00000000000E+00 -0.45593999997E+02  0.45594000000E+02  0.51100000000E-03 0. -1.
    9900012    2    1    2    0    0 -0.14077640198E+02 -0.52808068476E+01 -0.11162678542E+02  0.72461754601E+02  0.70000240093E+02 0.  0.
        -12    1    1    2    0    0  0.14077640198E+02  0.52808068476E+01  0.11162678542E+02  0.18726245399E+02  0.00000000000E+00 0.  1.
         11    1    3    3    0    0 -0.11704261585E+02  0.15437159338E+02 -0.17467836727E+02  0.26084879678E+02  0.51100000000E-03 0. -1.
        -11    1    3    3    0    0 -0.20918716610E+02 -0.15422311645E+02  0.75103305341E+01  0.27052642497E+02  0.51100000000E-03 0.  1.
        -12    1    3    3    0    0  0.18545337997E+02 -0.52956545400E+01 -0.12051723495E+01  0.19324232425E+02  0.00000000000E+00 0.  1.
</event>
<event>
 7    1  0.2700104E-013  0.7246158E+02  0.7816164E-02  0.1226708E+00
        -11   -1    0    0    0    0  0.00000000000E+00  0.00000000000E+00  0.45593999997E+02  0.45594000000E+02  0.51100000000E-03 0.  1.
         11   -1    0    0    0    0 -0.00000000000E+00 -0.00000000000E+00 -0.45593999997E+02  0.45594000000E+02  0.51100000000E-03 0. -1.
    9900012    2    1    2    0    0  0.45114260777E+01  0.16113703775E+02  0.84068077380E+01  0.72461579335E+02  0.70000011777E+02 0.  0.
        -12    1    1    2    0    0 -0.45114260777E+01 -0.16113703775E+02 -0.84068077380E+01  0.18726420665E+02  0.00000000000E+00 0.  1.
         11    1    3    3    0    0  0.14873377247E+02 -0.18150817636E+02 -0.78297050194E+01  0.24738104465E+02  0.51100000000E-03 0. -1.
        -11    1    3    3    0    0  0.75853947580E+01  0.47479544700E+01  0.84590699545E+01  0.12314103704E+02  0.51100000000E-03 0.  1.
        -12    1    3    3    0    0 -0.17947345927E+02  0.29516566940E+02  0.77774428029E+01  0.35409371165E+02  0.00000000000E+00 0.  1.
</event>
<event>
 7    1  0.2700104E-013  0.7246164E+02  0.7816164E-02  0.1226708E+00
        -11   -1    0    0    0    0  0.00000000000E+00  0.00000000000E+00  0.45593999997E+02  0.45594000000E+02  0.51100000000E-03 0.  1.
         11   -1    0    0    0    0 -0.00000000000E+00 -0.00000000000E+00 -0.45593999997E+02  0.45594000000E+02  0.51100000000E-03 0. -1.
    9900012    2    1    2    0    0 -0.12663256351E+02 -0.13771814838E+02 -0.80968755169E+00  0.72461640523E+02  0.70000091486E+02 0.  0.
        -12    1    1    2    0    0  0.12663256351E+02  0.13771814838E+02  0.80968755169E+00  0.18726359477E+02  0.00000000000E+00 0.  1.
         11    1    3    3    0    0 -0.26196069269E+01 -0.88903391289E+01  0.42244970883E+01  0.10185619578E+02  0.51100000000E-03 0. -1.
        -11    1    3    3    0    0  0.13717824318E+02 -0.16056698369E+02  0.17691145285E+02  0.27549462577E+02  0.51100000000E-03 0.  1.
         12    1    3    3    0    0 -0.23761473742E+02  0.11175222660E+02 -0.22725329925E+02  0.34726558368E+02  0.00000000000E+00 0. -1.
</event>
<event>
 7    1  0.2700104E-013  0.7246155E+02  0.7816164E-02  0.1226708E+00
        -11   -1    0    0    0    0  0.00000000000E+00  0.00000000000E+00  0.45593999997E+02  0.45594000000E+02  0.51100000000E-03 0.  1.
         11   -1    0    0    0    0 -0.00000000000E+00 -0.00000000000E+00 -0.45593999997E+02  0.45594000000E+02  0.51100000000E-03 0. -1.
    9900012    2    1    2    0    0  0.10609855653E+01  0.10458627237E+02 -0.15497457383E+02  0.72461554545E+02  0.69999979483E+02 0.  0.
        -12    1    1    2    0    0 -0.10609855653E+01 -0.10458627237E+02  0.15497457383E+02  0.18726445455E+02  0.00000000000E+00 0.  1.
         11    1    3    3    0    0 -0.51213744322E+01  0.28770093653E+02 -0.14828513341E+01  0.29259966049E+02  0.51100000000E-03 0. -1.
        -11    1    3    3    0    0  0.23341625706E+01  0.10118275838E+02 -0.96627833426E+01  0.14184399988E+02  0.51100000000E-03 0.  1.
        -12    1    3    3    0    0  0.38481974269E+01 -0.28429742253E+02 -0.43518227060E+01  0.29017188508E+02  0.00000000000E+00 0.  1.
</event>
<event>
 7    1  0.2700104E-013  0.7246157E+02  0.7816164E-02  0.1226708E+00
        -11   -1    0    0    0    0  0.00000000000E+00  0.00000000000E+00  0.45593999997E+02  0.45594000000E+02  0.51100000000E-03 0.  1.
         11   -1    0    0    0    0 -0.00000000000E+00 -0.00000000000E+00 -0.45593999997E+02  0.45594000000E+02  0.51100000000E-03 0. -1.
    9900012    2    1    2    0    0 -0.16043465124E+02 -0.22357036855E+01 -0.93961781320E+01  0.72461566606E+02  0.69999995196E+02 0.  0.
        -12    1    1    2    0    0  0.16043465124E+02  0.22357036855E+01  0.93961781320E+01  0.18726433394E+02  0.00000000000E+00 0.  1.
         11    1    3    3    0    0  0.81847046430E+00 -0.73004705771E+01 -0.26974763945E+01  0.78257998765E+01  0.51100000000E-03 0. -1.
        -11    1    3    3    0    0  0.28134395870E+01  0.28481152119E+02 -0.15843903165E+02  0.32712699920E+02  0.51100000000E-03 0.  1.
         12    1    3    3    0    0 -0.19675375175E+02 -0.23416385227E+02  0.91452014271E+01  0.31923066810E+02  0.00000000000E+00 0. -1.
</event>
<event>
 7    1  0.2700104E-013  0.7246159E+02  0.7816164E-02  0.1226708E+00
        -11   -1    0    0    0    0  0.00000000000E+00  0.00000000000E+00  0.45593999997E+02  0.45594000000E+02  0.51100000000E-03 0.  1.
         11   -1    0    0    0    0 -0.00000000000E+00 -0.00000000000E+00 -0.45593999997E+02  0.45594000000E+02  0.51100000000E-03 0. -1.
    9900012    2    1    2    0    0 -0.66216741754E+00  0.18560343177E+02  0.23986611236E+01  0.72461591382E+02  0.70000027471E+02 0.  0.
        -12    1    1    2    0    0  0.66216741754E+00 -0.18560343177E+02 -0.23986611236E+01  0.18726408618E+02  0.00000000000E+00 0.  1.
         11    1    3    3    0    0 -0.29191363989E+01  0.25940414448E+01  0.57801144248E+01  0.69756814260E+01  0.51100000000E-03 0. -1.
        -11    1    3    3    0    0 -0.16187648321E+02 -0.52144824018E+00  0.23763932331E+02  0.28758239628E+02  0.51100000000E-03 0.  1.
         12    1    3    3    0    0  0.18444617303E+02  0.16487749972E+02 -0.27145385632E+02  0.36727670328E+02  0.00000000000E+00 0. -1.
</event>
<event>
 7    1  0.2700104E-013  0.7246161E+02  0.7816164E-02  0.1226708E+00
        -11   -1    0    0    0    0  0.00000000000E+00  0.00000000000E+00  0.45593999997E+02  0.45594000000E+02  0.51100000000E-03 0.  1.
         11   -1    0    0    0    0 -0.00000000000E+00 -0.00000000000E+00 -0.45593999997E+02  0.45594000000E+02  0.51100000000E-03 0. -1.
    9900012    2    1    2    0    0 -0.14964208329E+02 -0.70794122754E+01 -0.87539846209E+01  0.72461605371E+02  0.70000045693E+02 0.  0.
        -12    1    1    2    0    0  0.14964208329E+02  0.70794122754E+01  0.87539846209E+01  0.18726394629E+02  0.00000000000E+00 0.  1.
         11    1    3    3    0    0  0.31508232911E+01  0.82476881571E+01 -0.12018374907E+02  0.14912859652E+02  0.51100000000E-03 0. -1.
        -11    1    3    3    0    0 -0.57436886877E+01  0.15507631218E+02  0.14986507040E+02  0.22317526280E+02  0.51100000000E-03 0.  1.
         12    1    3    3    0    0 -0.12371342932E+02 -0.30834731651E+02 -0.11722116754E+02  0.35231219438E+02  0.00000000000E+00 0. -1.
</event>
<event>
 7    1  0.2700104E-013  0.7246172E+02  0.7816164E-02  0.1226708E+00
        -11   -1    0    0    0    0  0.00000000000E+00  0.00000000000E+00  0.45593999997E+02  0.45594000000E+02  0.51100000000E-03 0. -1.
         11   -1    0    0    0    0 -0.00000000000E+00 -0.00000000000E+00 -0.45593999997E+02  0.45594000000E+02  0.51100000000E-03 0.  1.
    9900012    2    1    2    0    0  0.11018406909E+01 -0.16677896656E+02 -0.84443629797E+01  0.72461720180E+02  0.70000195254E+02 0.  0.
        -12    1    1    2    0    0 -0.11018406909E+01  0.16677896656E+02  0.84443629797E+01  0.18726279820E+02  0.00000000000E+00 0.  1.
         11    1    3    3    0    0 -0.89292466497E+00 -0.21106025051E+02 -0.28359114629E+01  0.21314408320E+02  0.51100000000E-03 0. -1.
        -11    1    3    3    0    0  0.17262842011E+02 -0.57467246605E+01 -0.20577787980E+02  0.27467725006E+02  0.51100000000E-03 0.  1.
         12    1    3    3    0    0 -0.15268076655E+02  0.10174853056E+02  0.14969336463E+02  0.23679586854E+02  0.00000000000E+00 0. -1.
</event>
<event>
 7    1  0.2700104E-013  0.7246153E+02  0.7816164E-02  0.1226708E+00
        -11   -1    0    0    0    0  0.00000000000E+00  0.00000000000E+00  0.45593999997E+02  0.45594000000E+02  0.51100000000E-03 0.  1.
         11   -1    0    0    0    0 -0.00000000000E+00 -0.00000000000E+00 -0.45593999997E+02  0.45594000000E+02  0.51100000000E-03 0. -1.
    9900012    2    1    2    0    0  0.18170926528E+02 -0.36461585007E+01  0.26839544899E+01  0.72461530647E+02  0.69999948352E+02 0.  0.
        -12    1    1    2    0    0 -0.18170926528E+02  0.36461585007E+01 -0.26839544899E+01  0.18726469353E+02  0.00000000000E+00 0.  1.
         11    1    3    3    0    0 -0.70887453699E+01  0.25286179559E+02 -0.12199001942E+02  0.28956119150E+02  0.51100000000E-03 0. -1.
        -11    1    3    3    0    0  0.31583633021E+01 -0.48076701311E+01  0.83531159722E+01  0.10142164342E+02  0.51100000000E-03 0.  1.
        -12    1    3    3    0    0  0.22101308596E+02 -0.24124667928E+02  0.65298404596E+01  0.33363247155E+02  0.00000000000E+00 0.  1.
</event>
<event>
 7    1  0.2700104E-013  0.7246150E+02  0.7816164E-02  0.1226708E+00
        -11   -1    0    0    0    0  0.00000000000E+00  0.00000000000E+00  0.45593999997E+02  0.45594000000E+02  0.51100000000E-03 0.  1.
         11   -1    0    0    0    0 -0.00000000000E+00 -0.00000000000E+00 -0.45593999997E+02  0.45594000000E+02  0.51100000000E-03 0. -1.
    9900012    2    1    2    0    0  0.11683714691E+01  0.12307838638E+02 -0.14065345478E+02  0.72461496663E+02  0.69999904081E+02 0.  0.
        -12    1    1    2    0    0 -0.11683714691E+01 -0.12307838638E+02  0.14065345478E+02  0.18726503337E+02  0.00000000000E+00 0.  1.
         11    1    3    3    0    0 -0.13433280811E+01 -0.32771838754E+00  0.35407040789E+01  0.38011202705E+01  0.51100000000E-03 0. -1.
        -11    1    3    3    0    0 -0.21569388051E+01  0.33772392279E+01  0.24740467337E+02  0.25062897960E+02  0.51100000000E-03 0.  1.
         12    1    3    3    0    0  0.46686383553E+01  0.92583177972E+01 -0.42346516895E+02  0.43597478432E+02  0.00000000000E+00 0. -1.
</event>
<event>
 7    1  0.2700104E-013  0.7246157E+02  0.7816164E-02  0.1226708E+00
        -11   -1    0    0    0    0  0.00000000000E+00  0.00000000000E+00  0.45593999997E+02  0.45594000000E+02  0.51100000000E-03 0. -1.
         11   -1    0    0    0    0 -0.00000000000E+00 -0.00000000000E+00 -0.45593999997E+02  0.45594000000E+02  0.51100000000E-03 0.  1.
    9900012    2    1    2    0    0 -0.34382348810E+00 -0.17894079719E+02  0.55102649015E+01  0.72461566200E+02  0.69999994666E+02 0.  0.
        -12    1    1    2    0    0  0.34382348810E+00  0.17894079719E+02 -0.55102649015E+01  0.18726433800E+02  0.00000000000E+00 0.  1.
         11    1    3    3    0    0 -0.28334812709E+00 -0.49661826171E+01  0.28806793249E+02  0.29233107831E+02  0.51100000000E-03 0. -1.
        -11    1    3    3    0    0 -0.15493258717E+02  0.20395269214E+00 -0.61023066667E+01  0.16652951970E+02  0.51100000000E-03 0.  1.
        -12    1    3    3    0    0  0.15432783356E+02 -0.13131849795E+02 -0.17194221680E+02  0.26575506399E+02  0.00000000000E+00 0.  1.
</event>
<event>
 7    1  0.2700104E-013  0.7246148E+02  0.7816164E-02  0.1226708E+00
        -11   -1    0    0    0    0  0.00000000000E+00  0.00000000000E+00  0.45593999997E+02  0.45594000000E+02  0.51100000000E-03 0. -1.
         11   -1    0    0    0    0 -0.00000000000E+00 -0.00000000000E+00 -0.45593999997E+02  0.45594000000E+02  0.51100000000E-03 0.  1.
    9900012    2    1    2    0    0 -0.10923076129E+02 -0.13838204804E+02  0.63145089154E+01  0.72461480645E+02  0.69999883215E+02 0.  0.
        -12    1    1    2    0    0  0.10923076129E+02  0.13838204804E+02 -0.63145089154E+01  0.18726519355E+02  0.00000000000E+00 0.  1.
         11    1    3    3    0    0  0.11761616706E+02 -0.21991237240E+02 -0.15556906455E+01  0.24987403157E+02  0.51100000000E-03 0. -1.
        -11    1    3    3    0    0  0.87767177636E+01  0.12973131673E+01 -0.76632284054E+01  0.11723432348E+02  0.51100000000E-03 0.  1.
        -12    1    3    3    0    0 -0.31461410599E+02  0.68557192685E+01  0.15533427966E+02  0.35750645140E+02  0.00000000000E+00 0.  1.
</event>
<event>
 7    1  0.2700104E-013  0.7246164E+02  0.7816164E-02  0.1226708E+00
        -11   -1    0    0    0    0  0.00000000000E+00  0.00000000000E+00  0.45593999997E+02  0.45594000000E+02  0.51100000000E-03 0.  1.
         11   -1    0    0    0    0 -0.00000000000E+00 -0.00000000000E+00 -0.45593999997E+02  0.45594000000E+02  0.51100000000E-03 0. -1.
    9900012    2    1    2    0    0 -0.59304340539E-01  0.69843154115E+01 -0.17375053801E+02  0.72461636942E+02  0.70000086821E+02 0.  0.
        -12    1    1    2    0    0  0.59304340539E-01 -0.69843154115E+01  0.17375053801E+02  0.18726363058E+02  0.00000000000E+00 0.  1.
         11    1    3    3    0    0 -0.18848579584E+02  0.16794336146E+02 -0.23736409907E+02  0.34651635379E+02  0.51100000000E-03 0. -1.
        -11    1    3    3    0    0  0.22804661246E+02  0.15398830000E+01 -0.23099898417E+01  0.22973024780E+02  0.51100000000E-03 0.  1.
        -12    1    3    3    0    0 -0.40153860030E+01 -0.11349903734E+02  0.86713459472E+01  0.14836976783E+02  0.00000000000E+00 0.  1.
</event>
<event>
 7    1  0.2700104E-013  0.7246158E+02  0.7816164E-02  0.1226708E+00
        -11   -1    0    0    0    0  0.00000000000E+00  0.00000000000E+00  0.45593999997E+02  0.45594000000E+02  0.51100000000E-03 0.  1.
         11   -1    0    0    0    0 -0.00000000000E+00 -0.00000000000E+00 -0.45593999997E+02  0.45594000000E+02  0.51100000000E-03 0. -1.
    9900012    2    1    2    0    0 -0.46098220358E+01  0.11232506286E+02 -0.14256896620E+02  0.72461581284E+02  0.70000014316E+02 0.  0.
        -12    1    1    2    0    0  0.46098220358E+01 -0.11232506286E+02  0.14256896620E+02  0.18726418716E+02  0.00000000000E+00 0.  1.
         11    1    3    3    0    0 -0.11184095114E+02  0.77421457108E+01 -0.14869501831E+02  0.20152590124E+02  0.51100000000E-03 0. -1.
        -11    1    3    3    0    0 -0.21040944561E+02  0.89861671300E+01 -0.54210895710E+01  0.23512991305E+02  0.51100000000E-03 0.  1.
        -12    1    3    3    0    0  0.27615217639E+02 -0.54958065543E+01  0.60336947816E+01  0.28795999855E+02  0.00000000000E+00 0.  1.
</event>
<event>
 7    1  0.2700104E-013  0.7246160E+02  0.7816164E-02  0.1226708E+00
        -11   -1    0    0    0    0  0.00000000000E+00  0.00000000000E+00  0.45593999997E+02  0.45594000000E+02  0.51100000000E-03 0. -1.
         11   -1    0    0    0    0 -0.00000000000E+00 -0.00000000000E+00 -0.45593999997E+02  0.45594000000E+02  0.51100000000E-03 0.  1.
    9900012    2    1    2    0    0  0.28735822244E+00  0.29600945869E+01  0.18488736506E+02  0.72461598522E+02  0.70000036772E+02 0.  0.
        -12    1    1    2    0    0 -0.28735822244E+00 -0.29600945869E+01 -0.18488736506E+02  0.18726401478E+02  0.00000000000E+00 0.  1.
         11    1    3    3    0    0 -0.87169204989E+01  0.65225527699E+01  0.17179737611E+02  0.20338922839E+02  0.51100000000E-03 0. -1.
        -11    1    3    3    0    0  0.94015290856E+01 -0.16903940003E+02  0.20861489576E+02  0.28448790560E+02  0.51100000000E-03 0.  1.
         12    1    3    3    0    0 -0.39725036428E+00  0.13341481820E+02 -0.19552490680E+02  0.23673885123E+02  0.00000000000E+00 0. -1.
</event>
<event>
 7    1  0.2700104E-013  0.7246174E+02  0.7816164E-02  0.1226708E+00
        -11   -1    0    0    0    0  0.00000000000E+00  0.00000000000E+00  0.45593999997E+02  0.45594000000E+02  0.51100000000E-03 0.  1.
         11   -1    0    0    0    0 -0.00000000000E+00 -0.00000000000E+00 -0.45593999997E+02  0.45594000000E+02  0.51100000000E-03 0. -1.
    9900012    2    1    2    0    0  0.13291121574E+02 -0.38899119700E+01 -0.12605055835E+02  0.72461741419E+02  0.70000222922E+02 0.  0.
        -12    1    1    2    0    0 -0.13291121574E+02  0.38899119700E+01  0.12605055835E+02  0.18726258581E+02  0.00000000000E+00 0.  1.
         11    1    3    3    0    0  0.14591046110E+02 -0.12133477155E+02 -0.20140585272E+02  0.27672424357E+02  0.51100000000E-03 0. -1.
        -11    1    3    3    0    0 -0.13174063957E+02 -0.66341617053E+01  0.17836646484E+02  0.23145496770E+02  0.51100000000E-03 0.  1.
         12    1    3    3    0    0  0.11874139421E+02  0.14877726890E+02 -0.10301117047E+02  0.21643820292E+02  0.00000000000E+00 0. -1.
</event>
<event>
 7    1  0.2700104E-013  0.7246164E+02  0.7816164E-02  0.1226708E+00
        -11   -1    0    0    0    0  0.00000000000E+00  0.00000000000E+00  0.45593999997E+02  0.45594000000E+02  0.51100000000E-03 0.  1.
         11   -1    0    0    0    0 -0.00000000000E+00 -0.00000000000E+00 -0.45593999997E+02  0.45594000000E+02  0.51100000000E-03 0. -1.
    9900012    2    1    2    0    0  0.14244168648E+02  0.10400866871E+02  0.62930297621E+01  0.72461639015E+02  0.70000089522E+02 0.  0.
        -12    1    1    2    0    0 -0.14244168648E+02 -0.10400866871E+02 -0.62930297621E+01  0.18726360985E+02  0.00000000000E+00 0.  1.
         11    1    3    3    0    0  0.21985867781E+02  0.29633753340E+02  0.67299677262E+00  0.36905157418E+02  0.51100000000E-03 0. -1.
        -11    1    3    3    0    0  0.39102326023E+01  0.24644775511E+01  0.95566957927E+01  0.10615743184E+02  0.51100000000E-03 0.  1.
         12    1    3    3    0    0 -0.11651931735E+02 -0.21697364021E+02 -0.39366628033E+01  0.24940738414E+02  0.00000000000E+00 0. -1.
</event>
<event>
 7    1  0.2700104E-013  0.7246157E+02  0.7816164E-02  0.1226708E+00
        -11   -1    0    0    0    0  0.00000000000E+00  0.00000000000E+00  0.45593999997E+02  0.45594000000E+02  0.51100000000E-03 0. -1.
         11   -1    0    0    0    0 -0.00000000000E+00 -0.00000000000E+00 -0.45593999997E+02  0.45594000000E+02  0.51100000000E-03 0.  1.
    9900012    2    1    2    0    0 -0.10669391756E+02  0.14094067353E+02  0.61806546705E+01  0.72461570892E+02  0.70000000778E+02 0.  0.
        -12    1    1    2    0    0  0.10669391756E+02 -0.14094067353E+02 -0.61806546705E+01  0.18726429108E+02  0.00000000000E+00 0.  1.
         11    1    3    3    0    0  0.15092203305E+02  0.16261649293E+02  0.11445034812E+02  0.24964067386E+02  0.51100000000E-03 0. -1.
        -11    1    3    3    0    0  0.56941476020E+01 -0.72280600454E+01 -0.11810418152E+02  0.14971778322E+02  0.51100000000E-03 0.  1.
        -12    1    3    3    0    0 -0.31455742662E+02  0.50604781056E+01  0.65460380105E+01  0.32525725184E+02  0.00000000000E+00 0.  1.
</event>
<event>
 7    1  0.2700104E-013  0.7246152E+02  0.7816164E-02  0.1226708E+00
        -11   -1    0    0    0    0  0.00000000000E+00  0.00000000000E+00  0.45593999997E+02  0.45594000000E+02  0.51100000000E-03 0.  1.
         11   -1    0    0    0    0 -0.00000000000E+00 -0.00000000000E+00 -0.45593999997E+02  0.45594000000E+02  0.51100000000E-03 0. -1.
    9900012    2    1    2    0    0  0.12238256593E+02  0.14166362198E+02 -0.46945452766E+00  0.72461517952E+02  0.69999931814E+02 0.  0.
        -12    1    1    2    0    0 -0.12238256593E+02 -0.14166362198E+02  0.46945452766E+00  0.18726482048E+02  0.00000000000E+00 0.  1.
         11    1    3    3    0    0 -0.32738000439E+01  0.61287966435E+01 -0.24585448080E+01  0.73705059433E+01  0.51100000000E-03 0. -1.
        -11    1    3    3    0    0 -0.97436334503E+01  0.27479181578E+02 -0.10315060199E+02  0.30926433357E+02  0.51100000000E-03 0.  1.
         12    1    3    3    0    0  0.25255690087E+02 -0.19441616024E+02  0.12304150480E+02  0.34164578651E+02  0.00000000000E+00 0. -1.
</event>
<event>
 7    1  0.2700104E-013  0.7246136E+02  0.7816164E-02  0.1226709E+00
        -11   -1    0    0    0    0  0.00000000000E+00  0.00000000000E+00  0.45593999997E+02  0.45594000000E+02  0.51100000000E-03 0.  1.
         11   -1    0    0    0    0 -0.00000000000E+00 -0.00000000000E+00 -0.45593999997E+02  0.45594000000E+02  0.51100000000E-03 0. -1.
    9900012    2    1    2    0    0 -0.10287897171E+01  0.67843736951E+01 -0.17424148083E+02  0.72461359320E+02  0.69999725167E+02 0.  0.
        -12    1    1    2    0    0  0.10287897171E+01 -0.67843736951E+01  0.17424148083E+02  0.18726640680E+02  0.00000000000E+00 0.  1.
         11    1    3    3    0    0 -0.96509757276E+01  0.31236725923E+00 -0.23030066134E+01  0.99268698754E+01  0.51100000000E-03 0. -1.
        -11    1    3    3    0    0 -0.86633589588E+01  0.16064650076E+02  0.16918382858E+02  0.24886913214E+02  0.51100000000E-03 0.  1.
         12    1    3    3    0    0  0.17285544969E+02 -0.95926436401E+01 -0.32039524328E+02  0.37647576231E+02  0.00000000000E+00 0. -1.
</event>
<event>
 7    1  0.2700104E-013  0.7246159E+02  0.7816164E-02  0.1226708E+00
        -11   -1    0    0    0    0  0.00000000000E+00  0.00000000000E+00  0.45593999997E+02  0.45594000000E+02  0.51100000000E-03 0.  1.
         11   -1    0    0    0    0 -0.00000000000E+00 -0.00000000000E+00 -0.45593999997E+02  0.45594000000E+02  0.51100000000E-03 0. -1.
    9900012    2    1    2    0    0 -0.24407733309E+00 -0.15801794017E+02 -0.10046007497E+02  0.72461587249E+02  0.70000022086E+02 0.  0.
        -12    1    1    2    0    0  0.24407733309E+00  0.15801794017E+02  0.10046007497E+02  0.18726412751E+02  0.00000000000E+00 0.  1.
         11    1    3    3    0    0  0.90534504263E+01 -0.10663622179E+01 -0.18558128535E+02  0.20676223736E+02  0.51100000000E-03 0. -1.
        -11    1    3    3    0    0 -0.24019289699E+02 -0.17494949935E+02 -0.66739130413E+01  0.30455552308E+02  0.51100000000E-03 0.  1.
         12    1    3    3    0    0  0.14721761940E+02  0.27595181359E+01  0.15186034080E+02  0.21329811204E+02  0.00000000000E+00 0. -1.
</event>
<event>
 7    1  0.2700104E-013  0.7246222E+02  0.7816164E-02  0.1226706E+00
        -11   -1    0    0    0    0  0.00000000000E+00  0.00000000000E+00  0.45593999997E+02  0.45594000000E+02  0.51100000000E-03 0.  1.
         11   -1    0    0    0    0 -0.00000000000E+00 -0.00000000000E+00 -0.45593999997E+02  0.45594000000E+02  0.51100000000E-03 0. -1.
    9900012    2    1    2    0    0  0.30712304664E+01  0.16807289177E+02  0.76640372457E+01  0.72462218495E+02  0.70000844397E+02 0.  0.
        -12    1    1    2    0    0 -0.30712304664E+01 -0.16807289177E+02 -0.76640372457E+01  0.18725781505E+02  0.00000000000E+00 0.  1.
         11    1    3    3    0    0 -0.96477868954E+01  0.14273167572E+02 -0.13116662511E+02  0.21652942992E+02  0.51100000000E-03 0. -1.
        -11    1    3    3    0    0  0.23245583184E+02 -0.60722632250E+01 -0.21803086275E+01  0.24124329301E+02  0.51100000000E-03 0.  1.
        -12    1    3    3    0    0 -0.10526565822E+02  0.86063848302E+01  0.22961008384E+02  0.26684946203E+02  0.00000000000E+00 0.  1.
</event>
<event>
 7    1  0.2700104E-013  0.7246154E+02  0.7816164E-02  0.1226708E+00
        -11   -1    0    0    0    0  0.00000000000E+00  0.00000000000E+00  0.45593999997E+02  0.45594000000E+02  0.51100000000E-03 0. -1.
         11   -1    0    0    0    0 -0.00000000000E+00 -0.00000000000E+00 -0.45593999997E+02  0.45594000000E+02  0.51100000000E-03 0.  1.
    9900012    2    1    2    0    0  0.60911696434E+01 -0.14598788300E+02  0.10022635043E+02  0.72461543297E+02  0.69999964831E+02 0.  0.
        -12    1    1    2    0    0 -0.60911696434E+01  0.14598788300E+02 -0.10022635043E+02  0.18726456703E+02  0.00000000000E+00 0.  1.
         11    1    3    3    0    0  0.93305920386E+01  0.61406679978E+01  0.32918071479E+01  0.11644902138E+02  0.51100000000E-03 0. -1.
        -11    1    3    3    0    0  0.58254407284E+01  0.11517394316E+01  0.28214811830E+02  0.28832930310E+02  0.51100000000E-03 0.  1.
        -12    1    3    3    0    0 -0.90648631235E+01 -0.21891195730E+02 -0.21483983935E+02  0.31983710848E+02  0.00000000000E+00 0.  1.
</event>
<event>
 7    1  0.2700104E-013  0.7246196E+02  0.7816164E-02  0.1226707E+00
        -11   -1    0    0    0    0  0.00000000000E+00  0.00000000000E+00  0.45593999997E+02  0.45594000000E+02  0.51100000000E-03 0. -1.
         11   -1    0    0    0    0 -0.00000000000E+00 -0.00000000000E+00 -0.45593999997E+02  0.45594000000E+02  0.51100000000E-03 0.  1.
    9900012    2    1    2    0    0  0.64239045635E+01 -0.79186044917E+01  0.15706482808E+02  0.72461963336E+02  0.70000512008E+02 0.  0.
        -12    1    1    2    0    0 -0.64239045635E+01  0.79186044917E+01 -0.15706482808E+02  0.18726036664E+02  0.00000000000E+00 0.  1.
         11    1    3    3    0    0  0.75932436048E+01 -0.21193063684E+02  0.21545731717E+02  0.31161223536E+02  0.51100000000E-03 0. -1.
        -11    1    3    3    0    0 -0.34102661981E+01 -0.13542338414E+02 -0.24388069352E+01  0.14176481396E+02  0.51100000000E-03 0.  1.
        -12    1    3    3    0    0  0.22409271568E+01  0.26816797606E+02 -0.34004419739E+01  0.27124258404E+02  0.00000000000E+00 0.  1.
</event>
<event>
 7    1  0.2700104E-013  0.7246155E+02  0.7816164E-02  0.1226708E+00
        -11   -1    0    0    0    0  0.00000000000E+00  0.00000000000E+00  0.45593999997E+02  0.45594000000E+02  0.51100000000E-03 0.  1.
         11   -1    0    0    0    0 -0.00000000000E+00 -0.00000000000E+00 -0.45593999997E+02  0.45594000000E+02  0.51100000000E-03 0. -1.
    9900012    2    1    2    0    0  0.13137183641E+01  0.26949361771E+01 -0.18484895101E+02  0.72461551222E+02  0.69999975155E+02 0.  0.
        -12    1    1    2    0    0 -0.13137183641E+01 -0.26949361771E+01  0.18484895101E+02  0.18726448778E+02  0.00000000000E+00 0.  1.
         11    1    3    3    0    0  0.17769326280E+02 -0.14780920158E+02 -0.12462392625E+02  0.26259013449E+02  0.51100000000E-03 0. -1.
        -11    1    3    3    0    0  0.89836686224E+00 -0.42150033813E+00  0.14118652375E+02  0.14153482635E+02  0.51100000000E-03 0.  1.
         12    1    3    3    0    0 -0.17353974778E+02  0.17897356673E+02 -0.20141154851E+02  0.32049055138E+02  0.00000000000E+00 0. -1.
</event>
<event>
 7    1  0.2700104E-013  0.7246091E+02  0.7816164E-02  0.1226710E+00
        -11   -1    0    0    0    0  0.00000000000E+00  0.00000000000E+00  0.45593999997E+02  0.45594000000E+02  0.51100000000E-03 0. -1.
         11   -1    0    0    0    0 -0.00000000000E+00 -0.00000000000E+00 -0.45593999997E+02  0.45594000000E+02  0.51100000000E-03 0.  1.
    9900012    2    1    2    0    0  0.11274756304E+02  0.14806934893E+02  0.20829099215E+01  0.72460908278E+02  0.69999137595E+02 0.  0.
        -12    1    1    2    0    0 -0.11274756304E+02 -0.14806934893E+02 -0.20829099215E+01  0.18727091722E+02  0.00000000000E+00 0.  1.
         11    1    3    3    0    0 -0.22663823845E+02 -0.46413089491E+00  0.33842137189E+01  0.22919799989E+02  0.51100000000E-03 0.  1.
        -11    1    3    3    0    0 -0.46056308921E+00  0.12804724135E+02  0.62201402295E+01  0.14243006118E+02  0.51100000000E-03 0. -1.
        -12    1    3    3    0    0  0.34399143238E+02  0.24663416526E+01 -0.75214440269E+01  0.35298102172E+02  0.00000000000E+00 0.  1.
</event>
<event>
 7    1  0.2700104E-013  0.7246154E+02  0.7816164E-02  0.1226708E+00
        -11   -1    0    0    0    0  0.00000000000E+00  0.00000000000E+00  0.45593999997E+02  0.45594000000E+02  0.51100000000E-03 0.  1.
         11   -1    0    0    0    0 -0.00000000000E+00 -0.00000000000E+00 -0.45593999997E+02  0.45594000000E+02  0.51100000000E-03 0. -1.
    9900012    2    1    2    0    0 -0.15160357581E+02 -0.94955990880E+01 -0.55387269792E+01  0.72461539027E+02  0.69999959268E+02 0.  0.
        -12    1    1    2    0    0  0.15160357581E+02  0.94955990880E+01  0.55387269792E+01  0.18726460973E+02  0.00000000000E+00 0.  1.
         11    1    3    3    0    0  0.81928980976E+01 -0.57188377587E+01  0.25934076823E+01  0.10322521408E+02  0.51100000000E-03 0. -1.
        -11    1    3    3    0    0  0.65310042715E+01 -0.19655047732E+02  0.10804360171E+02  0.23360417742E+02  0.51100000000E-03 0.  1.
         12    1    3    3    0    0 -0.29884259950E+02  0.15878286403E+02 -0.18936494832E+02  0.38778599877E+02  0.00000000000E+00 0. -1.
</event>
<event>
 7    1  0.2700104E-013  0.7246169E+02  0.7816164E-02  0.1226708E+00
        -11   -1    0    0    0    0  0.00000000000E+00  0.00000000000E+00  0.45593999997E+02  0.45594000000E+02  0.51100000000E-03 0.  1.
         11   -1    0    0    0    0 -0.00000000000E+00 -0.00000000000E+00 -0.45593999997E+02  0.45594000000E+02  0.51100000000E-03 0. -1.
    9900012    2    1    2    0    0  0.11593368510E+02 -0.93064887531E+01  0.11386736863E+02  0.72461689560E+02  0.70000155365E+02 0.  0.
        -12    1    1    2    0    0 -0.11593368510E+02  0.93064887531E+01 -0.11386736863E+02  0.18726310440E+02  0.00000000000E+00 0.  1.
         11    1    3    3    0    0  0.26205147577E+01  0.12161863997E+02  0.62408929580E+00  0.12456625594E+02  0.51100000000E-03 0. -1.
        -11    1    3    3    0    0  0.50133779892E+01  0.77072214297E+01 -0.17134014637E+02  0.19445042527E+02  0.51100000000E-03 0.  1.
        -12    1    3    3    0    0  0.39594757631E+01 -0.29175574180E+02  0.27896662204E+02  0.40560021439E+02  0.00000000000E+00 0.  1.
</event>
<event>
 7    1  0.2700104E-013  0.7246158E+02  0.7816164E-02  0.1226708E+00
        -11   -1    0    0    0    0  0.00000000000E+00  0.00000000000E+00  0.45593999997E+02  0.45594000000E+02  0.51100000000E-03 0.  1.
         11   -1    0    0    0    0 -0.00000000000E+00 -0.00000000000E+00 -0.45593999997E+02  0.45594000000E+02  0.51100000000E-03 0. -1.
    9900012    2    1    2    0    0  0.13302166112E+02  0.37012555803E+01 -0.12650374365E+02  0.72461577818E+02  0.70000009801E+02 0.  0.
        -12    1    1    2    0    0 -0.13302166112E+02 -0.37012555803E+01  0.12650374365E+02  0.18726422182E+02  0.00000000000E+00 0.  1.
         11    1    3    3    0    0  0.17362949143E+01  0.10769287020E+02  0.68961113203E+01  0.12905371539E+02  0.51100000000E-03 0. -1.
        -11    1    3    3    0    0  0.10331292084E+02  0.21888462790E+02  0.67952791954E+00  0.24213677083E+02  0.51100000000E-03 0.  1.
        -12    1    3    3    0    0  0.12345791139E+01 -0.28956494229E+02 -0.20226013605E+02  0.35342529196E+02  0.00000000000E+00 0.  1.
</event>
<event>
 7    1  0.2700104E-013  0.7246116E+02  0.7816164E-02  0.1226709E+00
        -11   -1    0    0    0    0  0.00000000000E+00  0.00000000000E+00  0.45593999997E+02  0.45594000000E+02  0.51100000000E-03 0.  1.
         11   -1    0    0    0    0 -0.00000000000E+00 -0.00000000000E+00 -0.45593999997E+02  0.45594000000E+02  0.51100000000E-03 0. -1.
    9900012    2    1    2    0    0  0.38331009101E+01  0.18304741544E+02 -0.96857116497E+00  0.72461164825E+02  0.69999471799E+02 0.  0.
        -12    1    1    2    0    0 -0.38331009101E+01 -0.18304741544E+02  0.96857116497E+00  0.18726835175E+02  0.00000000000E+00 0.  1.
         11    1    3    3    0    0 -0.48184420097E+01  0.20893511173E+02 -0.12599639152E+01  0.21478912958E+02  0.51100000000E-03 0. -1.
        -11    1    3    3    0    0  0.29149755419E+02  0.25069710591E+01 -0.36869390341E+01  0.29488754883E+02  0.51100000000E-03 0.  1.
         12    1    3    3    0    0 -0.20498212499E+02 -0.50957406884E+01  0.39783317843E+01  0.21493496984E+02  0.00000000000E+00 0. -1.
</event>
<event>
 7    1  0.2700104E-013  0.7246151E+02  0.7816164E-02  0.1226708E+00
        -11   -1    0    0    0    0  0.00000000000E+00  0.00000000000E+00  0.45593999997E+02  0.45594000000E+02  0.51100000000E-03 0.  1.
         11   -1    0    0    0    0 -0.00000000000E+00 -0.00000000000E+00 -0.45593999997E+02  0.45594000000E+02  0.51100000000E-03 0. -1.
    9900012    2    1    2    0    0 -0.36948354438E+01  0.11775967028E+02 -0.14083904129E+02  0.72461506364E+02  0.69999916718E+02 0.  0.
        -12    1    1    2    0    0  0.36948354438E+01 -0.11775967028E+02  0.14083904129E+02  0.18726493636E+02  0.00000000000E+00 0.  1.
         11    1    3    3    0    0 -0.14456338074E+02 -0.16399552385E+02 -0.18147114600E+02  0.28412124129E+02  0.51100000000E-03 0. -1.
        -11    1    3    3    0    0 -0.35703451264E+01  0.20915643276E+01 -0.10228529822E+02  0.11033803888E+02  0.51100000000E-03 0.  1.
        -12    1    3    3    0    0  0.14331847757E+02  0.26083955085E+02  0.14291740293E+02  0.33015578347E+02  0.00000000000E+00 0.  1.
</event>
<event>
 7    1  0.2700104E-013  0.7246204E+02  0.7816164E-02  0.1226707E+00
        -11   -1    0    0    0    0  0.00000000000E+00  0.00000000000E+00  0.45593999997E+02  0.45594000000E+02  0.51100000000E-03 0.  1.
         11   -1    0    0    0    0 -0.00000000000E+00 -0.00000000000E+00 -0.45593999997E+02  0.45594000000E+02  0.51100000000E-03 0. -1.
    9900012    2    1    2    0    0  0.45387877080E+01  0.70992258745E+01 -0.16723098262E+02  0.72462038947E+02  0.70000610504E+02 0.  0.
        -12    1    1    2    0    0 -0.45387877080E+01 -0.70992258745E+01  0.16723098262E+02  0.18725961053E+02  0.00000000000E+00 0.  1.
         11    1    3    3    0    0 -0.73493900187E+01 -0.10339165902E+01  0.41079002618E+01  0.84827685330E+01  0.51100000000E-03 0. -1.
        -11    1    3    3    0    0  0.14371358246E+02 -0.10622548548E+02  0.15083922431E+02  0.23385875901E+02  0.51100000000E-03 0.  1.
         12    1    3    3    0    0 -0.24831805192E+01  0.18755691013E+02 -0.35914920955E+02  0.40593394513E+02  0.00000000000E+00 0. -1.
</event>
<event>
 7    1  0.2700104E-013  0.7246162E+02  0.7816164E-02  0.1226708E+00
        -11   -1    0    0    0    0  0.00000000000E+00  0.00000000000E+00  0.45593999997E+02  0.45594000000E+02  0.51100000000E-03 0. -1.
         11   -1    0    0    0    0 -0.00000000000E+00 -0.00000000000E+00 -0.45593999997E+02  0.45594000000E+02  0.51100000000E-03 0.  1.
    9900012    2    1    2    0    0 -0.17269510620E+02  0.27372161144E+01  0.67044068180E+01  0.72461617010E+02  0.70000060855E+02 0.  0.
        -12    1    1    2    0    0  0.17269510620E+02 -0.27372161144E+01 -0.67044068180E+01  0.18726382990E+02  0.00000000000E+00 0.  1.
         11    1    3    3    0    0 -0.42844192027E+01  0.21122061916E+02  0.33346488266E+00  0.21554789412E+02  0.51100000000E-03 0. -1.
        -11    1    3    3    0    0  0.20778325875E+01  0.14248416236E+02  0.36937096093E+01  0.14865337011E+02  0.51100000000E-03 0.  1.
        -12    1    3    3    0    0 -0.15062924005E+02 -0.32633262038E+02  0.26772323261E+01  0.36041490587E+02  0.00000000000E+00 0.  1.
</event>
<event>
 7    1  0.2700104E-013  0.7246162E+02  0.7816164E-02  0.1226708E+00
        -11   -1    0    0    0    0  0.00000000000E+00  0.00000000000E+00  0.45593999997E+02  0.45594000000E+02  0.51100000000E-03 0.  1.
         11   -1    0    0    0    0 -0.00000000000E+00 -0.00000000000E+00 -0.45593999997E+02  0.45594000000E+02  0.51100000000E-03 0. -1.
    9900012    2    1    2    0    0 -0.14055103613E+02 -0.94952069022E+01 -0.79355247042E+01  0.72461616366E+02  0.70000060016E+02 0.  0.
        -12    1    1    2    0    0  0.14055103613E+02  0.94952069022E+01  0.79355247042E+01  0.18726383634E+02  0.00000000000E+00 0.  1.
         11    1    3    3    0    0 -0.27707597028E+02 -0.69353672630E+01 -0.24798584477E+02  0.37825653259E+02  0.51100000000E-03 0. -1.
        -11    1    3    3    0    0 -0.24745446384E+01  0.43634971908E+00 -0.59956820643E+01  0.65009211595E+01  0.51100000000E-03 0.  1.
        -12    1    3    3    0    0  0.16127038053E+02 -0.29961893583E+01  0.22858741837E+02  0.28135041948E+02  0.00000000000E+00 0.  1.
</event>
<event>
 7    1  0.2700104E-013  0.7246157E+02  0.7816164E-02  0.1226708E+00
        -11   -1    0    0    0    0  0.00000000000E+00  0.00000000000E+00  0.45593999997E+02  0.45594000000E+02  0.51100000000E-03 0.  1.
         11   -1    0    0    0    0 -0.00000000000E+00 -0.00000000000E+00 -0.45593999997E+02  0.45594000000E+02  0.51100000000E-03 0. -1.
    9900012    2    1    2    0    0  0.87056378683E+01  0.96682331509E+01 -0.13469085747E+02  0.72461571248E+02  0.70000001242E+02 0.  0.
        -12    1    1    2    0    0 -0.87056378683E+01 -0.96682331509E+01  0.13469085747E+02  0.18726428752E+02  0.00000000000E+00 0.  1.
         11    1    3    3    0    0  0.22408806858E+02  0.13342261856E+02 -0.16488200205E+02  0.30855004821E+02  0.51100000000E-03 0. -1.
        -11    1    3    3    0    0  0.38926814261E+01 -0.10756576176E+02 -0.12612678000E+02  0.17027523199E+02  0.51100000000E-03 0.  1.
        -12    1    3    3    0    0 -0.17595850416E+02  0.70825474713E+01  0.15631792458E+02  0.24579043228E+02  0.00000000000E+00 0.  1.
</event>
<event>
 7    1  0.2700104E-013  0.7246108E+02  0.7816164E-02  0.1226709E+00
        -11   -1    0    0    0    0  0.00000000000E+00  0.00000000000E+00  0.45593999997E+02  0.45594000000E+02  0.51100000000E-03 0.  1.
         11   -1    0    0    0    0 -0.00000000000E+00 -0.00000000000E+00 -0.45593999997E+02  0.45594000000E+02  0.51100000000E-03 0. -1.
    9900012    2    1    2    0    0 -0.61887343806E+01 -0.16906259565E+02 -0.51551273516E+01  0.72461083977E+02  0.69999366479E+02 0.  0.
        -12    1    1    2    0    0  0.61887343806E+01  0.16906259565E+02  0.51551273516E+01  0.18726916023E+02  0.00000000000E+00 0.  1.
         11    1    3    3    0    0 -0.56763681750E+01 -0.65786371467E+01 -0.15483997838E+02  0.17755388244E+02  0.51100000000E-03 0. -1.
        -11    1    3    3    0    0  0.42159711236E+01 -0.20838990605E+02 -0.15573480908E+02  0.26354719687E+02  0.51100000000E-03 0.  1.
        -12    1    3    3    0    0 -0.47283373292E+01  0.10511368186E+02  0.25902351394E+02  0.28350976047E+02  0.00000000000E+00 0.  1.
</event>
<event>
 7    1  0.2700104E-013  0.7246158E+02  0.7816164E-02  0.1226708E+00
        -11   -1    0    0    0    0  0.00000000000E+00  0.00000000000E+00  0.45593999997E+02  0.45594000000E+02  0.51100000000E-03 0.  1.
         11   -1    0    0    0    0 -0.00000000000E+00 -0.00000000000E+00 -0.45593999997E+02  0.45594000000E+02  0.51100000000E-03 0. -1.
    9900012    2    1    2    0    0 -0.22319592662E+01  0.18268962070E+02  0.34557412165E+01  0.72461581105E+02  0.70000014082E+02 0.  0.
        -12    1    1    2    0    0  0.22319592662E+01 -0.18268962070E+02 -0.34557412165E+01  0.18726418895E+02  0.00000000000E+00 0.  1.
         11    1    3    3    0    0  0.19057927492E+02 -0.85134269408E+01 -0.17526165374E+02  0.27255265758E+02  0.51100000000E-03 0. -1.
        -11    1    3    3    0    0 -0.13162404343E+01  0.55103873996E+01  0.14143783082E+02  0.15236254734E+02  0.51100000000E-03 0.  1.
        -12    1    3    3    0    0 -0.19973646324E+02  0.21272001612E+02  0.68381235080E+01  0.29970060613E+02  0.00000000000E+00 0.  1.
</event>
<event>
 7    1  0.2700104E-013  0.7246153E+02  0.7816164E-02  0.1226708E+00
        -11   -1    0    0    0    0  0.00000000000E+00  0.00000000000E+00  0.45593999997E+02  0.45594000000E+02  0.51100000000E-03 0.  1.
         11   -1    0    0    0    0 -0.00000000000E+00 -0.00000000000E+00 -0.45593999997E+02  0.45594000000E+02  0.51100000000E-03 0. -1.
    9900012    2    1    2    0    0  0.12492850914E+02 -0.23314353042E+00 -0.13948292263E+02  0.72461533785E+02  0.69999952440E+02 0.  0.
        -12    1    1    2    0    0 -0.12492850914E+02  0.23314353042E+00  0.13948292263E+02  0.18726466215E+02  0.00000000000E+00 0.  1.
         11    1    3    3    0    0  0.11078694033E+01 -0.36946140239E+01 -0.40166797689E+01  0.55687758105E+01  0.51100000000E-03 0. -1.
        -11    1    3    3    0    0  0.28360196621E+02 -0.19846433147E+02 -0.14807790243E+02  0.37649067892E+02  0.51100000000E-03 0.  1.
         12    1    3    3    0    0 -0.16975215110E+02  0.23307903641E+02  0.48761777492E+01  0.29243690082E+02  0.00000000000E+00 0. -1.
</event>
<event>
 7    1  0.2700104E-013  0.7246156E+02  0.7816164E-02  0.1226708E+00
        -11   -1    0    0    0    0  0.00000000000E+00  0.00000000000E+00  0.45593999997E+02  0.45594000000E+02  0.51100000000E-03 0.  1.
         11   -1    0    0    0    0 -0.00000000000E+00 -0.00000000000E+00 -0.45593999997E+02  0.45594000000E+02  0.51100000000E-03 0. -1.
    9900012    2    1    2    0    0 -0.11894831772E+02 -0.81140351007E+01  0.11973089276E+02  0.72461562663E+02  0.69999990059E+02 0.  0.
        -12    1    1    2    0    0  0.11894831772E+02  0.81140351007E+01 -0.11973089276E+02  0.18726437337E+02  0.00000000000E+00 0.  1.
         11    1    3    3    0    0 -0.21373720156E+02 -0.11407672649E+02  0.11453126202E+01  0.24254538747E+02  0.51100000000E-03 0. -1.
        -11    1    3    3    0    0  0.45172992092E+01  0.24631410592E+02  0.65755807810E+01  0.25891130581E+02  0.51100000000E-03 0.  1.
         12    1    3    3    0    0  0.49615891751E+01 -0.21337773043E+02  0.42521958750E+01  0.22315893335E+02  0.00000000000E+00 0. -1.
</event>
<event>
 7    1  0.2700104E-013  0.7246152E+02  0.7816164E-02  0.1226708E+00
        -11   -1    0    0    0    0  0.00000000000E+00  0.00000000000E+00  0.45593999997E+02  0.45594000000E+02  0.51100000000E-03 0.  1.
         11   -1    0    0    0    0 -0.00000000000E+00 -0.00000000000E+00 -0.45593999997E+02  0.45594000000E+02  0.51100000000E-03 0. -1.
    9900012    2    1    2    0    0 -0.73469788275E+01 -0.11260551786E+01 -0.17188216446E+02  0.72461524550E+02  0.69999940410E+02 0.  0.
        -12    1    1    2    0    0  0.73469788275E+01  0.11260551786E+01  0.17188216446E+02  0.18726475450E+02  0.00000000000E+00 0.  1.
         11    1    3    3    0    0 -0.20427137576E+02 -0.66692697848E+01 -0.28878701141E+02  0.35996201034E+02  0.51100000000E-03 0. -1.
        -11    1    3    3    0    0  0.17995901024E+02  0.74200908235E+01 -0.40379868984E+01  0.19880028671E+02  0.51100000000E-03 0.  1.
        -12    1    3    3    0    0 -0.49157422757E+01 -0.18768762173E+01  0.15728471593E+02  0.16585294845E+02  0.00000000000E+00 0.  1.
</event>
<event>
 7    1  0.2700104E-013  0.7246166E+02  0.7816164E-02  0.1226708E+00
        -11   -1    0    0    0    0  0.00000000000E+00  0.00000000000E+00  0.45593999997E+02  0.45594000000E+02  0.51100000000E-03 0.  1.
         11   -1    0    0    0    0 -0.00000000000E+00 -0.00000000000E+00 -0.45593999997E+02  0.45594000000E+02  0.51100000000E-03 0. -1.
    9900012    2    1    2    0    0  0.13609529649E+02  0.11101579820E+02 -0.64970410473E+01  0.72461657214E+02  0.70000113229E+02 0.  0.
        -12    1    1    2    0    0 -0.13609529649E+02 -0.11101579820E+02  0.64970410473E+01  0.18726342786E+02  0.00000000000E+00 0.  1.
         11    1    3    3    0    0  0.32565850084E+02  0.17159271694E+02 -0.89248459310E+01  0.37876484419E+02  0.51100000000E-03 0. -1.
        -11    1    3    3    0    0  0.60130453853E+01 -0.61476990870E+01  0.41655558106E+01  0.95552485233E+01  0.51100000000E-03 0.  1.
        -12    1    3    3    0    0 -0.24969365821E+02  0.90007212797E-01 -0.17377509268E+01  0.25029924272E+02  0.00000000000E+00 0.  1.
</event>
<event>
 7    1  0.2700104E-013  0.7246154E+02  0.7816164E-02  0.1226708E+00
        -11   -1    0    0    0    0  0.00000000000E+00  0.00000000000E+00  0.45593999997E+02  0.45594000000E+02  0.51100000000E-03 0.  1.
         11   -1    0    0    0    0 -0.00000000000E+00 -0.00000000000E+00 -0.45593999997E+02  0.45594000000E+02  0.51100000000E-03 0. -1.
    9900012    2    1    2    0    0 -0.10800958249E+02 -0.54390663617E+01  0.14298114799E+02  0.72461542012E+02  0.69999963156E+02 0.  0.
        -12    1    1    2    0    0  0.10800958249E+02  0.54390663617E+01 -0.14298114799E+02  0.18726457988E+02  0.00000000000E+00 0.  1.
         11    1    3    3    0    0  0.44279233950E+01 -0.20635570348E+02 -0.54348483816E+01  0.21793825877E+02  0.51100000000E-03 0. -1.
        -11    1    3    3    0    0  0.11706502231E+01  0.36105778507E+01  0.28504512933E+02  0.28756111562E+02  0.51100000000E-03 0.  1.
        -12    1    3    3    0    0 -0.16399531867E+02  0.11585926136E+02 -0.87715497523E+01  0.21911604572E+02  0.00000000000E+00 0.  1.
</event>
<event>
 7    1  0.2700104E-013  0.7246156E+02  0.7816164E-02  0.1226708E+00
        -11   -1    0    0    0    0  0.00000000000E+00  0.00000000000E+00  0.45593999997E+02  0.45594000000E+02  0.51100000000E-03 0. -1.
         11   -1    0    0    0    0 -0.00000000000E+00 -0.00000000000E+00 -0.45593999997E+02  0.45594000000E+02  0.51100000000E-03 0.  1.
    9900012    2    1    2    0    0 -0.17207650869E+02  0.66540471943E+01  0.32093815080E+01  0.72461555539E+02  0.69999980778E+02 0.  0.
        -12    1    1    2    0    0  0.17207650869E+02 -0.66540471943E+01 -0.32093815080E+01  0.18726444461E+02  0.00000000000E+00 0.  1.
         11    1    3    3    0    0 -0.22245470772E+02 -0.12672661692E+01 -0.68479857243E+01  0.23310123169E+02  0.51100000000E-03 0. -1.
        -11    1    3    3    0    0 -0.14461072914E+02  0.19249099598E+02 -0.87253569564E+00  0.24091736840E+02  0.51100000000E-03 0.  1.
         12    1    3    3    0    0  0.19498892817E+02 -0.11327786234E+02  0.10929902928E+02  0.25059695530E+02  0.00000000000E+00 0. -1.
</event>
<event>
 7    1  0.2700104E-013  0.7246161E+02  0.7816164E-02  0.1226708E+00
        -11   -1    0    0    0    0  0.00000000000E+00  0.00000000000E+00  0.45593999997E+02  0.45594000000E+02  0.51100000000E-03 0. -1.
         11   -1    0    0    0    0 -0.00000000000E+00 -0.00000000000E+00 -0.45593999997E+02  0.45594000000E+02  0.51100000000E-03 0.  1.
    9900012    2    1    2    0    0 -0.69410252006E+01 -0.17204514949E+02  0.25503762270E+01  0.72461612619E+02  0.70000055135E+02 0.  0.
        -12    1    1    2    0    0  0.69410252006E+01  0.17204514949E+02 -0.25503762270E+01  0.18726387381E+02  0.00000000000E+00 0.  1.
         11    1    3    3    0    0 -0.14810632664E+02 -0.16494845831E+02 -0.57559237717E+01  0.22903393583E+02  0.51100000000E-03 0. -1.
        -11    1    3    3    0    0 -0.10014658229E+02 -0.15612773282E+02 -0.89355496679E+01  0.20588737628E+02  0.51100000000E-03 0.  1.
        -12    1    3    3    0    0  0.17884265692E+02  0.14903104165E+02  0.17241849667E+02  0.28969481407E+02  0.00000000000E+00 0.  1.
</event>
<event>
 7    1  0.2700104E-013  0.7246152E+02  0.7816164E-02  0.1226708E+00
        -11   -1    0    0    0    0  0.00000000000E+00  0.00000000000E+00  0.45593999997E+02  0.45594000000E+02  0.51100000000E-03 0.  1.
         11   -1    0    0    0    0 -0.00000000000E+00 -0.00000000000E+00 -0.45593999997E+02  0.45594000000E+02  0.51100000000E-03 0. -1.
    9900012    2    1    2    0    0  0.15989566832E+02 -0.94823922832E+00 -0.97013295355E+01  0.72461516083E+02  0.69999929380E+02 0.  0.
        -12    1    1    2    0    0 -0.15989566832E+02  0.94823922832E+00  0.97013295355E+01  0.18726483917E+02  0.00000000000E+00 0.  1.
         11    1    3    3    0    0 -0.17939111123E+00  0.63165545170E+01  0.19862486186E+02  0.20843449808E+02  0.51100000000E-03 0. -1.
        -11    1    3    3    0    0 -0.60757246090E+01 -0.12074899452E+02  0.95108757829E+00  0.13550726702E+02  0.51100000000E-03 0.  1.
         12    1    3    3    0    0  0.22244682553E+02  0.48101057072E+01 -0.30514903300E+02  0.38067339573E+02  0.00000000000E+00 0. -1.
</event>
<event>
 7    1  0.2700104E-013  0.7246160E+02  0.7816164E-02  0.1226708E+00
        -11   -1    0    0    0    0  0.00000000000E+00  0.00000000000E+00  0.45593999997E+02  0.45594000000E+02  0.51100000000E-03 0. -1.
         11   -1    0    0    0    0 -0.00000000000E+00 -0.00000000000E+00 -0.45593999997E+02  0.45594000000E+02  0.51100000000E-03 0.  1.
    9900012    2    1    2    0    0 -0.64766467248E+01 -0.10041292814E+02  0.14418866023E+02  0.72461595872E+02  0.70000033320E+02 0.  0.
        -12    1    1    2    0    0  0.64766467248E+01  0.10041292814E+02 -0.14418866023E+02  0.18726404128E+02  0.00000000000E+00 0.  1.
         11    1    3    3    0    0 -0.20700531631E+02 -0.72052482531E+01 -0.82644487426E+01  0.23424959455E+02  0.51100000000E-03 0. -1.
        -11    1    3    3    0    0 -0.11045043229E+00 -0.88198132645E+00 -0.11700027986E+02  0.11733743882E+02  0.51100000000E-03 0.  1.
         12    1    3    3    0    0  0.14334335338E+02 -0.19540632341E+01  0.34383342752E+02  0.37302892535E+02  0.00000000000E+00 0. -1.
</event>
<event>
 7    1  0.2700104E-013  0.7246151E+02  0.7816164E-02  0.1226708E+00
        -11   -1    0    0    0    0  0.00000000000E+00  0.00000000000E+00  0.45593999997E+02  0.45594000000E+02  0.51100000000E-03 0. -1.
         11   -1    0    0    0    0 -0.00000000000E+00 -0.00000000000E+00 -0.45593999997E+02  0.45594000000E+02  0.51100000000E-03 0.  1.
    9900012    2    1    2    0    0  0.15481993604E+02 -0.92485676869E+01  0.50451303385E+01  0.72461508862E+02  0.69999919973E+02 0.  0.
        -12    1    1    2    0    0 -0.15481993604E+02  0.92485676869E+01 -0.50451303385E+01  0.18726491138E+02  0.00000000000E+00 0.  1.
         11    1    3    3    0    0  0.79927314653E+01  0.32900895193E+00 -0.97793245929E+01  0.12634365553E+02  0.51100000000E-03 0. -1.
        -11    1    3    3    0    0  0.96376113735E+01 -0.11393723804E+02 -0.19964004634E+02  0.24925127410E+02  0.51100000000E-03 0.  1.
         12    1    3    3    0    0 -0.21483492353E+01  0.18161471648E+01  0.34788459565E+02  0.34902015900E+02  0.00000000000E+00 0. -1.
</event>
<event>
 7    1  0.2700104E-013  0.7246226E+02  0.7816164E-02  0.1226706E+00
        -11   -1    0    0    0    0  0.00000000000E+00  0.00000000000E+00  0.45593999997E+02  0.45594000000E+02  0.51100000000E-03 0.  1.
         11   -1    0    0    0    0 -0.00000000000E+00 -0.00000000000E+00 -0.45593999997E+02  0.45594000000E+02  0.51100000000E-03 0. -1.
    9900012    2    1    2    0    0  0.53794369355E+01  0.13351104919E+02 -0.11977603312E+02  0.72462260351E+02  0.70000898921E+02 0.  0.
        -12    1    1    2    0    0 -0.53794369355E+01 -0.13351104919E+02  0.11977603312E+02  0.18725739649E+02  0.00000000000E+00 0.  1.
         11    1    3    3    0    0 -0.18963713990E+02 -0.13359661860E+02 -0.15672125912E+02  0.27994973552E+02  0.51100000000E-03 0. -1.
        -11    1    3    3    0    0  0.35698391664E+01  0.56653010203E+01 -0.98752328061E+01  0.11931454671E+02  0.51100000000E-03 0.  1.
        -12    1    3    3    0    0  0.20773311759E+02  0.21045465759E+02  0.13569755406E+02  0.32535832128E+02  0.00000000000E+00 0.  1.
</event>
<event>
 7    1  0.2700104E-013  0.7246158E+02  0.7816164E-02  0.1226708E+00
        -11   -1    0    0    0    0  0.00000000000E+00  0.00000000000E+00  0.45593999997E+02  0.45594000000E+02  0.51100000000E-03 0. -1.
         11   -1    0    0    0    0 -0.00000000000E+00 -0.00000000000E+00 -0.45593999997E+02  0.45594000000E+02  0.51100000000E-03 0.  1.
    9900012    2    1    2    0    0  0.39348240463E+01  0.13232955378E+02  0.12652470031E+02  0.72461576257E+02  0.70000007768E+02 0.  0.
        -12    1    1    2    0    0 -0.39348240463E+01 -0.13232955378E+02 -0.12652470031E+02  0.18726423743E+02  0.00000000000E+00 0.  1.
         11    1    3    3    0    0  0.62688372132E+01 -0.38151998892E+01 -0.18249119524E+01  0.75620350499E+01  0.51100000000E-03 0. -1.
        -11    1    3    3    0    0 -0.30029932280E+02 -0.83255784225E+00  0.98202279326E+01  0.31605804249E+02  0.51100000000E-03 0.  1.
         12    1    3    3    0    0  0.27695919113E+02  0.17880713109E+02  0.46571540505E+01  0.33293736959E+02  0.00000000000E+00 0. -1.
</event>
<event>
 7    1  0.2700104E-013  0.7246160E+02  0.7816164E-02  0.1226708E+00
        -11   -1    0    0    0    0  0.00000000000E+00  0.00000000000E+00  0.45593999997E+02  0.45594000000E+02  0.51100000000E-03 0.  1.
         11   -1    0    0    0    0 -0.00000000000E+00 -0.00000000000E+00 -0.45593999997E+02  0.45594000000E+02  0.51100000000E-03 0. -1.
    9900012    2    1    2    0    0 -0.95441228108E+00 -0.17692346736E+02 -0.60620249915E+01  0.72461596639E+02  0.70000034319E+02 0.  0.
        -12    1    1    2    0    0  0.95441228108E+00  0.17692346736E+02  0.60620249915E+01  0.18726403361E+02  0.00000000000E+00 0.  1.
         11    1    3    3    0    0  0.25194051683E+01  0.20781751120E+01 -0.79807013802E+01  0.86230974121E+01  0.51100000000E-03 0. -1.
        -11    1    3    3    0    0  0.24829503929E+02  0.48181486119E+01 -0.48130707747E+01  0.25746542912E+02  0.51100000000E-03 0.  1.
         12    1    3    3    0    0 -0.28303321378E+02 -0.24588670460E+02  0.67317471634E+01  0.38091956315E+02  0.00000000000E+00 0. -1.
</event>
<event>
 7    1  0.2700104E-013  0.7246159E+02  0.7816164E-02  0.1226708E+00
        -11   -1    0    0    0    0  0.00000000000E+00  0.00000000000E+00  0.45593999997E+02  0.45594000000E+02  0.51100000000E-03 0.  1.
         11   -1    0    0    0    0 -0.00000000000E+00 -0.00000000000E+00 -0.45593999997E+02  0.45594000000E+02  0.51100000000E-03 0. -1.
    9900012    2    1    2    0    0 -0.56857657047E+01  0.55671696808E+01 -0.16951607672E+02  0.72461593175E+02  0.70000029806E+02 0.  0.
        -12    1    1    2    0    0  0.56857657047E+01 -0.55671696808E+01  0.16951607672E+02  0.18726406825E+02  0.00000000000E+00 0.  1.
         11    1    3    3    0    0 -0.71651722990E+01  0.16845973709E+02  0.99978811714E+01  0.20858670918E+02  0.51100000000E-03 0. -1.
        -11    1    3    3    0    0  0.34401196865E+01 -0.17505894366E+02  0.53694423598E+01  0.18631201586E+02  0.51100000000E-03 0.  1.
        -12    1    3    3    0    0 -0.19607130922E+01  0.62270903385E+01 -0.32318931203E+02  0.32971720672E+02  0.00000000000E+00 0.  1.
</event>
<event>
 7    1  0.2700104E-013  0.7246161E+02  0.7816164E-02  0.1226708E+00
        -11   -1    0    0    0    0  0.00000000000E+00  0.00000000000E+00  0.45593999997E+02  0.45594000000E+02  0.51100000000E-03 0.  1.
         11   -1    0    0    0    0 -0.00000000000E+00 -0.00000000000E+00 -0.45593999997E+02  0.45594000000E+02  0.51100000000E-03 0. -1.
    9900012    2    1    2    0    0 -0.18185365170E+02 -0.19253367582E+01  0.40327890535E+01  0.72461606446E+02  0.70000047094E+02 0.  0.
        -12    1    1    2    0    0  0.18185365170E+02  0.19253367582E+01 -0.40327890535E+01  0.18726393554E+02  0.00000000000E+00 0.  1.
         11    1    3    3    0    0 -0.30649870378E+02  0.98708918147E+01  0.73769211014E+01  0.33034346136E+02  0.51100000000E-03 0. -1.
        -11    1    3    3    0    0  0.36367840241E+01 -0.10281470039E+02  0.15273375738E+02  0.18767280860E+02  0.51100000000E-03 0.  1.
         12    1    3    3    0    0  0.88277211842E+01 -0.15147585344E+01 -0.18617507786E+02  0.20659979450E+02  0.00000000000E+00 0. -1.
</event>
<event>
 7    1  0.2700104E-013  0.7246155E+02  0.7816164E-02  0.1226708E+00
        -11   -1    0    0    0    0  0.00000000000E+00  0.00000000000E+00  0.45593999997E+02  0.45594000000E+02  0.51100000000E-03 0.  1.
         11   -1    0    0    0    0 -0.00000000000E+00 -0.00000000000E+00 -0.45593999997E+02  0.45594000000E+02  0.51100000000E-03 0. -1.
    9900012    2    1    2    0    0  0.55451946978E+01 -0.45656269887E+01 -0.17294100802E+02  0.72461546609E+02  0.69999969146E+02 0.  0.
        -12    1    1    2    0    0 -0.55451946978E+01  0.45656269887E+01  0.17294100802E+02  0.18726453391E+02  0.00000000000E+00 0.  1.
         11    1    3    3    0    0 -0.56243693673E+01  0.89603141963E+01 -0.27153430386E+02  0.29141543255E+02  0.51100000000E-03 0. -1.
        -11    1    3    3    0    0 -0.11605215325E+02 -0.96812139908E+01 -0.49263317663E+01  0.15895775288E+02  0.51100000000E-03 0.  1.
        -12    1    3    3    0    0  0.22774779390E+02 -0.38447271941E+01  0.14785661350E+02  0.27424228066E+02  0.00000000000E+00 0.  1.
</event>
<event>
 7    1  0.2700104E-013  0.7246161E+02  0.7816164E-02  0.1226708E+00
        -11   -1    0    0    0    0  0.00000000000E+00  0.00000000000E+00  0.45593999997E+02  0.45594000000E+02  0.51100000000E-03 0. -1.
         11   -1    0    0    0    0 -0.00000000000E+00 -0.00000000000E+00 -0.45593999997E+02  0.45594000000E+02  0.51100000000E-03 0.  1.
    9900012    2    1    2    0    0 -0.50942155775E+01 -0.14092119031E+02  0.11231150236E+02  0.72461612554E+02  0.70000055051E+02 0.  0.
        -12    1    1    2    0    0  0.50942155775E+01  0.14092119031E+02 -0.11231150236E+02  0.18726387446E+02  0.00000000000E+00 0.  1.
         11    1    3    3    0    0 -0.15296817193E+01 -0.35693142675E+01 -0.14945528810E+01  0.41609637199E+01  0.51100000000E-03 0. -1.
        -11    1    3    3    0    0 -0.27874480318E+02 -0.14535523710E+02 -0.11759799128E+02  0.33564281287E+02  0.51100000000E-03 0.  1.
         12    1    3    3    0    0  0.24309946460E+02  0.40127189463E+01  0.24485502245E+02  0.34736367548E+02  0.00000000000E+00 0. -1.
</event>
<event>
 7    1  0.2700104E-013  0.7246170E+02  0.7816164E-02  0.1226708E+00
        -11   -1    0    0    0    0  0.00000000000E+00  0.00000000000E+00  0.45593999997E+02  0.45594000000E+02  0.51100000000E-03 0.  1.
         11   -1    0    0    0    0 -0.00000000000E+00 -0.00000000000E+00 -0.45593999997E+02  0.45594000000E+02  0.51100000000E-03 0. -1.
    9900012    2    1    2    0    0  0.14709945377E+01  0.17377901835E+02 -0.68204976027E+01  0.72461695381E+02  0.70000162949E+02 0.  0.
        -12    1    1    2    0    0 -0.14709945377E+01 -0.17377901835E+02  0.68204976027E+01  0.18726304619E+02  0.00000000000E+00 0.  1.
         11    1    3    3    0    0 -0.69111200571E+01 -0.40068951731E+01 -0.20315470318E+02  0.21829730275E+02  0.51100000000E-03 0. -1.
        -11    1    3    3    0    0  0.69367806409E+01  0.50030320520E+01 -0.15267534603E+02  0.17499910528E+02  0.51100000000E-03 0.  1.
        -12    1    3    3    0    0  0.14453339539E+01  0.16381764956E+02  0.28762507319E+02  0.33132054578E+02  0.00000000000E+00 0.  1.
</event>
<event>
 7    1  0.2700104E-013  0.7246153E+02  0.7816164E-02  0.1226708E+00
        -11   -1    0    0    0    0  0.00000000000E+00  0.00000000000E+00  0.45593999997E+02  0.45594000000E+02  0.51100000000E-03 0.  1.
         11   -1    0    0    0    0 -0.00000000000E+00 -0.00000000000E+00 -0.45593999997E+02  0.45594000000E+02  0.51100000000E-03 0. -1.
    9900012    2    1    2    0    0 -0.29794412275E+01  0.13578019689E+00 -0.18487429382E+02  0.72461533397E+02  0.69999951934E+02 0.  0.
        -12    1    1    2    0    0  0.29794412275E+01 -0.13578019689E+00  0.18487429382E+02  0.18726466603E+02  0.00000000000E+00 0.  1.
         11    1    3    3    0    0 -0.36744024560E+01 -0.30064639655E+02  0.17749098376E+00  0.30288864196E+02  0.51100000000E-03 0. -1.
        -11    1    3    3    0    0 -0.54602215271E+01  0.13839126881E+02  0.21049903767E+01  0.15025526171E+02  0.51100000000E-03 0.  1.
        -12    1    3    3    0    0  0.61551827556E+01  0.16361292970E+02 -0.20769910742E+02  0.27147143030E+02  0.00000000000E+00 0.  1.
</event>
<event>
 7    1  0.2700104E-013  0.7246167E+02  0.7816164E-02  0.1226708E+00
        -11   -1    0    0    0    0  0.00000000000E+00  0.00000000000E+00  0.45593999997E+02  0.45594000000E+02  0.51100000000E-03 0.  1.
         11   -1    0    0    0    0 -0.00000000000E+00 -0.00000000000E+00 -0.45593999997E+02  0.45594000000E+02  0.51100000000E-03 0. -1.
    9900012    2    1    2    0    0 -0.18010474024E+02 -0.66270179883E+00  0.50851932730E+01  0.72461667234E+02  0.70000126282E+02 0.  0.
        -12    1    1    2    0    0  0.18010474024E+02  0.66270179883E+00 -0.50851932730E+01  0.18726332766E+02  0.00000000000E+00 0.  1.
         11    1    3    3    0    0 -0.42079248530E+01 -0.56319431864E+00 -0.18484793502E+02  0.18966059435E+02  0.51100000000E-03 0. -1.
        -11    1    3    3    0    0 -0.12544407534E+01 -0.20501630628E+02  0.96751656441E+00  0.20562747107E+02  0.51100000000E-03 0.  1.
         12    1    3    3    0    0 -0.12548108417E+02  0.20402123148E+02  0.22602470211E+02  0.32932860693E+02  0.00000000000E+00 0. -1.
</event>
<event>
 7    1  0.2700104E-013  0.7246156E+02  0.7816164E-02  0.1226708E+00
        -11   -1    0    0    0    0  0.00000000000E+00  0.00000000000E+00  0.45593999997E+02  0.45594000000E+02  0.51100000000E-03 0.  1.
         11   -1    0    0    0    0 -0.00000000000E+00 -0.00000000000E+00 -0.45593999997E+02  0.45594000000E+02  0.51100000000E-03 0. -1.
    9900012    2    1    2    0    0 -0.31503346898E+01  0.13384513420E+02 -0.12712583269E+02  0.72461559294E+02  0.69999985670E+02 0.  0.
        -12    1    1    2    0    0  0.31503346898E+01 -0.13384513420E+02  0.12712583269E+02  0.18726440706E+02  0.00000000000E+00 0.  1.
         11    1    3    3    0    0  0.14221476679E+02 -0.85489861036E+01  0.88343902263E+01  0.18798457736E+02  0.51100000000E-03 0.  1.
        -11    1    3    3    0    0 -0.29176670498E+02  0.11409442209E+02 -0.68389096805E+01  0.32065934553E+02  0.51100000000E-03 0. -1.
         12    1    3    3    0    0  0.11804859130E+02  0.10524057315E+02 -0.14708063815E+02  0.21597167005E+02  0.00000000000E+00 0. -1.
</event>
<event>
 7    1  0.2700104E-013  0.7246156E+02  0.7816164E-02  0.1226708E+00
        -11   -1    0    0    0    0  0.00000000000E+00  0.00000000000E+00  0.45593999997E+02  0.45594000000E+02  0.51100000000E-03 0.  1.
         11   -1    0    0    0    0 -0.00000000000E+00 -0.00000000000E+00 -0.45593999997E+02  0.45594000000E+02  0.51100000000E-03 0. -1.
    9900012    2    1    2    0    0  0.10574016898E+02 -0.15151876568E+02  0.30480081618E+01  0.72461560118E+02  0.69999986744E+02 0.  0.
        -12    1    1    2    0    0 -0.10574016898E+02  0.15151876568E+02 -0.30480081618E+01  0.18726439882E+02  0.00000000000E+00 0.  1.
         11    1    3    3    0    0 -0.32727295811E+01 -0.46743866094E+01  0.52407833868E+01  0.77476744803E+01  0.51100000000E-03 0. -1.
        -11    1    3    3    0    0 -0.14054578201E+02 -0.17618960711E+02  0.18575299691E+02  0.29206175782E+02  0.51100000000E-03 0.  1.
         12    1    3    3    0    0  0.27901324681E+02  0.71414707529E+01 -0.20768074916E+02  0.35507709855E+02  0.00000000000E+00 0. -1.
</event>
<event>
 7    1  0.2813611E-013  0.7246152E+02  0.7816164E-02  0.1226708E+00
        -11   -1    0    0    0    0  0.00000000000E+00  0.00000000000E+00  0.45593999997E+02  0.45594000000E+02  0.51100000000E-03 0. -1.
         11   -1    0    0    0    0 -0.00000000000E+00 -0.00000000000E+00 -0.45593999997E+02  0.45594000000E+02  0.51100000000E-03 0.  1.
    9900012    2    1    2    0    0 -0.44326251907E+01  0.81160139744E+01  0.16283831230E+02  0.72461521195E+02  0.69999936038E+02 0.  0.
        -12    1    1    2    0    0  0.44326251907E+01 -0.81160139744E+01 -0.16283831230E+02  0.18726478805E+02  0.00000000000E+00 0.  1.
         11    1    3    3    0    0 -0.15381242842E+02 -0.51374961829E+01  0.46398739886E+01  0.16867273914E+02  0.51100000000E-03 0. -1.
        -11    1    3    3    0    0  0.16097929045E+02 -0.46250257093E+01 -0.15410363565E+02  0.22759909662E+02  0.51100000000E-03 0.  1.
         12    1    3    3    0    0 -0.51493113942E+01  0.17878535867E+02  0.27054320807E+02  0.32834337619E+02  0.00000000000E+00 0. -1.
</event>
<event>
 7    1  0.2700104E-013  0.7246156E+02  0.7816164E-02  0.1226708E+00
        -11   -1    0    0    0    0  0.00000000000E+00  0.00000000000E+00  0.45593999997E+02  0.45594000000E+02  0.51100000000E-03 0. -1.
         11   -1    0    0    0    0 -0.00000000000E+00 -0.00000000000E+00 -0.45593999997E+02  0.45594000000E+02  0.51100000000E-03 0.  1.
    9900012    2    1    2    0    0  0.12289551019E+02 -0.49968254220E+01  0.13216595320E+02  0.72461555586E+02  0.69999980839E+02 0.  0.
        -12    1    1    2    0    0 -0.12289551019E+02  0.49968254220E+01 -0.13216595320E+02  0.18726444414E+02  0.00000000000E+00 0.  1.
         11    1    3    3    0    0  0.23217884779E+02 -0.74899234694E+01  0.55827213590E+01  0.25026703842E+02  0.51100000000E-03 0. -1.
        -11    1    3    3    0    0  0.17200554498E+02 -0.13055201090E+01 -0.22124203731E+01  0.17391327206E+02  0.51100000000E-03 0.  1.
        -12    1    3    3    0    0 -0.28128888258E+02  0.37986181564E+01  0.98462943341E+01  0.30043524538E+02  0.00000000000E+00 0.  1.
</event>
<event>
 7    1  0.2700104E-013  0.7246157E+02  0.7816164E-02  0.1226708E+00
        -11   -1    0    0    0    0  0.00000000000E+00  0.00000000000E+00  0.45593999997E+02  0.45594000000E+02  0.51100000000E-03 0. -1.
         11   -1    0    0    0    0 -0.00000000000E+00 -0.00000000000E+00 -0.45593999997E+02  0.45594000000E+02  0.51100000000E-03 0.  1.
    9900012    2    1    2    0    0  0.18507420991E+02 -0.60632544074E-01 -0.28549813491E+01  0.72461568771E+02  0.69999998016E+02 0.  0.
        -12    1    1    2    0    0 -0.18507420991E+02  0.60632544074E-01  0.28549813491E+01  0.18726431229E+02  0.00000000000E+00 0.  1.
         11    1    3    3    0    0 -0.27351706389E+01 -0.26076780397E+01  0.11893894617E+02  0.12479818612E+02  0.51100000000E-03 0. -1.
        -11    1    3    3    0    0  0.62205121532E+01 -0.20133299688E+02  0.98905441433E+01  0.23278045267E+02  0.51100000000E-03 0.  1.
        -12    1    3    3    0    0  0.15022079477E+02  0.22680345183E+02 -0.24639420109E+02  0.36703704892E+02  0.00000000000E+00 0.  1.
</event>
<event>
 7    1  0.2700104E-013  0.7246151E+02  0.7816164E-02  0.1226708E+00
        -11   -1    0    0    0    0  0.00000000000E+00  0.00000000000E+00  0.45593999997E+02  0.45594000000E+02  0.51100000000E-03 0.  1.
         11   -1    0    0    0    0 -0.00000000000E+00 -0.00000000000E+00 -0.45593999997E+02  0.45594000000E+02  0.51100000000E-03 0. -1.
    9900012    2    1    2    0    0  0.13032149922E+02 -0.42625275667E+01  0.12754426762E+02  0.72461508741E+02  0.69999919816E+02 0.  0.
        -12    1    1    2    0    0 -0.13032149922E+02  0.42625275667E+01 -0.12754426762E+02  0.18726491259E+02  0.00000000000E+00 0.  1.
         11    1    3    3    0    0  0.32287509327E+01 -0.35166152627E-01  0.22000163862E+01  0.39071910120E+01  0.51100000000E-03 0. -1.
        -11    1    3    3    0    0  0.16573745499E+02 -0.12820659714E+00  0.37217565920E+02  0.40741289745E+02  0.51100000000E-03 0.  1.
         12    1    3    3    0    0 -0.67703465098E+01 -0.40991548169E+01 -0.26663155545E+02  0.27813027985E+02  0.00000000000E+00 0. -1.
</event>
<event>
 7    1  0.2700104E-013  0.7246158E+02  0.7816164E-02  0.1226708E+00
        -11   -1    0    0    0    0  0.00000000000E+00  0.00000000000E+00  0.45593999997E+02  0.45594000000E+02  0.51100000000E-03 0.  1.
         11   -1    0    0    0    0 -0.00000000000E+00 -0.00000000000E+00 -0.45593999997E+02  0.45594000000E+02  0.51100000000E-03 0. -1.
    9900012    2    1    2    0    0  0.84811776438E+01 -0.13699176325E+02 -0.95436360883E+01  0.72461580268E+02  0.70000012992E+02 0.  0.
        -12    1    1    2    0    0 -0.84811776438E+01  0.13699176325E+02  0.95436360883E+01  0.18726419732E+02  0.00000000000E+00 0.  1.
         11    1    3    3    0    0 -0.50814661542E+01 -0.17569042454E+01  0.28034726363E+01  0.60636185473E+01  0.51100000000E-03 0. -1.
        -11    1    3    3    0    0 -0.23797555188E+02 -0.10625183944E+02  0.24842568440E+01  0.26179948417E+02  0.51100000000E-03 0.  1.
         12    1    3    3    0    0  0.37360198986E+02 -0.13170881355E+01 -0.14831365569E+02  0.40218013303E+02  0.00000000000E+00 0. -1.
</event>
<event>
 7    1  0.2700104E-013  0.7246157E+02  0.7816164E-02  0.1226708E+00
        -11   -1    0    0    0    0  0.00000000000E+00  0.00000000000E+00  0.45593999997E+02  0.45594000000E+02  0.51100000000E-03 0.  1.
         11   -1    0    0    0    0 -0.00000000000E+00 -0.00000000000E+00 -0.45593999997E+02  0.45594000000E+02  0.51100000000E-03 0. -1.
    9900012    2    1    2    0    0  0.37237857780E+01 -0.10030573478E+02 -0.15368807345E+02  0.72461568839E+02  0.69999998104E+02 0.  0.
        -12    1    1    2    0    0 -0.37237857780E+01  0.10030573478E+02  0.15368807345E+02  0.18726431161E+02  0.00000000000E+00 0.  1.
         11    1    3    3    0    0  0.56823378597E+01 -0.79642352221E+01  0.62938227556E+01  0.11633151394E+02  0.51100000000E-03 0. -1.
        -11    1    3    3    0    0  0.23523261129E+02  0.56203975871E+00  0.47816145462E+01  0.24010904622E+02  0.51100000000E-03 0.  1.
         12    1    3    3    0    0 -0.25481813211E+02 -0.26283780149E+01 -0.26444244647E+02  0.36817512823E+02  0.00000000000E+00 0. -1.
</event>
<event>
 7    1  0.2700104E-013  0.7246151E+02  0.7816164E-02  0.1226708E+00
        -11   -1    0    0    0    0  0.00000000000E+00  0.00000000000E+00  0.45593999997E+02  0.45594000000E+02  0.51100000000E-03 0. -1.
         11   -1    0    0    0    0 -0.00000000000E+00 -0.00000000000E+00 -0.45593999997E+02  0.45594000000E+02  0.51100000000E-03 0.  1.
    9900012    2    1    2    0    0 -0.80840057476E+01 -0.15978284199E+02 -0.54794957674E+01  0.72461505701E+02  0.69999915855E+02 0.  0.
        -12    1    1    2    0    0  0.80840057476E+01  0.15978284199E+02  0.54794957674E+01  0.18726494299E+02  0.00000000000E+00 0.  1.
         11    1    3    3    0    0 -0.52210098802E+01 -0.88020784643E+01 -0.34028119079E+01  0.10784927380E+02  0.51100000000E-03 0. -1.
        -11    1    3    3    0    0 -0.31845494140E+01  0.56863972119E+01  0.28113438452E+02  0.28859000158E+02  0.51100000000E-03 0.  1.
         12    1    3    3    0    0  0.32155354664E+00 -0.12862602947E+02 -0.30190122312E+02  0.32817578163E+02  0.00000000000E+00 0. -1.
</event>
<event>
 7    1  0.2700104E-013  0.7246161E+02  0.7816164E-02  0.1226708E+00
        -11   -1    0    0    0    0  0.00000000000E+00  0.00000000000E+00  0.45593999997E+02  0.45594000000E+02  0.51100000000E-03 0. -1.
         11   -1    0    0    0    0 -0.00000000000E+00 -0.00000000000E+00 -0.45593999997E+02  0.45594000000E+02  0.51100000000E-03 0.  1.
    9900012    2    1    2    0    0 -0.15944204571E+02  0.91451893249E+01  0.35812903812E+01  0.72461607182E+02  0.70000048053E+02 0.  0.
        -12    1    1    2    0    0  0.15944204571E+02 -0.91451893249E+01 -0.35812903812E+01  0.18726392818E+02  0.00000000000E+00 0.  1.
         11    1    3    3    0    0 -0.95967022590E+00 -0.14474655464E+02  0.33474990074E+00  0.14510295500E+02  0.51100000000E-03 0. -1.
        -11    1    3    3    0    0  0.22525721126E+01  0.36331988638E+02  0.99142980481E+00  0.36415249729E+02  0.51100000000E-03 0.  1.
         12    1    3    3    0    0 -0.17237106457E+02 -0.12712143849E+02  0.22551106756E+01  0.21536061953E+02  0.00000000000E+00 0. -1.
</event>
<event>
 7    1  0.2700104E-013  0.7246160E+02  0.7816164E-02  0.1226708E+00
        -11   -1    0    0    0    0  0.00000000000E+00  0.00000000000E+00  0.45593999997E+02  0.45594000000E+02  0.51100000000E-03 0.  1.
         11   -1    0    0    0    0 -0.00000000000E+00 -0.00000000000E+00 -0.45593999997E+02  0.45594000000E+02  0.51100000000E-03 0. -1.
    9900012    2    1    2    0    0  0.41519515117E+00  0.80184020098E+01 -0.16917772024E+02  0.72461597034E+02  0.70000034833E+02 0.  0.
        -12    1    1    2    0    0 -0.41519515117E+00 -0.80184020098E+01  0.16917772024E+02  0.18726402966E+02  0.00000000000E+00 0.  1.
         11    1    3    3    0    0  0.73531389648E+00  0.57684101986E+01 -0.21745989715E+02  0.22510071339E+02  0.51100000000E-03 0. -1.
        -11    1    3    3    0    0  0.15354956102E+02  0.15392152793E+02 -0.10736248719E+02  0.24247888182E+02  0.51100000000E-03 0.  1.
        -12    1    3    3    0    0 -0.15675074847E+02 -0.13142160982E+02  0.15564466410E+02  0.25703637512E+02  0.00000000000E+00 0.  1.
</event>
<event>
 7    1  0.2700104E-013  0.7246159E+02  0.7816164E-02  0.1226708E+00
        -11   -1    0    0    0    0  0.00000000000E+00  0.00000000000E+00  0.45593999997E+02  0.45594000000E+02  0.51100000000E-03 0. -1.
         11   -1    0    0    0    0 -0.00000000000E+00 -0.00000000000E+00 -0.45593999997E+02  0.45594000000E+02  0.51100000000E-03 0.  1.
    9900012    2    1    2    0    0 -0.10280191609E+02 -0.73415953368E+00  0.15635120555E+02  0.72461592857E+02  0.70000029392E+02 0.  0.
        -12    1    1    2    0    0  0.10280191609E+02  0.73415953368E+00 -0.15635120555E+02  0.18726407143E+02  0.00000000000E+00 0.  1.
         11    1    3    3    0    0  0.29250747104E+01 -0.12518372089E+02  0.99460030225E+01  0.16253881943E+02  0.51100000000E-03 0. -1.
        -11    1    3    3    0    0  0.14165035330E+02 -0.87160399010E+01 -0.90906047248E+01  0.18954067426E+02  0.51100000000E-03 0.  1.
         12    1    3    3    0    0 -0.27370301649E+02  0.20500252456E+02  0.14779722257E+02  0.37253643488E+02  0.00000000000E+00 0. -1.
</event>
<event>
 7    1  0.2700104E-013  0.7246156E+02  0.7816164E-02  0.1226708E+00
        -11   -1    0    0    0    0  0.00000000000E+00  0.00000000000E+00  0.45593999997E+02  0.45594000000E+02  0.51100000000E-03 0. -1.
         11   -1    0    0    0    0 -0.00000000000E+00 -0.00000000000E+00 -0.45593999997E+02  0.45594000000E+02  0.51100000000E-03 0.  1.
    9900012    2    1    2    0    0  0.32534742384E+01  0.60762916882E+01  0.17411871159E+02  0.72461556863E+02  0.69999982504E+02 0.  0.
        -12    1    1    2    0    0 -0.32534742384E+01 -0.60762916882E+01 -0.17411871159E+02  0.18726443137E+02  0.00000000000E+00 0.  1.
         11    1    3    3    0    0 -0.30250662887E+01 -0.27059274274E+01  0.93949193408E+01  0.10234137920E+02  0.51100000000E-03 0. -1.
        -11    1    3    3    0    0  0.33110360007E+02  0.64470778931E+01 -0.12200414871E+01  0.33754247949E+02  0.51100000000E-03 0.  1.
         12    1    3    3    0    0 -0.26831819480E+02  0.23351412225E+01  0.92369933049E+01  0.28473170994E+02  0.00000000000E+00 0. -1.
</event>
<event>
 7    1  0.2700104E-013  0.7246157E+02  0.7816164E-02  0.1226708E+00
        -11   -1    0    0    0    0  0.00000000000E+00  0.00000000000E+00  0.45593999997E+02  0.45594000000E+02  0.51100000000E-03 0. -1.
         11   -1    0    0    0    0 -0.00000000000E+00 -0.00000000000E+00 -0.45593999997E+02  0.45594000000E+02  0.51100000000E-03 0.  1.
    9900012    2    1    2    0    0 -0.17166009614E+02  0.26191723820E+01  0.70105184679E+01  0.72461566297E+02  0.69999994793E+02 0.  0.
        -12    1    1    2    0    0  0.17166009614E+02 -0.26191723820E+01 -0.70105184679E+01  0.18726433703E+02  0.00000000000E+00 0.  1.
         11    1    3    3    0    0  0.15710713775E+02  0.31523861831E-02  0.13664595204E+02  0.20821808269E+02  0.51100000000E-03 0. -1.
        -11    1    3    3    0    0 -0.19246306050E+02 -0.17464086954E+02 -0.83873333932E+01  0.27308643163E+02  0.51100000000E-03 0.  1.
        -12    1    3    3    0    0 -0.13630417339E+02  0.20080106950E+02  0.17332566571E+01  0.24331114865E+02  0.00000000000E+00 0.  1.
</event>
<event>
 7    1  0.2700104E-013  0.7246155E+02  0.7816164E-02  0.1226708E+00
        -11   -1    0    0    0    0  0.00000000000E+00  0.00000000000E+00  0.45593999997E+02  0.45594000000E+02  0.51100000000E-03 0. -1.
         11   -1    0    0    0    0 -0.00000000000E+00 -0.00000000000E+00 -0.45593999997E+02  0.45594000000E+02  0.51100000000E-03 0.  1.
    9900012    2    1    2    0    0  0.94344530040E+00  0.18251352363E+02 -0.40838494020E+01  0.72461554047E+02  0.69999978834E+02 0.  0.
        -12    1    1    2    0    0 -0.94344530040E+00 -0.18251352363E+02  0.40838494020E+01  0.18726445953E+02  0.00000000000E+00 0.  1.
         11    1    3    3    0    0 -0.41507187748E+01  0.21900245299E+02  0.13159094469E+02  0.25884570269E+02  0.51100000000E-03 0. -1.
        -11    1    3    3    0    0 -0.16833349208E+02 -0.67924672391E+00 -0.17711643036E+02  0.24444331060E+02  0.51100000000E-03 0.  1.
         12    1    3    3    0    0  0.21927513284E+02 -0.29696462119E+01  0.46869916543E+00  0.22132652718E+02  0.00000000000E+00 0. -1.
</event>
<event>
 7    1  0.2700104E-013  0.7246154E+02  0.7816164E-02  0.1226708E+00
        -11   -1    0    0    0    0  0.00000000000E+00  0.00000000000E+00  0.45593999997E+02  0.45594000000E+02  0.51100000000E-03 0.  1.
         11   -1    0    0    0    0 -0.00000000000E+00 -0.00000000000E+00 -0.45593999997E+02  0.45594000000E+02  0.51100000000E-03 0. -1.
    9900012    2    1    2    0    0  0.48537447039E+01 -0.11425803687E+02 -0.14020427380E+02  0.72461542474E+02  0.69999963759E+02 0.  0.
        -12    1    1    2    0    0 -0.48537447039E+01  0.11425803687E+02  0.14020427380E+02  0.18726457526E+02  0.00000000000E+00 0.  1.
         11    1    3    3    0    0 -0.13417606727E+01 -0.10966546265E+02 -0.37840027193E+02  0.39419958358E+02  0.51100000000E-03 0. -1.
        -11    1    3    3    0    0  0.40435797198E+01  0.86877674475E+01  0.27467524084E+01  0.99685750851E+01  0.51100000000E-03 0.  1.
        -12    1    3    3    0    0  0.21519256568E+01 -0.91470248698E+01  0.21072847405E+02  0.23073009031E+02  0.00000000000E+00 0.  1.
</event>
<event>
 7    1  0.2700104E-013  0.7246156E+02  0.7816164E-02  0.1226708E+00
        -11   -1    0    0    0    0  0.00000000000E+00  0.00000000000E+00  0.45593999997E+02  0.45594000000E+02  0.51100000000E-03 0.  1.
         11   -1    0    0    0    0 -0.00000000000E+00 -0.00000000000E+00 -0.45593999997E+02  0.45594000000E+02  0.51100000000E-03 0. -1.
    9900012    2    1    2    0    0 -0.28670315034E+01 -0.18245485774E+02 -0.30922147091E+01  0.72461563805E+02  0.69999991546E+02 0.  0.
        -12    1    1    2    0    0  0.28670315034E+01  0.18245485774E+02  0.30922147091E+01  0.18726436195E+02  0.00000000000E+00 0.  1.
         11    1    3    3    0    0  0.41842925219E+01 -0.15989950316E+02 -0.14716243973E+02  0.22130401080E+02  0.51100000000E-03 0. -1.
        -11    1    3    3    0    0 -0.13414912659E+02 -0.22684308924E+02  0.11938040424E+02  0.28931895245E+02  0.51100000000E-03 0.  1.
         12    1    3    3    0    0  0.63635886338E+01  0.20428773467E+02 -0.31401116050E+00  0.21399267480E+02  0.00000000000E+00 0. -1.
</event>
<event>
 7    1  0.2700104E-013  0.7246153E+02  0.7816164E-02  0.1226708E+00
        -11   -1    0    0    0    0  0.00000000000E+00  0.00000000000E+00  0.45593999997E+02  0.45594000000E+02  0.51100000000E-03 0.  1.
         11   -1    0    0    0    0 -0.00000000000E+00 -0.00000000000E+00 -0.45593999997E+02  0.45594000000E+02  0.51100000000E-03 0. -1.
    9900012    2    1    2    0    0  0.16308877542E+01  0.34800735132E+01 -0.18327851268E+02  0.72461525729E+02  0.69999941945E+02 0.  0.
        -12    1    1    2    0    0 -0.16308877542E+01 -0.34800735132E+01  0.18327851268E+02  0.18726474271E+02  0.00000000000E+00 0.  1.
         11    1    3    3    0    0 -0.54070312736E+01  0.83573553344E+00  0.11320069796E+02  0.12572924144E+02  0.51100000000E-03 0. -1.
        -11    1    3    3    0    0  0.80084194081E+01 -0.11921859122E+02  0.10091305592E+02  0.17552776280E+02  0.51100000000E-03 0.  1.
         12    1    3    3    0    0 -0.97050038034E+00  0.14566197101E+02 -0.39739226656E+02  0.42335825305E+02  0.00000000000E+00 0. -1.
</event>
<event>
 7    1  0.3292460E-013  0.7246168E+02  0.7816164E-02  0.1226708E+00
        -11   -1    0    0    0    0  0.00000000000E+00  0.00000000000E+00  0.45593999997E+02  0.45594000000E+02  0.51100000000E-03 0. -1.
         11   -1    0    0    0    0 -0.00000000000E+00 -0.00000000000E+00 -0.45593999997E+02  0.45594000000E+02  0.51100000000E-03 0.  1.
    9900012    2    1    2    0    0 -0.84308696313E+01 -0.14591544192E+02  0.81659348262E+01  0.72461675848E+02  0.70000137504E+02 0.  0.
        -12    1    1    2    0    0  0.84308696313E+01  0.14591544192E+02 -0.81659348262E+01  0.18726324152E+02  0.00000000000E+00 0.  1.
         11    1    3    3    0    0  0.20012210356E+02 -0.14262869904E+02  0.15071072345E+02  0.28828028776E+02  0.51100000000E-03 0. -1.
        -11    1    3    3    0    0 -0.14219106673E+02  0.44436475596E+01  0.12260678551E+02  0.19293865268E+02  0.51100000000E-03 0.  1.
        -12    1    3    3    0    0 -0.14223973314E+02 -0.47723218471E+01 -0.19165816070E+02  0.24339781804E+02  0.00000000000E+00 0.  1.
</event>
<event>
 7    1  0.2700104E-013  0.7246142E+02  0.7816164E-02  0.1226708E+00
        -11   -1    0    0    0    0  0.00000000000E+00  0.00000000000E+00  0.45593999997E+02  0.45594000000E+02  0.51100000000E-03 0.  1.
         11   -1    0    0    0    0 -0.00000000000E+00 -0.00000000000E+00 -0.45593999997E+02  0.45594000000E+02  0.51100000000E-03 0. -1.
    9900012    2    1    2    0    0 -0.18181445577E+02  0.44382450214E+01  0.64936441300E+00  0.72461423797E+02  0.69999809160E+02 0.  0.
        -12    1    1    2    0    0  0.18181445577E+02 -0.44382450214E+01 -0.64936441300E+00  0.18726576203E+02  0.00000000000E+00 0.  1.
         11    1    3    3    0    0  0.87566020661E+01  0.94099027989E+01  0.79180451280E+01  0.15097012596E+02  0.51100000000E-03 0. -1.
        -11    1    3    3    0    0 -0.24477086878E+02 -0.26008101241E+02 -0.41182360491E+01  0.35951480924E+02  0.51100000000E-03 0.  1.
         12    1    3    3    0    0 -0.24609607645E+01  0.21036443463E+02 -0.31504446658E+01  0.21412930277E+02  0.00000000000E+00 0. -1.
</event>
<event>
 7    1  0.3671217E-013  0.7246140E+02  0.7816164E-02  0.1226708E+00
        -11   -1    0    0    0    0  0.00000000000E+00  0.00000000000E+00  0.45593999997E+02  0.45594000000E+02  0.51100000000E-03 0. -1.
         11   -1    0    0    0    0 -0.00000000000E+00 -0.00000000000E+00 -0.45593999997E+02  0.45594000000E+02  0.51100000000E-03 0.  1.
    9900012    2    1    2    0    0 -0.70063019977E+01 -0.10691699784E+02  0.13685200977E+02  0.72461402933E+02  0.69999781980E+02 0.  0.
        -12    1    1    2    0    0  0.70063019977E+01  0.10691699784E+02 -0.13685200977E+02  0.18726597067E+02  0.00000000000E+00 0.  1.
         11    1    3    3    0    0 -0.39062361630E+01  0.80236229659E+01  0.32537369163E+02  0.33738962622E+02  0.51100000000E-03 0. -1.
        -11    1    3    3    0    0 -0.82573211864E+01  0.39455951789E+01 -0.59941349617E+00  0.91711706610E+01  0.51100000000E-03 0.  1.
        -12    1    3    3    0    0  0.51572553518E+01 -0.22660917929E+02 -0.18252754691E+02  0.29551269650E+02  0.00000000000E+00 0.  1.
</event>
<event>
 7    1  0.2700104E-013  0.7246154E+02  0.7816164E-02  0.1226708E+00
        -11   -1    0    0    0    0  0.00000000000E+00  0.00000000000E+00  0.45593999997E+02  0.45594000000E+02  0.51100000000E-03 0.  1.
         11   -1    0    0    0    0 -0.00000000000E+00 -0.00000000000E+00 -0.45593999997E+02  0.45594000000E+02  0.51100000000E-03 0. -1.
    9900012    2    1    2    0    0 -0.36447943305E+01  0.18213592838E+02  0.23792858316E+01  0.72461535014E+02  0.69999954041E+02 0.  0.
        -12    1    1    2    0    0  0.36447943305E+01 -0.18213592838E+02 -0.23792858316E+01  0.18726464986E+02  0.00000000000E+00 0.  1.
         11    1    3    3    0    0  0.17327445546E+02  0.63782430214E+01  0.12567724913E+02  0.22335399323E+02  0.51100000000E-03 0. -1.
        -11    1    3    3    0    0 -0.10753738625E+02 -0.15758941390E+02 -0.29104127838E+00  0.19080666483E+02  0.51100000000E-03 0.  1.
         12    1    3    3    0    0 -0.10218501251E+02  0.27594291207E+02 -0.98973978034E+01  0.31045469208E+02  0.00000000000E+00 0. -1.
</event>
<event>
 7    1  0.2700104E-013  0.7246173E+02  0.7816164E-02  0.1226708E+00
        -11   -1    0    0    0    0  0.00000000000E+00  0.00000000000E+00  0.45593999997E+02  0.45594000000E+02  0.51100000000E-03 0. -1.
         11   -1    0    0    0    0 -0.00000000000E+00 -0.00000000000E+00 -0.45593999997E+02  0.45594000000E+02  0.51100000000E-03 0.  1.
    9900012    2    1    2    0    0  0.87200124891E+01 -0.12184309505E+02  0.11232858716E+02  0.72461731529E+02  0.70000210037E+02 0.  0.
        -12    1    1    2    0    0 -0.87200124891E+01  0.12184309505E+02 -0.11232858716E+02  0.18726268471E+02  0.00000000000E+00 0.  1.
         11    1    3    3    0    0  0.94355011470E+01  0.99522730451E+01 -0.76885540954E+00  0.13735631022E+02  0.51100000000E-03 0. -1.
        -11    1    3    3    0    0 -0.16682721140E+02  0.71150757305E+01 -0.80391291981E+01  0.19838474886E+02  0.51100000000E-03 0.  1.
         12    1    3    3    0    0  0.15967232482E+02 -0.29251658280E+02  0.20040843324E+02  0.38887625621E+02  0.00000000000E+00 0. -1.
</event>
<event>
 7    1  0.2700104E-013  0.7246158E+02  0.7816164E-02  0.1226708E+00
        -11   -1    0    0    0    0  0.00000000000E+00  0.00000000000E+00  0.45593999997E+02  0.45594000000E+02  0.51100000000E-03 0. -1.
         11   -1    0    0    0    0 -0.00000000000E+00 -0.00000000000E+00 -0.45593999997E+02  0.45594000000E+02  0.51100000000E-03 0.  1.
    9900012    2    1    2    0    0 -0.13163406926E+02 -0.71210913948E+01  0.11255819649E+02  0.72461582817E+02  0.70000016313E+02 0.  0.
        -12    1    1    2    0    0  0.13163406926E+02  0.71210913948E+01 -0.11255819649E+02  0.18726417183E+02  0.00000000000E+00 0.  1.
         11    1    3    3    0    0 -0.29715403120E+01  0.10884434888E+02  0.22167414908E+02  0.24873585560E+02  0.51100000000E-03 0. -1.
        -11    1    3    3    0    0  0.11924655470E+02  0.58028918885E+01 -0.65812997124E+01  0.14804879888E+02  0.51100000000E-03 0.  1.
        -12    1    3    3    0    0 -0.22116522083E+02 -0.23808418172E+02 -0.43302955464E+01  0.32783117369E+02  0.00000000000E+00 0.  1.
</event>
<event>
 7    1  0.2700104E-013  0.7246145E+02  0.7816164E-02  0.1226708E+00
        -11   -1    0    0    0    0  0.00000000000E+00  0.00000000000E+00  0.45593999997E+02  0.45594000000E+02  0.51100000000E-03 0.  1.
         11   -1    0    0    0    0 -0.00000000000E+00 -0.00000000000E+00 -0.45593999997E+02  0.45594000000E+02  0.51100000000E-03 0. -1.
    9900012    2    1    2    0    0  0.82947566933E+01 -0.15573456259E+02 -0.62728035728E+01  0.72461452184E+02  0.69999846139E+02 0.  0.
        -12    1    1    2    0    0 -0.82947566933E+01  0.15573456259E+02  0.62728035728E+01  0.18726547816E+02  0.00000000000E+00 0.  1.
         11    1    3    3    0    0 -0.18195478785E+02 -0.13582857958E+02 -0.24437527981E+02  0.33358091261E+02  0.51100000000E-03 0. -1.
        -11    1    3    3    0    0  0.13492331817E+01  0.13281577633E+01 -0.46319329808E+01  0.50039221239E+01  0.51100000000E-03 0.  1.
        -12    1    3    3    0    0  0.25141002296E+02 -0.33187560641E+01  0.22796657389E+02  0.34099438798E+02  0.00000000000E+00 0.  1.
</event>
<event>
 7    1  0.2700104E-013  0.7246154E+02  0.7816164E-02  0.1226708E+00
        -11   -1    0    0    0    0  0.00000000000E+00  0.00000000000E+00  0.45593999997E+02  0.45594000000E+02  0.51100000000E-03 0. -1.
         11   -1    0    0    0    0 -0.00000000000E+00 -0.00000000000E+00 -0.45593999997E+02  0.45594000000E+02  0.51100000000E-03 0.  1.
    9900012    2    1    2    0    0  0.91630816811E+01  0.87861590874E+01  0.13766692214E+02  0.72461535520E+02  0.69999954700E+02 0.  0.
        -12    1    1    2    0    0 -0.91630816811E+01 -0.87861590874E+01 -0.13766692214E+02  0.18726464480E+02  0.00000000000E+00 0.  1.
         11    1    3    3    0    0 -0.11306037207E+02 -0.91001957229E+01  0.28342454755E+02  0.31842342585E+02  0.51100000000E-03 0. -1.
        -11    1    3    3    0    0  0.83504904778E+00 -0.39502830181E+01  0.41509198930E+01  0.57906976310E+01  0.51100000000E-03 0.  1.
        -12    1    3    3    0    0  0.19634069841E+02  0.21836637828E+02 -0.18726682434E+02  0.34828495304E+02  0.00000000000E+00 0.  1.
</event>
<event>
 7    1  0.2700104E-013  0.7246154E+02  0.7816164E-02  0.1226708E+00
        -11   -1    0    0    0    0  0.00000000000E+00  0.00000000000E+00  0.45593999997E+02  0.45594000000E+02  0.51100000000E-03 0. -1.
         11   -1    0    0    0    0 -0.00000000000E+00 -0.00000000000E+00 -0.45593999997E+02  0.45594000000E+02  0.51100000000E-03 0.  1.
    9900012    2    1    2    0    0 -0.12629551432E+02 -0.20261355632E+01  0.13677335148E+02  0.72461540339E+02  0.69999960977E+02 0.  0.
        -12    1    1    2    0    0  0.12629551432E+02  0.20261355632E+01 -0.13677335148E+02  0.18726459661E+02  0.00000000000E+00 0.  1.
         11    1    3    3    0    0 -0.59250837228E+01  0.14507121117E+02 -0.42613793347E+01  0.16239536148E+02  0.51100000000E-03 0. -1.
        -11    1    3    3    0    0  0.46780748942E+00  0.10370015573E+02 -0.11642646477E+02  0.15598310295E+02  0.51100000000E-03 0.  1.
         12    1    3    3    0    0 -0.71722751982E+01 -0.26903272253E+02  0.29581360960E+02  0.40623693895E+02  0.00000000000E+00 0. -1.
</event>
<event>
 7    1  0.2700104E-013  0.7246153E+02  0.7816164E-02  0.1226708E+00
        -11   -1    0    0    0    0  0.00000000000E+00  0.00000000000E+00  0.45593999997E+02  0.45594000000E+02  0.51100000000E-03 0. -1.
         11   -1    0    0    0    0 -0.00000000000E+00 -0.00000000000E+00 -0.45593999997E+02  0.45594000000E+02  0.51100000000E-03 0.  1.
    9900012    2    1    2    0    0  0.12940522087E+02  0.11617685314E+02 -0.69464401531E+01  0.72461527969E+02  0.69999944864E+02 0.  0.
        -12    1    1    2    0    0 -0.12940522087E+02 -0.11617685314E+02  0.69464401531E+01  0.18726472031E+02  0.00000000000E+00 0.  1.
         11    1    3    3    0    0 -0.41450202808E+01 -0.66869559149E+01  0.47285138244E+01  0.91790748872E+01  0.51100000000E-03 0. -1.
        -11    1    3    3    0    0  0.15870573500E+02 -0.15947151351E+02 -0.17518361952E+02  0.28514553217E+02  0.51100000000E-03 0.  1.
         12    1    3    3    0    0  0.12149688675E+01  0.34251792579E+02  0.58434079745E+01  0.34767899865E+02  0.00000000000E+00 0. -1.
</event>
<event>
 7    1  0.2700104E-013  0.7246157E+02  0.7816164E-02  0.1226708E+00
        -11   -1    0    0    0    0  0.00000000000E+00  0.00000000000E+00  0.45593999997E+02  0.45594000000E+02  0.51100000000E-03 0.  1.
         11   -1    0    0    0    0 -0.00000000000E+00 -0.00000000000E+00 -0.45593999997E+02  0.45594000000E+02  0.51100000000E-03 0. -1.
    9900012    2    1    2    0    0 -0.18532493676E+02  0.13091672395E+01 -0.23477159873E+01  0.72461574525E+02  0.70000005512E+02 0.  0.
        -12    1    1    2    0    0  0.18532493676E+02 -0.13091672395E+01  0.23477159873E+01  0.18726425475E+02  0.00000000000E+00 0.  1.
         11    1    3    3    0    0 -0.12639224786E+02 -0.23700252529E+02 -0.18260132228E+01  0.26921855391E+02  0.51100000000E-03 0. -1.
        -11    1    3    3    0    0 -0.18010675133E+02  0.12190787125E+02  0.11098569111E+02  0.24416755436E+02  0.51100000000E-03 0.  1.
         12    1    3    3    0    0  0.12117406243E+02  0.12818632644E+02 -0.11620271876E+02  0.21122963698E+02  0.00000000000E+00 0. -1.
</event>
<event>
 7    1  0.2700104E-013  0.7246159E+02  0.7816164E-02  0.1226708E+00
        -11   -1    0    0    0    0  0.00000000000E+00  0.00000000000E+00  0.45593999997E+02  0.45594000000E+02  0.51100000000E-03 0. -1.
         11   -1    0    0    0    0 -0.00000000000E+00 -0.00000000000E+00 -0.45593999997E+02  0.45594000000E+02  0.51100000000E-03 0.  1.
    9900012    2    1    2    0    0  0.62707526088E+01 -0.22649235006E+01  0.17499321206E+02  0.72461589254E+02  0.70000024699E+02 0.  0.
        -12    1    1    2    0    0 -0.62707526088E+01  0.22649235006E+01 -0.17499321206E+02  0.18726410746E+02  0.00000000000E+00 0.  1.
         11    1    3    3    0    0  0.11209184745E+01  0.89559975557E+01 -0.18875125988E+02  0.20922158870E+02  0.51100000000E-03 0.  1.
        -11    1    3    3    0    0  0.71653137484E+01  0.65453378275E+01 -0.13441355543E+01  0.97974419640E+01  0.51100000000E-03 0. -1.
        -12    1    3    3    0    0 -0.20154796141E+01 -0.17766258884E+02  0.37718582748E+02  0.41741988421E+02  0.00000000000E+00 0.  1.
</event>
<event>
 7    1  0.2700104E-013  0.7246157E+02  0.7816164E-02  0.1226708E+00
        -11   -1    0    0    0    0  0.00000000000E+00  0.00000000000E+00  0.45593999997E+02  0.45594000000E+02  0.51100000000E-03 0.  1.
         11   -1    0    0    0    0 -0.00000000000E+00 -0.00000000000E+00 -0.45593999997E+02  0.45594000000E+02  0.51100000000E-03 0. -1.
    9900012    2    1    2    0    0  0.14702132659E+02  0.11141417697E+02 -0.32241771765E+01  0.72461569174E+02  0.69999998540E+02 0.  0.
        -12    1    1    2    0    0 -0.14702132659E+02 -0.11141417697E+02  0.32241771765E+01  0.18726430826E+02  0.00000000000E+00 0.  1.
         11    1    3    3    0    0  0.16383100667E+02  0.29105489235E+01 -0.20682142335E+02  0.26544835549E+02  0.51100000000E-03 0. -1.
        -11    1    3    3    0    0  0.53272404235E+01  0.12066232173E+02 -0.10487873521E+02  0.16851378004E+02  0.51100000000E-03 0.  1.
        -12    1    3    3    0    0 -0.70082084312E+01 -0.38353634000E+01  0.27945838680E+02  0.29065355620E+02  0.00000000000E+00 0.  1.
</event>
<event>
 7    1  0.2700104E-013  0.7246151E+02  0.7816164E-02  0.1226708E+00
        -11   -1    0    0    0    0  0.00000000000E+00  0.00000000000E+00  0.45593999997E+02  0.45594000000E+02  0.51100000000E-03 0.  1.
         11   -1    0    0    0    0 -0.00000000000E+00 -0.00000000000E+00 -0.45593999997E+02  0.45594000000E+02  0.51100000000E-03 0. -1.
    9900012    2    1    2    0    0  0.35956202981E+00  0.12803008489E-01 -0.18723035858E+02  0.72461507522E+02  0.69999918228E+02 0.  0.
        -12    1    1    2    0    0 -0.35956202981E+00 -0.12803008489E-01  0.18723035858E+02  0.18726492478E+02  0.00000000000E+00 0.  1.
         11    1    3    3    0    0 -0.15466880986E+02 -0.12720585682E+02  0.12691683225E+02  0.23708996834E+02  0.51100000000E-03 0. -1.
        -11    1    3    3    0    0 -0.63276004708E+00  0.18972355791E+02 -0.11590770211E+02  0.22241776545E+02  0.51100000000E-03 0.  1.
        -12    1    3    3    0    0  0.16459203062E+02 -0.62389671004E+01 -0.19823948872E+02  0.26510734143E+02  0.00000000000E+00 0.  1.
</event>
<event>
 7    1  0.2700104E-013  0.7246157E+02  0.7816164E-02  0.1226708E+00
        -11   -1    0    0    0    0  0.00000000000E+00  0.00000000000E+00  0.45593999997E+02  0.45594000000E+02  0.51100000000E-03 0.  1.
         11   -1    0    0    0    0 -0.00000000000E+00 -0.00000000000E+00 -0.45593999997E+02  0.45594000000E+02  0.51100000000E-03 0. -1.
    9900012    2    1    2    0    0 -0.60820985098E+00 -0.66610942379E+01 -0.17491116285E+02  0.72461568291E+02  0.69999997390E+02 0.  0.
        -12    1    1    2    0    0  0.60820985098E+00  0.66610942379E+01  0.17491116285E+02  0.18726431709E+02  0.00000000000E+00 0.  1.
         11    1    3    3    0    0 -0.18327495740E+02  0.41559848154E+01 -0.84776213006E+01  0.20616483043E+02  0.51100000000E-03 0. -1.
        -11    1    3    3    0    0  0.43663516006E+01  0.61352678207E+01  0.16674337224E+02  0.18295902811E+02  0.51100000000E-03 0.  1.
         12    1    3    3    0    0  0.13352934288E+02 -0.16952346874E+02 -0.25687832208E+02  0.33549182437E+02  0.00000000000E+00 0. -1.
</event>
<event>
 7    1  0.2700104E-013  0.7246161E+02  0.7816164E-02  0.1226708E+00
        -11   -1    0    0    0    0  0.00000000000E+00  0.00000000000E+00  0.45593999997E+02  0.45594000000E+02  0.51100000000E-03 0. -1.
         11   -1    0    0    0    0 -0.00000000000E+00 -0.00000000000E+00 -0.45593999997E+02  0.45594000000E+02  0.51100000000E-03 0.  1.
    9900012    2    1    2    0    0 -0.77840674276E+01 -0.94618154217E+01  0.14161923754E+02  0.72461608431E+02  0.70000049680E+02 0.  0.
        -12    1    1    2    0    0  0.77840674276E+01  0.94618154217E+01 -0.14161923754E+02  0.18726391569E+02  0.00000000000E+00 0.  1.
         11    1    3    3    0    0 -0.81673968504E+00  0.15480433223E+02  0.12804677494E+02  0.20106482598E+02  0.51100000000E-03 0. -1.
        -11    1    3    3    0    0 -0.14646608533E+02  0.81942842360E+01  0.64134063961E+01  0.17966669628E+02  0.51100000000E-03 0.  1.
        -12    1    3    3    0    0  0.76792807902E+01 -0.33136532881E+02 -0.50561601367E+01  0.34388456205E+02  0.00000000000E+00 0.  1.
</event>
<event>
 7    1  0.2700104E-013  0.7246161E+02  0.7816164E-02  0.1226708E+00
        -11   -1    0    0    0    0  0.00000000000E+00  0.00000000000E+00  0.45593999997E+02  0.45594000000E+02  0.51100000000E-03 0.  1.
         11   -1    0    0    0    0 -0.00000000000E+00 -0.00000000000E+00 -0.45593999997E+02  0.45594000000E+02  0.51100000000E-03 0. -1.
    9900012    2    1    2    0    0  0.18361334665E+02 -0.32050462619E+01 -0.18074261013E+01  0.72461608961E+02  0.70000050371E+02 0.  0.
        -12    1    1    2    0    0 -0.18361334665E+02  0.32050462619E+01  0.18074261013E+01  0.18726391039E+02  0.00000000000E+00 0.  1.
         11    1    3    3    0    0  0.22166768203E+01  0.10826460385E+02  0.29157851337E+02  0.31181824762E+02  0.51100000000E-03 0. -1.
        -11    1    3    3    0    0  0.87080452464E+01 -0.12315473817E+02 -0.79872304385E+01  0.17067419186E+02  0.51100000000E-03 0.  1.
        -12    1    3    3    0    0  0.74366125982E+01 -0.17160328304E+01 -0.22978047000E+02  0.24212365014E+02  0.00000000000E+00 0.  1.
</event>
<event>
 7    1  0.2700104E-013  0.7246155E+02  0.7816164E-02  0.1226708E+00
        -11   -1    0    0    0    0  0.00000000000E+00  0.00000000000E+00  0.45593999997E+02  0.45594000000E+02  0.51100000000E-03 0. -1.
         11   -1    0    0    0    0 -0.00000000000E+00 -0.00000000000E+00 -0.45593999997E+02  0.45594000000E+02  0.51100000000E-03 0.  1.
    9900012    2    1    2    0    0  0.10013366237E+02 -0.21506639445E+01  0.15677598516E+02  0.72461549348E+02  0.69999972714E+02 0.  0.
        -12    1    1    2    0    0 -0.10013366237E+02  0.21506639445E+01 -0.15677598516E+02  0.18726450652E+02  0.00000000000E+00 0.  1.
         11    1    3    3    0    0 -0.22356082266E+02  0.12954617336E+00  0.14417510684E+02  0.26602176811E+02  0.51100000000E-03 0. -1.
        -11    1    3    3    0    0 -0.10745399677E+01  0.17362076303E+01 -0.10105172428E+02  0.10309391987E+02  0.51100000000E-03 0.  1.
        -12    1    3    3    0    0  0.33443988471E+02 -0.40164177481E+01  0.11365260260E+02  0.35549980550E+02  0.00000000000E+00 0.  1.
</event>
<event>
 7    1  0.2700104E-013  0.7246160E+02  0.7816164E-02  0.1226708E+00
        -11   -1    0    0    0    0  0.00000000000E+00  0.00000000000E+00  0.45593999997E+02  0.45594000000E+02  0.51100000000E-03 0.  1.
         11   -1    0    0    0    0 -0.00000000000E+00 -0.00000000000E+00 -0.45593999997E+02  0.45594000000E+02  0.51100000000E-03 0. -1.
    9900012    2    1    2    0    0 -0.41479188981E+01  0.18129326050E+02 -0.21909827341E+01  0.72461598863E+02  0.70000037216E+02 0.  0.
        -12    1    1    2    0    0  0.41479188981E+01 -0.18129326050E+02  0.21909827341E+01  0.18726401137E+02  0.00000000000E+00 0.  1.
         11    1    3    3    0    0 -0.98672697113E+01 -0.48308491820E+01 -0.20962705452E+02  0.23667174219E+02  0.51100000000E-03 0. -1.
        -11    1    3    3    0    0 -0.78088302366E+01  0.20637216770E+02 -0.37871045539E+01  0.22387824969E+02  0.51100000000E-03 0.  1.
        -12    1    3    3    0    0  0.13528181050E+02  0.23229584615E+01  0.22558827272E+02  0.26406599675E+02  0.00000000000E+00 0.  1.
</event>
<event>
 7    1  0.2700104E-013  0.7246154E+02  0.7816164E-02  0.1226708E+00
        -11   -1    0    0    0    0  0.00000000000E+00  0.00000000000E+00  0.45593999997E+02  0.45594000000E+02  0.51100000000E-03 0. -1.
         11   -1    0    0    0    0 -0.00000000000E+00 -0.00000000000E+00 -0.45593999997E+02  0.45594000000E+02  0.51100000000E-03 0.  1.
    9900012    2    1    2    0    0 -0.35065060869E+01  0.91055737064E+01  0.15983530003E+02  0.72461540409E+02  0.69999961069E+02 0.  0.
        -12    1    1    2    0    0  0.35065060869E+01 -0.91055737064E+01 -0.15983530003E+02  0.18726459591E+02  0.00000000000E+00 0.  1.
         11    1    3    3    0    0 -0.21050881201E+02  0.64496902786E+01  0.42390485005E+01  0.22421142622E+02  0.51100000000E-03 0. -1.
        -11    1    3    3    0    0  0.16194637624E+02 -0.19524560850E+02  0.10733664074E+01  0.25389503340E+02  0.51100000000E-03 0.  1.
         12    1    3    3    0    0  0.13497374900E+01  0.22180444278E+02  0.10671115095E+02  0.24650894447E+02  0.00000000000E+00 0. -1.
</event>
<event>
 7    1  0.2700104E-013  0.7246158E+02  0.7816164E-02  0.1226708E+00
        -11   -1    0    0    0    0  0.00000000000E+00  0.00000000000E+00  0.45593999997E+02  0.45594000000E+02  0.51100000000E-03 0.  1.
         11   -1    0    0    0    0 -0.00000000000E+00 -0.00000000000E+00 -0.45593999997E+02  0.45594000000E+02  0.51100000000E-03 0. -1.
    9900012    2    1    2    0    0  0.14772347282E+02 -0.73237845361E+01 -0.88780016930E+01  0.72461575402E+02  0.70000006654E+02 0.  0.
        -12    1    1    2    0    0 -0.14772347282E+02  0.73237845361E+01  0.88780016930E+01  0.18726424598E+02  0.00000000000E+00 0.  1.
         11    1    3    3    0    0 -0.44791449028E+01 -0.44403517961E+01 -0.10780724660E+02  0.12490135612E+02  0.51100000000E-03 0. -1.
        -11    1    3    3    0    0  0.15918107146E+02 -0.29165817361E+02 -0.15004752607E+01  0.33260824760E+02  0.51100000000E-03 0.  1.
         12    1    3    3    0    0  0.33333850383E+01  0.26282384620E+02  0.34031982280E+01  0.26710615031E+02  0.00000000000E+00 0. -1.
</event>
<event>
 7    1  0.2700104E-013  0.7246154E+02  0.7816164E-02  0.1226708E+00
        -11   -1    0    0    0    0  0.00000000000E+00  0.00000000000E+00  0.45593999997E+02  0.45594000000E+02  0.51100000000E-03 0.  1.
         11   -1    0    0    0    0 -0.00000000000E+00 -0.00000000000E+00 -0.45593999997E+02  0.45594000000E+02  0.51100000000E-03 0. -1.
    9900012    2    1    2    0    0  0.11832035835E+02 -0.10778866361E+02 -0.97210815065E+01  0.72461535900E+02  0.69999955195E+02 0.  0.
        -12    1    1    2    0    0 -0.11832035835E+02  0.10778866361E+02  0.97210815065E+01  0.18726464100E+02  0.00000000000E+00 0.  1.
         11    1    3    3    0    0  0.56793683839E+00  0.16452200800E+02 -0.94443605890E+01  0.18978762094E+02  0.51100000000E-03 0. -1.
        -11    1    3    3    0    0  0.24720477823E+02 -0.30669582112E+02 -0.22418382462E+01  0.39455685645E+02  0.51100000000E-03 0.  1.
         12    1    3    3    0    0 -0.13456378826E+02  0.34385149517E+01  0.19651173287E+01  0.14027088162E+02  0.00000000000E+00 0. -1.
</event>
<event>
 7    1  0.2700104E-013  0.7246168E+02  0.7816164E-02  0.1226708E+00
        -11   -1    0    0    0    0  0.00000000000E+00  0.00000000000E+00  0.45593999997E+02  0.45594000000E+02  0.51100000000E-03 0.  1.
         11   -1    0    0    0    0 -0.00000000000E+00 -0.00000000000E+00 -0.45593999997E+02  0.45594000000E+02  0.51100000000E-03 0. -1.
    9900012    2    1    2    0    0  0.14316529367E+02  0.58858804852E+01 -0.10538898037E+02  0.72461682315E+02  0.70000145927E+02 0.  0.
        -12    1    1    2    0    0 -0.14316529367E+02 -0.58858804852E+01  0.10538898037E+02  0.18726317685E+02  0.00000000000E+00 0.  1.
         11    1    3    3    0    0  0.20659657019E+02 -0.17144603462E+02 -0.15594208012E+02  0.31047353829E+02  0.51100000000E-03 0. -1.
        -11    1    3    3    0    0  0.27138108380E+01 -0.23634835908E+01  0.12854038936E+02  0.13348301059E+02  0.51100000000E-03 0.  1.
        -12    1    3    3    0    0 -0.90569384899E+01  0.25393967538E+02 -0.77987289603E+01  0.28066027427E+02  0.00000000000E+00 0.  1.
</event>
<event>
 7    1  0.2700104E-013  0.7246158E+02  0.7816164E-02  0.1226708E+00
        -11   -1    0    0    0    0  0.00000000000E+00  0.00000000000E+00  0.45593999997E+02  0.45594000000E+02  0.51100000000E-03 0.  1.
         11   -1    0    0    0    0 -0.00000000000E+00 -0.00000000000E+00 -0.45593999997E+02  0.45594000000E+02  0.51100000000E-03 0. -1.
    9900012    2    1    2    0    0  0.17022823338E+02  0.75354445427E+01 -0.20295811572E+01  0.72461584472E+02  0.70000018469E+02 0.  0.
        -12    1    1    2    0    0 -0.17022823338E+02 -0.75354445427E+01  0.20295811572E+01  0.18726415528E+02  0.00000000000E+00 0.  1.
         11    1    3    3    0    0  0.12125278858E+02 -0.21394183598E+01  0.34619906635E+01  0.12790030412E+02  0.51100000000E-03 0. -1.
        -11    1    3    3    0    0  0.15255930606E+02 -0.21529495721E+02 -0.32071892526E+00  0.26388737475E+02  0.51100000000E-03 0.  1.
         12    1    3    3    0    0 -0.10358386126E+02  0.31204358623E+02 -0.51708528954E+01  0.33282816586E+02  0.00000000000E+00 0. -1.
</event>
<event>
 7    1  0.2700104E-013  0.7246154E+02  0.7816164E-02  0.1226708E+00
        -11   -1    0    0    0    0  0.00000000000E+00  0.00000000000E+00  0.45593999997E+02  0.45594000000E+02  0.51100000000E-03 0. -1.
         11   -1    0    0    0    0 -0.00000000000E+00 -0.00000000000E+00 -0.45593999997E+02  0.45594000000E+02  0.51100000000E-03 0.  1.
    9900012    2    1    2    0    0 -0.39945978026E+01  0.16400603945E+02  0.81082373609E+01  0.72461544530E+02  0.69999966437E+02 0.  0.
        -12    1    1    2    0    0  0.39945978026E+01 -0.16400603945E+02 -0.81082373609E+01  0.18726455470E+02  0.00000000000E+00 0.  1.
         11    1    3    3    0    0  0.21918261870E+02  0.12661360354E+01 -0.12762289828E+00  0.21955172323E+02  0.51100000000E-03 0. -1.
        -11    1    3    3    0    0  0.36524386401E+01  0.51071110642E+01 -0.11831047527E+02  0.13393900749E+02  0.51100000000E-03 0.  1.
         12    1    3    3    0    0 -0.29565298313E+02  0.10027356845E+02  0.20066907786E+02  0.37112471458E+02  0.00000000000E+00 0. -1.
</event>
<event>
 7    1  0.2700104E-013  0.7246148E+02  0.7816164E-02  0.1226708E+00
        -11   -1    0    0    0    0  0.00000000000E+00  0.00000000000E+00  0.45593999997E+02  0.45594000000E+02  0.51100000000E-03 0. -1.
         11   -1    0    0    0    0 -0.00000000000E+00 -0.00000000000E+00 -0.45593999997E+02  0.45594000000E+02  0.51100000000E-03 0.  1.
    9900012    2    1    2    0    0  0.12231688893E+01  0.73712799371E+01  0.17171213090E+02  0.72461482197E+02  0.69999885237E+02 0.  0.
        -12    1    1    2    0    0 -0.12231688893E+01 -0.73712799371E+01 -0.17171213090E+02  0.18726517803E+02  0.00000000000E+00 0.  1.
         11    1    3    3    0    0 -0.90741847126E+01  0.41481326789E+01 -0.14176945417E+02  0.17335905357E+02  0.51100000000E-03 0. -1.
        -11    1    3    3    0    0 -0.29485328052E+01  0.18270242073E+02  0.72053134082E+00  0.18520657569E+02  0.51100000000E-03 0.  1.
         12    1    3    3    0    0  0.13245886407E+02 -0.15047094815E+02  0.30627627166E+02  0.36604919272E+02  0.00000000000E+00 0. -1.
</event>
<event>
 7    1  0.2700104E-013  0.7246130E+02  0.7816164E-02  0.1226709E+00
        -11   -1    0    0    0    0  0.00000000000E+00  0.00000000000E+00  0.45593999997E+02  0.45594000000E+02  0.51100000000E-03 0.  1.
         11   -1    0    0    0    0 -0.00000000000E+00 -0.00000000000E+00 -0.45593999997E+02  0.45594000000E+02  0.51100000000E-03 0. -1.
    9900012    2    1    2    0    0  0.78750419973E+01 -0.29097009765E+01 -0.16739372534E+02  0.72461301437E+02  0.69999649763E+02 0.  0.
        -12    1    1    2    0    0 -0.78750419973E+01  0.29097009765E+01  0.16739372534E+02  0.18726698563E+02  0.00000000000E+00 0.  1.
         11    1    3    3    0    0  0.13353852424E+02 -0.10573276483E+02 -0.52346288485E+01  0.17819115847E+02  0.51100000000E-03 0. -1.
        -11    1    3    3    0    0  0.62793401488E+01  0.13393701516E+02  0.17446310820E+02  0.22873458735E+02  0.51100000000E-03 0.  1.
         12    1    3    3    0    0 -0.11758150575E+02 -0.57301260093E+01 -0.28951054506E+02  0.31768726855E+02  0.00000000000E+00 0. -1.
</event>
<event>
 7    1  0.2700104E-013  0.7246158E+02  0.7816164E-02  0.1226708E+00
        -11   -1    0    0    0    0  0.00000000000E+00  0.00000000000E+00  0.45593999997E+02  0.45594000000E+02  0.51100000000E-03 0.  1.
         11   -1    0    0    0    0 -0.00000000000E+00 -0.00000000000E+00 -0.45593999997E+02  0.45594000000E+02  0.51100000000E-03 0. -1.
    9900012    2    1    2    0    0 -0.97598985505E+01 -0.37227900527E+00 -0.15977630608E+02  0.72461577725E+02  0.70000009680E+02 0.  0.
        -12    1    1    2    0    0  0.97598985505E+01  0.37227900527E+00  0.15977630608E+02  0.18726422275E+02  0.00000000000E+00 0.  1.
         11    1    3    3    0    0  0.57029381945E+01 -0.70489321183E+01 -0.11699909369E+02  0.14801987284E+02  0.51100000000E-03 0. -1.
        -11    1    3    3    0    0  0.18412778952E+02  0.12302626396E+02 -0.69672539219E+01  0.23214815797E+02  0.51100000000E-03 0.  1.
        -12    1    3    3    0    0 -0.33875615697E+02 -0.56259732834E+01  0.26895326824E+01  0.34444774644E+02  0.00000000000E+00 0.  1.
</event>
<event>
 7    1  0.2700104E-013  0.7246203E+02  0.7816164E-02  0.1226707E+00
        -11   -1    0    0    0    0  0.00000000000E+00  0.00000000000E+00  0.45593999997E+02  0.45594000000E+02  0.51100000000E-03 0. -1.
         11   -1    0    0    0    0 -0.00000000000E+00 -0.00000000000E+00 -0.45593999997E+02  0.45594000000E+02  0.51100000000E-03 0.  1.
    9900012    2    1    2    0    0  0.78351648097E+01  0.65329672532E+01  0.15703257897E+02  0.72462034676E+02  0.70000604941E+02 0.  0.
        -12    1    1    2    0    0 -0.78351648097E+01 -0.65329672532E+01 -0.15703257897E+02  0.18725965324E+02  0.00000000000E+00 0.  1.
         11    1    3    3    0    0  0.23131513504E+02 -0.47223374210E+01 -0.79796312756E+01  0.24920712335E+02  0.51100000000E-03 0. -1.
        -11    1    3    3    0    0  0.97154897654E+01  0.87077927663E+00 -0.22879094771E+01  0.10019158047E+02  0.51100000000E-03 0.  1.
        -12    1    3    3    0    0 -0.25011838460E+02  0.10384525398E+02  0.25970798650E+02  0.37522164295E+02  0.00000000000E+00 0.  1.
</event>
<event>
 7    1  0.2700104E-013  0.7246153E+02  0.7816164E-02  0.1226708E+00
        -11   -1    0    0    0    0  0.00000000000E+00  0.00000000000E+00  0.45593999997E+02  0.45594000000E+02  0.51100000000E-03 0.  1.
         11   -1    0    0    0    0 -0.00000000000E+00 -0.00000000000E+00 -0.45593999997E+02  0.45594000000E+02  0.51100000000E-03 0. -1.
    9900012    2    1    2    0    0  0.48996192967E+01  0.91280739797E+01 -0.15599770899E+02  0.72461525267E+02  0.69999941344E+02 0.  0.
        -12    1    1    2    0    0 -0.48996192967E+01 -0.91280739797E+01  0.15599770899E+02  0.18726474733E+02  0.00000000000E+00 0.  1.
         11    1    3    3    0    0  0.24617430021E+01 -0.13836809283E+02 -0.26506332621E+01  0.14301864448E+02  0.51100000000E-03 0. -1.
        -11    1    3    3    0    0  0.21142756857E+02  0.11105865597E+02 -0.23607689723E+02  0.33580938529E+02  0.51100000000E-03 0.  1.
         12    1    3    3    0    0 -0.18704880563E+02  0.11859017666E+02  0.10658552086E+02  0.24578722290E+02  0.00000000000E+00 0. -1.
</event>
<event>
 7    1  0.2700104E-013  0.7246158E+02  0.7816164E-02  0.1226708E+00
        -11   -1    0    0    0    0  0.00000000000E+00  0.00000000000E+00  0.45593999997E+02  0.45594000000E+02  0.51100000000E-03 0.  1.
         11   -1    0    0    0    0 -0.00000000000E+00 -0.00000000000E+00 -0.45593999997E+02  0.45594000000E+02  0.51100000000E-03 0. -1.
    9900012    2    1    2    0    0 -0.10610937134E+02 -0.13231082290E+02 -0.79388504273E+01  0.72461578251E+02  0.70000010365E+02 0.  0.
        -12    1    1    2    0    0  0.10610937134E+02  0.13231082290E+02  0.79388504273E+01  0.18726421749E+02  0.00000000000E+00 0.  1.
         11    1    3    3    0    0  0.78563384033E+01  0.10696896307E+02 -0.95794701027E+01  0.16368014279E+02  0.51100000000E-03 0. -1.
        -11    1    3    3    0    0 -0.29032585013E+01 -0.35242888409E+01 -0.21232104069E+02  0.21717545101E+02  0.51100000000E-03 0.  1.
        -12    1    3    3    0    0 -0.15564017036E+02 -0.20403689757E+02  0.22872723744E+02  0.34376018871E+02  0.00000000000E+00 0.  1.
</event>
<event>
 7    1  0.2700104E-013  0.7246160E+02  0.7816164E-02  0.1226708E+00
        -11   -1    0    0    0    0  0.00000000000E+00  0.00000000000E+00  0.45593999997E+02  0.45594000000E+02  0.51100000000E-03 0. -1.
         11   -1    0    0    0    0 -0.00000000000E+00 -0.00000000000E+00 -0.45593999997E+02  0.45594000000E+02  0.51100000000E-03 0.  1.
    9900012    2    1    2    0    0 -0.80542658538E+01 -0.10919970697E+02  0.12905854253E+02  0.72461600654E+02  0.70000039549E+02 0.  0.
        -12    1    1    2    0    0  0.80542658538E+01  0.10919970697E+02 -0.12905854253E+02  0.18726399346E+02  0.00000000000E+00 0.  1.
         11    1    3    3    0    0 -0.22474653779E+02 -0.11604335963E+02  0.27247775505E+02  0.37178111112E+02  0.51100000000E-03 0. -1.
        -11    1    3    3    0    0 -0.88799035900E+01 -0.45756691846E+00 -0.44766921726E+01  0.99550403476E+01  0.51100000000E-03 0.  1.
        -12    1    3    3    0    0  0.23300291515E+02  0.11419321852E+01 -0.98652290790E+01  0.25328449194E+02  0.00000000000E+00 0.  1.
</event>
<event>
 7    1  0.2700104E-013  0.7246151E+02  0.7816164E-02  0.1226708E+00
        -11   -1    0    0    0    0  0.00000000000E+00  0.00000000000E+00  0.45593999997E+02  0.45594000000E+02  0.51100000000E-03 0.  1.
         11   -1    0    0    0    0 -0.00000000000E+00 -0.00000000000E+00 -0.45593999997E+02  0.45594000000E+02  0.51100000000E-03 0. -1.
    9900012    2    1    2    0    0 -0.15318901957E+02  0.56887795282E+01 -0.91460622816E+01  0.72461510074E+02  0.69999921552E+02 0.  0.
        -12    1    1    2    0    0  0.15318901957E+02 -0.56887795282E+01  0.91460622816E+01  0.18726489926E+02  0.00000000000E+00 0.  1.
         11    1    3    3    0    0 -0.13102645292E+02 -0.13726043573E+02  0.11423320546E+02  0.22148946665E+02  0.51100000000E-03 0. -1.
        -11    1    3    3    0    0 -0.19786050731E+02  0.31390434047E+01 -0.22496293640E+01  0.20159420368E+02  0.51100000000E-03 0.  1.
        -12    1    3    3    0    0  0.17569794067E+02  0.16275779697E+02 -0.18319753463E+02  0.30153143041E+02  0.00000000000E+00 0.  1.
</event>
<event>
 7    1  0.2700104E-013  0.7246156E+02  0.7816164E-02  0.1226708E+00
        -11   -1    0    0    0    0  0.00000000000E+00  0.00000000000E+00  0.45593999997E+02  0.45594000000E+02  0.51100000000E-03 0.  1.
         11   -1    0    0    0    0 -0.00000000000E+00 -0.00000000000E+00 -0.45593999997E+02  0.45594000000E+02  0.51100000000E-03 0. -1.
    9900012    2    1    2    0    0 -0.13244964675E+02  0.87815513006E+01 -0.99062967389E+01  0.72461562871E+02  0.69999990329E+02 0.  0.
        -12    1    1    2    0    0  0.13244964675E+02 -0.87815513006E+01  0.99062967389E+01  0.18726437129E+02  0.00000000000E+00 0.  1.
         11    1    3    3    0    0  0.11576903080E+02  0.24626490978E+02  0.15887043434E+01  0.27258259750E+02  0.51100000000E-03 0. -1.
        -11    1    3    3    0    0 -0.41354666423E+01 -0.91186615176E+00  0.10623953927E+02  0.11436869394E+02  0.51100000000E-03 0.  1.
         12    1    3    3    0    0 -0.20686401112E+02 -0.14933073526E+02 -0.22118955010E+02  0.33766433727E+02  0.00000000000E+00 0. -1.
</event>
<event>
 7    1  0.2700104E-013  0.7246158E+02  0.7816164E-02  0.1226708E+00
        -11   -1    0    0    0    0  0.00000000000E+00  0.00000000000E+00  0.45593999997E+02  0.45594000000E+02  0.51100000000E-03 0. -1.
         11   -1    0    0    0    0 -0.00000000000E+00 -0.00000000000E+00 -0.45593999997E+02  0.45594000000E+02  0.51100000000E-03 0.  1.
    9900012    2    1    2    0    0 -0.15965618051E+02 -0.80833664130E+01  0.55169720615E+01  0.72461581414E+02  0.70000014485E+02 0.  0.
        -12    1    1    2    0    0  0.15965618051E+02  0.80833664130E+01 -0.55169720615E+01  0.18726418586E+02  0.00000000000E+00 0.  1.
         11    1    3    3    0    0 -0.21588502033E+02 -0.14724033319E+02  0.95918759021E+01  0.27836390944E+02  0.51100000000E-03 0. -1.
        -11    1    3    3    0    0 -0.16214031462E+02 -0.79401538151E+01 -0.23296710837E-02  0.18053832406E+02  0.51100000000E-03 0.  1.
        -12    1    3    3    0    0  0.21836915444E+02  0.14580820721E+02 -0.40725741695E+01  0.26571358064E+02  0.00000000000E+00 0.  1.
</event>
<event>
 7    1  0.2700104E-013  0.7246155E+02  0.7816164E-02  0.1226708E+00
        -11   -1    0    0    0    0  0.00000000000E+00  0.00000000000E+00  0.45593999997E+02  0.45594000000E+02  0.51100000000E-03 0. -1.
         11   -1    0    0    0    0 -0.00000000000E+00 -0.00000000000E+00 -0.45593999997E+02  0.45594000000E+02  0.51100000000E-03 0.  1.
    9900012    2    1    2    0    0 -0.21415073311E+01 -0.80070110644E+01  0.16792306377E+02  0.72461552572E+02  0.69999976913E+02 0.  0.
        -12    1    1    2    0    0  0.21415073311E+01  0.80070110644E+01 -0.16792306377E+02  0.18726447428E+02  0.00000000000E+00 0.  1.
         11    1    3    3    0    0 -0.74138535199E+01 -0.17433356748E+02  0.10878028582E+02  0.21845334916E+02  0.51100000000E-03 0. -1.
        -11    1    3    3    0    0  0.38827790729E+01 -0.90145471395E+01 -0.17930137126E+02  0.20440837827E+02  0.51100000000E-03 0.  1.
         12    1    3    3    0    0  0.13895671159E+01  0.18440892823E+02  0.23844414921E+02  0.30175379828E+02  0.00000000000E+00 0. -1.
</event>
<event>
 7    1  0.2700104E-013  0.7246156E+02  0.7816164E-02  0.1226708E+00
        -11   -1    0    0    0    0  0.00000000000E+00  0.00000000000E+00  0.45593999997E+02  0.45594000000E+02  0.51100000000E-03 0.  1.
         11   -1    0    0    0    0 -0.00000000000E+00 -0.00000000000E+00 -0.45593999997E+02  0.45594000000E+02  0.51100000000E-03 0. -1.
    9900012    2    1    2    0    0 -0.26614008764E+01  0.85536348050E+01 -0.16444812034E+02  0.72461559713E+02  0.69999986216E+02 0.  0.
        -12    1    1    2    0    0  0.26614008764E+01 -0.85536348050E+01  0.16444812034E+02  0.18726440287E+02  0.00000000000E+00 0.  1.
         11    1    3    3    0    0 -0.11125063851E+02 -0.58087722906E+01 -0.19267839652E+02  0.22994749973E+02  0.51100000000E-03 0. -1.
        -11    1    3    3    0    0  0.43122449318E+01 -0.14079886619E+02  0.12315137444E+02  0.19196387006E+02  0.51100000000E-03 0.  1.
        -12    1    3    3    0    0  0.41514180428E+01  0.28442293715E+02 -0.94921098259E+01  0.30270422734E+02  0.00000000000E+00 0.  1.
</event>
<event>
 7    1  0.2700104E-013  0.7246160E+02  0.7816164E-02  0.1226708E+00
        -11   -1    0    0    0    0  0.00000000000E+00  0.00000000000E+00  0.45593999997E+02  0.45594000000E+02  0.51100000000E-03 0. -1.
         11   -1    0    0    0    0 -0.00000000000E+00 -0.00000000000E+00 -0.45593999997E+02  0.45594000000E+02  0.51100000000E-03 0.  1.
    9900012    2    1    2    0    0  0.10705620987E+02  0.79066331798E+01  0.13173952955E+02  0.72461596036E+02  0.70000033533E+02 0.  0.
        -12    1    1    2    0    0 -0.10705620987E+02 -0.79066331798E+01 -0.13173952955E+02  0.18726403964E+02  0.00000000000E+00 0.  1.
         11    1    3    3    0    0 -0.15108027740E+02  0.16652125511E+02 -0.10664592385E+02  0.24885323330E+02  0.51100000000E-03 0. -1.
        -11    1    3    3    0    0  0.33801359569E+01  0.10703158833E+02  0.89864146542E+01  0.14378406612E+02  0.51100000000E-03 0.  1.
        -12    1    3    3    0    0  0.22433512770E+02 -0.19448651164E+02  0.14852130686E+02  0.33197866095E+02  0.00000000000E+00 0.  1.
</event>
<event>
 7    1  0.2700104E-013  0.7246154E+02  0.7816164E-02  0.1226708E+00
        -11   -1    0    0    0    0  0.00000000000E+00  0.00000000000E+00  0.45593999997E+02  0.45594000000E+02  0.51100000000E-03 0. -1.
         11   -1    0    0    0    0 -0.00000000000E+00 -0.00000000000E+00 -0.45593999997E+02  0.45594000000E+02  0.51100000000E-03 0.  1.
    9900012    2    1    2    0    0 -0.14256313663E+02 -0.87016311314E+01 -0.84687371413E+01  0.72461538178E+02  0.69999958163E+02 0.  0.
        -12    1    1    2    0    0  0.14256313663E+02  0.87016311314E+01  0.84687371413E+01  0.18726461822E+02  0.00000000000E+00 0.  1.
         11    1    3    3    0    0  0.46832164658E+01 -0.36298924725E+01 -0.22928252455E+00  0.59296885723E+01  0.51100000000E-03 0. -1.
        -11    1    3    3    0    0  0.13236650392E+02  0.17382592530E+02 -0.15289407911E+02  0.26667010166E+02  0.51100000000E-03 0.  1.
         12    1    3    3    0    0 -0.32176180521E+02 -0.22454331189E+02  0.70499532940E+01  0.39864839439E+02  0.00000000000E+00 0. -1.
</event>
<event>
 7    1  0.2700104E-013  0.7246156E+02  0.7816164E-02  0.1226708E+00
        -11   -1    0    0    0    0  0.00000000000E+00  0.00000000000E+00  0.45593999997E+02  0.45594000000E+02  0.51100000000E-03 0.  1.
         11   -1    0    0    0    0 -0.00000000000E+00 -0.00000000000E+00 -0.45593999997E+02  0.45594000000E+02  0.51100000000E-03 0. -1.
    9900012    2    1    2    0    0  0.18510448588E+02  0.13568949515E+01 -0.24903067547E+01  0.72461561509E+02  0.69999988555E+02 0.  0.
        -12    1    1    2    0    0 -0.18510448588E+02 -0.13568949515E+01  0.24903067547E+01  0.18726438491E+02  0.00000000000E+00 0.  1.
         11    1    3    3    0    0  0.53959901004E+01  0.19420164364E+02 -0.21092922219E+02  0.29174832666E+02  0.51100000000E-03 0. -1.
        -11    1    3    3    0    0  0.96028178532E+01  0.81756250293E+01  0.58541333856E+01  0.13904166041E+02  0.51100000000E-03 0.  1.
        -12    1    3    3    0    0  0.35116406344E+01 -0.26238894442E+02  0.12748482078E+02  0.29382562802E+02  0.00000000000E+00 0.  1.
</event>
<event>
 7    1  0.2700104E-013  0.7246166E+02  0.7816164E-02  0.1226708E+00
        -11   -1    0    0    0    0  0.00000000000E+00  0.00000000000E+00  0.45593999997E+02  0.45594000000E+02  0.51100000000E-03 0. -1.
         11   -1    0    0    0    0 -0.00000000000E+00 -0.00000000000E+00 -0.45593999997E+02  0.45594000000E+02  0.51100000000E-03 0.  1.
    9900012    2    1    2    0    0 -0.11662402802E+02 -0.13063528041E+02 -0.66338809240E+01  0.72461660792E+02  0.70000117890E+02 0.  0.
        -12    1    1    2    0    0  0.11662402802E+02  0.13063528041E+02  0.66338809240E+01  0.18726339208E+02  0.00000000000E+00 0.  1.
         11    1    3    3    0    0 -0.10020806801E+02 -0.74078314545E+01  0.21376605306E+02  0.24743722244E+02  0.51100000000E-03 0. -1.
        -11    1    3    3    0    0 -0.25155750076E+01  0.15814902886E+02 -0.64087429809E+01  0.17248514654E+02  0.51100000000E-03 0.  1.
        -12    1    3    3    0    0  0.87397900633E+00 -0.21470599473E+02 -0.21601743249E+02  0.30469423894E+02  0.00000000000E+00 0.  1.
</event>
<event>
 7    1  0.2700104E-013  0.7246156E+02  0.7816164E-02  0.1226708E+00
        -11   -1    0    0    0    0  0.00000000000E+00  0.00000000000E+00  0.45593999997E+02  0.45594000000E+02  0.51100000000E-03 0. -1.
         11   -1    0    0    0    0 -0.00000000000E+00 -0.00000000000E+00 -0.45593999997E+02  0.45594000000E+02  0.51100000000E-03 0.  1.
    9900012    2    1    2    0    0  0.10819980878E+02 -0.14446023158E+02  0.49919779593E+01  0.72461563734E+02  0.69999991454E+02 0.  0.
        -12    1    1    2    0    0 -0.10819980878E+02  0.14446023158E+02 -0.49919779593E+01  0.18726436266E+02  0.00000000000E+00 0.  1.
         11    1    3    3    0    0 -0.40084609935E+01  0.87099342519E+01  0.63350134045E+01  0.11491871445E+02  0.51100000000E-03 0. -1.
        -11    1    3    3    0    0 -0.19138190769E+02 -0.17058756750E+02  0.43195768192E+01  0.25998659041E+02  0.51100000000E-03 0.  1.
         12    1    3    3    0    0  0.33966632640E+02 -0.60972006596E+01 -0.56626122644E+01  0.34971033248E+02  0.00000000000E+00 0. -1.
</event>
<event>
 7    1  0.2700104E-013  0.7246160E+02  0.7816164E-02  0.1226708E+00
        -11   -1    0    0    0    0  0.00000000000E+00  0.00000000000E+00  0.45593999997E+02  0.45594000000E+02  0.51100000000E-03 0.  1.
         11   -1    0    0    0    0 -0.00000000000E+00 -0.00000000000E+00 -0.45593999997E+02  0.45594000000E+02  0.51100000000E-03 0. -1.
    9900012    2    1    2    0    0  0.46999996177E+01  0.16634353510E+02  0.72032092083E+01  0.72461603230E+02  0.70000042905E+02 0.  0.
        -12    1    1    2    0    0 -0.46999996177E+01 -0.16634353510E+02 -0.72032092083E+01  0.18726396770E+02  0.00000000000E+00 0.  1.
         11    1    3    3    0    0  0.13304699184E+02  0.11831470479E+02 -0.93353958601E+01  0.20103440756E+02  0.51100000000E-03 0. -1.
        -11    1    3    3    0    0  0.15346123678E+02  0.16266532430E+02  0.12132662055E+02  0.25442190905E+02  0.51100000000E-03 0.  1.
        -12    1    3    3    0    0 -0.23950823245E+02 -0.11463649400E+02  0.44059430136E+01  0.26915971569E+02  0.00000000000E+00 0.  1.
</event>
<event>
 7    1  0.2700104E-013  0.7246201E+02  0.7816164E-02  0.1226707E+00
        -11   -1    0    0    0    0  0.00000000000E+00  0.00000000000E+00  0.45593999997E+02  0.45594000000E+02  0.51100000000E-03 0.  1.
         11   -1    0    0    0    0 -0.00000000000E+00 -0.00000000000E+00 -0.45593999997E+02  0.45594000000E+02  0.51100000000E-03 0. -1.
    9900012    2    1    2    0    0 -0.30315490632E+00  0.79046430672E+01 -0.16973139443E+02  0.72462008772E+02  0.70000571197E+02 0.  0.
        -12    1    1    2    0    0  0.30315490632E+00 -0.79046430672E+01  0.16973139443E+02  0.18725991228E+02  0.00000000000E+00 0.  1.
         11    1    3    3    0    0 -0.79754116418E+01  0.37257685304E+00 -0.20349303999E+02  0.21859555757E+02  0.51100000000E-03 0. -1.
        -11    1    3    3    0    0  0.36883184972E+00 -0.20891182338E+02 -0.10658624312E+01  0.20921606042E+02  0.51100000000E-03 0.  1.
         12    1    3    3    0    0  0.73034248857E+01  0.28423248552E+02  0.44420269879E+01  0.29680846973E+02  0.00000000000E+00 0. -1.
</event>
<event>
 7    1  0.2700104E-013  0.7246152E+02  0.7816164E-02  0.1226708E+00
        -11   -1    0    0    0    0  0.00000000000E+00  0.00000000000E+00  0.45593999997E+02  0.45594000000E+02  0.51100000000E-03 0.  1.
         11   -1    0    0    0    0 -0.00000000000E+00 -0.00000000000E+00 -0.45593999997E+02  0.45594000000E+02  0.51100000000E-03 0. -1.
    9900012    2    1    2    0    0  0.67082937736E+01 -0.38635570879E+01 -0.17051479744E+02  0.72461515008E+02  0.69999927979E+02 0.  0.
        -12    1    1    2    0    0 -0.67082937736E+01  0.38635570879E+01  0.17051479744E+02  0.18726484992E+02  0.00000000000E+00 0.  1.
         11    1    3    3    0    0 -0.98489851921E+01  0.12180730129E+02  0.86032346073E+01  0.17871439275E+02  0.51100000000E-03 0. -1.
        -11    1    3    3    0    0  0.11756125268E+02 -0.48848174676E+01  0.10466439966E+02  0.16480724766E+02  0.51100000000E-03 0.  1.
         12    1    3    3    0    0  0.48011536980E+01 -0.11159469750E+02 -0.36121154316E+02  0.38109350966E+02  0.00000000000E+00 0. -1.
</event>
<event>
 7    1  0.2700104E-013  0.7246162E+02  0.7816164E-02  0.1226708E+00
        -11   -1    0    0    0    0  0.00000000000E+00  0.00000000000E+00  0.45593999997E+02  0.45594000000E+02  0.51100000000E-03 0.  1.
         11   -1    0    0    0    0 -0.00000000000E+00 -0.00000000000E+00 -0.45593999997E+02  0.45594000000E+02  0.51100000000E-03 0. -1.
    9900012    2    1    2    0    0 -0.12914292379E+02 -0.13387423935E+02  0.21622168864E+01  0.72461621569E+02  0.70000066795E+02 0.  0.
        -12    1    1    2    0    0  0.12914292379E+02  0.13387423935E+02 -0.21622168864E+01  0.18726378431E+02  0.00000000000E+00 0.  1.
         11    1    3    3    0    0 -0.26608249753E+02 -0.14296803196E+02 -0.20587060982E+01  0.30275993916E+02  0.51100000000E-03 0. -1.
        -11    1    3    3    0    0 -0.82875173931E+01  0.43798344026E+01  0.14820838230E+02  0.17536337703E+02  0.51100000000E-03 0.  1.
         12    1    3    3    0    0  0.21981474768E+02 -0.34704551415E+01 -0.10599915245E+02  0.24649289950E+02  0.00000000000E+00 0. -1.
</event>
<event>
 7    1  0.2700104E-013  0.7246158E+02  0.7816164E-02  0.1226708E+00
        -11   -1    0    0    0    0  0.00000000000E+00  0.00000000000E+00  0.45593999997E+02  0.45594000000E+02  0.51100000000E-03 0.  1.
         11   -1    0    0    0    0 -0.00000000000E+00 -0.00000000000E+00 -0.45593999997E+02  0.45594000000E+02  0.51100000000E-03 0. -1.
    9900012    2    1    2    0    0 -0.17037280616E+02 -0.70431391862E+01  0.32869356573E+01  0.72461583193E+02  0.70000016804E+02 0.  0.
        -12    1    1    2    0    0  0.17037280616E+02  0.70431391862E+01 -0.32869356573E+01  0.18726416807E+02  0.00000000000E+00 0.  1.
         11    1    3    3    0    0 -0.77086373687E+01  0.79467275960E+01  0.66923121979E+01  0.12936792971E+02  0.51100000000E-03 0. -1.
        -11    1    3    3    0    0  0.21819757805E+02 -0.17662165149E+02 -0.32660951378E+01  0.28261657526E+02  0.51100000000E-03 0.  1.
         12    1    3    3    0    0 -0.31148401052E+02  0.26722983670E+01 -0.13928140285E+00  0.31263132696E+02  0.00000000000E+00 0. -1.
</event>
<event>
 7    1  0.2700104E-013  0.7246159E+02  0.7816164E-02  0.1226708E+00
        -11   -1    0    0    0    0  0.00000000000E+00  0.00000000000E+00  0.45593999997E+02  0.45594000000E+02  0.51100000000E-03 0. -1.
         11   -1    0    0    0    0 -0.00000000000E+00 -0.00000000000E+00 -0.45593999997E+02  0.45594000000E+02  0.51100000000E-03 0.  1.
    9900012    2    1    2    0    0 -0.44036062735E+01  0.77839299185E+00  0.18184628447E+02  0.72461592026E+02  0.70000028309E+02 0.  0.
        -12    1    1    2    0    0  0.44036062735E+01 -0.77839299185E+00 -0.18184628447E+02  0.18726407974E+02  0.00000000000E+00 0.  1.
         11    1    3    3    0    0  0.10904965656E+02 -0.57674869418E+01  0.11455826237E+02  0.16835027075E+02  0.51100000000E-03 0. -1.
        -11    1    3    3    0    0 -0.26384168475E+02 -0.15450438065E+02  0.30699777533E+01  0.30728897575E+02  0.51100000000E-03 0.  1.
         12    1    3    3    0    0  0.11075596546E+02  0.21996317998E+02  0.36588244572E+01  0.24897667376E+02  0.00000000000E+00 0. -1.
</event>
<event>
 7    1  0.2700104E-013  0.7246156E+02  0.7816164E-02  0.1226708E+00
        -11   -1    0    0    0    0  0.00000000000E+00  0.00000000000E+00  0.45593999997E+02  0.45594000000E+02  0.51100000000E-03 0. -1.
         11   -1    0    0    0    0 -0.00000000000E+00 -0.00000000000E+00 -0.45593999997E+02  0.45594000000E+02  0.51100000000E-03 0.  1.
    9900012    2    1    2    0    0 -0.15379434334E+02  0.66678340036E+01  0.83482072424E+01  0.72461559470E+02  0.69999985900E+02 0.  0.
        -12    1    1    2    0    0  0.15379434334E+02 -0.66678340036E+01 -0.83482072424E+01  0.18726440530E+02  0.00000000000E+00 0.  1.
         11    1    3    3    0    0 -0.46472750868E+01 -0.18551523265E+02  0.11805887056E+02  0.22475211915E+02  0.51100000000E-03 0. -1.
        -11    1    3    3    0    0  0.10514124879E+02  0.67686252621E+01  0.12463452088E+02  0.17654992159E+02  0.51100000000E-03 0.  1.
         12    1    3    3    0    0 -0.21246284126E+02  0.18450732006E+02 -0.15921131902E+02  0.32331355397E+02  0.00000000000E+00 0. -1.
</event>
<event>
 7    1  0.2700104E-013  0.7246155E+02  0.7816164E-02  0.1226708E+00
        -11   -1    0    0    0    0  0.00000000000E+00  0.00000000000E+00  0.45593999997E+02  0.45594000000E+02  0.51100000000E-03 0. -1.
         11   -1    0    0    0    0 -0.00000000000E+00 -0.00000000000E+00 -0.45593999997E+02  0.45594000000E+02  0.51100000000E-03 0.  1.
    9900012    2    1    2    0    0  0.11425836826E+02  0.91030046181E+00  0.14808831706E+02  0.72461551041E+02  0.69999974919E+02 0.  0.
        -12    1    1    2    0    0 -0.11425836826E+02 -0.91030046181E+00 -0.14808831706E+02  0.18726448959E+02  0.00000000000E+00 0.  1.
         11    1    3    3    0    0  0.12677573243E+02  0.15372020928E+02  0.10891986940E+02  0.22708044181E+02  0.51100000000E-03 0. -1.
        -11    1    3    3    0    0  0.10160167794E+02  0.14155928202E+02 -0.41371176501E+01  0.17909077463E+02  0.51100000000E-03 0.  1.
         12    1    3    3    0    0 -0.11411904211E+02 -0.28617648668E+02  0.80539624169E+01  0.31844429397E+02  0.00000000000E+00 0. -1.
</event>
<event>
 7    1  0.2700104E-013  0.7246159E+02  0.7816164E-02  0.1226708E+00
        -11   -1    0    0    0    0  0.00000000000E+00  0.00000000000E+00  0.45593999997E+02  0.45594000000E+02  0.51100000000E-03 0.  1.
         11   -1    0    0    0    0 -0.00000000000E+00 -0.00000000000E+00 -0.45593999997E+02  0.45594000000E+02  0.51100000000E-03 0. -1.
    9900012    2    1    2    0    0 -0.87069278700E+01  0.13622374976E+02 -0.94497977074E+01  0.72461591651E+02  0.70000027821E+02 0.  0.
        -12    1    1    2    0    0  0.87069278700E+01 -0.13622374976E+02  0.94497977074E+01  0.18726408349E+02  0.00000000000E+00 0.  1.
         11    1    3    3    0    0 -0.19928039489E+02  0.30190131780E+01 -0.98774462870E+01  0.22445604110E+02  0.51100000000E-03 0. -1.
        -11    1    3    3    0    0 -0.85908444491E+01  0.10935709345E+02  0.18536300176E+02  0.23172975029E+02  0.51100000000E-03 0.  1.
        -12    1    3    3    0    0  0.19811956068E+02 -0.33234754656E+00 -0.18108651596E+02  0.26843012513E+02  0.00000000000E+00 0.  1.
</event>
<event>
 7    1  0.2700104E-013  0.7246158E+02  0.7816164E-02  0.1226708E+00
        -11   -1    0    0    0    0  0.00000000000E+00  0.00000000000E+00  0.45593999997E+02  0.45594000000E+02  0.51100000000E-03 0.  1.
         11   -1    0    0    0    0 -0.00000000000E+00 -0.00000000000E+00 -0.45593999997E+02  0.45594000000E+02  0.51100000000E-03 0. -1.
    9900012    2    1    2    0    0  0.94366385431E+01  0.14843950233E+02 -0.64254088104E+01  0.72461577921E+02  0.70000009935E+02 0.  0.
        -12    1    1    2    0    0 -0.94366385431E+01 -0.14843950233E+02  0.64254088104E+01  0.18726422079E+02  0.00000000000E+00 0.  1.
         11    1    3    3    0    0  0.31559598111E+02 -0.91501432854E+01  0.29802038502E+01  0.32994165702E+02  0.51100000000E-03 0. -1.
        -11    1    3    3    0    0  0.12699259969E+01 -0.25857451033E+01 -0.22956206319E+00  0.28898942505E+01  0.51100000000E-03 0.  1.
        -12    1    3    3    0    0 -0.23392885565E+02  0.26579838621E+02 -0.91760505974E+01  0.36577517969E+02  0.00000000000E+00 0.  1.
</event>
<event>
 7    1  0.2700104E-013  0.7246156E+02  0.7816164E-02  0.1226708E+00
        -11   -1    0    0    0    0  0.00000000000E+00  0.00000000000E+00  0.45593999997E+02  0.45594000000E+02  0.51100000000E-03 0. -1.
         11   -1    0    0    0    0 -0.00000000000E+00 -0.00000000000E+00 -0.45593999997E+02  0.45594000000E+02  0.51100000000E-03 0.  1.
    9900012    2    1    2    0    0  0.11684513072E+02 -0.14400790142E+02  0.26016965953E+01  0.72461563403E+02  0.69999991023E+02 0.  0.
        -12    1    1    2    0    0 -0.11684513072E+02  0.14400790142E+02 -0.26016965953E+01  0.18726436597E+02  0.00000000000E+00 0.  1.
         11    1    3    3    0    0 -0.12336813106E+01  0.24550704768E+01  0.52945970806E+01  0.59650732711E+01  0.51100000000E-03 0. -1.
        -11    1    3    3    0    0  0.34165939298E+02  0.53156138921E+01  0.47411435849E+01  0.34900510053E+02  0.51100000000E-03 0.  1.
         12    1    3    3    0    0 -0.21247744916E+02 -0.22171474510E+02 -0.74340440702E+01  0.31595980080E+02  0.00000000000E+00 0. -1.
</event>
<event>
 7    1  0.2700104E-013  0.7246151E+02  0.7816164E-02  0.1226708E+00
        -11   -1    0    0    0    0  0.00000000000E+00  0.00000000000E+00  0.45593999997E+02  0.45594000000E+02  0.51100000000E-03 0. -1.
         11   -1    0    0    0    0 -0.00000000000E+00 -0.00000000000E+00 -0.45593999997E+02  0.45594000000E+02  0.51100000000E-03 0.  1.
    9900012    2    1    2    0    0  0.29394315728E+01  0.16557767573E+02 -0.82390264998E+01  0.72461508534E+02  0.69999919546E+02 0.  0.
        -12    1    1    2    0    0 -0.29394315728E+01 -0.16557767573E+02  0.82390264998E+01  0.18726491466E+02  0.00000000000E+00 0.  1.
         11    1    3    3    0    0  0.61895131489E+01 -0.96694877918E+01  0.23707192518E+02  0.26340843656E+02  0.51100000000E-03 0. -1.
        -11    1    3    3    0    0 -0.11724732501E+01  0.13292424316E+01  0.28063194512E+01  0.33191878657E+01  0.51100000000E-03 0.  1.
        -12    1    3    3    0    0 -0.20776083260E+01  0.24898012933E+02 -0.34752538469E+02  0.42801477012E+02  0.00000000000E+00 0.  1.
</event>
<event>
 7    1  0.2700104E-013  0.7246159E+02  0.7816164E-02  0.1226708E+00
        -11   -1    0    0    0    0  0.00000000000E+00  0.00000000000E+00  0.45593999997E+02  0.45594000000E+02  0.51100000000E-03 0. -1.
         11   -1    0    0    0    0 -0.00000000000E+00 -0.00000000000E+00 -0.45593999997E+02  0.45594000000E+02  0.51100000000E-03 0.  1.
    9900012    2    1    2    0    0 -0.57734247939E+01 -0.83823627697E+01  0.15718841847E+02  0.72461590081E+02  0.70000025776E+02 0.  0.
        -12    1    1    2    0    0  0.57734247939E+01  0.83823627697E+01 -0.15718841847E+02  0.18726409919E+02  0.00000000000E+00 0.  1.
         11    1    3    3    0    0  0.54484570146E+01  0.34864732985E+01  0.35944530910E+01  0.74000860256E+01  0.51100000000E-03 0. -1.
        -11    1    3    3    0    0  0.15159063506E+02  0.23685241194E+01 -0.17253459144E+02  0.23088719444E+02  0.51100000000E-03 0.  1.
         12    1    3    3    0    0 -0.26380945314E+02 -0.14237360188E+02  0.29377847900E+02  0.41972784611E+02  0.00000000000E+00 0. -1.
</event>
<event>
 7    1  0.2700104E-013  0.7246156E+02  0.7816164E-02  0.1226708E+00
        -11   -1    0    0    0    0  0.00000000000E+00  0.00000000000E+00  0.45593999997E+02  0.45594000000E+02  0.51100000000E-03 0.  1.
         11   -1    0    0    0    0 -0.00000000000E+00 -0.00000000000E+00 -0.45593999997E+02  0.45594000000E+02  0.51100000000E-03 0. -1.
    9900012    2    1    2    0    0  0.16392722319E+02  0.49395261727E+01 -0.75867723807E+01  0.72461564702E+02  0.69999992715E+02 0.  0.
        -12    1    1    2    0    0 -0.16392722319E+02 -0.49395261727E+01  0.75867723807E+01  0.18726435298E+02  0.00000000000E+00 0.  1.
         11    1    3    3    0    0 -0.72980781260E+01  0.59037651980E+01  0.11468753291E+01  0.94568340964E+01  0.51100000000E-03 0. -1.
        -11    1    3    3    0    0 -0.60017751193E+00 -0.67895606034E+01  0.22212510854E+02  0.23234758121E+02  0.51100000000E-03 0.  1.
         12    1    3    3    0    0  0.24290977956E+02  0.58253215782E+01 -0.30946158564E+02  0.39769972485E+02  0.00000000000E+00 0. -1.
</event>
<event>
 7    1  0.2700104E-013  0.7246155E+02  0.7816164E-02  0.1226708E+00
        -11   -1    0    0    0    0  0.00000000000E+00  0.00000000000E+00  0.45593999997E+02  0.45594000000E+02  0.51100000000E-03 0. -1.
         11   -1    0    0    0    0 -0.00000000000E+00 -0.00000000000E+00 -0.45593999997E+02  0.45594000000E+02  0.51100000000E-03 0.  1.
    9900012    2    1    2    0    0  0.12071267585E+02 -0.10734624745E+02  0.94727109688E+01  0.72461550186E+02  0.69999973805E+02 0.  0.
        -12    1    1    2    0    0 -0.12071267585E+02  0.10734624745E+02 -0.94727109688E+01  0.18726449814E+02  0.00000000000E+00 0.  1.
         11    1    3    3    0    0  0.15265808615E+02  0.97080869176E+01  0.15278075793E+02  0.23679346791E+02  0.51100000000E-03 0. -1.
        -11    1    3    3    0    0  0.12535976159E+02 -0.10947308525E+01  0.12586079338E+02  0.17797711293E+02  0.51100000000E-03 0.  1.
        -12    1    3    3    0    0 -0.15730517188E+02 -0.19347980810E+02 -0.18391444162E+02  0.30984492102E+02  0.00000000000E+00 0.  1.
</event>
<event>
 7    1  0.2700104E-013  0.7246153E+02  0.7816164E-02  0.1226708E+00
        -11   -1    0    0    0    0  0.00000000000E+00  0.00000000000E+00  0.45593999997E+02  0.45594000000E+02  0.51100000000E-03 0.  1.
         11   -1    0    0    0    0 -0.00000000000E+00 -0.00000000000E+00 -0.45593999997E+02  0.45594000000E+02  0.51100000000E-03 0. -1.
    9900012    2    1    2    0    0 -0.18393139598E+01 -0.10547351344E+02 -0.15363949166E+02  0.72461531294E+02  0.69999949195E+02 0.  0.
        -12    1    1    2    0    0  0.18393139598E+01  0.10547351344E+02  0.15363949166E+02  0.18726468706E+02  0.00000000000E+00 0.  1.
         11    1    3    3    0    0  0.61195455409E+01 -0.18846944753E+01  0.16690880695E+01  0.66171569527E+01  0.51100000000E-03 0. -1.
        -11    1    3    3    0    0 -0.16476856524E+02 -0.36633847689E-01  0.20558433171E+02  0.26346485869E+02  0.51100000000E-03 0.  1.
         12    1    3    3    0    0  0.85179970237E+01 -0.86260230206E+01 -0.37591470406E+02  0.39497888472E+02  0.00000000000E+00 0. -1.
</event>
<event>
 7    1  0.2700104E-013  0.7246150E+02  0.7816164E-02  0.1226708E+00
        -11   -1    0    0    0    0  0.00000000000E+00  0.00000000000E+00  0.45593999997E+02  0.45594000000E+02  0.51100000000E-03 0. -1.
         11   -1    0    0    0    0 -0.00000000000E+00 -0.00000000000E+00 -0.45593999997E+02  0.45594000000E+02  0.51100000000E-03 0.  1.
    9900012    2    1    2    0    0 -0.11203949344E+02 -0.36655690025E+01  0.14550492078E+02  0.72461502818E+02  0.69999912099E+02 0.  0.
        -12    1    1    2    0    0  0.11203949344E+02  0.36655690025E+01 -0.14550492078E+02  0.18726497182E+02  0.00000000000E+00 0.  1.
         11    1    3    3    0    0 -0.42485512942E+01 -0.96567414946E+01  0.16245351179E+02  0.19370448616E+02  0.51100000000E-03 0. -1.
        -11    1    3    3    0    0 -0.23571924795E+02 -0.13138484841E+02 -0.52861251712E+01  0.27499064385E+02  0.51100000000E-03 0.  1.
        -12    1    3    3    0    0  0.16616526745E+02  0.19129657333E+02  0.35912660700E+01  0.25591989816E+02  0.00000000000E+00 0.  1.
</event>
<event>
 7    1  0.2700104E-013  0.7246156E+02  0.7816164E-02  0.1226708E+00
        -11   -1    0    0    0    0  0.00000000000E+00  0.00000000000E+00  0.45593999997E+02  0.45594000000E+02  0.51100000000E-03 0.  1.
         11   -1    0    0    0    0 -0.00000000000E+00 -0.00000000000E+00 -0.45593999997E+02  0.45594000000E+02  0.51100000000E-03 0. -1.
    9900012    2    1    2    0    0 -0.20875024660E+01  0.13650111181E+01 -0.18559599213E+02  0.72461557604E+02  0.69999983468E+02 0.  0.
        -12    1    1    2    0    0  0.20875024660E+01 -0.13650111181E+01  0.18559599213E+02  0.18726442396E+02  0.00000000000E+00 0.  1.
         11    1    3    3    0    0  0.41222567565E+01 -0.87518826820E+01 -0.14074693337E+02  0.17078801013E+02  0.51100000000E-03 0. -1.
        -11    1    3    3    0    0 -0.28566179077E+00 -0.15268938011E+02  0.16082438556E+02  0.22178072522E+02  0.51100000000E-03 0.  1.
        -12    1    3    3    0    0 -0.59240974316E+01  0.25385831811E+02 -0.20567344431E+02  0.33204684068E+02  0.00000000000E+00 0.  1.
</event>
<event>
 7    1  0.2700104E-013  0.7246147E+02  0.7816164E-02  0.1226708E+00
        -11   -1    0    0    0    0  0.00000000000E+00  0.00000000000E+00  0.45593999997E+02  0.45594000000E+02  0.51100000000E-03 0.  1.
         11   -1    0    0    0    0 -0.00000000000E+00 -0.00000000000E+00 -0.45593999997E+02  0.45594000000E+02  0.51100000000E-03 0. -1.
    9900012    2    1    2    0    0 -0.32617990403E+00 -0.12244083545E+02 -0.14165408421E+02  0.72461474137E+02  0.69999874737E+02 0.  0.
        -12    1    1    2    0    0  0.32617990403E+00  0.12244083545E+02  0.14165408421E+02  0.18726525863E+02  0.00000000000E+00 0.  1.
         11    1    3    3    0    0 -0.81353068456E+01 -0.18546368754E+02 -0.21425409978E+02  0.29482184526E+02  0.51100000000E-03 0. -1.
        -11    1    3    3    0    0  0.15337339646E+02  0.73946162778E+00 -0.13347548782E+02  0.20345462631E+02  0.51100000000E-03 0.  1.
        -12    1    3    3    0    0 -0.75282127045E+01  0.55628235820E+01  0.20607550340E+02  0.22633826980E+02  0.00000000000E+00 0.  1.
</event>
<event>
 7    1  0.2700104E-013  0.7246157E+02  0.7816164E-02  0.1226708E+00
        -11   -1    0    0    0    0  0.00000000000E+00  0.00000000000E+00  0.45593999997E+02  0.45594000000E+02  0.51100000000E-03 0. -1.
         11   -1    0    0    0    0 -0.00000000000E+00 -0.00000000000E+00 -0.45593999997E+02  0.45594000000E+02  0.51100000000E-03 0.  1.
    9900012    2    1    2    0    0  0.14969015579E+02  0.77814664904E+00  0.11225065615E+02  0.72461573815E+02  0.70000004586E+02 0.  0.
        -12    1    1    2    0    0 -0.14969015579E+02 -0.77814664904E+00 -0.11225065615E+02  0.18726426185E+02  0.00000000000E+00 0.  1.
         11    1    3    3    0    0 -0.16208958205E+02 -0.20101117489E+01  0.18619257266E+02  0.24767874691E+02  0.51100000000E-03 0. -1.
        -11    1    3    3    0    0  0.11807882012E+02 -0.14534236912E+02 -0.10587994645E+02  0.21512223295E+02  0.51100000000E-03 0.  1.
         12    1    3    3    0    0  0.19370091771E+02  0.17322495310E+02  0.31938029939E+01  0.26181475828E+02  0.00000000000E+00 0. -1.
</event>
<event>
 7    1  0.2700104E-013  0.7246156E+02  0.7816164E-02  0.1226708E+00
        -11   -1    0    0    0    0  0.00000000000E+00  0.00000000000E+00  0.45593999997E+02  0.45594000000E+02  0.51100000000E-03 0.  1.
         11   -1    0    0    0    0 -0.00000000000E+00 -0.00000000000E+00 -0.45593999997E+02  0.45594000000E+02  0.51100000000E-03 0. -1.
    9900012    2    1    2    0    0  0.27516023573E+01  0.15326436206E+02  0.10402338602E+02  0.72461558515E+02  0.69999984655E+02 0.  0.
        -12    1    1    2    0    0 -0.27516023573E+01 -0.15326436206E+02 -0.10402338602E+02  0.18726441485E+02  0.00000000000E+00 0.  1.
         11    1    3    3    0    0 -0.52755475532E+01 -0.60791048943E+01  0.27388936689E+02  0.28547167487E+02  0.51100000000E-03 0. -1.
        -11    1    3    3    0    0 -0.49945365675E+01  0.19019967749E+01  0.80164103122E+01  0.96346158102E+01  0.51100000000E-03 0.  1.
         12    1    3    3    0    0  0.13021686478E+02  0.19503544325E+02 -0.25003008399E+02  0.34279775218E+02  0.00000000000E+00 0. -1.
</event>
<event>
 7    1  0.2700104E-013  0.7246157E+02  0.7816164E-02  0.1226708E+00
        -11   -1    0    0    0    0  0.00000000000E+00  0.00000000000E+00  0.45593999997E+02  0.45594000000E+02  0.51100000000E-03 0. -1.
         11   -1    0    0    0    0 -0.00000000000E+00 -0.00000000000E+00 -0.45593999997E+02  0.45594000000E+02  0.51100000000E-03 0.  1.
    9900012    2    1    2    0    0 -0.68626821195E+00  0.12393118498E+02 -0.14022087693E+02  0.72461566986E+02  0.69999995690E+02 0.  0.
        -12    1    1    2    0    0  0.68626821195E+00 -0.12393118498E+02  0.14022087693E+02  0.18726433014E+02  0.00000000000E+00 0.  1.
         11    1    3    3    0    0  0.29743352698E+02  0.63608382130E+01 -0.12920796171E+02  0.33046546967E+02  0.51100000000E-03 0. -1.
        -11    1    3    3    0    0 -0.18946610543E+02 -0.46300790274E+01  0.82386200307E+01  0.21172778352E+02  0.51100000000E-03 0.  1.
        -12    1    3    3    0    0 -0.11483010367E+02  0.10662359313E+02 -0.93399115523E+01  0.18242241666E+02  0.00000000000E+00 0.  1.
</event>
<event>
 7    1  0.2700104E-013  0.7246160E+02  0.7816164E-02  0.1226708E+00
        -11   -1    0    0    0    0  0.00000000000E+00  0.00000000000E+00  0.45593999997E+02  0.45594000000E+02  0.51100000000E-03 0.  1.
         11   -1    0    0    0    0 -0.00000000000E+00 -0.00000000000E+00 -0.45593999997E+02  0.45594000000E+02  0.51100000000E-03 0. -1.
    9900012    2    1    2    0    0  0.69882814291E+01  0.16292987990E+02 -0.60316369258E+01  0.72461596742E+02  0.70000034453E+02 0.  0.
        -12    1    1    2    0    0 -0.69882814291E+01 -0.16292987990E+02  0.60316369258E+01  0.18726403258E+02  0.00000000000E+00 0.  1.
         11    1    3    3    0    0  0.62343829319E+01 -0.45535536227E+00 -0.95323400065E+01  0.11399139674E+02  0.51100000000E-03 0. -1.
        -11    1    3    3    0    0 -0.20997201575E+02  0.90061458242E+01 -0.18327277870E+02  0.29289627020E+02  0.51100000000E-03 0.  1.
        -12    1    3    3    0    0  0.21751100072E+02  0.77421975284E+01  0.21827980950E+02  0.31772830048E+02  0.00000000000E+00 0.  1.
</event>
<event>
 7    1  0.2700104E-013  0.7246161E+02  0.7816164E-02  0.1226708E+00
        -11   -1    0    0    0    0  0.00000000000E+00  0.00000000000E+00  0.45593999997E+02  0.45594000000E+02  0.51100000000E-03 0.  1.
         11   -1    0    0    0    0 -0.00000000000E+00 -0.00000000000E+00 -0.45593999997E+02  0.45594000000E+02  0.51100000000E-03 0. -1.
    9900012    2    1    2    0    0 -0.13016053633E+01 -0.18677626078E+02 -0.36051980183E+00  0.72461605073E+02  0.70000045305E+02 0.  0.
        -12    1    1    2    0    0  0.13016053633E+01  0.18677626078E+02  0.36051980183E+00  0.18726394927E+02  0.00000000000E+00 0.  1.
         11    1    3    3    0    0  0.16129064506E+02  0.16043590322E+02 -0.13528140276E+02  0.26467982391E+02  0.51100000000E-03 0. -1.
        -11    1    3    3    0    0 -0.13846184103E+02 -0.23951333584E+02 -0.11900215461E+01  0.27691142017E+02  0.51100000000E-03 0.  1.
        -12    1    3    3    0    0 -0.35844857663E+01 -0.10769882816E+02  0.14357642020E+02  0.18302480665E+02  0.00000000000E+00 0.  1.
</event>
<event>
 7    1  0.2700104E-013  0.7246160E+02  0.7816164E-02  0.1226708E+00
        -11   -1    0    0    0    0  0.00000000000E+00  0.00000000000E+00  0.45593999997E+02  0.45594000000E+02  0.51100000000E-03 0. -1.
         11   -1    0    0    0    0 -0.00000000000E+00 -0.00000000000E+00 -0.45593999997E+02  0.45594000000E+02  0.51100000000E-03 0.  1.
    9900012    2    1    2    0    0 -0.24729330908E+01 -0.11516389261E+02  0.14557996535E+02  0.72461604651E+02  0.70000044756E+02 0.  0.
        -12    1    1    2    0    0  0.24729330908E+01  0.11516389261E+02 -0.14557996535E+02  0.18726395349E+02  0.00000000000E+00 0.  1.
         11    1    3    3    0    0  0.14493004713E+02 -0.14275863092E+02  0.19399271027E+01  0.20435527154E+02  0.51100000000E-03 0. -1.
        -11    1    3    3    0    0 -0.21021284234E+01  0.24188142767E+02  0.43360478878E+01  0.24663465003E+02  0.51100000000E-03 0.  1.
         12    1    3    3    0    0 -0.14863809380E+02 -0.21428668935E+02  0.82820215442E+01  0.27362612494E+02  0.00000000000E+00 0. -1.
</event>
<event>
 7    1  0.2700104E-013  0.7246159E+02  0.7816164E-02  0.1226708E+00
        -11   -1    0    0    0    0  0.00000000000E+00  0.00000000000E+00  0.45593999997E+02  0.45594000000E+02  0.51100000000E-03 0.  1.
         11   -1    0    0    0    0 -0.00000000000E+00 -0.00000000000E+00 -0.45593999997E+02  0.45594000000E+02  0.51100000000E-03 0. -1.
    9900012    2    1    2    0    0 -0.11191844357E+02  0.13567890253E+02 -0.64291012248E+01  0.72461591680E+02  0.70000027859E+02 0.  0.
        -12    1    1    2    0    0  0.11191844357E+02 -0.13567890253E+02  0.64291012248E+01  0.18726408320E+02  0.00000000000E+00 0.  1.
         11    1    3    3    0    0  0.20680390371E+01 -0.89216092518E+01 -0.80333697394E+01  0.12182238166E+02  0.51100000000E-03 0. -1.
        -11    1    3    3    0    0 -0.82228988984E+01  0.11040455003E+02  0.27927198744E+02  0.31135769509E+02  0.51100000000E-03 0.  1.
         12    1    3    3    0    0 -0.50369844956E+01  0.11449044501E+02 -0.26322930229E+02  0.29143584005E+02  0.00000000000E+00 0. -1.
</event>
<event>
 7    1  0.2700104E-013  0.7246157E+02  0.7816164E-02  0.1226708E+00
        -11   -1    0    0    0    0  0.00000000000E+00  0.00000000000E+00  0.45593999997E+02  0.45594000000E+02  0.51100000000E-03 0.  1.
         11   -1    0    0    0    0 -0.00000000000E+00 -0.00000000000E+00 -0.45593999997E+02  0.45594000000E+02  0.51100000000E-03 0. -1.
    9900012    2    1    2    0    0  0.11151346359E+01 -0.71859344851E+01 -0.17256825972E+02  0.72461568885E+02  0.69999998164E+02 0.  0.
        -12    1    1    2    0    0 -0.11151346359E+01  0.71859344851E+01  0.17256825972E+02  0.18726431115E+02  0.00000000000E+00 0.  1.
         11    1    3    3    0    0  0.17415574489E+02 -0.89114024749E+01 -0.74435251239E+01  0.20931349584E+02  0.51100000000E-03 0. -1.
        -11    1    3    3    0    0  0.14680282557E+02 -0.77930997154E+01 -0.94477915268E+01  0.19118155354E+02  0.51100000000E-03 0.  1.
        -12    1    3    3    0    0 -0.30980722411E+02  0.95185677053E+01 -0.36550932139E+00  0.32412063947E+02  0.00000000000E+00 0.  1.
</event>
<event>
 7    1  0.2700104E-013  0.7246158E+02  0.7816164E-02  0.1226708E+00
        -11   -1    0    0    0    0  0.00000000000E+00  0.00000000000E+00  0.45593999997E+02  0.45594000000E+02  0.51100000000E-03 0.  1.
         11   -1    0    0    0    0 -0.00000000000E+00 -0.00000000000E+00 -0.45593999997E+02  0.45594000000E+02  0.51100000000E-03 0. -1.
    9900012    2    1    2    0    0 -0.15673343714E+02 -0.28638238267E+01 -0.98398933424E+01  0.72461583069E+02  0.70000016641E+02 0.  0.
        -12    1    1    2    0    0  0.15673343714E+02  0.28638238267E+01  0.98398933424E+01  0.18726416931E+02  0.00000000000E+00 0.  1.
         11    1    3    3    0    0 -0.12578147645E+02 -0.26394397491E+02  0.98277670662E+01  0.30845729410E+02  0.51100000000E-03 0.  1.
        -11    1    3    3    0    0 -0.24702037887E+01 -0.62874837737E+01 -0.24996867663E+01  0.72029711337E+01  0.51100000000E-03 0. -1.
        -12    1    3    3    0    0 -0.62499228019E+00  0.29818057438E+02 -0.17167973642E+02  0.34412882525E+02  0.00000000000E+00 0.  1.
</event>
<event>
 7    1  0.2700104E-013  0.7246160E+02  0.7816164E-02  0.1226708E+00
        -11   -1    0    0    0    0  0.00000000000E+00  0.00000000000E+00  0.45593999997E+02  0.45594000000E+02  0.51100000000E-03 0.  1.
         11   -1    0    0    0    0 -0.00000000000E+00 -0.00000000000E+00 -0.45593999997E+02  0.45594000000E+02  0.51100000000E-03 0. -1.
    9900012    2    1    2    0    0  0.18032121684E+02 -0.50443521317E+01 -0.27438618381E+00  0.72461596485E+02  0.70000034118E+02 0.  0.
        -12    1    1    2    0    0 -0.18032121684E+02  0.50443521317E+01  0.27438618381E+00  0.18726403515E+02  0.00000000000E+00 0.  1.
         11    1    3    3    0    0 -0.12878702854E+02 -0.18638379714E+02  0.16541758767E+02  0.28051380873E+02  0.51100000000E-03 0. -1.
        -11    1    3    3    0    0  0.67072175489E+01 -0.63173417629E+01 -0.89614974464E+00  0.92573570107E+01  0.51100000000E-03 0.  1.
         12    1    3    3    0    0  0.24203606988E+02  0.19911369345E+02 -0.15919995206E+02  0.35152858601E+02  0.00000000000E+00 0. -1.
</event>
<event>
 7    1  0.2700104E-013  0.7246158E+02  0.7816164E-02  0.1226708E+00
        -11   -1    0    0    0    0  0.00000000000E+00  0.00000000000E+00  0.45593999997E+02  0.45594000000E+02  0.51100000000E-03 0.  1.
         11   -1    0    0    0    0 -0.00000000000E+00 -0.00000000000E+00 -0.45593999997E+02  0.45594000000E+02  0.51100000000E-03 0. -1.
    9900012    2    1    2    0    0  0.85466654048E+01  0.13226453468E+02  0.10133816644E+02  0.72461580143E+02  0.70000012830E+02 0.  0.
        -12    1    1    2    0    0 -0.85466654048E+01 -0.13226453468E+02 -0.10133816644E+02  0.18726419857E+02  0.00000000000E+00 0.  1.
         11    1    3    3    0    0  0.78419928855E+01  0.10655473979E+02  0.34858701808E+01  0.13681639862E+02  0.51100000000E-03 0. -1.
        -11    1    3    3    0    0  0.36190440342E+01 -0.15106485907E+02  0.27318172673E+02  0.31425880332E+02  0.51100000000E-03 0.  1.
         12    1    3    3    0    0 -0.29143715149E+01  0.17677465396E+02 -0.20670226210E+02  0.27354059950E+02  0.00000000000E+00 0. -1.
</event>
<event>
 7    1  0.2700104E-013  0.7246158E+02  0.7816164E-02  0.1226708E+00
        -11   -1    0    0    0    0  0.00000000000E+00  0.00000000000E+00  0.45593999997E+02  0.45594000000E+02  0.51100000000E-03 0. -1.
         11   -1    0    0    0    0 -0.00000000000E+00 -0.00000000000E+00 -0.45593999997E+02  0.45594000000E+02  0.51100000000E-03 0.  1.
    9900012    2    1    2    0    0  0.14104435470E+02 -0.21262181014E+01  0.12133542266E+02  0.72461581462E+02  0.70000014548E+02 0.  0.
        -12    1    1    2    0    0 -0.14104435470E+02  0.21262181014E+01 -0.12133542266E+02  0.18726418538E+02  0.00000000000E+00 0.  1.
         11    1    3    3    0    0  0.19160860472E+01  0.10788696888E+02  0.15481388803E+02  0.18966833310E+02  0.51100000000E-03 0. -1.
        -11    1    3    3    0    0  0.27796735038E+02 -0.44407907560E+01  0.11438811438E+02  0.30384626190E+02  0.51100000000E-03 0.  1.
        -12    1    3    3    0    0 -0.15608385616E+02 -0.84741242331E+01 -0.14786657975E+02  0.23110121962E+02  0.00000000000E+00 0.  1.
</event>
<event>
 7    1  0.2700104E-013  0.7246167E+02  0.7816164E-02  0.1226708E+00
        -11   -1    0    0    0    0  0.00000000000E+00  0.00000000000E+00  0.45593999997E+02  0.45594000000E+02  0.51100000000E-03 0. -1.
         11   -1    0    0    0    0 -0.00000000000E+00 -0.00000000000E+00 -0.45593999997E+02  0.45594000000E+02  0.51100000000E-03 0.  1.
    9900012    2    1    2    0    0 -0.39223889012E+01 -0.17745223841E+02  0.45163481740E+01  0.72461668147E+02  0.70000127471E+02 0.  0.
        -12    1    1    2    0    0  0.39223889012E+01  0.17745223841E+02 -0.45163481740E+01  0.18726331853E+02  0.00000000000E+00 0.  1.
         11    1    3    3    0    0 -0.21233253747E+02 -0.63264542496E+01 -0.75804953849E+00  0.22168665441E+02  0.51100000000E-03 0. -1.
        -11    1    3    3    0    0 -0.45005118205E+01  0.93412690022E+01  0.15364284562E+02  0.18535780360E+02  0.51100000000E-03 0.  1.
        -12    1    3    3    0    0  0.21811376666E+02 -0.20760038593E+02 -0.10089886849E+02  0.31757222346E+02  0.00000000000E+00 0.  1.
</event>
<event>
 7    1  0.2700104E-013  0.7246150E+02  0.7816164E-02  0.1226708E+00
        -11   -1    0    0    0    0  0.00000000000E+00  0.00000000000E+00  0.45593999997E+02  0.45594000000E+02  0.51100000000E-03 0.  1.
         11   -1    0    0    0    0 -0.00000000000E+00 -0.00000000000E+00 -0.45593999997E+02  0.45594000000E+02  0.51100000000E-03 0. -1.
    9900012    2    1    2    0    0 -0.10317446524E+02 -0.75198072275E+01 -0.13699805864E+02  0.72461497811E+02  0.69999905577E+02 0.  0.
        -12    1    1    2    0    0  0.10317446524E+02  0.75198072275E+01  0.13699805864E+02  0.18726502189E+02  0.00000000000E+00 0.  1.
         11    1    3    3    0    0 -0.12823560795E+02 -0.25597468744E+02 -0.18069315526E+02  0.33855195782E+02  0.51100000000E-03 0. -1.
        -11    1    3    3    0    0  0.82471309901E+01 -0.75829823576E+01 -0.23918583970E+01  0.11455905807E+02  0.51100000000E-03 0.  1.
        -12    1    3    3    0    0 -0.57410167186E+01  0.25660643874E+02  0.67613680593E+01  0.27150396223E+02  0.00000000000E+00 0.  1.
</event>
<event>
 7    1  0.2700104E-013  0.7246135E+02  0.7816164E-02  0.1226709E+00
        -11   -1    0    0    0    0  0.00000000000E+00  0.00000000000E+00  0.45593999997E+02  0.45594000000E+02  0.51100000000E-03 0.  1.
         11   -1    0    0    0    0 -0.00000000000E+00 -0.00000000000E+00 -0.45593999997E+02  0.45594000000E+02  0.51100000000E-03 0. -1.
    9900012    2    1    2    0    0  0.68122512824E+01  0.16289674303E+02  0.62391560068E+01  0.72461352567E+02  0.69999716369E+02 0.  0.
        -12    1    1    2    0    0 -0.68122512824E+01 -0.16289674303E+02 -0.62391560068E+01  0.18726647433E+02  0.00000000000E+00 0.  1.
         11    1    3    3    0    0  0.16205937476E+02  0.65463605777E+01 -0.40849289885E+00  0.17482966367E+02  0.51100000000E-03 0. -1.
        -11    1    3    3    0    0  0.33343636749E+00 -0.20570331923E+02  0.10167455176E+02  0.22948352451E+02  0.51100000000E-03 0.  1.
         12    1    3    3    0    0 -0.97271225607E+01  0.30313645647E+02 -0.35198062699E+01  0.32030033748E+02  0.00000000000E+00 0. -1.
</event>
<event>
 7    1  0.2700104E-013  0.7246159E+02  0.7816164E-02  0.1226708E+00
        -11   -1    0    0    0    0  0.00000000000E+00  0.00000000000E+00  0.45593999997E+02  0.45594000000E+02  0.51100000000E-03 0.  1.
         11   -1    0    0    0    0 -0.00000000000E+00 -0.00000000000E+00 -0.45593999997E+02  0.45594000000E+02  0.51100000000E-03 0. -1.
    9900012    2    1    2    0    0  0.38986245506E+01  0.76607705976E+01 -0.16637062866E+02  0.72461587094E+02  0.70000021884E+02 0.  0.
        -12    1    1    2    0    0 -0.38986245506E+01 -0.76607705976E+01  0.16637062866E+02  0.18726412906E+02  0.00000000000E+00 0.  1.
         11    1    3    3    0    0 -0.87273708680E+00  0.33505308009E+02  0.26435412164E+01  0.33620762115E+02  0.51100000000E-03 0. -1.
        -11    1    3    3    0    0  0.11388841508E+01  0.32249667618E+01  0.55057089224E+00  0.34641876814E+01  0.51100000000E-03 0.  1.
        -12    1    3    3    0    0  0.36324774865E+01 -0.29069504173E+02 -0.19831174974E+02  0.35376637297E+02  0.00000000000E+00 0.  1.
</event>
<event>
 7    1  0.2700104E-013  0.7246155E+02  0.7816164E-02  0.1226708E+00
        -11   -1    0    0    0    0  0.00000000000E+00  0.00000000000E+00  0.45593999997E+02  0.45594000000E+02  0.51100000000E-03 0. -1.
         11   -1    0    0    0    0 -0.00000000000E+00 -0.00000000000E+00 -0.45593999997E+02  0.45594000000E+02  0.51100000000E-03 0.  1.
    9900012    2    1    2    0    0  0.42433777089E+01 -0.18139335794E+02 -0.19073851553E+01  0.72461551443E+02  0.69999975443E+02 0.  0.
        -12    1    1    2    0    0 -0.42433777089E+01  0.18139335794E+02  0.19073851553E+01  0.18726448557E+02  0.00000000000E+00 0.  1.
         11    1    3    3    0    0 -0.97265921908E+01  0.87326464563E+01  0.41867921698E+01  0.13725703578E+02  0.51100000000E-03 0. -1.
        -11    1    3    3    0    0 -0.42643979023E+01  0.84952987279E+01  0.11761188498E+02  0.15122193792E+02  0.51100000000E-03 0.  1.
        -12    1    3    3    0    0  0.18234367802E+02 -0.35367280978E+02 -0.17855365823E+02  0.43613654073E+02  0.00000000000E+00 0.  1.
</event>
<event>
 7    1  0.2700104E-013  0.7246150E+02  0.7816164E-02  0.1226708E+00
        -11   -1    0    0    0    0  0.00000000000E+00  0.00000000000E+00  0.45593999997E+02  0.45594000000E+02  0.51100000000E-03 0. -1.
         11   -1    0    0    0    0 -0.00000000000E+00 -0.00000000000E+00 -0.45593999997E+02  0.45594000000E+02  0.51100000000E-03 0.  1.
    9900012    2    1    2    0    0 -0.12586887245E+02 -0.79347146835E+01  0.11370683392E+02  0.72461498233E+02  0.69999906126E+02 0.  0.
        -12    1    1    2    0    0  0.12586887245E+02  0.79347146835E+01 -0.11370683392E+02  0.18726501767E+02  0.00000000000E+00 0.  1.
         11    1    3    3    0    0  0.17888298365E+02  0.67787935718E+01  0.11954645306E+01  0.19166961063E+02  0.51100000000E-03 0. -1.
        -11    1    3    3    0    0 -0.28437837311E+01  0.12764889370E+02  0.49219828713E+01  0.13973382632E+02  0.51100000000E-03 0.  1.
         12    1    3    3    0    0 -0.27631401879E+02 -0.27478397625E+02  0.52532359905E+01  0.39321154538E+02  0.00000000000E+00 0. -1.
</event>
<event>
 7    1  0.2700104E-013  0.7246171E+02  0.7816164E-02  0.1226708E+00
        -11   -1    0    0    0    0  0.00000000000E+00  0.00000000000E+00  0.45593999997E+02  0.45594000000E+02  0.51100000000E-03 0.  1.
         11   -1    0    0    0    0 -0.00000000000E+00 -0.00000000000E+00 -0.45593999997E+02  0.45594000000E+02  0.51100000000E-03 0. -1.
    9900012    2    1    2    0    0 -0.16751623948E+01 -0.18179694763E+02 -0.41673115184E+01  0.72461709497E+02  0.70000181337E+02 0.  0.
        -12    1    1    2    0    0  0.16751623948E+01  0.18179694763E+02  0.41673115184E+01  0.18726290503E+02  0.00000000000E+00 0.  1.
         11    1    3    3    0    0 -0.13942367614E+02  0.76829207943E+01  0.10299701741E+01  0.15952357990E+02  0.51100000000E-03 0. -1.
        -11    1    3    3    0    0  0.20718691315E+02 -0.12150566019E+02  0.16752293251E+02  0.29283779705E+02  0.51100000000E-03 0.  1.
         12    1    3    3    0    0 -0.84514860957E+01 -0.13712049538E+02 -0.21949574943E+02  0.27225571802E+02  0.00000000000E+00 0. -1.
</event>
<event>
 7    1  0.2700104E-013  0.7246143E+02  0.7816164E-02  0.1226708E+00
        -11   -1    0    0    0    0  0.00000000000E+00  0.00000000000E+00  0.45593999997E+02  0.45594000000E+02  0.51100000000E-03 0. -1.
         11   -1    0    0    0    0 -0.00000000000E+00 -0.00000000000E+00 -0.45593999997E+02  0.45594000000E+02  0.51100000000E-03 0.  1.
    9900012    2    1    2    0    0  0.16068482470E+02 -0.95118419081E+01  0.14189039661E+01  0.72461426533E+02  0.69999812723E+02 0.  0.
        -12    1    1    2    0    0 -0.16068482470E+02  0.95118419081E+01 -0.14189039661E+01  0.18726573467E+02  0.00000000000E+00 0.  1.
         11    1    3    3    0    0 -0.53474026603E+01  0.21499295982E+01  0.43490229766E+01  0.72201740700E+01  0.51100000000E-03 0. -1.
        -11    1    3    3    0    0  0.16539471781E+01 -0.33888267573E+02 -0.85132071235E+01  0.34980350429E+02  0.51100000000E-03 0.  1.
        -12    1    3    3    0    0  0.19761937952E+02  0.22226496066E+02  0.55830881130E+01  0.30260902034E+02  0.00000000000E+00 0.  1.
</event>
<event>
 7    1  0.2700104E-013  0.7246158E+02  0.7816164E-02  0.1226708E+00
        -11   -1    0    0    0    0  0.00000000000E+00  0.00000000000E+00  0.45593999997E+02  0.45594000000E+02  0.51100000000E-03 0. -1.
         11   -1    0    0    0    0 -0.00000000000E+00 -0.00000000000E+00 -0.45593999997E+02  0.45594000000E+02  0.51100000000E-03 0.  1.
    9900012    2    1    2    0    0 -0.18676646492E+02 -0.13388339312E+01 -0.26299950193E+00  0.72461580983E+02  0.70000013924E+02 0.  0.
        -12    1    1    2    0    0  0.18676646492E+02  0.13388339312E+01  0.26299950193E+00  0.18726419017E+02  0.00000000000E+00 0.  1.
         11    1    3    3    0    0  0.10833462278E+02  0.36066624845E+00  0.24013690052E+00  0.10842123919E+02  0.51100000000E-03 0. -1.
        -11    1    3    3    0    0 -0.13802177869E+02  0.43080739893E+01 -0.26772827897E+02  0.30427683601E+02  0.51100000000E-03 0.  1.
         12    1    3    3    0    0 -0.15707930900E+02 -0.60075741690E+01  0.26269691495E+02  0.31191773463E+02  0.00000000000E+00 0. -1.
</event>
<event>
 7    1  0.2700104E-013  0.7246161E+02  0.7816164E-02  0.1226708E+00
        -11   -1    0    0    0    0  0.00000000000E+00  0.00000000000E+00  0.45593999997E+02  0.45594000000E+02  0.51100000000E-03 0. -1.
         11   -1    0    0    0    0 -0.00000000000E+00 -0.00000000000E+00 -0.45593999997E+02  0.45594000000E+02  0.51100000000E-03 0.  1.
    9900012    2    1    2    0    0 -0.27067527796E+01  0.13642747838E+02  0.12539007442E+02  0.72461607213E+02  0.70000048093E+02 0.  0.
        -12    1    1    2    0    0  0.27067527796E+01 -0.13642747838E+02 -0.12539007442E+02  0.18726392787E+02  0.00000000000E+00 0.  1.
         11    1    3    3    0    0 -0.82507270120E+01 -0.17370684428E+02  0.12955067800E+02  0.23187258477E+02  0.51100000000E-03 0. -1.
        -11    1    3    3    0    0  0.33524711940E+00 -0.83054289257E+01  0.42548330346E+01  0.93378875922E+01  0.51100000000E-03 0.  1.
        -12    1    3    3    0    0  0.52087271130E+01  0.39318861192E+02 -0.46708933928E+01  0.39936461143E+02  0.00000000000E+00 0.  1.
</event>
<event>
 7    1  0.2700104E-013  0.7246158E+02  0.7816164E-02  0.1226708E+00
        -11   -1    0    0    0    0  0.00000000000E+00  0.00000000000E+00  0.45593999997E+02  0.45594000000E+02  0.51100000000E-03 0.  1.
         11   -1    0    0    0    0 -0.00000000000E+00 -0.00000000000E+00 -0.45593999997E+02  0.45594000000E+02  0.51100000000E-03 0. -1.
    9900012    2    1    2    0    0 -0.64603239698E+01 -0.30010511567E+01 -0.17318685532E+02  0.72461575825E+02  0.70000007205E+02 0.  0.
        -12    1    1    2    0    0  0.64603239698E+01  0.30010511567E+01  0.17318685532E+02  0.18726424175E+02  0.00000000000E+00 0.  1.
         11    1    3    3    0    0 -0.85668055428E+00  0.40824333299E+00  0.67361480794E+01  0.68026653159E+01  0.51100000000E-03 0. -1.
        -11    1    3    3    0    0 -0.36736754685E+01  0.16082613273E+02  0.14789401525E+02  0.22155648013E+02  0.51100000000E-03 0.  1.
         12    1    3    3    0    0 -0.19299679470E+01 -0.19491907762E+02 -0.38844235136E+02  0.43503262496E+02  0.00000000000E+00 0. -1.
</event>
<event>
 7    1  0.2700104E-013  0.7246169E+02  0.7816164E-02  0.1226708E+00
        -11   -1    0    0    0    0  0.00000000000E+00  0.00000000000E+00  0.45593999997E+02  0.45594000000E+02  0.51100000000E-03 0.  1.
         11   -1    0    0    0    0 -0.00000000000E+00 -0.00000000000E+00 -0.45593999997E+02  0.45594000000E+02  0.51100000000E-03 0. -1.
    9900012    2    1    2    0    0  0.13415238078E+02 -0.50266844509E+01  0.12059787423E+02  0.72461691182E+02  0.70000157478E+02 0.  0.
        -12    1    1    2    0    0 -0.13415238078E+02  0.50266844509E+01 -0.12059787423E+02  0.18726308818E+02  0.00000000000E+00 0.  1.
         11    1    3    3    0    0  0.26132661545E+02  0.77651292788E+01 -0.23019302754E+01  0.27358949457E+02  0.51100000000E-03 0. -1.
        -11    1    3    3    0    0 -0.11759691999E+02  0.96321260387E+01 -0.44266963953E+01  0.15832367138E+02  0.51100000000E-03 0.  1.
        -12    1    3    3    0    0 -0.95773146730E+00 -0.22423939768E+02  0.18788414094E+02  0.29270374587E+02  0.00000000000E+00 0.  1.
</event>
<event>
 7    1  0.2700104E-013  0.7246157E+02  0.7816164E-02  0.1226708E+00
        -11   -1    0    0    0    0  0.00000000000E+00  0.00000000000E+00  0.45593999997E+02  0.45594000000E+02  0.51100000000E-03 0.  1.
         11   -1    0    0    0    0 -0.00000000000E+00 -0.00000000000E+00 -0.45593999997E+02  0.45594000000E+02  0.51100000000E-03 0. -1.
    9900012    2    1    2    0    0  0.39567911890E+01 -0.16362026548E+02 -0.82040813527E+01  0.72461573215E+02  0.70000003805E+02 0.  0.
        -12    1    1    2    0    0 -0.39567911890E+01  0.16362026548E+02  0.82040813527E+01  0.18726426785E+02  0.00000000000E+00 0.  1.
         11    1    3    3    0    0 -0.73329987559E+00 -0.21479574640E+01 -0.92544818567E+01  0.95287399309E+01  0.51100000000E-03 0. -1.
        -11    1    3    3    0    0  0.25561007065E+02  0.93287460938E+01 -0.10852491585E+02  0.29294490262E+02  0.51100000000E-03 0.  1.
         12    1    3    3    0    0 -0.20870916000E+02 -0.23542815178E+02  0.11902892089E+02  0.33638343022E+02  0.00000000000E+00 0. -1.
</event>
<event>
 7    1  0.2700104E-013  0.7246142E+02  0.7816164E-02  0.1226708E+00
        -11   -1    0    0    0    0  0.00000000000E+00  0.00000000000E+00  0.45593999997E+02  0.45594000000E+02  0.51100000000E-03 0.  1.
         11   -1    0    0    0    0 -0.00000000000E+00 -0.00000000000E+00 -0.45593999997E+02  0.45594000000E+02  0.51100000000E-03 0. -1.
    9900012    2    1    2    0    0  0.86717533166E+00 -0.37051418244E+01 -0.18335881286E+02  0.72461424992E+02  0.69999810716E+02 0.  0.
        -12    1    1    2    0    0 -0.86717533166E+00  0.37051418244E+01  0.18335881286E+02  0.18726575008E+02  0.00000000000E+00 0.  1.
         11    1    3    3    0    0 -0.29354921574E+01  0.15904447369E+02 -0.24747083740E+02  0.29563266298E+02  0.51100000000E-03 0. -1.
        -11    1    3    3    0    0 -0.11929282967E+02  0.31378960943E+01  0.87778248877E+01  0.15139497813E+02  0.51100000000E-03 0.  1.
         12    1    3    3    0    0  0.15731950457E+02 -0.22747485288E+02 -0.23666224341E+01  0.27758660880E+02  0.00000000000E+00 0. -1.
</event>
<event>
 7    1  0.2700104E-013  0.7246161E+02  0.7816164E-02  0.1226708E+00
        -11   -1    0    0    0    0  0.00000000000E+00  0.00000000000E+00  0.45593999997E+02  0.45594000000E+02  0.51100000000E-03 0.  1.
         11   -1    0    0    0    0 -0.00000000000E+00 -0.00000000000E+00 -0.45593999997E+02  0.45594000000E+02  0.51100000000E-03 0. -1.
    9900012    2    1    2    0    0  0.98482638755E+01 -0.13114284449E+02 -0.90390727052E+01  0.72461612379E+02  0.70000054823E+02 0.  0.
        -12    1    1    2    0    0 -0.98482638755E+01  0.13114284449E+02  0.90390727052E+01  0.18726387621E+02  0.00000000000E+00 0.  1.
         11    1    3    3    0    0 -0.11821432836E+02 -0.29937828126E+02 -0.18122959837E+02  0.36938618013E+02  0.51100000000E-03 0. -1.
        -11    1    3    3    0    0  0.77956822504E+01  0.14212758920E+02 -0.35310378912E+01  0.16590461317E+02  0.51100000000E-03 0.  1.
        -12    1    3    3    0    0  0.13874014461E+02  0.26107847578E+01  0.12614925023E+02  0.18932533049E+02  0.00000000000E+00 0.  1.
</event>
<event>
 7    1  0.2700104E-013  0.7246157E+02  0.7816164E-02  0.1226708E+00
        -11   -1    0    0    0    0  0.00000000000E+00  0.00000000000E+00  0.45593999997E+02  0.45594000000E+02  0.51100000000E-03 0.  1.
         11   -1    0    0    0    0 -0.00000000000E+00 -0.00000000000E+00 -0.45593999997E+02  0.45594000000E+02  0.51100000000E-03 0. -1.
    9900012    2    1    2    0    0 -0.15911980643E+01 -0.11240661596E+00 -0.18658367851E+02  0.72461568482E+02  0.69999997639E+02 0.  0.
        -12    1    1    2    0    0  0.15911980643E+01  0.11240661596E+00  0.18658367851E+02  0.18726431518E+02  0.00000000000E+00 0.  1.
         11    1    3    3    0    0 -0.83677933412E+01  0.10593122931E+02 -0.44186996931E+01  0.14204193961E+02  0.51100000000E-03 0. -1.
        -11    1    3    3    0    0  0.22988590051E+02  0.77789584564E+01 -0.21708363182E+02  0.32561334424E+02  0.51100000000E-03 0.  1.
         12    1    3    3    0    0 -0.16211994774E+02 -0.18484488004E+02  0.74686950245E+01  0.25696040097E+02  0.00000000000E+00 0. -1.
</event>
<event>
 7    1  0.2700104E-013  0.7246182E+02  0.7816164E-02  0.1226707E+00
        -11   -1    0    0    0    0  0.00000000000E+00  0.00000000000E+00  0.45593999997E+02  0.45594000000E+02  0.51100000000E-03 0.  1.
         11   -1    0    0    0    0 -0.00000000000E+00 -0.00000000000E+00 -0.45593999997E+02  0.45594000000E+02  0.51100000000E-03 0. -1.
    9900012    2    1    2    0    0  0.18667982042E+02 -0.10085978715E+01  0.10766097858E+01  0.72461817479E+02  0.70000322003E+02 0.  0.
        -12    1    1    2    0    0 -0.18667982042E+02  0.10085978715E+01 -0.10766097858E+01  0.18726182521E+02  0.00000000000E+00 0.  1.
         11    1    3    3    0    0 -0.43274992577E+00  0.83121821234E+00  0.49030737167E+01  0.49918261535E+01  0.51100000000E-03 0. -1.
        -11    1    3    3    0    0 -0.12752226006E+02 -0.18437469197E+02  0.14944942161E+02  0.26942732508E+02  0.51100000000E-03 0.  1.
         12    1    3    3    0    0  0.31852957974E+02  0.16597653114E+02 -0.18771406092E+02  0.40527258817E+02  0.00000000000E+00 0. -1.
</event>
<event>
 7    1  0.2700104E-013  0.7246161E+02  0.7816164E-02  0.1226708E+00
        -11   -1    0    0    0    0  0.00000000000E+00  0.00000000000E+00  0.45593999997E+02  0.45594000000E+02  0.51100000000E-03 0.  1.
         11   -1    0    0    0    0 -0.00000000000E+00 -0.00000000000E+00 -0.45593999997E+02  0.45594000000E+02  0.51100000000E-03 0. -1.
    9900012    2    1    2    0    0  0.12790465005E+02  0.66055488953E+00  0.13661823317E+02  0.72461608352E+02  0.70000049577E+02 0.  0.
        -12    1    1    2    0    0 -0.12790465005E+02 -0.66055488953E+00 -0.13661823317E+02  0.18726391648E+02  0.00000000000E+00 0.  1.
         11    1    3    3    0    0 -0.84158900219E+01  0.98925918169E+01  0.63211366687E+01  0.14444630378E+02  0.51100000000E-03 0. -1.
        -11    1    3    3    0    0  0.60937998346E+01 -0.30682979223E+02  0.49019209265E+01  0.31663992791E+02  0.51100000000E-03 0.  1.
         12    1    3    3    0    0  0.15112555192E+02  0.21450942296E+02  0.24387657219E+01  0.26352985183E+02  0.00000000000E+00 0. -1.
</event>
<event>
 7    1  0.2700104E-013  0.7246107E+02  0.7816164E-02  0.1226709E+00
        -11   -1    0    0    0    0  0.00000000000E+00  0.00000000000E+00  0.45593999997E+02  0.45594000000E+02  0.51100000000E-03 0. -1.
         11   -1    0    0    0    0 -0.00000000000E+00 -0.00000000000E+00 -0.45593999997E+02  0.45594000000E+02  0.51100000000E-03 0.  1.
    9900012    2    1    2    0    0 -0.16789919405E+02  0.76359497600E+01  0.32386404002E+01  0.72461069819E+02  0.69999348035E+02 0.  0.
        -12    1    1    2    0    0  0.16789919405E+02 -0.76359497600E+01 -0.32386404002E+01  0.18726930181E+02  0.00000000000E+00 0.  1.
         11    1    3    3    0    0 -0.44322977346E+01  0.67245059451E+01  0.20476261192E+02  0.22003216039E+02  0.51100000000E-03 0. -1.
        -11    1    3    3    0    0  0.16570132756E+02  0.29660955985E+01 -0.22410606440E+00  0.16835000637E+02  0.51100000000E-03 0.  1.
         12    1    3    3    0    0 -0.28927754426E+02 -0.20546517836E+01 -0.17013514727E+02  0.33622853143E+02  0.00000000000E+00 0. -1.
</event>
<event>
 7    1  0.2700104E-013  0.7246164E+02  0.7816164E-02  0.1226708E+00
        -11   -1    0    0    0    0  0.00000000000E+00  0.00000000000E+00  0.45593999997E+02  0.45594000000E+02  0.51100000000E-03 0.  1.
         11   -1    0    0    0    0 -0.00000000000E+00 -0.00000000000E+00 -0.45593999997E+02  0.45594000000E+02  0.51100000000E-03 0. -1.
    9900012    2    1    2    0    0 -0.16253160773E+02 -0.82661207114E+01  0.42641145747E+01  0.72461637303E+02  0.70000087292E+02 0.  0.
        -12    1    1    2    0    0  0.16253160773E+02  0.82661207114E+01 -0.42641145747E+01  0.18726362697E+02  0.00000000000E+00 0.  1.
         11    1    3    3    0    0 -0.20849846551E+01 -0.19599141173E+02 -0.13673083084E+02  0.23988053214E+02  0.51100000000E-03 0. -1.
        -11    1    3    3    0    0  0.17574877636E+01 -0.11176598943E+02  0.17569778192E+02  0.20897421686E+02  0.51100000000E-03 0.  1.
         12    1    3    3    0    0 -0.15925663882E+02  0.22509619404E+02  0.36741946720E+00  0.27576162403E+02  0.00000000000E+00 0. -1.
</event>
<event>
 7    1  0.2700104E-013  0.7246157E+02  0.7816164E-02  0.1226708E+00
        -11   -1    0    0    0    0  0.00000000000E+00  0.00000000000E+00  0.45593999997E+02  0.45594000000E+02  0.51100000000E-03 0. -1.
         11   -1    0    0    0    0 -0.00000000000E+00 -0.00000000000E+00 -0.45593999997E+02  0.45594000000E+02  0.51100000000E-03 0.  1.
    9900012    2    1    2    0    0 -0.90750832814E+01  0.16274114189E+02 -0.18642313444E+01  0.72461567139E+02  0.69999995889E+02 0.  0.
        -12    1    1    2    0    0  0.90750832814E+01 -0.16274114189E+02  0.18642313444E+01  0.18726432861E+02  0.00000000000E+00 0.  1.
         11    1    3    3    0    0 -0.16579948688E+01  0.15392553143E+02 -0.99428315239E+01  0.18399443965E+02  0.51100000000E-03 0. -1.
        -11    1    3    3    0    0  0.15187607598E+02  0.11924960040E+02 -0.11239590784E+02  0.22342705695E+02  0.51100000000E-03 0.  1.
         12    1    3    3    0    0 -0.22604696011E+02 -0.11043398994E+02  0.19318190963E+02  0.31719417479E+02  0.00000000000E+00 0. -1.
</event>
<event>
 7    1  0.2700104E-013  0.7246163E+02  0.7816164E-02  0.1226708E+00
        -11   -1    0    0    0    0  0.00000000000E+00  0.00000000000E+00  0.45593999997E+02  0.45594000000E+02  0.51100000000E-03 0.  1.
         11   -1    0    0    0    0 -0.00000000000E+00 -0.00000000000E+00 -0.45593999997E+02  0.45594000000E+02  0.51100000000E-03 0. -1.
    9900012    2    1    2    0    0 -0.17937152307E+02 -0.38969317791E+01 -0.37080080421E+01  0.72461632658E+02  0.70000081240E+02 0.  0.
        -12    1    1    2    0    0  0.17937152307E+02  0.38969317791E+01  0.37080080421E+01  0.18726367342E+02  0.00000000000E+00 0.  1.
         11    1    3    3    0    0 -0.40490346820E+01  0.38122004230E-02  0.15405870418E+02  0.15929078441E+02  0.51100000000E-03 0. -1.
        -11    1    3    3    0    0  0.10798545220E+02  0.17209953493E+02 -0.40043531212E+01  0.20708112475E+02  0.51100000000E-03 0.  1.
         12    1    3    3    0    0 -0.24686662845E+02 -0.21110697472E+02 -0.15109525339E+02  0.35824441742E+02  0.00000000000E+00 0. -1.
</event>
<event>
 7    1  0.2700104E-013  0.7246158E+02  0.7816164E-02  0.1226708E+00
        -11   -1    0    0    0    0  0.00000000000E+00  0.00000000000E+00  0.45593999997E+02  0.45594000000E+02  0.51100000000E-03 0. -1.
         11   -1    0    0    0    0 -0.00000000000E+00 -0.00000000000E+00 -0.45593999997E+02  0.45594000000E+02  0.51100000000E-03 0.  1.
    9900012    2    1    2    0    0  0.10963445586E+02  0.12136084671E+02  0.91212395952E+01  0.72461582777E+02  0.70000016261E+02 0.  0.
        -12    1    1    2    0    0 -0.10963445586E+02 -0.12136084671E+02 -0.91212395952E+01  0.18726417223E+02  0.00000000000E+00 0.  1.
         11    1    3    3    0    0 -0.53379168538E+01  0.45339916911E+01  0.25184242009E+02  0.26139940375E+02  0.51100000000E-03 0. -1.
        -11    1    3    3    0    0 -0.12006043919E+02  0.29966574893E+01 -0.12210387211E+02  0.17384435648E+02  0.51100000000E-03 0.  1.
         12    1    3    3    0    0  0.28307406359E+02  0.46054354906E+01 -0.38526152024E+01  0.28937206754E+02  0.00000000000E+00 0. -1.
</event>
<event>
 7    1  0.2700104E-013  0.7246158E+02  0.7816164E-02  0.1226708E+00
        -11   -1    0    0    0    0  0.00000000000E+00  0.00000000000E+00  0.45593999997E+02  0.45594000000E+02  0.51100000000E-03 0.  1.
         11   -1    0    0    0    0 -0.00000000000E+00 -0.00000000000E+00 -0.45593999997E+02  0.45594000000E+02  0.51100000000E-03 0. -1.
    9900012    2    1    2    0    0 -0.58424396153E+01  0.15373958497E+02  0.89546645477E+01  0.72461582359E+02  0.70000015716E+02 0.  0.
        -12    1    1    2    0    0  0.58424396153E+01 -0.15373958497E+02 -0.89546645477E+01  0.18726417641E+02  0.00000000000E+00 0.  1.
         11    1    3    3    0    0 -0.51132357918E+01  0.49721575838E+01  0.82806275043E+01  0.10928692668E+02  0.51100000000E-03 0. -1.
        -11    1    3    3    0    0 -0.21169377959E+02  0.24141033416E+02  0.12190873597E+02  0.34344569540E+02  0.51100000000E-03 0.  1.
         12    1    3    3    0    0  0.20440174135E+02 -0.13739232503E+02 -0.11516836554E+02  0.27188320151E+02  0.00000000000E+00 0. -1.
</event>
<event>
 7    1  0.2700104E-013  0.7246159E+02  0.7816164E-02  0.1226708E+00
        -11   -1    0    0    0    0  0.00000000000E+00  0.00000000000E+00  0.45593999997E+02  0.45594000000E+02  0.51100000000E-03 0.  1.
         11   -1    0    0    0    0 -0.00000000000E+00 -0.00000000000E+00 -0.45593999997E+02  0.45594000000E+02  0.51100000000E-03 0. -1.
    9900012    2    1    2    0    0 -0.84774689218E+01  0.39816151552E+01 -0.16215969265E+02  0.72461590900E+02  0.70000026843E+02 0.  0.
        -12    1    1    2    0    0  0.84774689218E+01 -0.39816151552E+01  0.16215969265E+02  0.18726409100E+02  0.00000000000E+00 0.  1.
         11    1    3    3    0    0 -0.27269643420E+01  0.18228071969E+02 -0.19344658571E+02  0.26719183328E+02  0.51100000000E-03 0. -1.
        -11    1    3    3    0    0  0.31843281150E+01  0.96060689115E+01 -0.12326909397E+02  0.15948956110E+02  0.51100000000E-03 0.  1.
         12    1    3    3    0    0 -0.89348326948E+01 -0.23852525725E+02  0.15455598703E+02  0.29793451462E+02  0.00000000000E+00 0. -1.
</event>
<event>
 7    1  0.2700104E-013  0.7246136E+02  0.7816164E-02  0.1226709E+00
        -11   -1    0    0    0    0  0.00000000000E+00  0.00000000000E+00  0.45593999997E+02  0.45594000000E+02  0.51100000000E-03 0.  1.
         11   -1    0    0    0    0 -0.00000000000E+00 -0.00000000000E+00 -0.45593999997E+02  0.45594000000E+02  0.51100000000E-03 0. -1.
    9900012    2    1    2    0    0 -0.16303115426E+02  0.84665984891E+01 -0.36348766250E+01  0.72461356130E+02  0.69999721010E+02 0.  0.
        -12    1    1    2    0    0  0.16303115426E+02 -0.84665984891E+01  0.36348766250E+01  0.18726643870E+02  0.00000000000E+00 0.  1.
         11    1    3    3    0    0  0.36122453187E+00 -0.41083802260E+01 -0.11356035071E+02  0.12081755006E+02  0.51100000000E-03 0. -1.
        -11    1    3    3    0    0  0.15290979838E+01 -0.95992752413E+01 -0.18895915882E+02  0.21249467360E+02  0.51100000000E-03 0.  1.
         12    1    3    3    0    0 -0.18193437941E+02  0.22174253956E+02  0.26617074327E+02  0.39130133764E+02  0.00000000000E+00 0. -1.
</event>
<event>
 7    1  0.2700104E-013  0.7246156E+02  0.7816164E-02  0.1226708E+00
        -11   -1    0    0    0    0  0.00000000000E+00  0.00000000000E+00  0.45593999997E+02  0.45594000000E+02  0.51100000000E-03 0.  1.
         11   -1    0    0    0    0 -0.00000000000E+00 -0.00000000000E+00 -0.45593999997E+02  0.45594000000E+02  0.51100000000E-03 0. -1.
    9900012    2    1    2    0    0  0.16309333095E+01  0.19435312050E+01 -0.18553771459E+02  0.72461556335E+02  0.69999981815E+02 0.  0.
        -12    1    1    2    0    0 -0.16309333095E+01 -0.19435312050E+01  0.18553771459E+02  0.18726443665E+02  0.00000000000E+00 0.  1.
         11    1    3    3    0    0  0.84725164181E+01  0.10955714694E+02  0.16669168966E+02  0.21671926845E+02  0.51100000000E-03 0. -1.
        -11    1    3    3    0    0  0.13495614166E+02 -0.33020223686E+01 -0.70584417291E+01  0.15583855535E+02  0.51100000000E-03 0.  1.
        -12    1    3    3    0    0 -0.20337197275E+02 -0.57101611199E+01 -0.28164498695E+02  0.35205773955E+02  0.00000000000E+00 0.  1.
</event>
<event>
 7    1  0.2700104E-013  0.7246155E+02  0.7816164E-02  0.1226708E+00
        -11   -1    0    0    0    0  0.00000000000E+00  0.00000000000E+00  0.45593999997E+02  0.45594000000E+02  0.51100000000E-03 0.  1.
         11   -1    0    0    0    0 -0.00000000000E+00 -0.00000000000E+00 -0.45593999997E+02  0.45594000000E+02  0.51100000000E-03 0. -1.
    9900012    2    1    2    0    0 -0.12721947228E+02  0.40879894507E+01 -0.13119457744E+02  0.72461554248E+02  0.69999979096E+02 0.  0.
        -12    1    1    2    0    0  0.12721947228E+02 -0.40879894507E+01  0.13119457744E+02  0.18726445752E+02  0.00000000000E+00 0.  1.
         11    1    3    3    0    0 -0.21514819287E+01  0.23814411371E+01  0.10059567118E+01  0.33633443990E+01  0.51100000000E-03 0. -1.
        -11    1    3    3    0    0  0.22253451772E+02  0.15068687578E+02 -0.19566490373E+02  0.33243480667E+02  0.51100000000E-03 0.  1.
         12    1    3    3    0    0 -0.32823917071E+02 -0.13362139264E+02  0.54410759174E+01  0.35854729182E+02  0.00000000000E+00 0. -1.
</event>
<event>
 7    1  0.2700104E-013  0.7246155E+02  0.7816164E-02  0.1226708E+00
        -11   -1    0    0    0    0  0.00000000000E+00  0.00000000000E+00  0.45593999997E+02  0.45594000000E+02  0.51100000000E-03 0.  1.
         11   -1    0    0    0    0 -0.00000000000E+00 -0.00000000000E+00 -0.45593999997E+02  0.45594000000E+02  0.51100000000E-03 0. -1.
    9900012    2    1    2    0    0 -0.21877236091E+01  0.17274272367E+02  0.68915291711E+01  0.72461553602E+02  0.69999978255E+02 0.  0.
        -12    1    1    2    0    0  0.21877236091E+01 -0.17274272367E+02 -0.68915291711E+01  0.18726446398E+02  0.00000000000E+00 0.  1.
         11    1    3    3    0    0 -0.15027836706E+02 -0.37054455390E+01  0.50520030820E+01  0.16281552079E+02  0.51100000000E-03 0. -1.
        -11    1    3    3    0    0 -0.74594603259E+01 -0.49314665515E+01 -0.16303646145E+02  0.18594939865E+02  0.51100000000E-03 0.  1.
        -12    1    3    3    0    0  0.20299573422E+02  0.25911184457E+02  0.18143172234E+02  0.37585061658E+02  0.00000000000E+00 0.  1.
</event>
<event>
 7    1  0.2700104E-013  0.7246159E+02  0.7816164E-02  0.1226708E+00
        -11   -1    0    0    0    0  0.00000000000E+00  0.00000000000E+00  0.45593999997E+02  0.45594000000E+02  0.51100000000E-03 0.  1.
         11   -1    0    0    0    0 -0.00000000000E+00 -0.00000000000E+00 -0.45593999997E+02  0.45594000000E+02  0.51100000000E-03 0. -1.
    9900012    2    1    2    0    0 -0.18633654397E+02  0.22287038314E+00  0.18481422924E+01  0.72461591446E+02  0.70000027554E+02 0.  0.
        -12    1    1    2    0    0  0.18633654397E+02 -0.22287038314E+00 -0.18481422924E+01  0.18726408554E+02  0.00000000000E+00 0.  1.
         11    1    3    3    0    0 -0.17448302776E+02 -0.97699809879E+01  0.36543525424E+01  0.20328553590E+02  0.51100000000E-03 0. -1.
        -11    1    3    3    0    0 -0.19521489661E+02  0.13035398157E+02 -0.16287471881E+02  0.28570822604E+02  0.51100000000E-03 0.  1.
        -12    1    3    3    0    0  0.18336138041E+02 -0.30425467862E+01  0.14481261631E+02  0.23562215253E+02  0.00000000000E+00 0.  1.
</event>
<event>
 7    1  0.2700104E-013  0.7246157E+02  0.7816164E-02  0.1226708E+00
        -11   -1    0    0    0    0  0.00000000000E+00  0.00000000000E+00  0.45593999997E+02  0.45594000000E+02  0.51100000000E-03 0. -1.
         11   -1    0    0    0    0 -0.00000000000E+00 -0.00000000000E+00 -0.45593999997E+02  0.45594000000E+02  0.51100000000E-03 0.  1.
    9900012    2    1    2    0    0 -0.34915984170E+01  0.15965509234E+02  0.91427750271E+01  0.72461572689E+02  0.70000003120E+02 0.  0.
        -12    1    1    2    0    0  0.34915984170E+01 -0.15965509234E+02 -0.91427750271E+01  0.18726427311E+02  0.00000000000E+00 0.  1.
         11    1    3    3    0    0 -0.12820684804E+02  0.41976006147E+01  0.21568341159E+02  0.25439794621E+02  0.51100000000E-03 0. -1.
        -11    1    3    3    0    0  0.32192667046E+01  0.27318619210E+02 -0.12731448963E+02  0.30311061126E+02  0.51100000000E-03 0.  1.
        -12    1    3    3    0    0  0.61098196828E+01 -0.15550710590E+02  0.30588283187E+00  0.16710716942E+02  0.00000000000E+00 0.  1.
</event>
<event>
 7    1  0.2700104E-013  0.7246139E+02  0.7816164E-02  0.1226709E+00
        -11   -1    0    0    0    0  0.00000000000E+00  0.00000000000E+00  0.45593999997E+02  0.45594000000E+02  0.51100000000E-03 0.  1.
         11   -1    0    0    0    0 -0.00000000000E+00 -0.00000000000E+00 -0.45593999997E+02  0.45594000000E+02  0.51100000000E-03 0. -1.
    9900012    2    1    2    0    0 -0.97479869330E+00 -0.18344240729E+02 -0.36365701140E+01  0.72461386783E+02  0.69999760941E+02 0.  0.
        -12    1    1    2    0    0  0.97479869330E+00  0.18344240729E+02  0.36365701140E+01  0.18726613217E+02  0.00000000000E+00 0.  1.
         11    1    3    3    0    0 -0.37629928853E+01 -0.12505742742E+02  0.27137119638E+02  0.30116058498E+02  0.51100000000E-03 0. -1.
        -11    1    3    3    0    0 -0.12239771827E+01 -0.83450128756E+01  0.24528277276E+01  0.87837192670E+01  0.51100000000E-03 0.  1.
         12    1    3    3    0    0  0.40121713747E+01  0.25065148891E+01 -0.33226517479E+02  0.33561609017E+02  0.00000000000E+00 0. -1.
</event>
<event>
 7    1  0.2700104E-013  0.7246158E+02  0.7816164E-02  0.1226708E+00
        -11   -1    0    0    0    0  0.00000000000E+00  0.00000000000E+00  0.45593999997E+02  0.45594000000E+02  0.51100000000E-03 0.  1.
         11   -1    0    0    0    0 -0.00000000000E+00 -0.00000000000E+00 -0.45593999997E+02  0.45594000000E+02  0.51100000000E-03 0. -1.
    9900012    2    1    2    0    0 -0.11486968728E+02 -0.90444347394E+01 -0.11701555927E+02  0.72461583860E+02  0.70000017672E+02 0.  0.
        -12    1    1    2    0    0  0.11486968728E+02  0.90444347394E+01  0.11701555927E+02  0.18726416140E+02  0.00000000000E+00 0.  1.
         11    1    3    3    0    0  0.14344153830E+02 -0.15544811193E+01  0.10527912903E+02  0.17860798163E+02  0.51100000000E-03 0. -1.
        -11    1    3    3    0    0  0.16128786083E+01  0.11306559818E+02 -0.17650444662E+02  0.21023269711E+02  0.51100000000E-03 0.  1.
        -12    1    3    3    0    0 -0.27444001167E+02 -0.18796513438E+02 -0.45790241683E+01  0.33577515986E+02  0.00000000000E+00 0.  1.
</event>
<event>
 7    1  0.2700104E-013  0.7246140E+02  0.7816164E-02  0.1226708E+00
        -11   -1    0    0    0    0  0.00000000000E+00  0.00000000000E+00  0.45593999997E+02  0.45594000000E+02  0.51100000000E-03 0.  1.
         11   -1    0    0    0    0 -0.00000000000E+00 -0.00000000000E+00 -0.45593999997E+02  0.45594000000E+02  0.51100000000E-03 0. -1.
    9900012    2    1    2    0    0 -0.19488148522E+01 -0.17269306427E+02  0.69755787933E+01  0.72461400648E+02  0.69999779003E+02 0.  0.
        -12    1    1    2    0    0  0.19488148522E+01  0.17269306427E+02 -0.69755787933E+01  0.18726599352E+02  0.00000000000E+00 0.  1.
         11    1    3    3    0    0 -0.79596553676E+01 -0.43387305239E+01 -0.12146347299E+02  0.15156333630E+02  0.51100000000E-03 0. -1.
        -11    1    3    3    0    0  0.17675373813E+02 -0.26197327815E+02  0.23164377013E+02  0.39182996143E+02  0.51100000000E-03 0.  1.
         12    1    3    3    0    0 -0.11664533297E+02  0.13266751912E+02 -0.40424509201E+01  0.18122070875E+02  0.00000000000E+00 0. -1.
</event>
<event>
 7    1  0.2700104E-013  0.7246156E+02  0.7816164E-02  0.1226708E+00
        -11   -1    0    0    0    0  0.00000000000E+00  0.00000000000E+00  0.45593999997E+02  0.45594000000E+02  0.51100000000E-03 0. -1.
         11   -1    0    0    0    0 -0.00000000000E+00 -0.00000000000E+00 -0.45593999997E+02  0.45594000000E+02  0.51100000000E-03 0.  1.
    9900012    2    1    2    0    0 -0.93970179242E+01 -0.82333552690E+01  0.13949463644E+02  0.72461558245E+02  0.69999984303E+02 0.  0.
        -12    1    1    2    0    0  0.93970179242E+01  0.82333552690E+01 -0.13949463644E+02  0.18726441755E+02  0.00000000000E+00 0.  1.
         11    1    3    3    0    0  0.18084127468E+02 -0.19877513137E+02  0.58353684914E+01  0.27499140359E+02  0.51100000000E-03 0. -1.
        -11    1    3    3    0    0 -0.37284016478E+01  0.15955632194E+02  0.12264880837E+02  0.20467302698E+02  0.51100000000E-03 0.  1.
        -12    1    3    3    0    0 -0.23752743744E+02 -0.43114743255E+01 -0.41507856843E+01  0.24495115187E+02  0.00000000000E+00 0.  1.
</event>
<event>
 7    1  0.2700104E-013  0.7246149E+02  0.7816164E-02  0.1226708E+00
        -11   -1    0    0    0    0  0.00000000000E+00  0.00000000000E+00  0.45593999997E+02  0.45594000000E+02  0.51100000000E-03 0.  1.
         11   -1    0    0    0    0 -0.00000000000E+00 -0.00000000000E+00 -0.45593999997E+02  0.45594000000E+02  0.51100000000E-03 0. -1.
    9900012    2    1    2    0    0  0.15531869099E+02 -0.98609599636E+01  0.34935274544E+01  0.72461488761E+02  0.69999893787E+02 0.  0.
        -12    1    1    2    0    0 -0.15531869099E+02  0.98609599636E+01 -0.34935274544E+01  0.18726511239E+02  0.00000000000E+00 0.  1.
         11    1    3    3    0    0  0.17810727583E+01 -0.46634645243E+01  0.79109015870E+01  0.93542763333E+01  0.51100000000E-03 0. -1.
        -11    1    3    3    0    0  0.17151182509E+02 -0.19271084718E+02  0.21392389477E+02  0.33513759793E+02  0.51100000000E-03 0.  1.
         12    1    3    3    0    0 -0.34003861681E+01  0.14073589279E+02 -0.25809763609E+02  0.29593452635E+02  0.00000000000E+00 0. -1.
</event>
<event>
 7    1  0.2700104E-013  0.7246148E+02  0.7816164E-02  0.1226708E+00
        -11   -1    0    0    0    0  0.00000000000E+00  0.00000000000E+00  0.45593999997E+02  0.45594000000E+02  0.51100000000E-03 0. -1.
         11   -1    0    0    0    0 -0.00000000000E+00 -0.00000000000E+00 -0.45593999997E+02  0.45594000000E+02  0.51100000000E-03 0.  1.
    9900012    2    1    2    0    0  0.13837244695E+02 -0.45484000463E+01  0.11769680523E+02  0.72461477008E+02  0.69999878478E+02 0.  0.
        -12    1    1    2    0    0 -0.13837244695E+02  0.45484000463E+01 -0.11769680523E+02  0.18726522992E+02  0.00000000000E+00 0.  1.
         11    1    3    3    0    0  0.11806726706E+02  0.17722336672E+01 -0.71902104988E+01  0.13936955728E+02  0.51100000000E-03 0. -1.
        -11    1    3    3    0    0  0.16591100507E+02  0.19300684539E+02  0.12498588474E+02  0.28354818882E+02  0.51100000000E-03 0.  1.
        -12    1    3    3    0    0 -0.14560582518E+02 -0.25621318252E+02  0.64613025478E+01  0.30169702399E+02  0.00000000000E+00 0.  1.
</event>
<event>
 7    1  0.2700104E-013  0.7246163E+02  0.7816164E-02  0.1226708E+00
        -11   -1    0    0    0    0  0.00000000000E+00  0.00000000000E+00  0.45593999997E+02  0.45594000000E+02  0.51100000000E-03 0.  1.
         11   -1    0    0    0    0 -0.00000000000E+00 -0.00000000000E+00 -0.45593999997E+02  0.45594000000E+02  0.51100000000E-03 0. -1.
    9900012    2    1    2    0    0  0.17643568279E+02 -0.62688886505E+01  0.28712243065E+00  0.72461630736E+02  0.70000078736E+02 0.  0.
        -12    1    1    2    0    0 -0.17643568279E+02  0.62688886505E+01 -0.28712243065E+00  0.18726369264E+02  0.00000000000E+00 0.  1.
         11    1    3    3    0    0 -0.21537783197E+01 -0.19341443603E+01 -0.10032264400E+01  0.30636806309E+01  0.51100000000E-03 0. -1.
        -11    1    3    3    0    0 -0.28282639217E+01 -0.30944336498E+02 -0.10076951924E+02  0.32666435350E+02  0.51100000000E-03 0.  1.
         12    1    3    3    0    0  0.22625610520E+02  0.26609592208E+02  0.11367300794E+02  0.36731514755E+02  0.00000000000E+00 0. -1.
</event>
<event>
 7    1  0.2700104E-013  0.7246153E+02  0.7816164E-02  0.1226708E+00
        -11   -1    0    0    0    0  0.00000000000E+00  0.00000000000E+00  0.45593999997E+02  0.45594000000E+02  0.51100000000E-03 0. -1.
         11   -1    0    0    0    0 -0.00000000000E+00 -0.00000000000E+00 -0.45593999997E+02  0.45594000000E+02  0.51100000000E-03 0.  1.
    9900012    2    1    2    0    0 -0.39439942485E+01 -0.14479011809E+02  0.11201954999E+02  0.72461530247E+02  0.69999947831E+02 0.  0.
        -12    1    1    2    0    0  0.39439942485E+01  0.14479011809E+02 -0.11201954999E+02  0.18726469753E+02  0.00000000000E+00 0.  1.
         11    1    3    3    0    0  0.20838054411E+02  0.16199758778E+02 -0.13829223220E+01  0.26430459143E+02  0.51100000000E-03 0. -1.
        -11    1    3    3    0    0  0.49837665196E+00 -0.26972229855E+01 -0.39876109257E+01  0.48398793659E+01  0.51100000000E-03 0.  1.
         12    1    3    3    0    0 -0.25280425311E+02 -0.27981547602E+02  0.16572488247E+02  0.41191191738E+02  0.00000000000E+00 0. -1.
</event>
<event>
 7    1  0.2700104E-013  0.7246150E+02  0.7816164E-02  0.1226708E+00
        -11   -1    0    0    0    0  0.00000000000E+00  0.00000000000E+00  0.45593999997E+02  0.45594000000E+02  0.51100000000E-03 0.  1.
         11   -1    0    0    0    0 -0.00000000000E+00 -0.00000000000E+00 -0.45593999997E+02  0.45594000000E+02  0.51100000000E-03 0. -1.
    9900012    2    1    2    0    0 -0.16602824916E+02 -0.76690347735E+01 -0.40266650023E+01  0.72461496840E+02  0.69999904312E+02 0.  0.
        -12    1    1    2    0    0  0.16602824916E+02  0.76690347735E+01  0.40266650023E+01  0.18726503160E+02  0.00000000000E+00 0.  1.
         11    1    3    3    0    0 -0.13744496186E+02  0.67113869855E+01 -0.27707614173E+02  0.31649103844E+02  0.51100000000E-03 0. -1.
        -11    1    3    3    0    0 -0.32125621955E+00  0.99436026415E+00 -0.66399466598E+01  0.67216701645E+01  0.51100000000E-03 0.  1.
        -12    1    3    3    0    0 -0.25370725103E+01 -0.15374782023E+02  0.30320895831E+02  0.34090722832E+02  0.00000000000E+00 0.  1.
</event>
<event>
 7    1  0.2700104E-013  0.7246163E+02  0.7816164E-02  0.1226708E+00
        -11   -1    0    0    0    0  0.00000000000E+00  0.00000000000E+00  0.45593999997E+02  0.45594000000E+02  0.51100000000E-03 0.  1.
         11   -1    0    0    0    0 -0.00000000000E+00 -0.00000000000E+00 -0.45593999997E+02  0.45594000000E+02  0.51100000000E-03 0. -1.
    9900012    2    1    2    0    0  0.72987796766E+01 -0.85511839443E+01 -0.14976051327E+02  0.72461627021E+02  0.70000073897E+02 0.  0.
        -12    1    1    2    0    0 -0.72987796766E+01  0.85511839443E+01  0.14976051327E+02  0.18726372979E+02  0.00000000000E+00 0.  1.
         11    1    3    3    0    0  0.77758789162E+01  0.20652809812E+02 -0.19454809559E+02  0.29419253241E+02  0.51100000000E-03 0. -1.
        -11    1    3    3    0    0 -0.25507104708E+01  0.54265553318E+01 -0.41507752551E+01  0.72926375307E+01  0.51100000000E-03 0.  1.
        -12    1    3    3    0    0  0.20736112312E+01 -0.34630549088E+02  0.86295334874E+01  0.35749736249E+02  0.00000000000E+00 0.  1.
</event>
<event>
 7    1  0.2700104E-013  0.7246154E+02  0.7816164E-02  0.1226708E+00
        -11   -1    0    0    0    0  0.00000000000E+00  0.00000000000E+00  0.45593999997E+02  0.45594000000E+02  0.51100000000E-03 0.  1.
         11   -1    0    0    0    0 -0.00000000000E+00 -0.00000000000E+00 -0.45593999997E+02  0.45594000000E+02  0.51100000000E-03 0. -1.
    9900012    2    1    2    0    0 -0.73869523314E+01  0.11955958271E+02 -0.12376116067E+02  0.72461541396E+02  0.69999962355E+02 0.  0.
        -12    1    1    2    0    0  0.73869523314E+01 -0.11955958271E+02  0.12376116067E+02  0.18726458604E+02  0.00000000000E+00 0.  1.
         11    1    3    3    0    0  0.14898382567E+02  0.69012363451E+01  0.16930059485E+01  0.16506215060E+02  0.51100000000E-03 0. -1.
        -11    1    3    3    0    0  0.99851339328E+01 -0.11342438401E+02  0.38083426035E+01  0.15583878919E+02  0.51100000000E-03 0.  1.
        -12    1    3    3    0    0 -0.32270468831E+02  0.16397160326E+02 -0.17877464620E+02  0.40371447417E+02  0.00000000000E+00 0.  1.
</event>
<event>
 7    1  0.2700104E-013  0.7246156E+02  0.7816164E-02  0.1226708E+00
        -11   -1    0    0    0    0  0.00000000000E+00  0.00000000000E+00  0.45593999997E+02  0.45594000000E+02  0.51100000000E-03 0.  1.
         11   -1    0    0    0    0 -0.00000000000E+00 -0.00000000000E+00 -0.45593999997E+02  0.45594000000E+02  0.51100000000E-03 0. -1.
    9900012    2    1    2    0    0  0.44921945530E+01 -0.18885845054E+01 -0.18081291805E+02  0.72461556753E+02  0.69999982360E+02 0.  0.
        -12    1    1    2    0    0 -0.44921945530E+01  0.18885845054E+01  0.18081291805E+02  0.18726443247E+02  0.00000000000E+00 0.  1.
         11    1    3    3    0    0 -0.72878148694E+01  0.22316520943E+01 -0.28447145777E+02  0.29450511367E+02  0.51100000000E-03 0. -1.
        -11    1    3    3    0    0  0.15372057785E+02 -0.16394294759E+02 -0.49960554030E+01  0.23022459274E+02  0.51100000000E-03 0.  1.
        -12    1    3    3    0    0 -0.35920483625E+01  0.12274058159E+02  0.15361909375E+02  0.19988586112E+02  0.00000000000E+00 0.  1.
</event>
<event>
 7    1  0.2700104E-013  0.7246155E+02  0.7816164E-02  0.1226708E+00
        -11   -1    0    0    0    0  0.00000000000E+00  0.00000000000E+00  0.45593999997E+02  0.45594000000E+02  0.51100000000E-03 0. -1.
         11   -1    0    0    0    0 -0.00000000000E+00 -0.00000000000E+00 -0.45593999997E+02  0.45594000000E+02  0.51100000000E-03 0.  1.
    9900012    2    1    2    0    0 -0.20222644345E+01 -0.18616681565E+02 -0.97875086680E-01  0.72461549043E+02  0.69999972316E+02 0.  0.
        -12    1    1    2    0    0  0.20222644345E+01  0.18616681565E+02  0.97875086680E-01  0.18726450957E+02  0.00000000000E+00 0.  1.
         11    1    3    3    0    0 -0.12494307557E+02 -0.25973840330E+02  0.17606638390E+02  0.33774869629E+02  0.51100000000E-03 0. -1.
        -11    1    3    3    0    0 -0.52131007599E+01 -0.77576885653E+01  0.17172423470E+01  0.95030033647E+01  0.51100000000E-03 0.  1.
        -12    1    3    3    0    0  0.15685143882E+02  0.15114847331E+02 -0.19421755824E+02  0.29183676049E+02  0.00000000000E+00 0.  1.
</event>
<event>
 7    1  0.2700104E-013  0.7246154E+02  0.7816164E-02  0.1226708E+00
        -11   -1    0    0    0    0  0.00000000000E+00  0.00000000000E+00  0.45593999997E+02  0.45594000000E+02  0.51100000000E-03 0.  1.
         11   -1    0    0    0    0 -0.00000000000E+00 -0.00000000000E+00 -0.45593999997E+02  0.45594000000E+02  0.51100000000E-03 0. -1.
    9900012    2    1    2    0    0 -0.10791023844E+02 -0.71772447640E+01  0.13517444431E+02  0.72461538990E+02  0.69999959221E+02 0.  0.
        -12    1    1    2    0    0  0.10791023844E+02  0.71772447640E+01 -0.13517444431E+02  0.18726461010E+02  0.00000000000E+00 0.  1.
         11    1    3    3    0    0  0.29364302212E+01 -0.13504213011E+02  0.24227051770E+02  0.27891511778E+02  0.51100000000E-03 0. -1.
        -11    1    3    3    0    0 -0.11231224278E+02 -0.13647989083E+02  0.57291098259E+01  0.18580384939E+02  0.51100000000E-03 0.  1.
         12    1    3    3    0    0 -0.24962297867E+01  0.19974957331E+02 -0.16438717165E+02  0.25989642274E+02  0.00000000000E+00 0. -1.
</event>
<event>
 7    1  0.2700104E-013  0.7246158E+02  0.7816164E-02  0.1226708E+00
        -11   -1    0    0    0    0  0.00000000000E+00  0.00000000000E+00  0.45593999997E+02  0.45594000000E+02  0.51100000000E-03 0.  1.
         11   -1    0    0    0    0 -0.00000000000E+00 -0.00000000000E+00 -0.45593999997E+02  0.45594000000E+02  0.51100000000E-03 0. -1.
    9900012    2    1    2    0    0  0.10614823022E+02  0.14990461494E+02  0.36455854524E+01  0.72461582914E+02  0.70000016440E+02 0.  0.
        -12    1    1    2    0    0 -0.10614823022E+02 -0.14990461494E+02 -0.36455854524E+01  0.18726417086E+02  0.00000000000E+00 0.  1.
         11    1    3    3    0    0  0.42003298094E+01  0.68093112186E+01 -0.26413241727E+01  0.84253239360E+01  0.51100000000E-03 0. -1.
        -11    1    3    3    0    0  0.24488156449E+02  0.27157593488E+02  0.90898431176E+01  0.37680630813E+02  0.51100000000E-03 0.  1.
        -12    1    3    3    0    0 -0.18073663237E+02 -0.18976443213E+02 -0.28029334925E+01  0.26355628165E+02  0.00000000000E+00 0.  1.
</event>
<event>
 7    1  0.2700104E-013  0.7246157E+02  0.7816164E-02  0.1226708E+00
        -11   -1    0    0    0    0  0.00000000000E+00  0.00000000000E+00  0.45593999997E+02  0.45594000000E+02  0.51100000000E-03 0.  1.
         11   -1    0    0    0    0 -0.00000000000E+00 -0.00000000000E+00 -0.45593999997E+02  0.45594000000E+02  0.51100000000E-03 0. -1.
    9900012    2    1    2    0    0 -0.92421578234E+01  0.14085580669E+02 -0.81766869702E+01  0.72461567509E+02  0.69999996372E+02 0.  0.
        -12    1    1    2    0    0  0.92421578234E+01 -0.14085580669E+02  0.81766869702E+01  0.18726432491E+02  0.00000000000E+00 0.  1.
         11    1    3    3    0    0  0.23478606499E+01  0.16971671290E+02  0.12920123246E+02  0.21458789830E+02  0.51100000000E-03 0. -1.
        -11    1    3    3    0    0  0.47956817822E+01  0.13288889574E+02  0.60829933734E+01  0.15381676063E+02  0.51100000000E-03 0.  1.
         12    1    3    3    0    0 -0.16385700255E+02 -0.16174980195E+02 -0.27179803589E+02  0.35621101616E+02  0.00000000000E+00 0. -1.
</event>
<event>
 7    1  0.2700104E-013  0.7246148E+02  0.7816164E-02  0.1226708E+00
        -11   -1    0    0    0    0  0.00000000000E+00  0.00000000000E+00  0.45593999997E+02  0.45594000000E+02  0.51100000000E-03 0.  1.
         11   -1    0    0    0    0 -0.00000000000E+00 -0.00000000000E+00 -0.45593999997E+02  0.45594000000E+02  0.51100000000E-03 0. -1.
    9900012    2    1    2    0    0  0.23378960456E+01  0.17490139571E+02 -0.62699174456E+01  0.72461478569E+02  0.69999880511E+02 0.  0.
        -12    1    1    2    0    0 -0.23378960456E+01 -0.17490139571E+02  0.62699174456E+01  0.18726521431E+02  0.00000000000E+00 0.  1.
         11    1    3    3    0    0 -0.12964948304E+02  0.30952098570E+01  0.79439833147E-01  0.13329535608E+02  0.51100000000E-03 0. -1.
        -11    1    3    3    0    0 -0.10450990974E+02 -0.12131076634E+02  0.98154688056E+01  0.18781098497E+02  0.51100000000E-03 0.  1.
         12    1    3    3    0    0  0.25753835324E+02  0.26526006347E+02 -0.16164826084E+02  0.40350844464E+02  0.00000000000E+00 0. -1.
</event>
<event>
 7    1  0.2700104E-013  0.7246161E+02  0.7816164E-02  0.1226708E+00
        -11   -1    0    0    0    0  0.00000000000E+00  0.00000000000E+00  0.45593999997E+02  0.45594000000E+02  0.51100000000E-03 0. -1.
         11   -1    0    0    0    0 -0.00000000000E+00 -0.00000000000E+00 -0.45593999997E+02  0.45594000000E+02  0.51100000000E-03 0.  1.
    9900012    2    1    2    0    0  0.11370663620E+02 -0.67307327842E+01  0.13269624767E+02  0.72461609627E+02  0.70000051237E+02 0.  0.
        -12    1    1    2    0    0 -0.11370663620E+02  0.67307327842E+01 -0.13269624767E+02  0.18726390373E+02  0.00000000000E+00 0.  1.
         11    1    3    3    0    0  0.62310249396E+01  0.18577350373E+02 -0.16287752802E+02  0.25480080657E+02  0.51100000000E-03 0.  1.
        -11    1    3    3    0    0  0.52360064405E+01 -0.12294073017E+01  0.20600007795E+02  0.21290550184E+02  0.51100000000E-03 0. -1.
        -12    1    3    3    0    0 -0.96367760171E-01 -0.24078675855E+02  0.89573697745E+01  0.25690978785E+02  0.00000000000E+00 0.  1.
</event>
<event>
 7    1  0.2700104E-013  0.7246151E+02  0.7816164E-02  0.1226708E+00
        -11   -1    0    0    0    0  0.00000000000E+00  0.00000000000E+00  0.45593999997E+02  0.45594000000E+02  0.51100000000E-03 0. -1.
         11   -1    0    0    0    0 -0.00000000000E+00 -0.00000000000E+00 -0.45593999997E+02  0.45594000000E+02  0.51100000000E-03 0.  1.
    9900012    2    1    2    0    0 -0.23627874922E+01  0.94920132180E+01  0.15968735205E+02  0.72461505835E+02  0.69999916030E+02 0.  0.
        -12    1    1    2    0    0  0.23627874922E+01 -0.94920132180E+01 -0.15968735205E+02  0.18726494165E+02  0.00000000000E+00 0.  1.
         11    1    3    3    0    0 -0.18361865531E+02  0.95949493436E+01  0.14817012073E+02  0.25470865822E+02  0.51100000000E-03 0. -1.
        -11    1    3    3    0    0  0.24813970171E+01  0.28721782315E+01 -0.20743205882E+02  0.21087610805E+02  0.51100000000E-03 0.  1.
         12    1    3    3    0    0  0.13517681022E+02 -0.29751143570E+01  0.21894929014E+02  0.25903029208E+02  0.00000000000E+00 0. -1.
</event>
<event>
 7    1  0.2700104E-013  0.7246170E+02  0.7816164E-02  0.1226708E+00
        -11   -1    0    0    0    0  0.00000000000E+00  0.00000000000E+00  0.45593999997E+02  0.45594000000E+02  0.51100000000E-03 0.  1.
         11   -1    0    0    0    0 -0.00000000000E+00 -0.00000000000E+00 -0.45593999997E+02  0.45594000000E+02  0.51100000000E-03 0. -1.
    9900012    2    1    2    0    0 -0.87364142404E+01 -0.52735967348E+01 -0.15701541484E+02  0.72461704016E+02  0.70000174197E+02 0.  0.
        -12    1    1    2    0    0  0.87364142404E+01  0.52735967348E+01  0.15701541484E+02  0.18726295984E+02  0.00000000000E+00 0.  1.
         11    1    3    3    0    0 -0.83320822310E+01 -0.48579392459E+01 -0.10737626705E+02  0.14433287759E+02  0.51100000000E-03 0. -1.
        -11    1    3    3    0    0  0.71416725077E+01 -0.27113472811E+02  0.51334504700E+01  0.28504319113E+02  0.51100000000E-03 0.  1.
        -12    1    3    3    0    0 -0.75460045171E+01  0.26697815323E+02 -0.10097365249E+02  0.29524097144E+02  0.00000000000E+00 0.  1.
</event>
<event>
 7    1  0.2700104E-013  0.7246155E+02  0.7816164E-02  0.1226708E+00
        -11   -1    0    0    0    0  0.00000000000E+00  0.00000000000E+00  0.45593999997E+02  0.45594000000E+02  0.51100000000E-03 0. -1.
         11   -1    0    0    0    0 -0.00000000000E+00 -0.00000000000E+00 -0.45593999997E+02  0.45594000000E+02  0.51100000000E-03 0.  1.
    9900012    2    1    2    0    0  0.71403167635E+01  0.12544476656E+01  0.17266218491E+02  0.72461546427E+02  0.69999968909E+02 0.  0.
        -12    1    1    2    0    0 -0.71403167635E+01 -0.12544476656E+01 -0.17266218491E+02  0.18726453573E+02  0.00000000000E+00 0.  1.
         11    1    3    3    0    0  0.10016190099E+02 -0.22566467609E+02  0.13779132597E+02  0.28274264267E+02  0.51100000000E-03 0. -1.
        -11    1    3    3    0    0  0.16876964196E+02  0.83203386144E+01 -0.14691794281E+00  0.18817054506E+02  0.51100000000E-03 0.  1.
         12    1    3    3    0    0 -0.19752837532E+02  0.15500576660E+02  0.36340038365E+01  0.25370227654E+02  0.00000000000E+00 0. -1.
</event>
<event>
 7    1  0.2700104E-013  0.7246144E+02  0.7816164E-02  0.1226708E+00
        -11   -1    0    0    0    0  0.00000000000E+00  0.00000000000E+00  0.45593999997E+02  0.45594000000E+02  0.51100000000E-03 0.  1.
         11   -1    0    0    0    0 -0.00000000000E+00 -0.00000000000E+00 -0.45593999997E+02  0.45594000000E+02  0.51100000000E-03 0. -1.
    9900012    2    1    2    0    0  0.10925830160E+02  0.13577080588E+02  0.68536945780E+01  0.72461441017E+02  0.69999831592E+02 0.  0.
        -12    1    1    2    0    0 -0.10925830160E+02 -0.13577080588E+02 -0.68536945780E+01  0.18726558983E+02  0.00000000000E+00 0.  1.
         11    1    3    3    0    0  0.32308096906E+01 -0.15757323510E+02  0.11578687414E+02  0.19819116478E+02  0.51100000000E-03 0. -1.
        -11    1    3    3    0    0 -0.15889005445E+02  0.32768351633E+01 -0.64404772558E+01  0.17455024786E+02  0.51100000000E-03 0.  1.
        -12    1    3    3    0    0  0.23584025915E+02  0.26057568935E+02  0.17154844198E+01  0.35187299753E+02  0.00000000000E+00 0.  1.
</event>
<event>
 7    1  0.2700104E-013  0.7246156E+02  0.7816164E-02  0.1226708E+00
        -11   -1    0    0    0    0  0.00000000000E+00  0.00000000000E+00  0.45593999997E+02  0.45594000000E+02  0.51100000000E-03 0.  1.
         11   -1    0    0    0    0 -0.00000000000E+00 -0.00000000000E+00 -0.45593999997E+02  0.45594000000E+02  0.51100000000E-03 0. -1.
    9900012    2    1    2    0    0  0.15304121941E+00  0.31716752035E+01 -0.18455262174E+02  0.72461557543E+02  0.69999983388E+02 0.  0.
        -12    1    1    2    0    0 -0.15304121941E+00 -0.31716752035E+01  0.18455262174E+02  0.18726442457E+02  0.00000000000E+00 0.  1.
         11    1    3    3    0    0 -0.34418258684E+01  0.16360572673E+02  0.68805695456E+01  0.18079179767E+02  0.51100000000E-03 0.  1.
        -11    1    3    3    0    0  0.16708723502E+02 -0.23180149240E+02 -0.64132730447E+01  0.29285334747E+02  0.51100000000E-03 0. -1.
         12    1    3    3    0    0 -0.13113856414E+02  0.99912517697E+01 -0.18922558675E+02  0.25097043028E+02  0.00000000000E+00 0. -1.
</event>
<event>
 7    1  0.2700104E-013  0.7246149E+02  0.7816164E-02  0.1226708E+00
        -11   -1    0    0    0    0  0.00000000000E+00  0.00000000000E+00  0.45593999997E+02  0.45594000000E+02  0.51100000000E-03 0. -1.
         11   -1    0    0    0    0 -0.00000000000E+00 -0.00000000000E+00 -0.45593999997E+02  0.45594000000E+02  0.51100000000E-03 0.  1.
    9900012    2    1    2    0    0  0.16900203450E+02  0.42551357907E+01  0.68526796658E+01  0.72461487355E+02  0.69999891956E+02 0.  0.
        -12    1    1    2    0    0 -0.16900203450E+02 -0.42551357907E+01 -0.68526796658E+01  0.18726512645E+02  0.00000000000E+00 0.  1.
         11    1    3    3    0    0  0.53798119961E+01  0.13687191940E+02  0.17392441005E+02  0.22776711894E+02  0.51100000000E-03 0. -1.
        -11    1    3    3    0    0 -0.15776529748E+02  0.60522403852E+01 -0.62198189580E+01  0.18005961588E+02  0.51100000000E-03 0.  1.
         12    1    3    3    0    0  0.27296921202E+02 -0.15484296535E+02 -0.43199423810E+01  0.31678813874E+02  0.00000000000E+00 0. -1.
</event>
<event>
 7    1  0.2700104E-013  0.7246165E+02  0.7816164E-02  0.1226708E+00
        -11   -1    0    0    0    0  0.00000000000E+00  0.00000000000E+00  0.45593999997E+02  0.45594000000E+02  0.51100000000E-03 0.  1.
         11   -1    0    0    0    0 -0.00000000000E+00 -0.00000000000E+00 -0.45593999997E+02  0.45594000000E+02  0.51100000000E-03 0. -1.
    9900012    2    1    2    0    0 -0.16678174561E+02 -0.84934822485E+01  0.61287183051E+00  0.72461645329E+02  0.70000097747E+02 0.  0.
        -12    1    1    2    0    0  0.16678174561E+02  0.84934822485E+01 -0.61287183051E+00  0.18726354671E+02  0.00000000000E+00 0.  1.
         11    1    3    3    0    0 -0.21004553831E+01  0.55616604091E+01 -0.67461027019E+01  0.89918786273E+01  0.51100000000E-03 0. -1.
        -11    1    3    3    0    0 -0.19561446657E+02 -0.46760202120E+00  0.30463723559E+02  0.36206453849E+02  0.51100000000E-03 0.  1.
         12    1    3    3    0    0  0.49837274798E+01 -0.13587540636E+02 -0.23104749027E+02  0.27263312853E+02  0.00000000000E+00 0. -1.
</event>
<event>
 7    1  0.2700104E-013  0.7246159E+02  0.7816164E-02  0.1226708E+00
        -11   -1    0    0    0    0  0.00000000000E+00  0.00000000000E+00  0.45593999997E+02  0.45594000000E+02  0.51100000000E-03 0.  1.
         11   -1    0    0    0    0 -0.00000000000E+00 -0.00000000000E+00 -0.45593999997E+02  0.45594000000E+02  0.51100000000E-03 0. -1.
    9900012    2    1    2    0    0 -0.18715318368E+02  0.10997904991E+00  0.63506650921E+00  0.72461586930E+02  0.70000021671E+02 0.  0.
        -12    1    1    2    0    0  0.18715318368E+02 -0.10997904991E+00 -0.63506650921E+00  0.18726413070E+02  0.00000000000E+00 0.  1.
         11    1    3    3    0    0  0.77630107498E+01  0.48400727681E+01 -0.33763169831E+01  0.97514182012E+01  0.51100000000E-03 0.  1.
        -11    1    3    3    0    0  0.13636482229E+02 -0.15888705525E+02  0.17434303592E+01  0.21010572589E+02  0.51100000000E-03 0. -1.
         12    1    3    3    0    0 -0.40114811346E+02  0.11158611807E+02  0.22679531331E+01  0.41699596140E+02  0.00000000000E+00 0. -1.
</event>
<event>
 7    1  0.2700104E-013  0.7246153E+02  0.7816164E-02  0.1226708E+00
        -11   -1    0    0    0    0  0.00000000000E+00  0.00000000000E+00  0.45593999997E+02  0.45594000000E+02  0.51100000000E-03 0. -1.
         11   -1    0    0    0    0 -0.00000000000E+00 -0.00000000000E+00 -0.45593999997E+02  0.45594000000E+02  0.51100000000E-03 0.  1.
    9900012    2    1    2    0    0  0.14091665112E+02  0.49206035267E+01 -0.11308989633E+02  0.72461531801E+02  0.69999949855E+02 0.  0.
        -12    1    1    2    0    0 -0.14091665112E+02 -0.49206035267E+01  0.11308989633E+02  0.18726468199E+02  0.00000000000E+00 0.  1.
         11    1    3    3    0    0 -0.12707690170E+02  0.20694102743E+02  0.84665700695E+01  0.25717972058E+02  0.51100000000E-03 0. -1.
        -11    1    3    3    0    0  0.26208188492E+02 -0.32307520903E+01 -0.42026252972E+01  0.26738903544E+02  0.51100000000E-03 0.  1.
        -12    1    3    3    0    0  0.59116679057E+00 -0.12542747126E+02 -0.15572934405E+02  0.20004656198E+02  0.00000000000E+00 0.  1.
</event>
<event>
 7    1  0.2700104E-013  0.7246158E+02  0.7816164E-02  0.1226708E+00
        -11   -1    0    0    0    0  0.00000000000E+00  0.00000000000E+00  0.45593999997E+02  0.45594000000E+02  0.51100000000E-03 0.  1.
         11   -1    0    0    0    0 -0.00000000000E+00 -0.00000000000E+00 -0.45593999997E+02  0.45594000000E+02  0.51100000000E-03 0. -1.
    9900012    2    1    2    0    0 -0.72897512888E+01 -0.17249138587E+02 -0.75396521728E-01  0.72461576410E+02  0.70000007967E+02 0.  0.
        -12    1    1    2    0    0  0.72897512888E+01  0.17249138587E+02  0.75396521728E-01  0.18726423590E+02  0.00000000000E+00 0.  1.
         11    1    3    3    0    0 -0.17787797272E+02 -0.16528334097E+02  0.80033517278E+01  0.25566485855E+02  0.51100000000E-03 0. -1.
        -11    1    3    3    0    0 -0.13892852636E+02  0.10251753671E+02  0.37213059865E+01  0.17662330713E+02  0.51100000000E-03 0.  1.
        -12    1    3    3    0    0  0.24390898619E+02 -0.10972558161E+02 -0.11800054236E+02  0.29232759843E+02  0.00000000000E+00 0.  1.
</event>
<event>
 7    1  0.2700104E-013  0.7246157E+02  0.7816164E-02  0.1226708E+00
        -11   -1    0    0    0    0  0.00000000000E+00  0.00000000000E+00  0.45593999997E+02  0.45594000000E+02  0.51100000000E-03 0.  1.
         11   -1    0    0    0    0 -0.00000000000E+00 -0.00000000000E+00 -0.45593999997E+02  0.45594000000E+02  0.51100000000E-03 0. -1.
    9900012    2    1    2    0    0  0.13449414619E+02 -0.13016323144E+02 -0.60646918077E+00  0.72461568769E+02  0.69999998013E+02 0.  0.
        -12    1    1    2    0    0 -0.13449414619E+02  0.13016323144E+02  0.60646918077E+00  0.18726431231E+02  0.00000000000E+00 0.  1.
         11    1    3    3    0    0  0.22621661003E+02 -0.17716320676E+02  0.16793163711E+02  0.33280894107E+02  0.51100000000E-03 0. -1.
        -11    1    3    3    0    0  0.10957028617E+02  0.93368405250E+00  0.17600162960E+01  0.11136691594E+02  0.51100000000E-03 0.  1.
        -12    1    3    3    0    0 -0.20129275002E+02  0.37663134788E+01 -0.19159649188E+02  0.28043983068E+02  0.00000000000E+00 0.  1.
</event>
<event>
 7    1  0.2700104E-013  0.7246154E+02  0.7816164E-02  0.1226708E+00
        -11   -1    0    0    0    0  0.00000000000E+00  0.00000000000E+00  0.45593999997E+02  0.45594000000E+02  0.51100000000E-03 0. -1.
         11   -1    0    0    0    0 -0.00000000000E+00 -0.00000000000E+00 -0.45593999997E+02  0.45594000000E+02  0.51100000000E-03 0.  1.
    9900012    2    1    2    0    0  0.14640071951E+02  0.10617374826E+02 -0.48600470962E+01  0.72461537101E+02  0.69999956759E+02 0.  0.
        -12    1    1    2    0    0 -0.14640071951E+02 -0.10617374826E+02  0.48600470962E+01  0.18726462899E+02  0.00000000000E+00 0.  1.
         11    1    3    3    0    0  0.22527153073E+02  0.30291216172E+02  0.50395054626E+01  0.38084472142E+02  0.51100000000E-03 0. -1.
        -11    1    3    3    0    0 -0.11270860814E+02 -0.22520369577E+01 -0.11867468585E+02  0.16520919612E+02  0.51100000000E-03 0.  1.
        -12    1    3    3    0    0  0.33837796926E+01 -0.17421804388E+02  0.19679160265E+01  0.17856145347E+02  0.00000000000E+00 0.  1.
</event>
<event>
 7    1  0.2700104E-013  0.7246146E+02  0.7816164E-02  0.1226708E+00
        -11   -1    0    0    0    0  0.00000000000E+00  0.00000000000E+00  0.45593999997E+02  0.45594000000E+02  0.51100000000E-03 0.  1.
         11   -1    0    0    0    0 -0.00000000000E+00 -0.00000000000E+00 -0.45593999997E+02  0.45594000000E+02  0.51100000000E-03 0. -1.
    9900012    2    1    2    0    0 -0.10514875348E+02 -0.38713582603E+01 -0.15004440503E+02  0.72461461260E+02  0.69999857962E+02 0.  0.
        -12    1    1    2    0    0  0.10514875348E+02  0.38713582603E+01  0.15004440503E+02  0.18726538740E+02  0.00000000000E+00 0.  1.
         11    1    3    3    0    0 -0.13294748886E+01 -0.14398649730E+02 -0.25375034628E+02  0.29205838460E+02  0.51100000000E-03 0. -1.
        -11    1    3    3    0    0  0.82799942036E+01  0.16575380440E+02 -0.50282111193E+01  0.19198553280E+02  0.51100000000E-03 0.  1.
         12    1    3    3    0    0 -0.17465394663E+02 -0.60480889700E+01  0.15398805244E+02  0.24057069520E+02  0.00000000000E+00 0. -1.
</event>
<event>
 7    1  0.2700104E-013  0.7246151E+02  0.7816164E-02  0.1226708E+00
        -11   -1    0    0    0    0  0.00000000000E+00  0.00000000000E+00  0.45593999997E+02  0.45594000000E+02  0.51100000000E-03 0.  1.
         11   -1    0    0    0    0 -0.00000000000E+00 -0.00000000000E+00 -0.45593999997E+02  0.45594000000E+02  0.51100000000E-03 0. -1.
    9900012    2    1    2    0    0  0.78575635444E+01 -0.73545247453E+01 -0.15324850358E+02  0.72461511339E+02  0.69999923199E+02 0.  0.
        -12    1    1    2    0    0 -0.78575635444E+01  0.73545247453E+01  0.15324850358E+02  0.18726488661E+02  0.00000000000E+00 0.  1.
         11    1    3    3    0    0 -0.29726334841E+00  0.62305676898E+01  0.20890456739E+02  0.21801823829E+02  0.51100000000E-03 0. -1.
        -11    1    3    3    0    0  0.71117125456E+01 -0.42324396086E+01  0.41174852897E+01  0.92435753767E+01  0.51100000000E-03 0.  1.
         12    1    3    3    0    0  0.10431143472E+01 -0.93526528265E+01 -0.40332792387E+02  0.41416112133E+02  0.00000000000E+00 0. -1.
</event>
<event>
 7    1  0.2700104E-013  0.7246160E+02  0.7816164E-02  0.1226708E+00
        -11   -1    0    0    0    0  0.00000000000E+00  0.00000000000E+00  0.45593999997E+02  0.45594000000E+02  0.51100000000E-03 0. -1.
         11   -1    0    0    0    0 -0.00000000000E+00 -0.00000000000E+00 -0.45593999997E+02  0.45594000000E+02  0.51100000000E-03 0.  1.
    9900012    2    1    2    0    0  0.11019807885E+02 -0.13734050400E+02 -0.63731915801E+01  0.72461604802E+02  0.70000044953E+02 0.  0.
        -12    1    1    2    0    0 -0.11019807885E+02  0.13734050400E+02  0.63731915801E+01  0.18726395198E+02  0.00000000000E+00 0.  1.
         11    1    3    3    0    0  0.93464605058E+01  0.13940986550E+02  0.18179662025E+02  0.24742828084E+02  0.51100000000E-03 0. -1.
        -11    1    3    3    0    0  0.67746278126E+01  0.46080839978E+01 -0.40857181784E+01  0.91554963505E+01  0.51100000000E-03 0.  1.
         12    1    3    3    0    0 -0.51012804338E+01 -0.32283120948E+02 -0.20467135426E+02  0.38563280368E+02  0.00000000000E+00 0. -1.
</event>
<event>
 7    1  0.2700104E-013  0.7246153E+02  0.7816164E-02  0.1226708E+00
        -11   -1    0    0    0    0  0.00000000000E+00  0.00000000000E+00  0.45593999997E+02  0.45594000000E+02  0.51100000000E-03 0.  1.
         11   -1    0    0    0    0 -0.00000000000E+00 -0.00000000000E+00 -0.45593999997E+02  0.45594000000E+02  0.51100000000E-03 0. -1.
    9900012    2    1    2    0    0  0.11831522068E+02 -0.12334355215E+02 -0.76524149278E+01  0.72461529771E+02  0.69999947211E+02 0.  0.
        -12    1    1    2    0    0 -0.11831522068E+02  0.12334355215E+02  0.76524149278E+01  0.18726470229E+02  0.00000000000E+00 0.  1.
         11    1    3    3    0    0 -0.36204770169E+01 -0.26274657410E+02 -0.21997116114E+02  0.34457779868E+02  0.51100000000E-03 0. -1.
        -11    1    3    3    0    0  0.57774857179E+01  0.11143418626E+01 -0.83397678061E+01  0.10206509018E+02  0.51100000000E-03 0.  1.
        -12    1    3    3    0    0  0.96745133671E+01  0.12825960332E+02  0.22684468993E+02  0.27797240885E+02  0.00000000000E+00 0.  1.
</event>
<event>
 7    1  0.2700104E-013  0.7246154E+02  0.7816164E-02  0.1226708E+00
        -11   -1    0    0    0    0  0.00000000000E+00  0.00000000000E+00  0.45593999997E+02  0.45594000000E+02  0.51100000000E-03 0.  1.
         11   -1    0    0    0    0 -0.00000000000E+00 -0.00000000000E+00 -0.45593999997E+02  0.45594000000E+02  0.51100000000E-03 0. -1.
    9900012    2    1    2    0    0 -0.16089782973E+02 -0.92465632278E+01 -0.25100235432E+01  0.72461541023E+02  0.69999961868E+02 0.  0.
        -12    1    1    2    0    0  0.16089782973E+02  0.92465632278E+01  0.25100235432E+01  0.18726458977E+02  0.00000000000E+00 0.  1.
         11    1    3    3    0    0 -0.58717254865E+01  0.96548563825E+01 -0.14267941375E+02  0.18200757218E+02  0.51100000000E-03 0. -1.
        -11    1    3    3    0    0 -0.20533562829E+02  0.95479565087E+01  0.37064683156E+01  0.22946210658E+02  0.51100000000E-03 0.  1.
        -12    1    3    3    0    0  0.10315505342E+02 -0.28449376119E+02  0.80514495164E+01  0.31314573146E+02  0.00000000000E+00 0.  1.
</event>
<event>
 7    1  0.2700104E-013  0.7246166E+02  0.7816164E-02  0.1226708E+00
        -11   -1    0    0    0    0  0.00000000000E+00  0.00000000000E+00  0.45593999997E+02  0.45594000000E+02  0.51100000000E-03 0.  1.
         11   -1    0    0    0    0 -0.00000000000E+00 -0.00000000000E+00 -0.45593999997E+02  0.45594000000E+02  0.51100000000E-03 0. -1.
    9900012    2    1    2    0    0 -0.10431861466E+02  0.12085779518E+02 -0.97870302139E+01  0.72461661313E+02  0.70000118569E+02 0.  0.
        -12    1    1    2    0    0  0.10431861466E+02 -0.12085779518E+02  0.97870302139E+01  0.18726338687E+02  0.00000000000E+00 0.  1.
         11    1    3    3    0    0  0.12274638927E+02  0.81842586459E+01 -0.69642446760E+01  0.16314090675E+02  0.51100000000E-03 0. -1.
        -11    1    3    3    0    0  0.78307702696E+01 -0.14750448361E+02 -0.10259697104E+02  0.19599950888E+02  0.51100000000E-03 0.  1.
         12    1    3    3    0    0 -0.30537270663E+02  0.18651969234E+02  0.74369115658E+01  0.36547619751E+02  0.00000000000E+00 0. -1.
</event>
<event>
 7    1  0.2700104E-013  0.7246153E+02  0.7816164E-02  0.1226708E+00
        -11   -1    0    0    0    0  0.00000000000E+00  0.00000000000E+00  0.45593999997E+02  0.45594000000E+02  0.51100000000E-03 0.  1.
         11   -1    0    0    0    0 -0.00000000000E+00 -0.00000000000E+00 -0.45593999997E+02  0.45594000000E+02  0.51100000000E-03 0. -1.
    9900012    2    1    2    0    0  0.13792599894E+02 -0.90843989663E+01 -0.88271535693E+01  0.72461527920E+02  0.69999944800E+02 0.  0.
        -12    1    1    2    0    0 -0.13792599894E+02  0.90843989663E+01  0.88271535693E+01  0.18726472080E+02  0.00000000000E+00 0.  1.
         11    1    3    3    0    0  0.38846730931E+01  0.79356767719E+01 -0.79895068989E+00  0.88715259867E+01  0.51100000000E-03 0. -1.
        -11    1    3    3    0    0  0.14582448141E+02  0.19912776384E+02  0.27489755495E+01  0.24833914792E+02  0.51100000000E-03 0.  1.
         12    1    3    3    0    0 -0.46745213396E+01 -0.36932852122E+02 -0.10777178429E+02  0.38756087141E+02  0.00000000000E+00 0. -1.
</event>
<event>
 7    1  0.2700104E-013  0.7246161E+02  0.7816164E-02  0.1226708E+00
        -11   -1    0    0    0    0  0.00000000000E+00  0.00000000000E+00  0.45593999997E+02  0.45594000000E+02  0.51100000000E-03 0.  1.
         11   -1    0    0    0    0 -0.00000000000E+00 -0.00000000000E+00 -0.45593999997E+02  0.45594000000E+02  0.51100000000E-03 0. -1.
    9900012    2    1    2    0    0  0.15621050221E+02  0.62342010434E+01 -0.82337942532E+01  0.72461605781E+02  0.70000046228E+02 0.  0.
        -12    1    1    2    0    0 -0.15621050221E+02 -0.62342010434E+01  0.82337942532E+01  0.18726394219E+02  0.00000000000E+00 0.  1.
         11    1    3    3    0    0  0.20618245410E+02 -0.84489222138E+01  0.87156780389E+01  0.23926123261E+02  0.51100000000E-03 0. -1.
        -11    1    3    3    0    0 -0.63611781377E+01 -0.14337043467E+02 -0.18497305768E+01  0.15793571671E+02  0.51100000000E-03 0.  1.
        -12    1    3    3    0    0  0.13639829484E+01  0.29020166724E+02 -0.15099741715E+02  0.32741910849E+02  0.00000000000E+00 0.  1.
</event>
<event>
 7    1  0.2700104E-013  0.7246159E+02  0.7816164E-02  0.1226708E+00
        -11   -1    0    0    0    0  0.00000000000E+00  0.00000000000E+00  0.45593999997E+02  0.45594000000E+02  0.51100000000E-03 0. -1.
         11   -1    0    0    0    0 -0.00000000000E+00 -0.00000000000E+00 -0.45593999997E+02  0.45594000000E+02  0.51100000000E-03 0.  1.
    9900012    2    1    2    0    0  0.30094458209E+01  0.76287899046E+01  0.16835176509E+02  0.72461591705E+02  0.70000027891E+02 0.  0.
        -12    1    1    2    0    0 -0.30094458209E+01 -0.76287899046E+01 -0.16835176509E+02  0.18726408295E+02  0.00000000000E+00 0.  1.
         11    1    3    3    0    0  0.30256870979E+02 -0.10619251880E+02 -0.16253371222E+01  0.32107451985E+02  0.51100000000E-03 0. -1.
        -11    1    3    3    0    0 -0.21529959806E+01  0.45276817340E+01 -0.17757020026E+01  0.53186851233E+01  0.51100000000E-03 0.  1.
        -12    1    3    3    0    0 -0.25094429177E+02  0.13720360050E+02  0.20236215634E+02  0.35035454597E+02  0.00000000000E+00 0.  1.
</event>
<event>
 7    1  0.2700104E-013  0.7246151E+02  0.7816164E-02  0.1226708E+00
        -11   -1    0    0    0    0  0.00000000000E+00  0.00000000000E+00  0.45593999997E+02  0.45594000000E+02  0.51100000000E-03 0. -1.
         11   -1    0    0    0    0 -0.00000000000E+00 -0.00000000000E+00 -0.45593999997E+02  0.45594000000E+02  0.51100000000E-03 0.  1.
    9900012    2    1    2    0    0 -0.77926650583E-01 -0.15994776745E+02  0.97387082738E+01  0.72461510886E+02  0.69999922609E+02 0.  0.
        -12    1    1    2    0    0  0.77926650583E-01  0.15994776745E+02 -0.97387082738E+01  0.18726489114E+02  0.00000000000E+00 0.  1.
         11    1    3    3    0    0  0.17367809739E+02 -0.23647913080E+02  0.15424887516E+02  0.33148028045E+02  0.51100000000E-03 0. -1.
        -11    1    3    3    0    0  0.61630303732E+01 -0.41287713469E+01 -0.10130807926E+02  0.12556391429E+02  0.51100000000E-03 0.  1.
         12    1    3    3    0    0 -0.23608766763E+02  0.11781907681E+02  0.44446286843E+01  0.26757091412E+02  0.00000000000E+00 0. -1.
</event>
<event>
 7    1  0.2700104E-013  0.7246178E+02  0.7816164E-02  0.1226707E+00
        -11   -1    0    0    0    0  0.00000000000E+00  0.00000000000E+00  0.45593999997E+02  0.45594000000E+02  0.51100000000E-03 0.  1.
         11   -1    0    0    0    0 -0.00000000000E+00 -0.00000000000E+00 -0.45593999997E+02  0.45594000000E+02  0.51100000000E-03 0. -1.
    9900012    2    1    2    0    0 -0.35545913335E+01  0.67044560948E+01 -0.17119764702E+02  0.72461783229E+02  0.70000277387E+02 0.  0.
        -12    1    1    2    0    0  0.35545913335E+01 -0.67044560948E+01  0.17119764702E+02  0.18726216771E+02  0.00000000000E+00 0.  1.
         11    1    3    3    0    0  0.19737750560E+02 -0.86343291778E+01  0.46731549048E+01  0.22044700373E+02  0.51100000000E-03 0. -1.
        -11    1    3    3    0    0 -0.16250297286E+01  0.20264039817E+00  0.93946338029E+01  0.95362953657E+01  0.51100000000E-03 0.  1.
        -12    1    3    3    0    0 -0.21667312165E+02  0.15136144874E+02 -0.31187553410E+02  0.40880787490E+02  0.00000000000E+00 0.  1.
</event>
<event>
 7    1  0.2700104E-013  0.7246152E+02  0.7816164E-02  0.1226708E+00
        -11   -1    0    0    0    0  0.00000000000E+00  0.00000000000E+00  0.45593999997E+02  0.45594000000E+02  0.51100000000E-03 0.  1.
         11   -1    0    0    0    0 -0.00000000000E+00 -0.00000000000E+00 -0.45593999997E+02  0.45594000000E+02  0.51100000000E-03 0. -1.
    9900012    2    1    2    0    0  0.29346068299E+01  0.16510501127E+02 -0.83350068527E+01  0.72461523985E+02  0.69999939674E+02 0.  0.
        -12    1    1    2    0    0 -0.29346068299E+01 -0.16510501127E+02  0.83350068527E+01  0.18726476015E+02  0.00000000000E+00 0.  1.
         11    1    3    3    0    0  0.87724134798E+01 -0.22931942857E+01  0.11322998368E+02  0.14506008086E+02  0.51100000000E-03 0. -1.
        -11    1    3    3    0    0 -0.66412479158E+01  0.34613639264E+02 -0.36359384440E+01  0.35432051107E+02  0.51100000000E-03 0.  1.
         12    1    3    3    0    0  0.80344126595E+00 -0.15809943852E+02 -0.16022066777E+02  0.22523464793E+02  0.00000000000E+00 0. -1.
</event>
<event>
 7    1  0.2700104E-013  0.7246157E+02  0.7816164E-02  0.1226708E+00
        -11   -1    0    0    0    0  0.00000000000E+00  0.00000000000E+00  0.45593999997E+02  0.45594000000E+02  0.51100000000E-03 0. -1.
         11   -1    0    0    0    0 -0.00000000000E+00 -0.00000000000E+00 -0.45593999997E+02  0.45594000000E+02  0.51100000000E-03 0.  1.
    9900012    2    1    2    0    0  0.17661254357E+02  0.61230142619E+01 -0.11261186687E+01  0.72461565413E+02  0.69999993641E+02 0.  0.
        -12    1    1    2    0    0 -0.17661254357E+02 -0.61230142619E+01  0.11261186687E+01  0.18726434587E+02  0.00000000000E+00 0.  1.
         11    1    3    3    0    0  0.24545016139E+02 -0.45345284949E+01  0.20280448246E+02  0.32160788971E+02  0.51100000000E-03 0. -1.
        -11    1    3    3    0    0  0.54905950673E+01 -0.42032779425E+01  0.42923041585E+01  0.81386764836E+01  0.51100000000E-03 0.  1.
        -12    1    3    3    0    0 -0.12374356849E+02  0.14860820699E+02 -0.25698871073E+02  0.32162099958E+02  0.00000000000E+00 0.  1.
</event>
<event>
 7    1  0.2700104E-013  0.7246162E+02  0.7816164E-02  0.1226708E+00
        -11   -1    0    0    0    0  0.00000000000E+00  0.00000000000E+00  0.45593999997E+02  0.45594000000E+02  0.51100000000E-03 0.  1.
         11   -1    0    0    0    0 -0.00000000000E+00 -0.00000000000E+00 -0.45593999997E+02  0.45594000000E+02  0.51100000000E-03 0. -1.
    9900012    2    1    2    0    0 -0.18530062772E+02 -0.19277881375E+00 -0.26975544582E+01  0.72461623147E+02  0.70000068850E+02 0.  0.
        -12    1    1    2    0    0  0.18530062772E+02  0.19277881375E+00  0.26975544582E+01  0.18726376853E+02  0.00000000000E+00 0.  1.
         11    1    3    3    0    0 -0.28041086970E+02 -0.14318228192E+02 -0.21738424656E+02  0.38260597535E+02  0.51100000000E-03 0. -1.
        -11    1    3    3    0    0  0.26730786109E+01  0.11104933809E+02 -0.22450171964E+01  0.11640661778E+02  0.51100000000E-03 0.  1.
        -12    1    3    3    0    0  0.68379455868E+01  0.30205155691E+01  0.21285887394E+02  0.22560363833E+02  0.00000000000E+00 0.  1.
</event>
<event>
 7    1  0.2700104E-013  0.7246157E+02  0.7816164E-02  0.1226708E+00
        -11   -1    0    0    0    0  0.00000000000E+00  0.00000000000E+00  0.45593999997E+02  0.45594000000E+02  0.51100000000E-03 0.  1.
         11   -1    0    0    0    0 -0.00000000000E+00 -0.00000000000E+00 -0.45593999997E+02  0.45594000000E+02  0.51100000000E-03 0. -1.
    9900012    2    1    2    0    0 -0.60632183943E+01 -0.13058358708E+02 -0.11974801013E+02  0.72461569248E+02  0.69999998636E+02 0.  0.
        -12    1    1    2    0    0  0.60632183943E+01  0.13058358708E+02  0.11974801013E+02  0.18726430752E+02  0.00000000000E+00 0.  1.
         11    1    3    3    0    0 -0.45007969712E+01 -0.17210585537E+02  0.60004966271E+01  0.18774114837E+02  0.51100000000E-03 0. -1.
        -11    1    3    3    0    0  0.14550708550E+02 -0.16950602691E+02 -0.13912595471E+01  0.22382619469E+02  0.51100000000E-03 0.  1.
         12    1    3    3    0    0 -0.16113129973E+02  0.21102829520E+02 -0.16584038093E+02  0.31304834942E+02  0.00000000000E+00 0. -1.
</event>
<event>
 7    1  0.2700104E-013  0.7246125E+02  0.7816164E-02  0.1226709E+00
        -11   -1    0    0    0    0  0.00000000000E+00  0.00000000000E+00  0.45593999997E+02  0.45594000000E+02  0.51100000000E-03 0. -1.
         11   -1    0    0    0    0 -0.00000000000E+00 -0.00000000000E+00 -0.45593999997E+02  0.45594000000E+02  0.51100000000E-03 0.  1.
    9900012    2    1    2    0    0 -0.10690397330E+02  0.58675331080E+01  0.14211916929E+02  0.72461251146E+02  0.69999584249E+02 0.  0.
        -12    1    1    2    0    0  0.10690397330E+02 -0.58675331080E+01 -0.14211916929E+02  0.18726748854E+02  0.00000000000E+00 0.  1.
         11    1    3    3    0    0 -0.15475998955E+02 -0.13636016198E+02  0.20907942005E+02  0.29369874371E+02  0.51100000000E-03 0. -1.
        -11    1    3    3    0    0 -0.34387336784E+01  0.64764761541E+01  0.14874753692E+02  0.16583966062E+02  0.51100000000E-03 0.  1.
        -12    1    3    3    0    0  0.82243353041E+01  0.13027073152E+02 -0.21570778768E+02  0.26507410714E+02  0.00000000000E+00 0.  1.
</event>
<event>
 7    1  0.3868911E-013  0.7246159E+02  0.7816164E-02  0.1226708E+00
        -11   -1    0    0    0    0  0.00000000000E+00  0.00000000000E+00  0.45593999997E+02  0.45594000000E+02  0.51100000000E-03 0. -1.
         11   -1    0    0    0    0 -0.00000000000E+00 -0.00000000000E+00 -0.45593999997E+02  0.45594000000E+02  0.51100000000E-03 0.  1.
    9900012    2    1    2    0    0 -0.45684831362E+00 -0.43302239518E+01  0.18213148180E+02  0.72461593071E+02  0.70000029670E+02 0.  0.
        -12    1    1    2    0    0  0.45684831362E+00  0.43302239518E+01 -0.18213148180E+02  0.18726406929E+02  0.00000000000E+00 0.  1.
         11    1    3    3    0    0  0.16460512821E+02 -0.11025451711E+01  0.28065824759E+02  0.32555408273E+02  0.51100000000E-03 0. -1.
        -11    1    3    3    0    0 -0.12361153559E+02 -0.20892948777E+01  0.12119994564E+02  0.17437245736E+02  0.51100000000E-03 0.  1.
        -12    1    3    3    0    0 -0.45562075757E+01 -0.11383839030E+01 -0.21972671143E+02  0.22468939061E+02  0.00000000000E+00 0.  1.
</event>
<event>
 7    1  0.2700104E-013  0.7246161E+02  0.7816164E-02  0.1226708E+00
        -11   -1    0    0    0    0  0.00000000000E+00  0.00000000000E+00  0.45593999997E+02  0.45594000000E+02  0.51100000000E-03 0.  1.
         11   -1    0    0    0    0 -0.00000000000E+00 -0.00000000000E+00 -0.45593999997E+02  0.45594000000E+02  0.51100000000E-03 0. -1.
    9900012    2    1    2    0    0 -0.15641182244E+02  0.56231522389E+01 -0.86261884022E+01  0.72461613551E+02  0.70000056350E+02 0.  0.
        -12    1    1    2    0    0  0.15641182244E+02 -0.56231522389E+01  0.86261884022E+01  0.18726386449E+02  0.00000000000E+00 0.  1.
         11    1    3    3    0    0 -0.28897786885E+01 -0.42615190503E+01  0.30345189715E+01  0.59765936062E+01  0.51100000000E-03 0. -1.
        -11    1    3    3    0    0 -0.30510464702E+02 -0.12680577733E+02 -0.17185730708E+02  0.37242916753E+02  0.51100000000E-03 0.  1.
         12    1    3    3    0    0  0.17759061147E+02  0.22565249022E+02  0.55250233346E+01  0.29242103192E+02  0.00000000000E+00 0. -1.
</event>
<event>
 7    1  0.2757451E-013  0.7246162E+02  0.7816164E-02  0.1226708E+00
        -11   -1    0    0    0    0  0.00000000000E+00  0.00000000000E+00  0.45593999997E+02  0.45594000000E+02  0.51100000000E-03 0. -1.
         11   -1    0    0    0    0 -0.00000000000E+00 -0.00000000000E+00 -0.45593999997E+02  0.45594000000E+02  0.51100000000E-03 0.  1.
    9900012    2    1    2    0    0 -0.12368202509E+02  0.84813750453E+01  0.11214768862E+02  0.72461622972E+02  0.70000068622E+02 0.  0.
        -12    1    1    2    0    0  0.12368202509E+02 -0.84813750453E+01 -0.11214768862E+02  0.18726377028E+02  0.00000000000E+00 0.  1.
         11    1    3    3    0    0 -0.30159087803E+01  0.31415980898E+02  0.87146619684E+01  0.32741485840E+02  0.51100000000E-03 0. -1.
        -11    1    3    3    0    0 -0.16268095204E+02 -0.26773465448E+01 -0.46875004742E+01  0.17140354928E+02  0.51100000000E-03 0.  1.
        -12    1    3    3    0    0  0.69158014751E+01 -0.20257259308E+02  0.71876073679E+01  0.22579782204E+02  0.00000000000E+00 0.  1.
</event>
<event>
 7    1  0.2700104E-013  0.7246162E+02  0.7816164E-02  0.1226708E+00
        -11   -1    0    0    0    0  0.00000000000E+00  0.00000000000E+00  0.45593999997E+02  0.45594000000E+02  0.51100000000E-03 0.  1.
         11   -1    0    0    0    0 -0.00000000000E+00 -0.00000000000E+00 -0.45593999997E+02  0.45594000000E+02  0.51100000000E-03 0. -1.
    9900012    2    1    2    0    0  0.42911882742E+01 -0.17793887862E+02 -0.39548004061E+01  0.72461623194E+02  0.70000068911E+02 0.  0.
        -12    1    1    2    0    0 -0.42911882742E+01  0.17793887862E+02  0.39548004061E+01  0.18726376806E+02  0.00000000000E+00 0.  1.
         11    1    3    3    0    0 -0.19503557267E+02 -0.76663966736E+01 -0.23397282975E+01  0.21086410619E+02  0.51100000000E-03 0. -1.
        -11    1    3    3    0    0 -0.10430160189E+02 -0.13379945565E+02 -0.89437470951E+00  0.16988557657E+02  0.51100000000E-03 0.  1.
         12    1    3    3    0    0  0.34224905730E+02  0.32524543768E+01 -0.72069739902E+00  0.34386654918E+02  0.00000000000E+00 0. -1.
</event>
<event>
 7    1  0.2700104E-013  0.7246156E+02  0.7816164E-02  0.1226708E+00
        -11   -1    0    0    0    0  0.00000000000E+00  0.00000000000E+00  0.45593999997E+02  0.45594000000E+02  0.51100000000E-03 0.  1.
         11   -1    0    0    0    0 -0.00000000000E+00 -0.00000000000E+00 -0.45593999997E+02  0.45594000000E+02  0.51100000000E-03 0. -1.
    9900012    2    1    2    0    0  0.14286435649E+02 -0.56304332384E+01  0.10717995088E+02  0.72461563053E+02  0.69999990567E+02 0.  0.
        -12    1    1    2    0    0 -0.14286435649E+02  0.56304332384E+01 -0.10717995088E+02  0.18726436947E+02  0.00000000000E+00 0.  1.
         11    1    3    3    0    0  0.24235340827E+02 -0.31118949074E+02  0.12398138430E+02  0.41345550828E+02  0.51100000000E-03 0. -1.
        -11    1    3    3    0    0 -0.32073267390E+01  0.81198919135E+01 -0.75917367374E+01  0.11569531384E+02  0.51100000000E-03 0.  1.
        -12    1    3    3    0    0 -0.67415784389E+01  0.17368623922E+02  0.59115933963E+01  0.19546480841E+02  0.00000000000E+00 0.  1.
</event>
<event>
 7    1  0.2700104E-013  0.7246162E+02  0.7816164E-02  0.1226708E+00
        -11   -1    0    0    0    0  0.00000000000E+00  0.00000000000E+00  0.45593999997E+02  0.45594000000E+02  0.51100000000E-03 0. -1.
         11   -1    0    0    0    0 -0.00000000000E+00 -0.00000000000E+00 -0.45593999997E+02  0.45594000000E+02  0.51100000000E-03 0.  1.
    9900012    2    1    2    0    0  0.44498433473E+01  0.13653086345E+02  0.12019537932E+02  0.72461623824E+02  0.70000069732E+02 0.  0.
        -12    1    1    2    0    0 -0.44498433473E+01 -0.13653086345E+02 -0.12019537932E+02  0.18726376176E+02  0.00000000000E+00 0.  1.
         11    1    3    3    0    0 -0.10147016055E+01  0.22737295973E-01 -0.46745270187E+01  0.47834443074E+01  0.51100000000E-03 0. -1.
        -11    1    3    3    0    0  0.23330047310E+02 -0.18442280518E+01 -0.15255722811E+02  0.27936165867E+02  0.51100000000E-03 0.  1.
         12    1    3    3    0    0 -0.17865502357E+02  0.15474577101E+02  0.31949787762E+02  0.39742013650E+02  0.00000000000E+00 0. -1.
</event>
<event>
 7    1  0.2700104E-013  0.7246157E+02  0.7816164E-02  0.1226708E+00
        -11   -1    0    0    0    0  0.00000000000E+00  0.00000000000E+00  0.45593999997E+02  0.45594000000E+02  0.51100000000E-03 0.  1.
         11   -1    0    0    0    0 -0.00000000000E+00 -0.00000000000E+00 -0.45593999997E+02  0.45594000000E+02  0.51100000000E-03 0. -1.
    9900012    2    1    2    0    0  0.53430904572E+01 -0.17604193353E+02 -0.34961376484E+01  0.72461569008E+02  0.69999998324E+02 0.  0.
        -12    1    1    2    0    0 -0.53430904572E+01  0.17604193353E+02  0.34961376484E+01  0.18726430992E+02  0.00000000000E+00 0.  1.
         11    1    3    3    0    0  0.42271420145E+01  0.59057418981E+01  0.17040249581E+02  0.18523407435E+02  0.51100000000E-03 0. -1.
        -11    1    3    3    0    0  0.84622560671E+01  0.10990659583E+02 -0.17721430814E+01  0.13983735809E+02  0.51100000000E-03 0.  1.
         12    1    3    3    0    0 -0.73463076244E+01 -0.34500594835E+02 -0.18764244148E+02  0.39954425763E+02  0.00000000000E+00 0. -1.
</event>
<event>
 7    1  0.2700104E-013  0.7246156E+02  0.7816164E-02  0.1226708E+00
        -11   -1    0    0    0    0  0.00000000000E+00  0.00000000000E+00  0.45593999997E+02  0.45594000000E+02  0.51100000000E-03 0.  1.
         11   -1    0    0    0    0 -0.00000000000E+00 -0.00000000000E+00 -0.45593999997E+02  0.45594000000E+02  0.51100000000E-03 0. -1.
    9900012    2    1    2    0    0  0.83217053586E+01 -0.91708809293E+01 -0.14047191753E+02  0.72461563253E+02  0.69999990828E+02 0.  0.
        -12    1    1    2    0    0 -0.83217053586E+01  0.91708809293E+01  0.14047191753E+02  0.18726436747E+02  0.00000000000E+00 0.  1.
         11    1    3    3    0    0  0.16981490970E+02 -0.35340038135E+01 -0.43776052947E+01  0.17889204758E+02  0.51100000000E-03 0. -1.
        -11    1    3    3    0    0 -0.15722529541E+02 -0.19973907754E+02  0.11621433199E+02  0.27950181323E+02  0.51100000000E-03 0.  1.
         12    1    3    3    0    0  0.70627439302E+01  0.14337030638E+02 -0.21291019657E+02  0.26622177172E+02  0.00000000000E+00 0. -1.
</event>
<event>
 7    1  0.2700104E-013  0.7246158E+02  0.7816164E-02  0.1226708E+00
        -11   -1    0    0    0    0  0.00000000000E+00  0.00000000000E+00  0.45593999997E+02  0.45594000000E+02  0.51100000000E-03 0. -1.
         11   -1    0    0    0    0 -0.00000000000E+00 -0.00000000000E+00 -0.45593999997E+02  0.45594000000E+02  0.51100000000E-03 0.  1.
    9900012    2    1    2    0    0 -0.38278149377E+01  0.93923676184E+01  0.15741989906E+02  0.72461575278E+02  0.70000006492E+02 0.  0.
        -12    1    1    2    0    0  0.38278149377E+01 -0.93923676184E+01 -0.15741989906E+02  0.18726424722E+02  0.00000000000E+00 0.  1.
         11    1    3    3    0    0 -0.16281651939E+01 -0.12571742038E+01 -0.70032354243E+01  0.72990900492E+01  0.51100000000E-03 0. -1.
        -11    1    3    3    0    0 -0.94854856746E+01  0.20223135845E+02 -0.14091733102E+02  0.26410728955E+02  0.51100000000E-03 0.  1.
         12    1    3    3    0    0  0.72858359308E+01 -0.95735940227E+01  0.36836958432E+02  0.38751756273E+02  0.00000000000E+00 0. -1.
</event>
<event>
 7    1  0.2700104E-013  0.7246156E+02  0.7816164E-02  0.1226708E+00
        -11   -1    0    0    0    0  0.00000000000E+00  0.00000000000E+00  0.45593999997E+02  0.45594000000E+02  0.51100000000E-03 0.  1.
         11   -1    0    0    0    0 -0.00000000000E+00 -0.00000000000E+00 -0.45593999997E+02  0.45594000000E+02  0.51100000000E-03 0. -1.
    9900012    2    1    2    0    0  0.98622782581E+01  0.87758560495E+01 -0.13281539562E+02  0.72461562138E+02  0.69999989375E+02 0.  0.
        -12    1    1    2    0    0 -0.98622782581E+01 -0.87758560495E+01  0.13281539562E+02  0.18726437862E+02  0.00000000000E+00 0.  1.
         11    1    3    3    0    0 -0.77901679542E+01  0.11576969925E+02 -0.51247066622E+01  0.14865246989E+02  0.51100000000E-03 0. -1.
        -11    1    3    3    0    0  0.94482420430E+01 -0.53731755565E+01  0.22912172344E+02  0.25359572848E+02  0.51100000000E-03 0.  1.
         12    1    3    3    0    0  0.82042041692E+01  0.25720616805E+01 -0.31069005244E+02  0.32236742301E+02  0.00000000000E+00 0. -1.
</event>
<event>
 7    1  0.2700104E-013  0.7246161E+02  0.7816164E-02  0.1226708E+00
        -11   -1    0    0    0    0  0.00000000000E+00  0.00000000000E+00  0.45593999997E+02  0.45594000000E+02  0.51100000000E-03 0.  1.
         11   -1    0    0    0    0 -0.00000000000E+00 -0.00000000000E+00 -0.45593999997E+02  0.45594000000E+02  0.51100000000E-03 0. -1.
    9900012    2    1    2    0    0 -0.55200405790E+01 -0.11127752398E+01 -0.17859687696E+02  0.72461613233E+02  0.70000055936E+02 0.  0.
        -12    1    1    2    0    0  0.55200405790E+01  0.11127752398E+01  0.17859687696E+02  0.18726386767E+02  0.00000000000E+00 0.  1.
         11    1    3    3    0    0 -0.31216970058E+01 -0.53144989462E+01  0.86618289512E+01  0.10630906466E+02  0.51100000000E-03 0. -1.
        -11    1    3    3    0    0  0.69324347267E+01  0.97455506453E+01  0.14845449467E+02  0.19063624492E+02  0.51100000000E-03 0.  1.
         12    1    3    3    0    0 -0.93307782999E+01 -0.55438269388E+01 -0.41366966115E+02  0.42767082275E+02  0.00000000000E+00 0. -1.
</event>
<event>
 7    1  0.2700104E-013  0.7246157E+02  0.7816164E-02  0.1226708E+00
        -11   -1    0    0    0    0  0.00000000000E+00  0.00000000000E+00  0.45593999997E+02  0.45594000000E+02  0.51100000000E-03 0. -1.
         11   -1    0    0    0    0 -0.00000000000E+00 -0.00000000000E+00 -0.45593999997E+02  0.45594000000E+02  0.51100000000E-03 0.  1.
    9900012    2    1    2    0    0 -0.58911548155E+01  0.11828062924E+02  0.13269146897E+02  0.72461573833E+02  0.70000004610E+02 0.  0.
        -12    1    1    2    0    0  0.58911548155E+01 -0.11828062924E+02 -0.13269146897E+02  0.18726426167E+02  0.00000000000E+00 0.  1.
         11    1    3    3    0    0  0.18303144450E+02  0.36280004501E+01  0.36743824955E+01  0.19017585836E+02  0.51100000000E-03 0.  1.
        -11    1    3    3    0    0 -0.24733760036E+01  0.24858596058E+02  0.21356689370E+01  0.25072464357E+02  0.51100000000E-03 0. -1.
        -12    1    3    3    0    0 -0.21720923262E+02 -0.16658533584E+02  0.74590954649E+01  0.28371523641E+02  0.00000000000E+00 0.  1.
</event>
<event>
 7    1  0.2700104E-013  0.7246154E+02  0.7816164E-02  0.1226708E+00
        -11   -1    0    0    0    0  0.00000000000E+00  0.00000000000E+00  0.45593999997E+02  0.45594000000E+02  0.51100000000E-03 0.  1.
         11   -1    0    0    0    0 -0.00000000000E+00 -0.00000000000E+00 -0.45593999997E+02  0.45594000000E+02  0.51100000000E-03 0. -1.
    9900012    2    1    2    0    0 -0.27056540944E+01  0.20275164940E+01 -0.18418710738E+02  0.72461540312E+02  0.69999960942E+02 0.  0.
        -12    1    1    2    0    0  0.27056540944E+01 -0.20275164940E+01  0.18418710738E+02  0.18726459688E+02  0.00000000000E+00 0.  1.
         11    1    3    3    0    0  0.62910875486E+01 -0.15194760352E+02 -0.40021683703E+01  0.16925598265E+02  0.51100000000E-03 0. -1.
        -11    1    3    3    0    0  0.51746345891E+01 -0.48812992619E+01  0.14699043495E+02  0.16329905252E+02  0.51100000000E-03 0.  1.
         12    1    3    3    0    0 -0.14171376232E+02  0.22103576108E+02 -0.29115585862E+02  0.39206036795E+02  0.00000000000E+00 0. -1.
</event>
<event>
 7    1  0.2700104E-013  0.7246152E+02  0.7816164E-02  0.1226708E+00
        -11   -1    0    0    0    0  0.00000000000E+00  0.00000000000E+00  0.45593999997E+02  0.45594000000E+02  0.51100000000E-03 0. -1.
         11   -1    0    0    0    0 -0.00000000000E+00 -0.00000000000E+00 -0.45593999997E+02  0.45594000000E+02  0.51100000000E-03 0.  1.
    9900012    2    1    2    0    0 -0.12273145510E+02  0.13379931719E+02 -0.45856670801E+01  0.72461520991E+02  0.69999935773E+02 0.  0.
        -12    1    1    2    0    0  0.12273145510E+02 -0.13379931719E+02  0.45856670801E+01  0.18726479009E+02  0.00000000000E+00 0.  1.
         11    1    3    3    0    0 -0.80191610232E+01  0.20195288745E+02  0.40483357728E+01  0.22103068877E+02  0.51100000000E-03 0. -1.
        -11    1    3    3    0    0  0.20888315393E+01  0.12914009116E+02  0.14345312369E+02  0.19414500660E+02  0.51100000000E-03 0.  1.
        -12    1    3    3    0    0 -0.63428160261E+01 -0.19729366142E+02 -0.22979315222E+02  0.30943951454E+02  0.00000000000E+00 0.  1.
</event>
<event>
 7    1  0.2700104E-013  0.7246154E+02  0.7816164E-02  0.1226708E+00
        -11   -1    0    0    0    0  0.00000000000E+00  0.00000000000E+00  0.45593999997E+02  0.45594000000E+02  0.51100000000E-03 0.  1.
         11   -1    0    0    0    0 -0.00000000000E+00 -0.00000000000E+00 -0.45593999997E+02  0.45594000000E+02  0.51100000000E-03 0. -1.
    9900012    2    1    2    0    0  0.36842403992E+01  0.23096913190E+01 -0.18214609557E+02  0.72461540041E+02  0.69999960589E+02 0.  0.
        -12    1    1    2    0    0 -0.36842403992E+01 -0.23096913190E+01  0.18214609557E+02  0.18726459959E+02  0.00000000000E+00 0.  1.
         11    1    3    3    0    0  0.57552251815E+01  0.20304752838E+02 -0.97316961474E+01  0.23240299371E+02  0.51100000000E-03 0. -1.
        -11    1    3    3    0    0 -0.16146808550E+02  0.81314324870E+01  0.88634181571E+00  0.18100420512E+02  0.51100000000E-03 0.  1.
        -12    1    3    3    0    0  0.14075823767E+02 -0.26126494006E+02 -0.93692552251E+01  0.31120820157E+02  0.00000000000E+00 0.  1.
</event>
<event>
 7    1  0.2700104E-013  0.7246160E+02  0.7816164E-02  0.1226708E+00
        -11   -1    0    0    0    0  0.00000000000E+00  0.00000000000E+00  0.45593999997E+02  0.45594000000E+02  0.51100000000E-03 0. -1.
         11   -1    0    0    0    0 -0.00000000000E+00 -0.00000000000E+00 -0.45593999997E+02  0.45594000000E+02  0.51100000000E-03 0.  1.
    9900012    2    1    2    0    0 -0.11378195013E+02  0.43942694974E+01  0.14209330646E+02  0.72461601425E+02  0.70000040554E+02 0.  0.
        -12    1    1    2    0    0  0.11378195013E+02 -0.43942694974E+01 -0.14209330646E+02  0.18726398575E+02  0.00000000000E+00 0.  1.
         11    1    3    3    0    0 -0.19769078249E+02 -0.35763631429E+01  0.40388401768E+01  0.20491926663E+02  0.51100000000E-03 0. -1.
        -11    1    3    3    0    0  0.61589329678E+01 -0.16963662768E+02  0.18247880239E+02  0.25664828916E+02  0.51100000000E-03 0.  1.
         12    1    3    3    0    0  0.22319502681E+01  0.24934295408E+02 -0.80773897695E+01  0.26304845846E+02  0.00000000000E+00 0. -1.
</event>
<event>
 7    1  0.2700104E-013  0.7246140E+02  0.7816164E-02  0.1226708E+00
        -11   -1    0    0    0    0  0.00000000000E+00  0.00000000000E+00  0.45593999997E+02  0.45594000000E+02  0.51100000000E-03 0.  1.
         11   -1    0    0    0    0 -0.00000000000E+00 -0.00000000000E+00 -0.45593999997E+02  0.45594000000E+02  0.51100000000E-03 0. -1.
    9900012    2    1    2    0    0  0.16441473676E+02 -0.38406476430E+01 -0.81001778131E+01  0.72461400962E+02  0.69999779412E+02 0.  0.
        -12    1    1    2    0    0 -0.16441473676E+02  0.38406476430E+01  0.81001778131E+01  0.18726599038E+02  0.00000000000E+00 0.  1.
         11    1    3    3    0    0  0.31751742114E+02  0.52075737206E+01 -0.10781172815E+02  0.33934136778E+02  0.51100000000E-03 0. -1.
        -11    1    3    3    0    0  0.10235230618E+02  0.22563592641E+01  0.12550166284E+01  0.10555859507E+02  0.51100000000E-03 0.  1.
        -12    1    3    3    0    0 -0.25545499057E+02 -0.11304580628E+02  0.14259783731E+01  0.27971404676E+02  0.00000000000E+00 0.  1.
</event>
<event>
 7    1  0.2700104E-013  0.7246160E+02  0.7816164E-02  0.1226708E+00
        -11   -1    0    0    0    0  0.00000000000E+00  0.00000000000E+00  0.45593999997E+02  0.45594000000E+02  0.51100000000E-03 0. -1.
         11   -1    0    0    0    0 -0.00000000000E+00 -0.00000000000E+00 -0.45593999997E+02  0.45594000000E+02  0.51100000000E-03 0.  1.
    9900012    2    1    2    0    0  0.12991968803E+02  0.12470488525E+02  0.51355452412E+01  0.72461597186E+02  0.70000035031E+02 0.  0.
        -12    1    1    2    0    0 -0.12991968803E+02 -0.12470488525E+02 -0.51355452412E+01  0.18726402814E+02  0.00000000000E+00 0.  1.
         11    1    3    3    0    0 -0.45417121591E+01  0.25093095802E+02  0.20558434501E+02  0.32755760343E+02  0.51100000000E-03 0. -1.
        -11    1    3    3    0    0 -0.31887417914E+01  0.18954094619E+01  0.56627537237E+01  0.67695960911E+01  0.51100000000E-03 0.  1.
        -12    1    3    3    0    0  0.20722422753E+02 -0.14518016739E+02 -0.21085642984E+02  0.32936240752E+02  0.00000000000E+00 0.  1.
</event>
<event>
 7    1  0.2700104E-013  0.7246160E+02  0.7816164E-02  0.1226708E+00
        -11   -1    0    0    0    0  0.00000000000E+00  0.00000000000E+00  0.45593999997E+02  0.45594000000E+02  0.51100000000E-03 0. -1.
         11   -1    0    0    0    0 -0.00000000000E+00 -0.00000000000E+00 -0.45593999997E+02  0.45594000000E+02  0.51100000000E-03 0.  1.
    9900012    2    1    2    0    0  0.91224705254E+01  0.61715126465E+01  0.15144995503E+02  0.72461603507E+02  0.70000043265E+02 0.  0.
        -12    1    1    2    0    0 -0.91224705254E+01 -0.61715126465E+01 -0.15144995503E+02  0.18726396493E+02  0.00000000000E+00 0.  1.
         11    1    3    3    0    0  0.20129157458E+02 -0.30954255954E+00  0.69245888846E+01  0.21289169266E+02  0.51100000000E-03 0. -1.
        -11    1    3    3    0    0 -0.44056715359E+01 -0.16032576496E+02  0.19089815768E+02  0.25315499543E+02  0.51100000000E-03 0.  1.
         12    1    3    3    0    0 -0.66010153964E+01  0.22513631702E+02 -0.10869409150E+02  0.25856934698E+02  0.00000000000E+00 0. -1.
</event>
<event>
 7    1  0.2700104E-013  0.7246156E+02  0.7816164E-02  0.1226708E+00
        -11   -1    0    0    0    0  0.00000000000E+00  0.00000000000E+00  0.45593999997E+02  0.45594000000E+02  0.51100000000E-03 0. -1.
         11   -1    0    0    0    0 -0.00000000000E+00 -0.00000000000E+00 -0.45593999997E+02  0.45594000000E+02  0.51100000000E-03 0.  1.
    9900012    2    1    2    0    0 -0.46966883619E+01  0.14219316781E+02  0.11244180476E+02  0.72461562916E+02  0.69999990388E+02 0.  0.
        -12    1    1    2    0    0  0.46966883619E+01 -0.14219316781E+02 -0.11244180476E+02  0.18726437084E+02  0.00000000000E+00 0.  1.
         11    1    3    3    0    0 -0.16294156641E+02  0.48643086356E+01 -0.25959515614E+00  0.17006717175E+02  0.51100000000E-03 0. -1.
        -11    1    3    3    0    0 -0.18052686865E+02 -0.74802876858E+01  0.82240234260E+01  0.21201150169E+02  0.51100000000E-03 0.  1.
         12    1    3    3    0    0  0.29650155145E+02  0.16835295831E+02  0.32797522061E+01  0.34253695572E+02  0.00000000000E+00 0. -1.
</event>
<event>
 7    1  0.2700104E-013  0.7246158E+02  0.7816164E-02  0.1226708E+00
        -11   -1    0    0    0    0  0.00000000000E+00  0.00000000000E+00  0.45593999997E+02  0.45594000000E+02  0.51100000000E-03 0. -1.
         11   -1    0    0    0    0 -0.00000000000E+00 -0.00000000000E+00 -0.45593999997E+02  0.45594000000E+02  0.51100000000E-03 0.  1.
    9900012    2    1    2    0    0 -0.10080513993E+02  0.54791015587E+01  0.14800053341E+02  0.72461577620E+02  0.70000009543E+02 0.  0.
        -12    1    1    2    0    0  0.10080513993E+02 -0.54791015587E+01 -0.14800053341E+02  0.18726422380E+02  0.00000000000E+00 0.  1.
         11    1    3    3    0    0 -0.76176394534E+01  0.91802057036E+01 -0.13402667528E+02  0.17942577985E+02  0.51100000000E-03 0.  1.
        -11    1    3    3    0    0 -0.16512327004E+02  0.69148557341E+01  0.31849801888E+02  0.36536037736E+02  0.51100000000E-03 0. -1.
         12    1    3    3    0    0  0.14049452465E+02 -0.10615959879E+02 -0.36470810189E+01  0.17982961899E+02  0.00000000000E+00 0. -1.
</event>
<event>
 7    1  0.2700104E-013  0.7246156E+02  0.7816164E-02  0.1226708E+00
        -11   -1    0    0    0    0  0.00000000000E+00  0.00000000000E+00  0.45593999997E+02  0.45594000000E+02  0.51100000000E-03 0. -1.
         11   -1    0    0    0    0 -0.00000000000E+00 -0.00000000000E+00 -0.45593999997E+02  0.45594000000E+02  0.51100000000E-03 0.  1.
    9900012    2    1    2    0    0  0.69124507506E+01 -0.16723367457E+02  0.48193881732E+01  0.72461561555E+02  0.69999988615E+02 0.  0.
        -12    1    1    2    0    0 -0.69124507506E+01  0.16723367457E+02 -0.48193881732E+01  0.18726438445E+02  0.00000000000E+00 0.  1.
         11    1    3    3    0    0 -0.14334845699E+01 -0.12820318463E+02  0.21480182557E+02  0.25056210537E+02  0.51100000000E-03 0. -1.
        -11    1    3    3    0    0  0.15852211266E+02  0.39360309472E+01  0.96309377102E+01  0.18961537466E+02  0.51100000000E-03 0.  1.
        -12    1    3    3    0    0 -0.75062759452E+01 -0.78390799411E+01 -0.26291732094E+02  0.28443813552E+02  0.00000000000E+00 0.  1.
</event>
<event>
 7    1  0.2700104E-013  0.7246167E+02  0.7816164E-02  0.1226708E+00
        -11   -1    0    0    0    0  0.00000000000E+00  0.00000000000E+00  0.45593999997E+02  0.45594000000E+02  0.51100000000E-03 0. -1.
         11   -1    0    0    0    0 -0.00000000000E+00 -0.00000000000E+00 -0.45593999997E+02  0.45594000000E+02  0.51100000000E-03 0.  1.
    9900012    2    1    2    0    0  0.71792402308E+01 -0.17200307390E+02  0.18120220960E+01  0.72461668574E+02  0.70000128027E+02 0.  0.
        -12    1    1    2    0    0 -0.71792402308E+01  0.17200307390E+02 -0.18120220960E+01  0.18726331426E+02  0.00000000000E+00 0.  1.
         11    1    3    3    0    0  0.33436768322E+01  0.21643412280E+01  0.24848604168E+01  0.46945797748E+01  0.51100000000E-03 0. -1.
        -11    1    3    3    0    0  0.14806635262E+02 -0.38619832651E+02 -0.11741574146E+02  0.42995261197E+02  0.51100000000E-03 0.  1.
         12    1    3    3    0    0 -0.10971071864E+02  0.19255184032E+02  0.11068735825E+02  0.24771827601E+02  0.00000000000E+00 0. -1.
</event>
<event>
 7    1  0.2700104E-013  0.7246162E+02  0.7816164E-02  0.1226708E+00
        -11   -1    0    0    0    0  0.00000000000E+00  0.00000000000E+00  0.45593999997E+02  0.45594000000E+02  0.51100000000E-03 0. -1.
         11   -1    0    0    0    0 -0.00000000000E+00 -0.00000000000E+00 -0.45593999997E+02  0.45594000000E+02  0.51100000000E-03 0.  1.
    9900012    2    1    2    0    0  0.13047348617E+02  0.11132892640E+02 -0.75168278526E+01  0.72461620066E+02  0.70000064837E+02 0.  0.
        -12    1    1    2    0    0 -0.13047348617E+02 -0.11132892640E+02  0.75168278526E+01  0.18726379934E+02  0.00000000000E+00 0.  1.
         11    1    3    3    0    0  0.14073271298E+02  0.10283135617E+02  0.12096825501E+02  0.21216338765E+02  0.51100000000E-03 0. -1.
        -11    1    3    3    0    0 -0.96857590708E+01  0.20531977677E+02 -0.19209273346E+02  0.29738396373E+02  0.51100000000E-03 0.  1.
         12    1    3    3    0    0  0.86598363898E+01 -0.19682220653E+02 -0.40438000764E+00  0.21506884929E+02  0.00000000000E+00 0. -1.
</event>
<event>
 7    1  0.2700104E-013  0.7246148E+02  0.7816164E-02  0.1226708E+00
        -11   -1    0    0    0    0  0.00000000000E+00  0.00000000000E+00  0.45593999997E+02  0.45594000000E+02  0.51100000000E-03 0.  1.
         11   -1    0    0    0    0 -0.00000000000E+00 -0.00000000000E+00 -0.45593999997E+02  0.45594000000E+02  0.51100000000E-03 0. -1.
    9900012    2    1    2    0    0  0.10745687882E+02 -0.57946859297E+01 -0.14199807253E+02  0.72461475520E+02  0.69999876538E+02 0.  0.
        -12    1    1    2    0    0 -0.10745687882E+02  0.57946859297E+01  0.14199807253E+02  0.18726524480E+02  0.00000000000E+00 0.  1.
         11    1    3    3    0    0  0.23445728664E+02  0.14599810631E+02 -0.23979107697E+02  0.36576690245E+02  0.51100000000E-03 0. -1.
        -11    1    3    3    0    0  0.58568370079E+01  0.12756756415E+01  0.18626539487E+01  0.62768915932E+01  0.51100000000E-03 0.  1.
        -12    1    3    3    0    0 -0.18556877789E+02 -0.21670172202E+02  0.79166464955E+01  0.29607893682E+02  0.00000000000E+00 0.  1.
</event>
<event>
 7    1  0.2700104E-013  0.7246136E+02  0.7816164E-02  0.1226709E+00
        -11   -1    0    0    0    0  0.00000000000E+00  0.00000000000E+00  0.45593999997E+02  0.45594000000E+02  0.51100000000E-03 0. -1.
         11   -1    0    0    0    0 -0.00000000000E+00 -0.00000000000E+00 -0.45593999997E+02  0.45594000000E+02  0.51100000000E-03 0.  1.
    9900012    2    1    2    0    0  0.17740683909E+02 -0.19711240130E+01  0.56630355768E+01  0.72461356751E+02  0.69999721820E+02 0.  0.
        -12    1    1    2    0    0 -0.17740683909E+02  0.19711240130E+01 -0.56630355768E+01  0.18726643249E+02  0.00000000000E+00 0.  1.
         11    1    3    3    0    0 -0.20186116695E+02 -0.80730730282E+01 -0.10719517868E+02  0.24239675719E+02  0.51100000000E-03 0. -1.
        -11    1    3    3    0    0  0.24917817989E+01  0.84851512837E+00 -0.56031219156E+01  0.61906324328E+01  0.51100000000E-03 0.  1.
        -12    1    3    3    0    0  0.35435018805E+02  0.52534338868E+01  0.21985675361E+02  0.42031048600E+02  0.00000000000E+00 0.  1.
</event>
<event>
 7    1  0.2700104E-013  0.7246154E+02  0.7816164E-02  0.1226708E+00
        -11   -1    0    0    0    0  0.00000000000E+00  0.00000000000E+00  0.45593999997E+02  0.45594000000E+02  0.51100000000E-03 0.  1.
         11   -1    0    0    0    0 -0.00000000000E+00 -0.00000000000E+00 -0.45593999997E+02  0.45594000000E+02  0.51100000000E-03 0. -1.
    9900012    2    1    2    0    0  0.15433452809E+02 -0.74083402833E+01  0.75898273827E+01  0.72461536077E+02  0.69999955426E+02 0.  0.
        -12    1    1    2    0    0 -0.15433452809E+02  0.74083402833E+01 -0.75898273827E+01  0.18726463923E+02  0.00000000000E+00 0.  1.
         11    1    3    3    0    0  0.71161004927E+01  0.10845644665E+02  0.66644274016E+01  0.14583603371E+02  0.51100000000E-03 0. -1.
        -11    1    3    3    0    0  0.34576406122E+01  0.12377659937E+02  0.18274173999E+02  0.22340706786E+02  0.51100000000E-03 0.  1.
         12    1    3    3    0    0  0.48597117038E+01 -0.30631644885E+02 -0.17348774018E+02  0.35537225920E+02  0.00000000000E+00 0. -1.
</event>
<event>
 7    1  0.2700104E-013  0.7246158E+02  0.7816164E-02  0.1226708E+00
        -11   -1    0    0    0    0  0.00000000000E+00  0.00000000000E+00  0.45593999997E+02  0.45594000000E+02  0.51100000000E-03 0.  1.
         11   -1    0    0    0    0 -0.00000000000E+00 -0.00000000000E+00 -0.45593999997E+02  0.45594000000E+02  0.51100000000E-03 0. -1.
    9900012    2    1    2    0    0 -0.12636649140E+02 -0.11808927478E+02  0.71793545481E+01  0.72461580124E+02  0.70000012805E+02 0.  0.
        -12    1    1    2    0    0  0.12636649140E+02  0.11808927478E+02 -0.71793545481E+01  0.18726419876E+02  0.00000000000E+00 0.  1.
         11    1    3    3    0    0 -0.47159425563E+01 -0.30119200611E+02 -0.12112680901E+02  0.32804319815E+02  0.51100000000E-03 0. -1.
        -11    1    3    3    0    0  0.10549508547E+02  0.40505373651E+01  0.68214172912E+01  0.13199648391E+02  0.51100000000E-03 0.  1.
        -12    1    3    3    0    0 -0.18470215130E+02  0.14259735768E+02  0.12470618158E+02  0.26457611918E+02  0.00000000000E+00 0.  1.
</event>
<event>
 7    1  0.2700104E-013  0.7246149E+02  0.7816164E-02  0.1226708E+00
        -11   -1    0    0    0    0  0.00000000000E+00  0.00000000000E+00  0.45593999997E+02  0.45594000000E+02  0.51100000000E-03 0.  1.
         11   -1    0    0    0    0 -0.00000000000E+00 -0.00000000000E+00 -0.45593999997E+02  0.45594000000E+02  0.51100000000E-03 0. -1.
    9900012    2    1    2    0    0  0.10333714651E+02 -0.80602566284E+01  0.13376426259E+02  0.72461490051E+02  0.69999895468E+02 0.  0.
        -12    1    1    2    0    0 -0.10333714651E+02  0.80602566284E+01 -0.13376426259E+02  0.18726509949E+02  0.00000000000E+00 0.  1.
         11    1    3    3    0    0  0.93158135573E+01  0.13577126999E+02  0.10734397196E+02  0.19655789051E+02  0.51100000000E-03 0. -1.
        -11    1    3    3    0    0  0.66447782660E+01 -0.24521236746E+02  0.21269985412E+02  0.33133916301E+02  0.51100000000E-03 0.  1.
         12    1    3    3    0    0 -0.56268771724E+01  0.28838531178E+01 -0.18627956349E+02  0.19671784699E+02  0.00000000000E+00 0. -1.
</event>
<event>
 7    1  0.2700104E-013  0.7246151E+02  0.7816164E-02  0.1226708E+00
        -11   -1    0    0    0    0  0.00000000000E+00  0.00000000000E+00  0.45593999997E+02  0.45594000000E+02  0.51100000000E-03 0. -1.
         11   -1    0    0    0    0 -0.00000000000E+00 -0.00000000000E+00 -0.45593999997E+02  0.45594000000E+02  0.51100000000E-03 0.  1.
    9900012    2    1    2    0    0  0.23684164954E+00  0.13208846127E+02  0.13272214575E+02  0.72461511015E+02  0.69999922778E+02 0.  0.
        -12    1    1    2    0    0 -0.23684164954E+00 -0.13208846127E+02 -0.13272214575E+02  0.18726488985E+02  0.00000000000E+00 0.  1.
         11    1    3    3    0    0 -0.30271899652E+01  0.88919089950E+00 -0.29800946784E+01  0.43399889509E+01  0.51100000000E-03 0. -1.
        -11    1    3    3    0    0 -0.20755067341E+02 -0.57943966976E+01 -0.13808049606E+02  0.25593164860E+02  0.51100000000E-03 0.  1.
         12    1    3    3    0    0  0.24019098955E+02  0.18114051925E+02  0.30060358859E+02  0.42528357204E+02  0.00000000000E+00 0. -1.
</event>
<event>
 7    1  0.2700104E-013  0.7246154E+02  0.7816164E-02  0.1226708E+00
        -11   -1    0    0    0    0  0.00000000000E+00  0.00000000000E+00  0.45593999997E+02  0.45594000000E+02  0.51100000000E-03 0. -1.
         11   -1    0    0    0    0 -0.00000000000E+00 -0.00000000000E+00 -0.45593999997E+02  0.45594000000E+02  0.51100000000E-03 0.  1.
    9900012    2    1    2    0    0 -0.21456973145E+01 -0.84271700484E+01  0.16584903913E+02  0.72461541450E+02  0.69999962425E+02 0.  0.
        -12    1    1    2    0    0  0.21456973145E+01  0.84271700484E+01 -0.16584903913E+02  0.18726458550E+02  0.00000000000E+00 0.  1.
         11    1    3    3    0    0  0.13059670608E+02  0.48627575938E+01  0.59676740361E+01  0.15159635268E+02  0.51100000000E-03 0. -1.
        -11    1    3    3    0    0  0.13232402176E+02  0.19252665690E+01 -0.11954028156E+02  0.17936050516E+02  0.51100000000E-03 0.  1.
         12    1    3    3    0    0 -0.28437770098E+02 -0.15215194211E+02  0.22571258034E+02  0.39365855666E+02  0.00000000000E+00 0. -1.
</event>
<event>
 7    1  0.2700104E-013  0.7246164E+02  0.7816164E-02  0.1226708E+00
        -11   -1    0    0    0    0  0.00000000000E+00  0.00000000000E+00  0.45593999997E+02  0.45594000000E+02  0.51100000000E-03 0. -1.
         11   -1    0    0    0    0 -0.00000000000E+00 -0.00000000000E+00 -0.45593999997E+02  0.45594000000E+02  0.51100000000E-03 0.  1.
    9900012    2    1    2    0    0  0.11008074121E+02  0.15149162080E+02 -0.42504352717E-01  0.72461638522E+02  0.70000088879E+02 0.  0.
        -12    1    1    2    0    0 -0.11008074121E+02 -0.15149162080E+02  0.42504352717E-01  0.18726361478E+02  0.00000000000E+00 0.  1.
         11    1    3    3    0    0 -0.21474891225E+02 -0.46014295603E+01  0.57292426085E+00  0.21969805406E+02  0.51100000000E-03 0. -1.
        -11    1    3    3    0    0  0.36981854575E+01 -0.73078691157E+01 -0.66211952266E+01  0.10531939668E+02  0.51100000000E-03 0.  1.
        -12    1    3    3    0    0  0.28784779889E+02  0.27058460756E+02  0.60057666131E+01  0.39959893447E+02  0.00000000000E+00 0.  1.
</event>
<event>
 7    1  0.2700104E-013  0.7246158E+02  0.7816164E-02  0.1226708E+00
        -11   -1    0    0    0    0  0.00000000000E+00  0.00000000000E+00  0.45593999997E+02  0.45594000000E+02  0.51100000000E-03 0. -1.
         11   -1    0    0    0    0 -0.00000000000E+00 -0.00000000000E+00 -0.45593999997E+02  0.45594000000E+02  0.51100000000E-03 0.  1.
    9900012    2    1    2    0    0  0.13281636125E+02  0.11939706023E+02 -0.56320839150E+01  0.72461579966E+02  0.70000012599E+02 0.  0.
        -12    1    1    2    0    0 -0.13281636125E+02 -0.11939706023E+02  0.56320839150E+01  0.18726420034E+02  0.00000000000E+00 0.  1.
         11    1    3    3    0    0 -0.14309983822E+01 -0.12507933091E+01  0.74498729106E+00  0.20413835006E+01  0.51100000000E-03 0. -1.
        -11    1    3    3    0    0 -0.59920432831E+01 -0.25323276217E+02  0.11629096454E+01  0.26048517428E+02  0.51100000000E-03 0.  1.
         12    1    3    3    0    0  0.20704677790E+02  0.38513775549E+02 -0.75399808514E+01  0.44371679038E+02  0.00000000000E+00 0. -1.
</event>
<event>
 7    1  0.2700104E-013  0.7246123E+02  0.7816164E-02  0.1226709E+00
        -11   -1    0    0    0    0  0.00000000000E+00  0.00000000000E+00  0.45593999997E+02  0.45594000000E+02  0.51100000000E-03 0.  1.
         11   -1    0    0    0    0 -0.00000000000E+00 -0.00000000000E+00 -0.45593999997E+02  0.45594000000E+02  0.51100000000E-03 0. -1.
    9900012    2    1    2    0    0  0.11947982646E+02 -0.13654679420E+02 -0.46354513023E+01  0.72461228572E+02  0.69999554841E+02 0.  0.
        -12    1    1    2    0    0 -0.11947982646E+02  0.13654679420E+02  0.46354513023E+01  0.18726771428E+02  0.00000000000E+00 0.  1.
         11    1    3    3    0    0  0.94052891274E+00 -0.87347844708E+01 -0.47223886693E+01  0.99740668432E+01  0.51100000000E-03 0. -1.
        -11    1    3    3    0    0 -0.15867745778E+02 -0.24443319664E+02  0.20268859167E+01  0.29212488751E+02  0.51100000000E-03 0.  1.
         12    1    3    3    0    0  0.26875199511E+02  0.19523424715E+02 -0.19399485497E+01  0.33274672977E+02  0.00000000000E+00 0. -1.
</event>
<event>
 7    1  0.2700104E-013  0.7246157E+02  0.7816164E-02  0.1226708E+00
        -11   -1    0    0    0    0  0.00000000000E+00  0.00000000000E+00  0.45593999997E+02  0.45594000000E+02  0.51100000000E-03 0.  1.
         11   -1    0    0    0    0 -0.00000000000E+00 -0.00000000000E+00 -0.45593999997E+02  0.45594000000E+02  0.51100000000E-03 0. -1.
    9900012    2    1    2    0    0 -0.17000650935E+02 -0.71096072245E+01 -0.33332744523E+01  0.72461565057E+02  0.69999993177E+02 0.  0.
        -12    1    1    2    0    0  0.17000650935E+02  0.71096072245E+01  0.33332744523E+01  0.18726434943E+02  0.00000000000E+00 0.  1.
         11    1    3    3    0    0 -0.10374198607E+02 -0.77478421143E+00 -0.14415792098E+02  0.17777495588E+02  0.51100000000E-03 0. -1.
        -11    1    3    3    0    0  0.12349590786E+02  0.43788950852E+01 -0.15509640725E+02  0.20303597475E+02  0.51100000000E-03 0.  1.
        -12    1    3    3    0    0 -0.18976043114E+02 -0.10713718098E+02  0.26592158370E+02  0.34380471994E+02  0.00000000000E+00 0.  1.
</event>
<event>
 7    1  0.2700104E-013  0.7246157E+02  0.7816164E-02  0.1226708E+00
        -11   -1    0    0    0    0  0.00000000000E+00  0.00000000000E+00  0.45593999997E+02  0.45594000000E+02  0.51100000000E-03 0. -1.
         11   -1    0    0    0    0 -0.00000000000E+00 -0.00000000000E+00 -0.45593999997E+02  0.45594000000E+02  0.51100000000E-03 0.  1.
    9900012    2    1    2    0    0 -0.16393996879E+02 -0.70128921248E+01 -0.57214806941E+01  0.72461571324E+02  0.70000001341E+02 0.  0.
        -12    1    1    2    0    0  0.16393996879E+02  0.70128921248E+01  0.57214806941E+01  0.18726428676E+02  0.00000000000E+00 0.  1.
         11    1    3    3    0    0 -0.19250713307E+02 -0.93266825715E+01 -0.28708108828E+02  0.35801291644E+02  0.51100000000E-03 0. -1.
        -11    1    3    3    0    0 -0.10640569196E+02  0.51962187532E+01  0.27357245437E+01  0.12153460050E+02  0.51100000000E-03 0.  1.
        -12    1    3    3    0    0  0.13497285624E+02 -0.28824283065E+01  0.20250903590E+02  0.24506819630E+02  0.00000000000E+00 0.  1.
</event>
<event>
 7    1  0.2700104E-013  0.7246152E+02  0.7816164E-02  0.1226708E+00
        -11   -1    0    0    0    0  0.00000000000E+00  0.00000000000E+00  0.45593999997E+02  0.45594000000E+02  0.51100000000E-03 0. -1.
         11   -1    0    0    0    0 -0.00000000000E+00 -0.00000000000E+00 -0.45593999997E+02  0.45594000000E+02  0.51100000000E-03 0.  1.
    9900012    2    1    2    0    0 -0.11845323243E+01 -0.18622449733E+02  0.15755556220E+01  0.72461518045E+02  0.69999931935E+02 0.  0.
        -12    1    1    2    0    0  0.11845323243E+01  0.18622449733E+02 -0.15755556220E+01  0.18726481955E+02  0.00000000000E+00 0.  1.
         11    1    3    3    0    0  0.90586664169E+01 -0.22616835021E+00 -0.62914752656E+01  0.11031466387E+02  0.51100000000E-03 0. -1.
        -11    1    3    3    0    0 -0.26946063164E+02 -0.32943061670E+01 -0.13561559566E+02  0.30345653252E+02  0.51100000000E-03 0.  1.
         12    1    3    3    0    0  0.16702864423E+02 -0.15101975216E+02  0.21428590454E+02  0.31084398405E+02  0.00000000000E+00 0. -1.
</event>
<event>
 7    1  0.2700104E-013  0.7246151E+02  0.7816164E-02  0.1226708E+00
        -11   -1    0    0    0    0  0.00000000000E+00  0.00000000000E+00  0.45593999997E+02  0.45594000000E+02  0.51100000000E-03 0.  1.
         11   -1    0    0    0    0 -0.00000000000E+00 -0.00000000000E+00 -0.45593999997E+02  0.45594000000E+02  0.51100000000E-03 0. -1.
    9900012    2    1    2    0    0  0.16606991412E+02 -0.33301623149E+01 -0.79874519440E+01  0.72461507179E+02  0.69999917781E+02 0.  0.
        -12    1    1    2    0    0 -0.16606991412E+02  0.33301623149E+01  0.79874519440E+01  0.18726492821E+02  0.00000000000E+00 0.  1.
         11    1    3    3    0    0  0.20853490439E+01 -0.14273669298E+01 -0.12889348128E+01  0.28367957628E+01  0.51100000000E-03 0. -1.
        -11    1    3    3    0    0  0.20345916211E+02 -0.25856598085E+02  0.15574132984E+02  0.36401560261E+02  0.51100000000E-03 0.  1.
         12    1    3    3    0    0 -0.58242738421E+01  0.23953802700E+02 -0.22272650115E+02  0.33223151155E+02  0.00000000000E+00 0. -1.
</event>
<event>
 7    1  0.2700104E-013  0.7246155E+02  0.7816164E-02  0.1226708E+00
        -11   -1    0    0    0    0  0.00000000000E+00  0.00000000000E+00  0.45593999997E+02  0.45594000000E+02  0.51100000000E-03 0.  1.
         11   -1    0    0    0    0 -0.00000000000E+00 -0.00000000000E+00 -0.45593999997E+02  0.45594000000E+02  0.51100000000E-03 0. -1.
    9900012    2    1    2    0    0  0.11006662941E+02 -0.14285360119E+01 -0.15082852991E+02  0.72461553498E+02  0.69999978120E+02 0.  0.
        -12    1    1    2    0    0 -0.11006662941E+02  0.14285360119E+01  0.15082852991E+02  0.18726446502E+02  0.00000000000E+00 0.  1.
         11    1    3    3    0    0  0.72538172566E+01 -0.24590349120E+02  0.12686511677E+02  0.28605081951E+02  0.51100000000E-03 0. -1.
        -11    1    3    3    0    0  0.28930308007E+01 -0.46231784600E+01 -0.82495363620E+01  0.98893001136E+01  0.51100000000E-03 0.  1.
         12    1    3    3    0    0  0.85981488395E+00  0.27784991569E+02 -0.19519828306E+02  0.33967171433E+02  0.00000000000E+00 0. -1.
</event>
<event>
 7    1  0.2700104E-013  0.7246157E+02  0.7816164E-02  0.1226708E+00
        -11   -1    0    0    0    0  0.00000000000E+00  0.00000000000E+00  0.45593999997E+02  0.45594000000E+02  0.51100000000E-03 0.  1.
         11   -1    0    0    0    0 -0.00000000000E+00 -0.00000000000E+00 -0.45593999997E+02  0.45594000000E+02  0.51100000000E-03 0. -1.
    9900012    2    1    2    0    0 -0.17333649454E+01 -0.79261539620E+01 -0.16877524689E+02  0.72461566536E+02  0.69999995104E+02 0.  0.
        -12    1    1    2    0    0  0.17333649454E+01  0.79261539620E+01  0.16877524689E+02  0.18726433464E+02  0.00000000000E+00 0.  1.
         11    1    3    3    0    0 -0.70911000646E+01  0.15375254427E+02  0.11273449685E+02  0.20341406463E+02  0.51100000000E-03 0. -1.
        -11    1    3    3    0    0  0.14739375618E+02 -0.12109440694E+01  0.43455549089E+00  0.14795418814E+02  0.51100000000E-03 0.  1.
         12    1    3    3    0    0 -0.93816404992E+01 -0.22090464320E+02 -0.28585529865E+02  0.37324741258E+02  0.00000000000E+00 0. -1.
</event>
<event>
 7    1  0.2700104E-013  0.7246159E+02  0.7816164E-02  0.1226708E+00
        -11   -1    0    0    0    0  0.00000000000E+00  0.00000000000E+00  0.45593999997E+02  0.45594000000E+02  0.51100000000E-03 0.  1.
         11   -1    0    0    0    0 -0.00000000000E+00 -0.00000000000E+00 -0.45593999997E+02  0.45594000000E+02  0.51100000000E-03 0. -1.
    9900012    2    1    2    0    0 -0.15434158157E+02 -0.63689990572E+00 -0.10585812665E+02  0.72461593263E+02  0.70000029921E+02 0.  0.
        -12    1    1    2    0    0  0.15434158157E+02  0.63689990572E+00  0.10585812665E+02  0.18726406737E+02  0.00000000000E+00 0.  1.
         11    1    3    3    0    0  0.24539658727E+01 -0.14083742681E+02 -0.17555740990E+01  0.14403325904E+02  0.51100000000E-03 0. -1.
        -11    1    3    3    0    0 -0.29126063750E+02 -0.10267086494E+01  0.10914399707E+02  0.31120826491E+02  0.51100000000E-03 0.  1.
         12    1    3    3    0    0  0.11237939721E+02  0.14473551425E+02 -0.19744638273E+02  0.26937440868E+02  0.00000000000E+00 0. -1.
</event>
<event>
 7    1  0.2700104E-013  0.7246157E+02  0.7816164E-02  0.1226708E+00
        -11   -1    0    0    0    0  0.00000000000E+00  0.00000000000E+00  0.45593999997E+02  0.45594000000E+02  0.51100000000E-03 0. -1.
         11   -1    0    0    0    0 -0.00000000000E+00 -0.00000000000E+00 -0.45593999997E+02  0.45594000000E+02  0.51100000000E-03 0.  1.
    9900012    2    1    2    0    0 -0.11842596597E+02  0.19763956550E+00  0.14504930565E+02  0.72461570382E+02  0.70000000114E+02 0.  0.
        -12    1    1    2    0    0  0.11842596597E+02 -0.19763956550E+00 -0.14504930565E+02  0.18726429618E+02  0.00000000000E+00 0.  1.
         11    1    3    3    0    0  0.16816542186E+02  0.14715184073E+02 -0.56161279472E+01  0.23040695015E+02  0.51100000000E-03 0. -1.
        -11    1    3    3    0    0  0.44122721676E+01  0.40905451150E+01 -0.83098877319E+00  0.60738165614E+01  0.51100000000E-03 0.  1.
         12    1    3    3    0    0 -0.33071410950E+02 -0.18608089622E+02  0.20952047285E+02  0.43347058806E+02  0.00000000000E+00 0. -1.
</event>
<event>
 7    1  0.2700104E-013  0.7246156E+02  0.7816164E-02  0.1226708E+00
        -11   -1    0    0    0    0  0.00000000000E+00  0.00000000000E+00  0.45593999997E+02  0.45594000000E+02  0.51100000000E-03 0.  1.
         11   -1    0    0    0    0 -0.00000000000E+00 -0.00000000000E+00 -0.45593999997E+02  0.45594000000E+02  0.51100000000E-03 0. -1.
    9900012    2    1    2    0    0 -0.77782756725E+01  0.15146506295E+02 -0.77949479111E+01  0.72461563117E+02  0.69999990650E+02 0.  0.
        -12    1    1    2    0    0  0.77782756725E+01 -0.15146506295E+02  0.77949479111E+01  0.18726436883E+02  0.00000000000E+00 0.  1.
         11    1    3    3    0    0 -0.75230717171E+01  0.34399395523E+02 -0.13325288098E+02  0.37649413323E+02  0.51100000000E-03 0. -1.
        -11    1    3    3    0    0  0.40635395868E+00  0.62172104264E+01 -0.42269813629E+01  0.75290238895E+01  0.51100000000E-03 0.  1.
        -12    1    3    3    0    0 -0.66155791412E+00 -0.25470099654E+02  0.97573215498E+01  0.27283125904E+02  0.00000000000E+00 0.  1.
</event>
<event>
 7    1  0.2700104E-013  0.7246159E+02  0.7816164E-02  0.1226708E+00
        -11   -1    0    0    0    0  0.00000000000E+00  0.00000000000E+00  0.45593999997E+02  0.45594000000E+02  0.51100000000E-03 0. -1.
         11   -1    0    0    0    0 -0.00000000000E+00 -0.00000000000E+00 -0.45593999997E+02  0.45594000000E+02  0.51100000000E-03 0.  1.
    9900012    2    1    2    0    0  0.10528815855E+02 -0.15047019893E+02  0.36619202203E+01  0.72461590022E+02  0.70000025699E+02 0.  0.
        -12    1    1    2    0    0 -0.10528815855E+02  0.15047019893E+02 -0.36619202203E+01  0.18726409978E+02  0.00000000000E+00 0.  1.
         11    1    3    3    0    0  0.86281859458E+01 -0.36979585199E+02  0.63145515321E+01  0.38494270685E+02  0.51100000000E-03 0. -1.
        -11    1    3    3    0    0 -0.10125810674E+02  0.17469827655E+01 -0.19586343322E+01  0.10460412960E+02  0.51100000000E-03 0.  1.
        -12    1    3    3    0    0  0.12026440583E+02  0.20185582541E+02 -0.69399697961E+00  0.23506906377E+02  0.00000000000E+00 0.  1.
</event>
<event>
 7    1  0.2700104E-013  0.7246148E+02  0.7816164E-02  0.1226708E+00
        -11   -1    0    0    0    0  0.00000000000E+00  0.00000000000E+00  0.45593999997E+02  0.45594000000E+02  0.51100000000E-03 0.  1.
         11   -1    0    0    0    0 -0.00000000000E+00 -0.00000000000E+00 -0.45593999997E+02  0.45594000000E+02  0.51100000000E-03 0. -1.
    9900012    2    1    2    0    0 -0.16626481028E+02  0.61937263081E+01 -0.59900197480E+01  0.72461482611E+02  0.69999885776E+02 0.  0.
        -12    1    1    2    0    0  0.16626481028E+02 -0.61937263081E+01  0.59900197480E+01  0.18726517389E+02  0.00000000000E+00 0.  1.
         11    1    3    3    0    0 -0.17629189104E+02 -0.44951724367E+01 -0.21617073341E+02  0.28254074818E+02  0.51100000000E-03 0. -1.
        -11    1    3    3    0    0  0.11669043318E+02  0.41355250572E+01 -0.98501474420E+01  0.15820699869E+02  0.51100000000E-03 0.  1.
        -12    1    3    3    0    0 -0.10666335242E+02  0.65533736876E+01  0.25477201035E+02  0.28386707924E+02  0.00000000000E+00 0.  1.
</event>
<event>
 7    1  0.2700104E-013  0.7246155E+02  0.7816164E-02  0.1226708E+00
        -11   -1    0    0    0    0  0.00000000000E+00  0.00000000000E+00  0.45593999997E+02  0.45594000000E+02  0.51100000000E-03 0. -1.
         11   -1    0    0    0    0 -0.00000000000E+00 -0.00000000000E+00 -0.45593999997E+02  0.45594000000E+02  0.51100000000E-03 0.  1.
    9900012    2    1    2    0    0  0.10328667359E+02  0.13985048023E+02  0.69582427659E+01  0.72461545984E+02  0.69999968332E+02 0.  0.
        -12    1    1    2    0    0 -0.10328667359E+02 -0.13985048023E+02 -0.69582427659E+01  0.18726454016E+02  0.00000000000E+00 0.  1.
         11    1    3    3    0    0  0.15861761761E+02  0.14561777980E+01 -0.81613135820E+01  0.17897569098E+02  0.51100000000E-03 0. -1.
        -11    1    3    3    0    0  0.40206364844E+01 -0.15893404511E+02  0.18112400509E+02  0.24429999532E+02  0.51100000000E-03 0.  1.
        -12    1    3    3    0    0 -0.95537308873E+01  0.28422274736E+02 -0.29928441610E+01  0.30133977355E+02  0.00000000000E+00 0.  1.
</event>
<event>
 7    1  0.2700104E-013  0.7246159E+02  0.7816164E-02  0.1226708E+00
        -11   -1    0    0    0    0  0.00000000000E+00  0.00000000000E+00  0.45593999997E+02  0.45594000000E+02  0.51100000000E-03 0. -1.
         11   -1    0    0    0    0 -0.00000000000E+00 -0.00000000000E+00 -0.45593999997E+02  0.45594000000E+02  0.51100000000E-03 0.  1.
    9900012    2    1    2    0    0 -0.57463777473E+01  0.90442900455E+01  0.15357676580E+02  0.72461594323E+02  0.70000031301E+02 0.  0.
        -12    1    1    2    0    0  0.57463777473E+01 -0.90442900455E+01 -0.15357676580E+02  0.18726405677E+02  0.00000000000E+00 0.  1.
         11    1    3    3    0    0  0.10945379884E+02  0.24950098139E+01  0.22381903630E+02  0.25039489315E+02  0.51100000000E-03 0. -1.
        -11    1    3    3    0    0  0.87693706637E+00 -0.15112872445E+02 -0.11711896009E+02  0.19139917464E+02  0.51100000000E-03 0.  1.
        -12    1    3    3    0    0 -0.17568694698E+02  0.21662152677E+02  0.46876689585E+01  0.28282187543E+02  0.00000000000E+00 0.  1.
</event>
<event>
 7    1  0.2700104E-013  0.7246162E+02  0.7816164E-02  0.1226708E+00
        -11   -1    0    0    0    0  0.00000000000E+00  0.00000000000E+00  0.45593999997E+02  0.45594000000E+02  0.51100000000E-03 0.  1.
         11   -1    0    0    0    0 -0.00000000000E+00 -0.00000000000E+00 -0.45593999997E+02  0.45594000000E+02  0.51100000000E-03 0. -1.
    9900012    2    1    2    0    0  0.15879935052E+01 -0.14915797195E+02  0.11210468008E+02  0.72461619616E+02  0.70000064251E+02 0.  0.
        -12    1    1    2    0    0 -0.15879935052E+01  0.14915797195E+02 -0.11210468008E+02  0.18726380384E+02  0.00000000000E+00 0.  1.
         11    1    3    3    0    0  0.12530616498E+02  0.15241000866E+02 -0.78611804417E+01  0.21239176429E+02  0.51100000000E-03 0. -1.
        -11    1    3    3    0    0  0.10465010473E+02 -0.40803867079E+00  0.15091963650E+01  0.10581144253E+02  0.51100000000E-03 0.  1.
        -12    1    3    3    0    0 -0.21407633466E+02 -0.29748759389E+02  0.17562452085E+02  0.40641298934E+02  0.00000000000E+00 0.  1.
</event>
<event>
 7    1  0.2700104E-013  0.7246116E+02  0.7816164E-02  0.1226709E+00
        -11   -1    0    0    0    0  0.00000000000E+00  0.00000000000E+00  0.45593999997E+02  0.45594000000E+02  0.51100000000E-03 0.  1.
         11   -1    0    0    0    0 -0.00000000000E+00 -0.00000000000E+00 -0.45593999997E+02  0.45594000000E+02  0.51100000000E-03 0. -1.
    9900012    2    1    2    0    0  0.10881444762E+02  0.15239250200E+02  0.23242513062E+00  0.72461158082E+02  0.69999463015E+02 0.  0.
        -12    1    1    2    0    0 -0.10881444762E+02 -0.15239250200E+02 -0.23242513062E+00  0.18726841918E+02  0.00000000000E+00 0.  1.
         11    1    3    3    0    0  0.57858747243E+01  0.72923777490E+01  0.69160843045E+00  0.93345295566E+01  0.51100000000E-03 0. -1.
        -11    1    3    3    0    0  0.17310559018E+02  0.28484047899E+02  0.12911461770E+02  0.35744961652E+02  0.51100000000E-03 0.  1.
         12    1    3    3    0    0 -0.12214988981E+02 -0.20537175448E+02 -0.13370645070E+02  0.27381666873E+02  0.00000000000E+00 0. -1.
</event>
<event>
 7    1  0.2700104E-013  0.7246157E+02  0.7816164E-02  0.1226708E+00
        -11   -1    0    0    0    0  0.00000000000E+00  0.00000000000E+00  0.45593999997E+02  0.45594000000E+02  0.51100000000E-03 0.  1.
         11   -1    0    0    0    0 -0.00000000000E+00 -0.00000000000E+00 -0.45593999997E+02  0.45594000000E+02  0.51100000000E-03 0. -1.
    9900012    2    1    2    0    0 -0.69629558547E+01 -0.16688677718E+02  0.48666871728E+01  0.72461565148E+02  0.69999993296E+02 0.  0.
        -12    1    1    2    0    0  0.69629558547E+01  0.16688677718E+02 -0.48666871728E+01  0.18726434852E+02  0.00000000000E+00 0.  1.
         11    1    3    3    0    0 -0.25228917018E+02 -0.16113691348E+02 -0.35832018668E+01  0.30149438446E+02  0.51100000000E-03 0. -1.
        -11    1    3    3    0    0 -0.97817744744E+01 -0.29909325047E+01  0.97490628707E+01  0.14130570273E+02  0.51100000000E-03 0.  1.
        -12    1    3    3    0    0  0.28047735638E+02  0.24159461340E+01 -0.12991738310E+01  0.28181556429E+02  0.00000000000E+00 0.  1.
</event>
<event>
 7    1  0.2700104E-013  0.7246134E+02  0.7816164E-02  0.1226709E+00
        -11   -1    0    0    0    0  0.00000000000E+00  0.00000000000E+00  0.45593999997E+02  0.45594000000E+02  0.51100000000E-03 0.  1.
         11   -1    0    0    0    0 -0.00000000000E+00 -0.00000000000E+00 -0.45593999997E+02  0.45594000000E+02  0.51100000000E-03 0. -1.
    9900012    2    1    2    0    0  0.12068747817E+01 -0.91100098920E+01 -0.16316833314E+02  0.72461337821E+02  0.69999697159E+02 0.  0.
        -12    1    1    2    0    0 -0.12068747817E+01  0.91100098920E+01  0.16316833314E+02  0.18726662179E+02  0.00000000000E+00 0.  1.
         11    1    3    3    0    0 -0.17279688036E+02 -0.29045942248E+02 -0.33760237472E+01  0.33965451805E+02  0.51100000000E-03 0. -1.
        -11    1    3    3    0    0 -0.36381870417E+01 -0.69335763375E+00 -0.66301660521E+01  0.75944882579E+01  0.51100000000E-03 0.  1.
        -12    1    3    3    0    0  0.22124749860E+02  0.20629289989E+02 -0.63106435151E+01  0.30901397758E+02  0.00000000000E+00 0.  1.
</event>
<event>
 7    1  0.2700104E-013  0.7246156E+02  0.7816164E-02  0.1226708E+00
        -11   -1    0    0    0    0  0.00000000000E+00  0.00000000000E+00  0.45593999997E+02  0.45594000000E+02  0.51100000000E-03 0. -1.
         11   -1    0    0    0    0 -0.00000000000E+00 -0.00000000000E+00 -0.45593999997E+02  0.45594000000E+02  0.51100000000E-03 0.  1.
    9900012    2    1    2    0    0  0.15600233248E+02 -0.92294877398E+01  0.47041262384E+01  0.72461560803E+02  0.69999987635E+02 0.  0.
        -12    1    1    2    0    0 -0.15600233248E+02  0.92294877398E+01 -0.47041262384E+01  0.18726439197E+02  0.00000000000E+00 0.  1.
         11    1    3    3    0    0  0.15607958338E+02 -0.13938829799E+02 -0.98600045951E+00  0.20949261009E+02  0.51100000000E-03 0. -1.
        -11    1    3    3    0    0 -0.23683705298E+02 -0.31746519043E+00  0.11925049031E+02  0.26518398810E+02  0.51100000000E-03 0.  1.
         12    1    3    3    0    0  0.23675980208E+02  0.50268072492E+01 -0.62349223332E+01  0.24993900985E+02  0.00000000000E+00 0. -1.
</event>
<event>
 7    1  0.2700104E-013  0.7246154E+02  0.7816164E-02  0.1226708E+00
        -11   -1    0    0    0    0  0.00000000000E+00  0.00000000000E+00  0.45593999997E+02  0.45594000000E+02  0.51100000000E-03 0.  1.
         11   -1    0    0    0    0 -0.00000000000E+00 -0.00000000000E+00 -0.45593999997E+02  0.45594000000E+02  0.51100000000E-03 0. -1.
    9900012    2    1    2    0    0  0.18864526844E+01  0.18253142674E+02 -0.37341933628E+01  0.72461544883E+02  0.69999966896E+02 0.  0.
        -12    1    1    2    0    0 -0.18864526844E+01 -0.18253142674E+02  0.37341933628E+01  0.18726455117E+02  0.00000000000E+00 0.  1.
         11    1    3    3    0    0 -0.39957723547E+00  0.34147619645E+02 -0.24617398493E+02  0.42097932232E+02  0.51100000000E-03 0. -1.
        -11    1    3    3    0    0  0.49830122467E+01 -0.61456046317E+01  0.89581469984E+00  0.79624965669E+01  0.51100000000E-03 0.  1.
        -12    1    3    3    0    0 -0.26969823268E+01 -0.97488723398E+01  0.19987390430E+02  0.22401116084E+02  0.00000000000E+00 0.  1.
</event>
<event>
 7    1  0.2700104E-013  0.7246162E+02  0.7816164E-02  0.1226708E+00
        -11   -1    0    0    0    0  0.00000000000E+00  0.00000000000E+00  0.45593999997E+02  0.45594000000E+02  0.51100000000E-03 0.  1.
         11   -1    0    0    0    0 -0.00000000000E+00 -0.00000000000E+00 -0.45593999997E+02  0.45594000000E+02  0.51100000000E-03 0. -1.
    9900012    2    1    2    0    0 -0.41828662505E+01 -0.10625127037E-01 -0.18253246030E+02  0.72461615576E+02  0.70000058987E+02 0.  0.
        -12    1    1    2    0    0  0.41828662505E+01  0.10625127037E-01  0.18253246030E+02  0.18726384424E+02  0.00000000000E+00 0.  1.
         11    1    3    3    0    0 -0.16210685936E+02  0.49633692034E+01  0.55701288900E+01  0.17845103207E+02  0.51100000000E-03 0. -1.
        -11    1    3    3    0    0 -0.22152230915E+01 -0.17683286434E+02  0.63439485007E+01  0.18916963692E+02  0.51100000000E-03 0.  1.
         12    1    3    3    0    0  0.14243042777E+02  0.12709292104E+02 -0.30167323421E+02  0.35699548677E+02  0.00000000000E+00 0. -1.
</event>
<event>
 7    1  0.2700104E-013  0.7246156E+02  0.7816164E-02  0.1226708E+00
        -11   -1    0    0    0    0  0.00000000000E+00  0.00000000000E+00  0.45593999997E+02  0.45594000000E+02  0.51100000000E-03 0.  1.
         11   -1    0    0    0    0 -0.00000000000E+00 -0.00000000000E+00 -0.45593999997E+02  0.45594000000E+02  0.51100000000E-03 0. -1.
    9900012    2    1    2    0    0 -0.54599000751E+01  0.27405060777E+01 -0.17701936532E+02  0.72461563089E+02  0.69999990614E+02 0.  0.
        -12    1    1    2    0    0  0.54599000751E+01 -0.27405060777E+01  0.17701936532E+02  0.18726436911E+02  0.00000000000E+00 0.  1.
         11    1    3    3    0    0 -0.12700385894E+01 -0.13879501027E+02  0.12502348580E+02  0.18723308122E+02  0.51100000000E-03 0. -1.
        -11    1    3    3    0    0  0.12601146853E+02 -0.55351296760E+01 -0.16081860704E+01  0.13856869243E+02  0.51100000000E-03 0.  1.
        -12    1    3    3    0    0 -0.16791008338E+02  0.22155136781E+02 -0.28596099042E+02  0.39881385723E+02  0.00000000000E+00 0.  1.
</event>
<event>
 7    1  0.2700104E-013  0.7246158E+02  0.7816164E-02  0.1226708E+00
        -11   -1    0    0    0    0  0.00000000000E+00  0.00000000000E+00  0.45593999997E+02  0.45594000000E+02  0.51100000000E-03 0.  1.
         11   -1    0    0    0    0 -0.00000000000E+00 -0.00000000000E+00 -0.45593999997E+02  0.45594000000E+02  0.51100000000E-03 0. -1.
    9900012    2    1    2    0    0  0.10335710635E+02 -0.14435231219E+02  0.59561822374E+01  0.72461576916E+02  0.70000008625E+02 0.  0.
        -12    1    1    2    0    0 -0.10335710635E+02  0.14435231219E+02 -0.59561822374E+01  0.18726423084E+02  0.00000000000E+00 0.  1.
         11    1    3    3    0    0 -0.10480555400E+02  0.91426308246E+01 -0.49457593097E+01  0.14761106845E+02  0.51100000000E-03 0. -1.
        -11    1    3    3    0    0  0.28315729921E+01 -0.36624355043E+01  0.26339052893E+02  0.26742792431E+02  0.51100000000E-03 0.  1.
         12    1    3    3    0    0  0.17984693043E+02 -0.19915426540E+02 -0.15437111346E+02  0.30957677639E+02  0.00000000000E+00 0. -1.
</event>
<event>
 7    1  0.2700104E-013  0.7246159E+02  0.7816164E-02  0.1226708E+00
        -11   -1    0    0    0    0  0.00000000000E+00  0.00000000000E+00  0.45593999997E+02  0.45594000000E+02  0.51100000000E-03 0.  1.
         11   -1    0    0    0    0 -0.00000000000E+00 -0.00000000000E+00 -0.45593999997E+02  0.45594000000E+02  0.51100000000E-03 0. -1.
    9900012    2    1    2    0    0 -0.11422716351E+02 -0.69152049625E+01 -0.13129355933E+02  0.72461588285E+02  0.70000023436E+02 0.  0.
        -12    1    1    2    0    0  0.11422716351E+02  0.69152049625E+01  0.13129355933E+02  0.18726411715E+02  0.00000000000E+00 0.  1.
         11    1    3    3    0    0 -0.37914257314E+01  0.21847158451E+02  0.14734676752E+02  0.26622996464E+02  0.51100000000E-03 0. -1.
        -11    1    3    3    0    0  0.39131238949E+01  0.13543746187E+01 -0.29853862414E+01  0.51048408885E+01  0.51100000000E-03 0.  1.
         12    1    3    3    0    0 -0.11544414515E+02 -0.30116738032E+02 -0.24878646444E+02  0.40733750933E+02  0.00000000000E+00 0. -1.
</event>
<event>
 7    1  0.2700104E-013  0.7246156E+02  0.7816164E-02  0.1226708E+00
        -11   -1    0    0    0    0  0.00000000000E+00  0.00000000000E+00  0.45593999997E+02  0.45594000000E+02  0.51100000000E-03 0. -1.
         11   -1    0    0    0    0 -0.00000000000E+00 -0.00000000000E+00 -0.45593999997E+02  0.45594000000E+02  0.51100000000E-03 0.  1.
    9900012    2    1    2    0    0  0.44705089274E+01 -0.17463192721E+02  0.50725660938E+01  0.72461562089E+02  0.69999989311E+02 0.  0.
        -12    1    1    2    0    0 -0.44705089274E+01  0.17463192721E+02 -0.50725660938E+01  0.18726437911E+02  0.00000000000E+00 0.  1.
         11    1    3    3    0    0  0.52491403087E+01 -0.70839007184E+01  0.31966074372E+02  0.33159689902E+02  0.51100000000E-03 0. -1.
        -11    1    3    3    0    0  0.80278811274E+01 -0.13650411883E+02 -0.70249393485E+01  0.17324271791E+02  0.51100000000E-03 0.  1.
        -12    1    3    3    0    0 -0.88065125087E+01  0.32711198808E+01 -0.19868568930E+02  0.21977600396E+02  0.00000000000E+00 0.  1.
</event>
<event>
 7    1  0.2700104E-013  0.7246155E+02  0.7816164E-02  0.1226708E+00
        -11   -1    0    0    0    0  0.00000000000E+00  0.00000000000E+00  0.45593999997E+02  0.45594000000E+02  0.51100000000E-03 0. -1.
         11   -1    0    0    0    0 -0.00000000000E+00 -0.00000000000E+00 -0.45593999997E+02  0.45594000000E+02  0.51100000000E-03 0.  1.
    9900012    2    1    2    0    0  0.17098226260E+02  0.47567885189E+01  0.59752311179E+01  0.72461554390E+02  0.69999979282E+02 0.  0.
        -12    1    1    2    0    0 -0.17098226260E+02 -0.47567885189E+01 -0.59752311179E+01  0.18726445610E+02  0.00000000000E+00 0.  1.
         11    1    3    3    0    0 -0.13392933980E+02  0.60270934404E+01  0.35836444700E+01  0.15117507859E+02  0.51100000000E-03 0. -1.
        -11    1    3    3    0    0  0.62692201374E+01  0.91737970945E+01 -0.19910987542E+02  0.22801515287E+02  0.51100000000E-03 0.  1.
         12    1    3    3    0    0  0.24221940102E+02 -0.10444102016E+02  0.22302574189E+02  0.34542531244E+02  0.00000000000E+00 0. -1.
</event>
<event>
 7    1  0.2700104E-013  0.7246158E+02  0.7816164E-02  0.1226708E+00
        -11   -1    0    0    0    0  0.00000000000E+00  0.00000000000E+00  0.45593999997E+02  0.45594000000E+02  0.51100000000E-03 0. -1.
         11   -1    0    0    0    0 -0.00000000000E+00 -0.00000000000E+00 -0.45593999997E+02  0.45594000000E+02  0.51100000000E-03 0.  1.
    9900012    2    1    2    0    0  0.68819598734E+01 -0.16800107501E+02  0.45906220276E+01  0.72461580312E+02  0.70000013050E+02 0.  0.
        -12    1    1    2    0    0 -0.68819598734E+01  0.16800107501E+02 -0.45906220276E+01  0.18726419688E+02  0.00000000000E+00 0.  1.
         11    1    3    3    0    0  0.34623033759E+02 -0.23826366388E+02  0.41804792711E+01  0.42236555366E+02  0.51100000000E-03 0. -1.
        -11    1    3    3    0    0 -0.32544142943E+01  0.44882795023E+01  0.81673974888E+00  0.56038316685E+01  0.51100000000E-03 0.  1.
        -12    1    3    3    0    0 -0.24486659591E+02  0.25379793850E+01 -0.40659699238E+00  0.24621193278E+02  0.00000000000E+00 0.  1.
</event>
<event>
 7    1  0.2700104E-013  0.7246154E+02  0.7816164E-02  0.1226708E+00
        -11   -1    0    0    0    0  0.00000000000E+00  0.00000000000E+00  0.45593999997E+02  0.45594000000E+02  0.51100000000E-03 0.  1.
         11   -1    0    0    0    0 -0.00000000000E+00 -0.00000000000E+00 -0.45593999997E+02  0.45594000000E+02  0.51100000000E-03 0. -1.
    9900012    2    1    2    0    0 -0.32668982818E+01  0.99729761506E+01 -0.15509595088E+02  0.72461536974E+02  0.69999956594E+02 0.  0.
        -12    1    1    2    0    0  0.32668982818E+01 -0.99729761506E+01  0.15509595088E+02  0.18726463026E+02  0.00000000000E+00 0.  1.
         11    1    3    3    0    0 -0.48046670642E+01  0.12298033605E+02  0.16935992372E+02  0.21474503347E+02  0.51100000000E-03 0. -1.
        -11    1    3    3    0    0  0.19961739151E+02 -0.43688736305E+01 -0.13559841171E+02  0.24524016384E+02  0.51100000000E-03 0.  1.
         12    1    3    3    0    0 -0.18423970369E+02  0.20438161765E+01 -0.18885746289E+02  0.26463017243E+02  0.00000000000E+00 0. -1.
</event>
<event>
 7    1  0.2700104E-013  0.7246164E+02  0.7816164E-02  0.1226708E+00
        -11   -1    0    0    0    0  0.00000000000E+00  0.00000000000E+00  0.45593999997E+02  0.45594000000E+02  0.51100000000E-03 0.  1.
         11   -1    0    0    0    0 -0.00000000000E+00 -0.00000000000E+00 -0.45593999997E+02  0.45594000000E+02  0.51100000000E-03 0. -1.
    9900012    2    1    2    0    0  0.11161146367E+02  0.14550364027E+02  0.37937281213E+01  0.72461637444E+02  0.70000087474E+02 0.  0.
        -12    1    1    2    0    0 -0.11161146367E+02 -0.14550364027E+02 -0.37937281213E+01  0.18726362556E+02  0.00000000000E+00 0.  1.
         11    1    3    3    0    0  0.79365642051E+01  0.49331333058E+01 -0.15552486108E+02  0.18143998457E+02  0.51100000000E-03 0. -1.
        -11    1    3    3    0    0 -0.70130652549E+01  0.27035262946E+02  0.25542754541E+01  0.28046619229E+02  0.51100000000E-03 0.  1.
        -12    1    3    3    0    0  0.10237647417E+02 -0.17418032225E+02  0.16791938776E+02  0.26271019757E+02  0.00000000000E+00 0.  1.
</event>
<event>
 7    1  0.3602832E-013  0.7246148E+02  0.7816164E-02  0.1226708E+00
        -11   -1    0    0    0    0  0.00000000000E+00  0.00000000000E+00  0.45593999997E+02  0.45594000000E+02  0.51100000000E-03 0. -1.
         11   -1    0    0    0    0 -0.00000000000E+00 -0.00000000000E+00 -0.45593999997E+02  0.45594000000E+02  0.51100000000E-03 0.  1.
    9900012    2    1    2    0    0 -0.12525513643E+02 -0.40135870077E+01  0.13329856008E+02  0.72461483135E+02  0.69999886459E+02 0.  0.
        -12    1    1    2    0    0  0.12525513643E+02  0.40135870077E+01 -0.13329856008E+02  0.18726516865E+02  0.00000000000E+00 0.  1.
         11    1    3    3    0    0 -0.27562390014E+02  0.13719890089E+02  0.10274190872E+02  0.32457352413E+02  0.51100000000E-03 0. -1.
        -11    1    3    3    0    0  0.76175038638E+01  0.83592813642E+01  0.58510835408E+01  0.12733386388E+02  0.51100000000E-03 0.  1.
        -12    1    3    3    0    0  0.74193725068E+01 -0.26092758461E+02 -0.27954184042E+01  0.27270744334E+02  0.00000000000E+00 0.  1.
</event>
<event>
 7    1  0.2700104E-013  0.7246152E+02  0.7816164E-02  0.1226708E+00
        -11   -1    0    0    0    0  0.00000000000E+00  0.00000000000E+00  0.45593999997E+02  0.45594000000E+02  0.51100000000E-03 0. -1.
         11   -1    0    0    0    0 -0.00000000000E+00 -0.00000000000E+00 -0.45593999997E+02  0.45594000000E+02  0.51100000000E-03 0.  1.
    9900012    2    1    2    0    0  0.41257647189E+01  0.56647090437E+01  0.17365779934E+02  0.72461516727E+02  0.69999930219E+02 0.  0.
        -12    1    1    2    0    0 -0.41257647189E+01 -0.56647090437E+01 -0.17365779934E+02  0.18726483273E+02  0.00000000000E+00 0.  1.
         11    1    3    3    0    0 -0.23795614437E+02 -0.79582935188E+00  0.18601802928E+02  0.30214097425E+02  0.51100000000E-03 0. -1.
        -11    1    3    3    0    0 -0.57430902537E+01 -0.19572808510E+01 -0.42620298823E+01  0.74147780122E+01  0.51100000000E-03 0.  1.
        -12    1    3    3    0    0  0.33664469410E+02  0.84178192466E+01  0.30260068884E+01  0.34832641289E+02  0.00000000000E+00 0.  1.
</event>
<event>
 7    1  0.2700104E-013  0.7246147E+02  0.7816164E-02  0.1226708E+00
        -11   -1    0    0    0    0  0.00000000000E+00  0.00000000000E+00  0.45593999997E+02  0.45594000000E+02  0.51100000000E-03 0.  1.
         11   -1    0    0    0    0 -0.00000000000E+00 -0.00000000000E+00 -0.45593999997E+02  0.45594000000E+02  0.51100000000E-03 0. -1.
    9900012    2    1    2    0    0 -0.13445215098E+02  0.11616565413E+02  0.59130650041E+01  0.72461474994E+02  0.69999875854E+02 0.  0.
        -12    1    1    2    0    0  0.13445215098E+02 -0.11616565413E+02 -0.59130650041E+01  0.18726525006E+02  0.00000000000E+00 0.  1.
         11    1    3    3    0    0  0.51201057784E+01  0.28276164218E+02  0.12731607840E+02  0.31430093613E+02  0.51100000000E-03 0. -1.
        -11    1    3    3    0    0  0.78844995863E+01 -0.27304113802E+01  0.39837094594E+01  0.92461030358E+01  0.51100000000E-03 0.  1.
         12    1    3    3    0    0 -0.26449820463E+02 -0.13929187424E+02 -0.10802252296E+02  0.31785278345E+02  0.00000000000E+00 0. -1.
</event>
<event>
 7    1  0.2700104E-013  0.7246157E+02  0.7816164E-02  0.1226708E+00
        -11   -1    0    0    0    0  0.00000000000E+00  0.00000000000E+00  0.45593999997E+02  0.45594000000E+02  0.51100000000E-03 0.  1.
         11   -1    0    0    0    0 -0.00000000000E+00 -0.00000000000E+00 -0.45593999997E+02  0.45594000000E+02  0.51100000000E-03 0. -1.
    9900012    2    1    2    0    0  0.45142823357E+01 -0.12003088916E+00 -0.18173768069E+02  0.72461574867E+02  0.70000005957E+02 0.  0.
        -12    1    1    2    0    0 -0.45142823357E+01  0.12003088916E+00  0.18173768069E+02  0.18726425133E+02  0.00000000000E+00 0.  1.
         11    1    3    3    0    0  0.14661174774E+02 -0.48561760790E+00 -0.15999366871E+01  0.14756207774E+02  0.51100000000E-03 0. -1.
        -11    1    3    3    0    0  0.13691334273E+02 -0.82988485192E+00  0.13544071656E+02  0.19276493984E+02  0.51100000000E-03 0.  1.
         12    1    3    3    0    0 -0.23838226711E+02  0.11954715707E+01 -0.30117903038E+02  0.38428873109E+02  0.00000000000E+00 0. -1.
</event>
<event>
 7    1  0.2700104E-013  0.7246157E+02  0.7816164E-02  0.1226708E+00
        -11   -1    0    0    0    0  0.00000000000E+00  0.00000000000E+00  0.45593999997E+02  0.45594000000E+02  0.51100000000E-03 0. -1.
         11   -1    0    0    0    0 -0.00000000000E+00 -0.00000000000E+00 -0.45593999997E+02  0.45594000000E+02  0.51100000000E-03 0.  1.
    9900012    2    1    2    0    0  0.14947395085E+01  0.69058315256E+01  0.17342269199E+02  0.72461573320E+02  0.70000003941E+02 0.  0.
        -12    1    1    2    0    0 -0.14947395085E+01 -0.69058315256E+01 -0.17342269199E+02  0.18726426680E+02  0.00000000000E+00 0.  1.
         11    1    3    3    0    0 -0.19720920164E+02 -0.54519694334E+01  0.10454959994E+02  0.22977050541E+02  0.51100000000E-03 0. -1.
        -11    1    3    3    0    0 -0.29080283320E+00 -0.89257793972E+01  0.15619363781E+02  0.17992182450E+02  0.51100000000E-03 0.  1.
        -12    1    3    3    0    0  0.21506462506E+02  0.21283580356E+02 -0.87320545760E+01  0.31492340329E+02  0.00000000000E+00 0.  1.
</event>
<event>
 7    1  0.2700104E-013  0.7246172E+02  0.7816164E-02  0.1226708E+00
        -11   -1    0    0    0    0  0.00000000000E+00  0.00000000000E+00  0.45593999997E+02  0.45594000000E+02  0.51100000000E-03 0.  1.
         11   -1    0    0    0    0 -0.00000000000E+00 -0.00000000000E+00 -0.45593999997E+02  0.45594000000E+02  0.51100000000E-03 0. -1.
    9900012    2    1    2    0    0  0.13281208367E+02 -0.82462967846E+00 -0.13175848088E+02  0.72461722136E+02  0.70000197802E+02 0.  0.
        -12    1    1    2    0    0 -0.13281208367E+02  0.82462967846E+00  0.13175848088E+02  0.18726277864E+02  0.00000000000E+00 0.  1.
         11    1    3    3    0    0 -0.35315935793E+01  0.66233847625E+01 -0.32911136677E+01  0.81959019245E+01  0.51100000000E-03 0. -1.
        -11    1    3    3    0    0  0.19288716489E+02  0.23619381243E+02  0.27879940269E+01  0.30621931112E+02  0.51100000000E-03 0.  1.
        -12    1    3    3    0    0 -0.24759145429E+01 -0.31067395684E+02 -0.12672728447E+02  0.33643889099E+02  0.00000000000E+00 0.  1.
</event>
<event>
 7    1  0.2700104E-013  0.7246166E+02  0.7816164E-02  0.1226708E+00
        -11   -1    0    0    0    0  0.00000000000E+00  0.00000000000E+00  0.45593999997E+02  0.45594000000E+02  0.51100000000E-03 0.  1.
         11   -1    0    0    0    0 -0.00000000000E+00 -0.00000000000E+00 -0.45593999997E+02  0.45594000000E+02  0.51100000000E-03 0. -1.
    9900012    2    1    2    0    0 -0.69156580348E+01 -0.10527400115E+02 -0.13857249602E+02  0.72461659039E+02  0.70000115607E+02 0.  0.
        -12    1    1    2    0    0  0.69156580348E+01  0.10527400115E+02  0.13857249602E+02  0.18726340961E+02  0.00000000000E+00 0.  1.
         11    1    3    3    0    0  0.13573692099E+02 -0.93586483384E+01  0.94355731230E+01  0.18996301123E+02  0.51100000000E-03 0. -1.
        -11    1    3    3    0    0  0.29213809411E+01 -0.11581931662E+02  0.69566788383E+01  0.13822842991E+02  0.51100000000E-03 0.  1.
         12    1    3    3    0    0 -0.23410731075E+02  0.10413179886E+02 -0.30249501563E+02  0.39642514926E+02  0.00000000000E+00 0. -1.
</event>
<event>
 7    1  0.2700104E-013  0.7246162E+02  0.7816164E-02  0.1226708E+00
        -11   -1    0    0    0    0  0.00000000000E+00  0.00000000000E+00  0.45593999997E+02  0.45594000000E+02  0.51100000000E-03 0. -1.
         11   -1    0    0    0    0 -0.00000000000E+00 -0.00000000000E+00 -0.45593999997E+02  0.45594000000E+02  0.51100000000E-03 0.  1.
    9900012    2    1    2    0    0  0.44385765654E+01  0.16092078599E+02  0.84865349817E+01  0.72461622038E+02  0.70000067406E+02 0.  0.
        -12    1    1    2    0    0 -0.44385765654E+01 -0.16092078599E+02 -0.84865349817E+01  0.18726377962E+02  0.00000000000E+00 0.  1.
         11    1    3    3    0    0 -0.39239301319E+01  0.72181646906E+01 -0.25123920461E+01  0.85913469978E+01  0.51100000000E-03 0. -1.
        -11    1    3    3    0    0  0.17947219087E+02 -0.61998057704E+01 -0.20322810362E+02  0.27812890642E+02  0.51100000000E-03 0.  1.
         12    1    3    3    0    0 -0.95847123898E+01  0.15073719679E+02  0.31321737390E+02  0.36057384399E+02  0.00000000000E+00 0. -1.
</event>
<event>
 7    1  0.2700104E-013  0.7246159E+02  0.7816164E-02  0.1226708E+00
        -11   -1    0    0    0    0  0.00000000000E+00  0.00000000000E+00  0.45593999997E+02  0.45594000000E+02  0.51100000000E-03 0.  1.
         11   -1    0    0    0    0 -0.00000000000E+00 -0.00000000000E+00 -0.45593999997E+02  0.45594000000E+02  0.51100000000E-03 0. -1.
    9900012    2    1    2    0    0  0.12392679328E+02  0.33473176091E+01  0.13634340063E+02  0.72461594444E+02  0.70000031459E+02 0.  0.
        -12    1    1    2    0    0 -0.12392679328E+02 -0.33473176091E+01 -0.13634340063E+02  0.18726405556E+02  0.00000000000E+00 0.  1.
         11    1    3    3    0    0  0.33943031113E+02  0.41738834468E+01 -0.38959566955E+01  0.34419894582E+02  0.51100000000E-03 0. -1.
        -11    1    3    3    0    0  0.57819780015E+01  0.12742895175E+01  0.55848162406E+01  0.81391188766E+01  0.51100000000E-03 0.  1.
        -12    1    3    3    0    0 -0.27332329787E+02 -0.21008553551E+01  0.11945480518E+02  0.29902580985E+02  0.00000000000E+00 0.  1.
</event>
<event>
 7    1  0.2700104E-013  0.7246160E+02  0.7816164E-02  0.1226708E+00
        -11   -1    0    0    0    0  0.00000000000E+00  0.00000000000E+00  0.45593999997E+02  0.45594000000E+02  0.51100000000E-03 0.  1.
         11   -1    0    0    0    0 -0.00000000000E+00 -0.00000000000E+00 -0.45593999997E+02  0.45594000000E+02  0.51100000000E-03 0. -1.
    9900012    2    1    2    0    0  0.41753235020E+00  0.14926832477E+02  0.11300157300E+02  0.72461595752E+02  0.70000033163E+02 0.  0.
        -12    1    1    2    0    0 -0.41753235020E+00 -0.14926832477E+02 -0.11300157300E+02  0.18726404248E+02  0.00000000000E+00 0.  1.
         11    1    3    3    0    0  0.62336122046E+01  0.22652343257E+02  0.14958283492E+02  0.27852052374E+02  0.51100000000E-03 0. -1.
        -11    1    3    3    0    0  0.13992844189E+02 -0.16856755469E+02  0.22178022523E+01  0.22019730710E+02  0.51100000000E-03 0.  1.
        -12    1    3    3    0    0 -0.19808924043E+02  0.91312446892E+01 -0.58759284444E+01  0.22589812669E+02  0.00000000000E+00 0.  1.
</event>
<event>
 7    1  0.2700104E-013  0.7246158E+02  0.7816164E-02  0.1226708E+00
        -11   -1    0    0    0    0  0.00000000000E+00  0.00000000000E+00  0.45593999997E+02  0.45594000000E+02  0.51100000000E-03 0. -1.
         11   -1    0    0    0    0 -0.00000000000E+00 -0.00000000000E+00 -0.45593999997E+02  0.45594000000E+02  0.51100000000E-03 0.  1.
    9900012    2    1    2    0    0  0.33389725099E+01 -0.17047013948E+02  0.69949481403E+01  0.72461582258E+02  0.70000015585E+02 0.  0.
        -12    1    1    2    0    0 -0.33389725099E+01  0.17047013948E+02 -0.69949481403E+01  0.18726417742E+02  0.00000000000E+00 0.  1.
         11    1    3    3    0    0  0.10216904309E+02  0.72249115549E+01 -0.14865915938E+02  0.19431416252E+02  0.51100000000E-03 0. -1.
        -11    1    3    3    0    0  0.95677291109E+01 -0.11390204904E+02 -0.77647128363E+01  0.16780017097E+02  0.51100000000E-03 0.  1.
         12    1    3    3    0    0 -0.16445660910E+02 -0.12881720599E+02  0.29625576914E+02  0.36250148908E+02  0.00000000000E+00 0. -1.
</event>
<event>
 7    1  0.2700104E-013  0.7246166E+02  0.7816164E-02  0.1226708E+00
        -11   -1    0    0    0    0  0.00000000000E+00  0.00000000000E+00  0.45593999997E+02  0.45594000000E+02  0.51100000000E-03 0.  1.
         11   -1    0    0    0    0 -0.00000000000E+00 -0.00000000000E+00 -0.45593999997E+02  0.45594000000E+02  0.51100000000E-03 0. -1.
    9900012    2    1    2    0    0  0.13367443435E+02  0.12322484099E+02 -0.44881510191E+01  0.72461664055E+02  0.70000122141E+02 0.  0.
        -12    1    1    2    0    0 -0.13367443435E+02 -0.12322484099E+02  0.44881510191E+01  0.18726335945E+02  0.00000000000E+00 0.  1.
         11    1    3    3    0    0 -0.10476663885E+02  0.98478460502E+01  0.32281047909E+01  0.14736390969E+02  0.51100000000E-03 0. -1.
        -11    1    3    3    0    0  0.27174664228E+01  0.22263956034E+02  0.91487855154E+01  0.24223307758E+02  0.51100000000E-03 0.  1.
         12    1    3    3    0    0  0.21126640898E+02 -0.19789317986E+02 -0.16865041325E+02  0.33501965328E+02  0.00000000000E+00 0. -1.
</event>
<event>
 7    1  0.2700104E-013  0.7246158E+02  0.7816164E-02  0.1226708E+00
        -11   -1    0    0    0    0  0.00000000000E+00  0.00000000000E+00  0.45593999997E+02  0.45594000000E+02  0.51100000000E-03 0.  1.
         11   -1    0    0    0    0 -0.00000000000E+00 -0.00000000000E+00 -0.45593999997E+02  0.45594000000E+02  0.51100000000E-03 0. -1.
    9900012    2    1    2    0    0  0.52955626698E+01  0.30974958622E+01 -0.17692979406E+02  0.72461575224E+02  0.70000006422E+02 0.  0.
        -12    1    1    2    0    0 -0.52955626698E+01 -0.30974958622E+01  0.17692979406E+02  0.18726424776E+02  0.00000000000E+00 0.  1.
         11    1    3    3    0    0  0.14304362358E+02 -0.15981535016E+02 -0.10328714935E+01  0.21473031172E+02  0.51100000000E-03 0. -1.
        -11    1    3    3    0    0 -0.22085770236E+01 -0.13905122346E+02 -0.80867948399E+01  0.16236578795E+02  0.51100000000E-03 0.  1.
        -12    1    3    3    0    0 -0.68002226645E+01  0.32984153224E+02 -0.85733130728E+01  0.34751965257E+02  0.00000000000E+00 0.  1.
</event>
<event>
 7    1  0.2700104E-013  0.7246157E+02  0.7816164E-02  0.1226708E+00
        -11   -1    0    0    0    0  0.00000000000E+00  0.00000000000E+00  0.45593999997E+02  0.45594000000E+02  0.51100000000E-03 0.  1.
         11   -1    0    0    0    0 -0.00000000000E+00 -0.00000000000E+00 -0.45593999997E+02  0.45594000000E+02  0.51100000000E-03 0. -1.
    9900012    2    1    2    0    0  0.61728602866E+01  0.12110549883E+02 -0.12880595297E+02  0.72461565268E+02  0.69999993452E+02 0.  0.
        -12    1    1    2    0    0 -0.61728602866E+01 -0.12110549883E+02  0.12880595297E+02  0.18726434732E+02  0.00000000000E+00 0.  1.
         11    1    3    3    0    0  0.41872953688E+01  0.23146936359E+00  0.97153921809E+01  0.10581864961E+02  0.51100000000E-03 0. -1.
        -11    1    3    3    0    0  0.23013928435E+02 -0.92189888651E+01 -0.50962741847E+00  0.24796983246E+02  0.51100000000E-03 0.  1.
         12    1    3    3    0    0 -0.21028363517E+02  0.21098069384E+02 -0.22086360059E+02  0.37082717061E+02  0.00000000000E+00 0. -1.
</event>
<event>
 7    1  0.2700104E-013  0.7246154E+02  0.7816164E-02  0.1226708E+00
        -11   -1    0    0    0    0  0.00000000000E+00  0.00000000000E+00  0.45593999997E+02  0.45594000000E+02  0.51100000000E-03 0.  1.
         11   -1    0    0    0    0 -0.00000000000E+00 -0.00000000000E+00 -0.45593999997E+02  0.45594000000E+02  0.51100000000E-03 0. -1.
    9900012    2    1    2    0    0 -0.73278026656E+01  0.20742633491E+01 -0.17107919179E+02  0.72461543876E+02  0.69999965585E+02 0.  0.
        -12    1    1    2    0    0  0.73278026656E+01 -0.20742633491E+01  0.17107919179E+02  0.18726456124E+02  0.00000000000E+00 0.  1.
         11    1    3    3    0    0  0.88905621062E+01  0.14756264079E+02 -0.34603034239E+02  0.38654358137E+02  0.51100000000E-03 0. -1.
        -11    1    3    3    0    0 -0.38172503192E+01 -0.56307316933E+01 -0.40873220788E+01  0.79361666715E+01  0.51100000000E-03 0.  1.
        -12    1    3    3    0    0 -0.12401114453E+02 -0.70512690370E+01  0.21582437140E+02  0.25871019067E+02  0.00000000000E+00 0.  1.
</event>
<event>
 7    1  0.2700104E-013  0.7246129E+02  0.7816164E-02  0.1226709E+00
        -11   -1    0    0    0    0  0.00000000000E+00  0.00000000000E+00  0.45593999997E+02  0.45594000000E+02  0.51100000000E-03 0.  1.
         11   -1    0    0    0    0 -0.00000000000E+00 -0.00000000000E+00 -0.45593999997E+02  0.45594000000E+02  0.51100000000E-03 0. -1.
    9900012    2    1    2    0    0 -0.72546811407E+01 -0.27859803023E+01 -0.17038117281E+02  0.72461293798E+02  0.69999639811E+02 0.  0.
        -12    1    1    2    0    0  0.72546811407E+01  0.27859803023E+01  0.17038117281E+02  0.18726706202E+02  0.00000000000E+00 0.  1.
         11    1    3    3    0    0 -0.15338360212E+02  0.82295779382E+01 -0.12929250340E+02  0.21683098525E+02  0.51100000000E-03 0. -1.
        -11    1    3    3    0    0 -0.38941551287E+01 -0.17327024366E+02 -0.22043283691E+02  0.28307182369E+02  0.51100000000E-03 0.  1.
        -12    1    3    3    0    0  0.11977834200E+02  0.63114661256E+01  0.17934416749E+02  0.22471012903E+02  0.00000000000E+00 0.  1.
</event>
<event>
 7    1  0.2700104E-013  0.7246144E+02  0.7816164E-02  0.1226708E+00
        -11   -1    0    0    0    0  0.00000000000E+00  0.00000000000E+00  0.45593999997E+02  0.45594000000E+02  0.51100000000E-03 0. -1.
         11   -1    0    0    0    0 -0.00000000000E+00 -0.00000000000E+00 -0.45593999997E+02  0.45594000000E+02  0.51100000000E-03 0.  1.
    9900012    2    1    2    0    0 -0.73525327335E+01 -0.13855298070E+02  0.10230110738E+02  0.72461436302E+02  0.69999825450E+02 0.  0.
        -12    1    1    2    0    0  0.73525327335E+01  0.13855298070E+02 -0.10230110738E+02  0.18726563698E+02  0.00000000000E+00 0.  1.
         11    1    3    3    0    0 -0.45279327184E+01 -0.49069691402E+01  0.84104153847E+01  0.10738510514E+02  0.51100000000E-03 0. -1.
        -11    1    3    3    0    0 -0.14833129314E+02 -0.80255721535E+01  0.28123599251E+02  0.32792809711E+02  0.51100000000E-03 0.  1.
        -12    1    3    3    0    0  0.12008529299E+02 -0.92275677671E+00 -0.26303903898E+02  0.28930116078E+02  0.00000000000E+00 0.  1.
</event>
<event>
 7    1  0.2700104E-013  0.7246154E+02  0.7816164E-02  0.1226708E+00
        -11   -1    0    0    0    0  0.00000000000E+00  0.00000000000E+00  0.45593999997E+02  0.45594000000E+02  0.51100000000E-03 0.  1.
         11   -1    0    0    0    0 -0.00000000000E+00 -0.00000000000E+00 -0.45593999997E+02  0.45594000000E+02  0.51100000000E-03 0. -1.
    9900012    2    1    2    0    0 -0.22607480470E+01  0.17915187283E+02 -0.49613802535E+01  0.72461542483E+02  0.69999963770E+02 0.  0.
        -12    1    1    2    0    0  0.22607480470E+01 -0.17915187283E+02  0.49613802535E+01  0.18726457517E+02  0.00000000000E+00 0.  1.
         11    1    3    3    0    0 -0.16831229635E+02  0.55899231702E+01 -0.51103518964E+00  0.17742567156E+02  0.51100000000E-03 0. -1.
        -11    1    3    3    0    0 -0.86811254967E+01 -0.11097997452E+00  0.18066775420E+02  0.20044516227E+02  0.51100000000E-03 0.  1.
         12    1    3    3    0    0  0.23251607084E+02  0.12436244087E+02 -0.22517120484E+02  0.34674459100E+02  0.00000000000E+00 0. -1.
</event>
<event>
 7    1  0.2700104E-013  0.7246163E+02  0.7816164E-02  0.1226708E+00
        -11   -1    0    0    0    0  0.00000000000E+00  0.00000000000E+00  0.45593999997E+02  0.45594000000E+02  0.51100000000E-03 0. -1.
         11   -1    0    0    0    0 -0.00000000000E+00 -0.00000000000E+00 -0.45593999997E+02  0.45594000000E+02  0.51100000000E-03 0.  1.
    9900012    2    1    2    0    0  0.92806381462E+01 -0.25087472970E+01  0.16070253657E+02  0.72461625284E+02  0.70000071634E+02 0.  0.
        -12    1    1    2    0    0 -0.92806381462E+01  0.25087472970E+01 -0.16070253657E+02  0.18726374716E+02  0.00000000000E+00 0.  1.
         11    1    3    3    0    0 -0.23011741156E+02 -0.13576765518E+02  0.22162387066E+02  0.34713688852E+02  0.51100000000E-03 0. -1.
        -11    1    3    3    0    0  0.18336288974E+01 -0.28214973556E+01  0.10368570798E+01  0.35210957280E+01  0.51100000000E-03 0.  1.
         12    1    3    3    0    0  0.30458750405E+02  0.13889515577E+02 -0.71289904883E+01  0.34226840704E+02  0.00000000000E+00 0. -1.
</event>
<event>
 7    1  0.2700104E-013  0.7246161E+02  0.7816164E-02  0.1226708E+00
        -11   -1    0    0    0    0  0.00000000000E+00  0.00000000000E+00  0.45593999997E+02  0.45594000000E+02  0.51100000000E-03 0.  1.
         11   -1    0    0    0    0 -0.00000000000E+00 -0.00000000000E+00 -0.45593999997E+02  0.45594000000E+02  0.51100000000E-03 0. -1.
    9900012    2    1    2    0    0 -0.66070720944E+01 -0.38791403953E+01 -0.17087316047E+02  0.72461614830E+02  0.70000058016E+02 0.  0.
        -12    1    1    2    0    0  0.66070720944E+01  0.38791403953E+01  0.17087316047E+02  0.18726385170E+02  0.00000000000E+00 0.  1.
         11    1    3    3    0    0 -0.31667928939E+01  0.90655054860E+01  0.11557987773E+02  0.15026611347E+02  0.51100000000E-03 0. -1.
        -11    1    3    3    0    0  0.14256614108E+02 -0.15506147015E+02  0.28118491737E+01  0.21250838503E+02  0.51100000000E-03 0.  1.
         12    1    3    3    0    0 -0.17696893308E+02  0.25615011335E+01 -0.31457152993E+02  0.36184164979E+02  0.00000000000E+00 0. -1.
</event>
<event>
 7    1  0.2700104E-013  0.7246168E+02  0.7816164E-02  0.1226708E+00
        -11   -1    0    0    0    0  0.00000000000E+00  0.00000000000E+00  0.45593999997E+02  0.45594000000E+02  0.51100000000E-03 0. -1.
         11   -1    0    0    0    0 -0.00000000000E+00 -0.00000000000E+00 -0.45593999997E+02  0.45594000000E+02  0.51100000000E-03 0.  1.
    9900012    2    1    2    0    0  0.20591941392E+01 -0.67550086919E+01  0.17343720961E+02  0.72461679494E+02  0.70000142253E+02 0.  0.
        -12    1    1    2    0    0 -0.20591941392E+01  0.67550086919E+01 -0.17343720961E+02  0.18726320506E+02  0.00000000000E+00 0.  1.
         11    1    3    3    0    0 -0.11845889276E+02 -0.59707527856E+01  0.23675954716E+02  0.27139009075E+02  0.51100000000E-03 0. -1.
        -11    1    3    3    0    0  0.21469463758E+00 -0.13288244169E+02  0.12961487559E+02  0.18564042848E+02  0.51100000000E-03 0.  1.
        -12    1    3    3    0    0  0.13690388778E+02  0.12503988262E+02 -0.19293721314E+02  0.26758627571E+02  0.00000000000E+00 0.  1.
</event>
<event>
 7    1  0.2700104E-013  0.7246161E+02  0.7816164E-02  0.1226708E+00
        -11   -1    0    0    0    0  0.00000000000E+00  0.00000000000E+00  0.45593999997E+02  0.45594000000E+02  0.51100000000E-03 0. -1.
         11   -1    0    0    0    0 -0.00000000000E+00 -0.00000000000E+00 -0.45593999997E+02  0.45594000000E+02  0.51100000000E-03 0.  1.
    9900012    2    1    2    0    0 -0.14482216252E+02 -0.60280423400E+01  0.10227703541E+02  0.72461606814E+02  0.70000047574E+02 0.  0.
        -12    1    1    2    0    0  0.14482216252E+02  0.60280423400E+01 -0.10227703541E+02  0.18726393186E+02  0.00000000000E+00 0.  1.
         11    1    3    3    0    0 -0.16065463152E+02 -0.34364225370E+01 -0.16588881340E+02  0.23347357249E+02  0.51100000000E-03 0. -1.
        -11    1    3    3    0    0 -0.12314637947E+02 -0.16145385990E+02  0.72761644281E+01  0.21570033973E+02  0.51100000000E-03 0.  1.
         12    1    3    3    0    0  0.13897884847E+02  0.13553766187E+02  0.19540420453E+02  0.27544215592E+02  0.00000000000E+00 0. -1.
</event>
<event>
 7    1  0.2700104E-013  0.7246158E+02  0.7816164E-02  0.1226708E+00
        -11   -1    0    0    0    0  0.00000000000E+00  0.00000000000E+00  0.45593999997E+02  0.45594000000E+02  0.51100000000E-03 0.  1.
         11   -1    0    0    0    0 -0.00000000000E+00 -0.00000000000E+00 -0.45593999997E+02  0.45594000000E+02  0.51100000000E-03 0. -1.
    9900012    2    1    2    0    0  0.11513002201E+02  0.22091202631E+01 -0.14603059367E+02  0.72461580831E+02  0.70000013726E+02 0.  0.
        -12    1    1    2    0    0 -0.11513002201E+02 -0.22091202631E+01  0.14603059367E+02  0.18726419169E+02  0.00000000000E+00 0.  1.
         11    1    3    3    0    0  0.30884752429E+01  0.15233903954E+02 -0.25498705543E+02  0.29862928417E+02  0.51100000000E-03 0. -1.
        -11    1    3    3    0    0  0.91153866317E+01 -0.19440034624E+02 -0.77820866863E+01  0.22837821549E+02  0.51100000000E-03 0.  1.
         12    1    3    3    0    0 -0.69085967347E+00  0.64152509333E+01  0.18677732862E+02  0.19760830865E+02  0.00000000000E+00 0. -1.
</event>
<event>
 7    1  0.2700104E-013  0.7246154E+02  0.7816164E-02  0.1226708E+00
        -11   -1    0    0    0    0  0.00000000000E+00  0.00000000000E+00  0.45593999997E+02  0.45594000000E+02  0.51100000000E-03 0.  1.
         11   -1    0    0    0    0 -0.00000000000E+00 -0.00000000000E+00 -0.45593999997E+02  0.45594000000E+02  0.51100000000E-03 0. -1.
    9900012    2    1    2    0    0  0.52953042742E+01 -0.17805985524E+02 -0.23637035518E+01  0.72461535776E+02  0.69999955034E+02 0.  0.
        -12    1    1    2    0    0 -0.52953042742E+01  0.17805985524E+02  0.23637035518E+01  0.18726464224E+02  0.00000000000E+00 0.  1.
         11    1    3    3    0    0  0.29997031854E+01 -0.17297422132E+02 -0.25460764138E+02  0.30926518433E+02  0.51100000000E-03 0. -1.
        -11    1    3    3    0    0 -0.79633601699E+01 -0.10443068739E+02 -0.13710957618E+01  0.13204268012E+02  0.51100000000E-03 0.  1.
        -12    1    3    3    0    0  0.10258961259E+02  0.99345053477E+01  0.24468156348E+02  0.28330749331E+02  0.00000000000E+00 0.  1.
</event>
<event>
 7    1  0.2700104E-013  0.7246157E+02  0.7816164E-02  0.1226708E+00
        -11   -1    0    0    0    0  0.00000000000E+00  0.00000000000E+00  0.45593999997E+02  0.45594000000E+02  0.51100000000E-03 0. -1.
         11   -1    0    0    0    0 -0.00000000000E+00 -0.00000000000E+00 -0.45593999997E+02  0.45594000000E+02  0.51100000000E-03 0.  1.
    9900012    2    1    2    0    0  0.42705882540E+01  0.13368414553E+02  0.12398662121E+02  0.72461568036E+02  0.69999997058E+02 0.  0.
        -12    1    1    2    0    0 -0.42705882540E+01 -0.13368414553E+02 -0.12398662121E+02  0.18726431964E+02  0.00000000000E+00 0.  1.
         11    1    3    3    0    0  0.20253987878E+02 -0.14721418804E+02 -0.54972198145E+01  0.25635202798E+02  0.51100000000E-03 0. -1.
        -11    1    3    3    0    0 -0.23221025542E+01  0.22901553986E+02 -0.87767123630E+00  0.23035703642E+02  0.51100000000E-03 0.  1.
        -12    1    3    3    0    0 -0.13661297070E+02  0.51882793715E+01  0.18773553172E+02  0.23790661596E+02  0.00000000000E+00 0.  1.
</event>
<event>
 7    1  0.2700104E-013  0.7246146E+02  0.7816164E-02  0.1226708E+00
        -11   -1    0    0    0    0  0.00000000000E+00  0.00000000000E+00  0.45593999997E+02  0.45594000000E+02  0.51100000000E-03 0.  1.
         11   -1    0    0    0    0 -0.00000000000E+00 -0.00000000000E+00 -0.45593999997E+02  0.45594000000E+02  0.51100000000E-03 0. -1.
    9900012    2    1    2    0    0  0.18194671500E+02  0.28948012360E+01 -0.33551868633E+01  0.72461462037E+02  0.69999858975E+02 0.  0.
        -12    1    1    2    0    0 -0.18194671500E+02 -0.28948012360E+01  0.33551868633E+01  0.18726537963E+02  0.00000000000E+00 0.  1.
         11    1    3    3    0    0 -0.48189502348E+01  0.34744702843E+01  0.13374446573E+02  0.14634549754E+02  0.51100000000E-03 0. -1.
        -11    1    3    3    0    0  0.23305422555E+02  0.17277342077E+01  0.13845832886E+02  0.27163116068E+02  0.51100000000E-03 0.  1.
         12    1    3    3    0    0 -0.29180082007E+00 -0.23074032561E+01 -0.30575466322E+02  0.30663796215E+02  0.00000000000E+00 0. -1.
</event>
<event>
 7    1  0.2700104E-013  0.7246158E+02  0.7816164E-02  0.1226708E+00
        -11   -1    0    0    0    0  0.00000000000E+00  0.00000000000E+00  0.45593999997E+02  0.45594000000E+02  0.51100000000E-03 0. -1.
         11   -1    0    0    0    0 -0.00000000000E+00 -0.00000000000E+00 -0.45593999997E+02  0.45594000000E+02  0.51100000000E-03 0.  1.
    9900012    2    1    2    0    0 -0.10221513056E+02  0.81971484166E+01  0.13379319879E+02  0.72461580916E+02  0.70000013836E+02 0.  0.
        -12    1    1    2    0    0  0.10221513056E+02 -0.81971484166E+01 -0.13379319879E+02  0.18726419084E+02  0.00000000000E+00 0.  1.
         11    1    3    3    0    0 -0.88735132286E+00  0.99614129165E+01 -0.37279394387E+01  0.10673081672E+02  0.51100000000E-03 0. -1.
        -11    1    3    3    0    0 -0.14731062264E+02  0.24391275436E+02 -0.25780814749E+01  0.28610924787E+02  0.51100000000E-03 0.  1.
         12    1    3    3    0    0  0.53969005310E+01 -0.26155539936E+02  0.19685340792E+02  0.33177574456E+02  0.00000000000E+00 0. -1.
</event>
<event>
 7    1  0.2700104E-013  0.7246152E+02  0.7816164E-02  0.1226708E+00
        -11   -1    0    0    0    0  0.00000000000E+00  0.00000000000E+00  0.45593999997E+02  0.45594000000E+02  0.51100000000E-03 0.  1.
         11   -1    0    0    0    0 -0.00000000000E+00 -0.00000000000E+00 -0.45593999997E+02  0.45594000000E+02  0.51100000000E-03 0. -1.
    9900012    2    1    2    0    0  0.12307183931E+02  0.17884667528E+01 -0.14000552903E+02  0.72461524859E+02  0.69999940812E+02 0.  0.
        -12    1    1    2    0    0 -0.12307183931E+02 -0.17884667528E+01  0.14000552903E+02  0.18726475141E+02  0.00000000000E+00 0.  1.
         11    1    3    3    0    0  0.68924578517E+01  0.18892202595E+02 -0.20498474773E+01  0.20214429724E+02  0.51100000000E-03 0. -1.
        -11    1    3    3    0    0 -0.19059101217E+02 -0.19835708216E+00  0.24190390192E+01  0.19213027736E+02  0.51100000000E-03 0.  1.
         12    1    3    3    0    0  0.24473827296E+02 -0.16905378760E+02 -0.14369744445E+02  0.33034067399E+02  0.00000000000E+00 0. -1.
</event>
<event>
 7    1  0.2700104E-013  0.7246155E+02  0.7816164E-02  0.1226708E+00
        -11   -1    0    0    0    0  0.00000000000E+00  0.00000000000E+00  0.45593999997E+02  0.45594000000E+02  0.51100000000E-03 0. -1.
         11   -1    0    0    0    0 -0.00000000000E+00 -0.00000000000E+00 -0.45593999997E+02  0.45594000000E+02  0.51100000000E-03 0.  1.
    9900012    2    1    2    0    0 -0.97365194358E+01 -0.64871593050E+01  0.14621797401E+02  0.72461547965E+02  0.69999970912E+02 0.  0.
        -12    1    1    2    0    0  0.97365194358E+01  0.64871593050E+01 -0.14621797401E+02  0.18726452035E+02  0.00000000000E+00 0.  1.
         11    1    3    3    0    0  0.84438831784E+01  0.57282512247E+01  0.63351704208E+01  0.12010262684E+02  0.51100000000E-03 0. -1.
        -11    1    3    3    0    0 -0.57443625908E+01  0.88999508111E+01 -0.20239995107E+02  0.22844347839E+02  0.51100000000E-03 0.  1.
        -12    1    3    3    0    0 -0.12436040023E+02 -0.21115361341E+02  0.28526622087E+02  0.37606937442E+02  0.00000000000E+00 0.  1.
</event>
<event>
 7    1  0.2700104E-013  0.7246153E+02  0.7816164E-02  0.1226708E+00
        -11   -1    0    0    0    0  0.00000000000E+00  0.00000000000E+00  0.45593999997E+02  0.45594000000E+02  0.51100000000E-03 0.  1.
         11   -1    0    0    0    0 -0.00000000000E+00 -0.00000000000E+00 -0.45593999997E+02  0.45594000000E+02  0.51100000000E-03 0. -1.
    9900012    2    1    2    0    0 -0.15829200490E+02  0.74768981907E+01 -0.66492953830E+01  0.72461528795E+02  0.69999945940E+02 0.  0.
        -12    1    1    2    0    0  0.15829200490E+02 -0.74768981907E+01  0.66492953830E+01  0.18726471205E+02  0.00000000000E+00 0.  1.
         11    1    3    3    0    0  0.11465711105E+02  0.50013498786E+01 -0.13643982440E+01  0.12583227510E+02  0.51100000000E-03 0. -1.
        -11    1    3    3    0    0  0.45650803396E+01 -0.62520860734E+01 -0.21664887605E+02  0.23006431579E+02  0.51100000000E-03 0.  1.
         12    1    3    3    0    0 -0.31859991934E+02  0.87276343855E+01  0.16379990466E+02  0.36871869707E+02  0.00000000000E+00 0. -1.
</event>
<event>
 7    1  0.2700104E-013  0.7246157E+02  0.7816164E-02  0.1226708E+00
        -11   -1    0    0    0    0  0.00000000000E+00  0.00000000000E+00  0.45593999997E+02  0.45594000000E+02  0.51100000000E-03 0.  1.
         11   -1    0    0    0    0 -0.00000000000E+00 -0.00000000000E+00 -0.45593999997E+02  0.45594000000E+02  0.51100000000E-03 0. -1.
    9900012    2    1    2    0    0 -0.75757297125E+01 -0.13387728022E+02 -0.10679711417E+02  0.72461570062E+02  0.69999999698E+02 0.  0.
        -12    1    1    2    0    0  0.75757297125E+01  0.13387728022E+02  0.10679711417E+02  0.18726429938E+02  0.00000000000E+00 0.  1.
         11    1    3    3    0    0  0.72999823225E+01 -0.58225316730E+01 -0.29454149931E+02  0.30898844079E+02  0.51100000000E-03 0. -1.
        -11    1    3    3    0    0  0.68733008589E+01  0.74535009157E+01  0.22306753011E+01  0.10381370486E+02  0.51100000000E-03 0.  1.
        -12    1    3    3    0    0 -0.21749012894E+02 -0.15018697265E+02  0.16543763214E+02  0.31181355498E+02  0.00000000000E+00 0.  1.
</event>
<event>
 7    1  0.2700104E-013  0.7246154E+02  0.7816164E-02  0.1226708E+00
        -11   -1    0    0    0    0  0.00000000000E+00  0.00000000000E+00  0.45593999997E+02  0.45594000000E+02  0.51100000000E-03 0. -1.
         11   -1    0    0    0    0 -0.00000000000E+00 -0.00000000000E+00 -0.45593999997E+02  0.45594000000E+02  0.51100000000E-03 0.  1.
    9900012    2    1    2    0    0 -0.15632690975E+02  0.26571021758E+01  0.99618867488E+01  0.72461537262E+02  0.69999956969E+02 0.  0.
        -12    1    1    2    0    0  0.15632690975E+02 -0.26571021758E+01 -0.99618867488E+01  0.18726462738E+02  0.00000000000E+00 0.  1.
         11    1    3    3    0    0 -0.21033795127E+02  0.10861389776E+02  0.35531252863E+01  0.23937732242E+02  0.51100000000E-03 0. -1.
        -11    1    3    3    0    0 -0.18411755385E+02 -0.11142408286E+02  0.10884065858E+02  0.24116568758E+02  0.51100000000E-03 0.  1.
         12    1    3    3    0    0  0.23812859538E+02  0.29381206859E+01 -0.44753043958E+01  0.24407236262E+02  0.00000000000E+00 0. -1.
</event>
<event>
 7    1  0.2700104E-013  0.7246165E+02  0.7816164E-02  0.1226708E+00
        -11   -1    0    0    0    0  0.00000000000E+00  0.00000000000E+00  0.45593999997E+02  0.45594000000E+02  0.51100000000E-03 0.  1.
         11   -1    0    0    0    0 -0.00000000000E+00 -0.00000000000E+00 -0.45593999997E+02  0.45594000000E+02  0.51100000000E-03 0. -1.
    9900012    2    1    2    0    0 -0.49411890121E+01  0.12199305722E+02 -0.13320576607E+02  0.72461650380E+02  0.70000104326E+02 0.  0.
        -12    1    1    2    0    0  0.49411890121E+01 -0.12199305722E+02  0.13320576607E+02  0.18726349620E+02  0.00000000000E+00 0.  1.
         11    1    3    3    0    0  0.69612287078E+01 -0.24894522461E+02 -0.17099176374E+02  0.30993189358E+02  0.51100000000E-03 0.  1.
        -11    1    3    3    0    0  0.77716103905E-01  0.19226812563E+02 -0.16033861107E+01  0.19293709037E+02  0.51100000000E-03 0. -1.
        -12    1    3    3    0    0 -0.11980133824E+02  0.17867015620E+02  0.53819858773E+01  0.22174751984E+02  0.00000000000E+00 0.  1.
</event>
<event>
 7    1  0.2700104E-013  0.7246158E+02  0.7816164E-02  0.1226708E+00
        -11   -1    0    0    0    0  0.00000000000E+00  0.00000000000E+00  0.45593999997E+02  0.45594000000E+02  0.51100000000E-03 0.  1.
         11   -1    0    0    0    0 -0.00000000000E+00 -0.00000000000E+00 -0.45593999997E+02  0.45594000000E+02  0.51100000000E-03 0. -1.
    9900012    2    1    2    0    0  0.44213236350E+01  0.42246389935E+00 -0.18192089950E+02  0.72461582426E+02  0.70000015803E+02 0.  0.
        -12    1    1    2    0    0 -0.44213236350E+01 -0.42246389935E+00  0.18192089950E+02  0.18726417574E+02  0.00000000000E+00 0.  1.
         11    1    3    3    0    0 -0.18591639680E+02 -0.43126569232E+01  0.13479052370E+01  0.19132823224E+02  0.51100000000E-03 0. -1.
        -11    1    3    3    0    0 -0.94181070375E+01 -0.69484996878E+01  0.30749368508E+01  0.12101141474E+02  0.51100000000E-03 0.  1.
         12    1    3    3    0    0  0.32431070352E+02  0.11683620510E+02 -0.22614932037E+02  0.41227617728E+02  0.00000000000E+00 0. -1.
</event>
<event>
 7    1  0.2700104E-013  0.7246145E+02  0.7816164E-02  0.1226708E+00
        -11   -1    0    0    0    0  0.00000000000E+00  0.00000000000E+00  0.45593999997E+02  0.45594000000E+02  0.51100000000E-03 0.  1.
         11   -1    0    0    0    0 -0.00000000000E+00 -0.00000000000E+00 -0.45593999997E+02  0.45594000000E+02  0.51100000000E-03 0. -1.
    9900012    2    1    2    0    0 -0.97173694015E+00  0.92054158670E+01 -0.16278814301E+02  0.72461448021E+02  0.69999840717E+02 0.  0.
        -12    1    1    2    0    0  0.97173694015E+00 -0.92054158670E+01  0.16278814301E+02  0.18726551979E+02  0.00000000000E+00 0.  1.
         11    1    3    3    0    0 -0.57349079415E+01  0.86267897626E+01 -0.40274041692E+01  0.11114434547E+02  0.51100000000E-03 0. -1.
        -11    1    3    3    0    0  0.35736918346E+01  0.26864305401E+02  0.78723851818E+01  0.28221208811E+02  0.51100000000E-03 0.  1.
         12    1    3    3    0    0  0.11894791668E+01 -0.26285679297E+02 -0.20123795313E+02  0.33125804663E+02  0.00000000000E+00 0. -1.
</event>
<event>
 7    1  0.2700104E-013  0.7246150E+02  0.7816164E-02  0.1226708E+00
        -11   -1    0    0    0    0  0.00000000000E+00  0.00000000000E+00  0.45593999997E+02  0.45594000000E+02  0.51100000000E-03 0.  1.
         11   -1    0    0    0    0 -0.00000000000E+00 -0.00000000000E+00 -0.45593999997E+02  0.45594000000E+02  0.51100000000E-03 0. -1.
    9900012    2    1    2    0    0 -0.99394769417E+01  0.66245393138E+01 -0.14422345081E+02  0.72461501111E+02  0.69999909876E+02 0.  0.
        -12    1    1    2    0    0  0.99394769417E+01 -0.66245393138E+01  0.14422345081E+02  0.18726498889E+02  0.00000000000E+00 0.  1.
         11    1    3    3    0    0 -0.89944836112E+01 -0.13384517758E+02 -0.98397605746E+01  0.18890922144E+02  0.51100000000E-03 0. -1.
        -11    1    3    3    0    0  0.12960818045E+02  0.30185402802E+01  0.17795144643E+02  0.22220746228E+02  0.51100000000E-03 0.  1.
         12    1    3    3    0    0 -0.13905811376E+02  0.16990516791E+02 -0.22377729149E+02  0.31349832739E+02  0.00000000000E+00 0. -1.
</event>
<event>
 7    1  0.2700104E-013  0.7246209E+02  0.7816164E-02  0.1226707E+00
        -11   -1    0    0    0    0  0.00000000000E+00  0.00000000000E+00  0.45593999997E+02  0.45594000000E+02  0.51100000000E-03 0.  1.
         11   -1    0    0    0    0 -0.00000000000E+00 -0.00000000000E+00 -0.45593999997E+02  0.45594000000E+02  0.51100000000E-03 0. -1.
    9900012    2    1    2    0    0  0.60300622071E-02  0.13633319403E+02 -0.12837137632E+02  0.72462094497E+02  0.70000682868E+02 0.  0.
        -12    1    1    2    0    0 -0.60300622071E-02 -0.13633319403E+02  0.12837137632E+02  0.18725905503E+02  0.00000000000E+00 0.  1.
         11    1    3    3    0    0  0.40085624885E+01  0.30934189557E+02 -0.15307988268E+02  0.34746613674E+02  0.51100000000E-03 0. -1.
        -11    1    3    3    0    0 -0.75523226619E+01  0.81562904780E+01  0.43652975427E+01  0.11942297721E+02  0.51100000000E-03 0.  1.
        -12    1    3    3    0    0  0.35497902356E+01 -0.25457160632E+02 -0.18944469068E+01  0.25773183102E+02  0.00000000000E+00 0.  1.
</event>
<event>
 7    1  0.2700104E-013  0.7246154E+02  0.7816164E-02  0.1226708E+00
        -11   -1    0    0    0    0  0.00000000000E+00  0.00000000000E+00  0.45593999997E+02  0.45594000000E+02  0.51100000000E-03 0.  1.
         11   -1    0    0    0    0 -0.00000000000E+00 -0.00000000000E+00 -0.45593999997E+02  0.45594000000E+02  0.51100000000E-03 0. -1.
    9900012    2    1    2    0    0 -0.14776094856E+02  0.99458528515E+01 -0.57816328665E+01  0.72461541532E+02  0.69999962532E+02 0.  0.
        -12    1    1    2    0    0  0.14776094856E+02 -0.99458528515E+01  0.57816328665E+01  0.18726458468E+02  0.00000000000E+00 0.  1.
         11    1    3    3    0    0 -0.68175148369E+00  0.14229573358E+02 -0.14668084430E+02  0.20447450798E+02  0.51100000000E-03 0. -1.
        -11    1    3    3    0    0  0.86074563147E+01  0.16567575399E+02 -0.31291494701E+01  0.18930515985E+02  0.51100000000E-03 0.  1.
        -12    1    3    3    0    0 -0.22701799687E+02 -0.20851295905E+02  0.12015601034E+02  0.33083574749E+02  0.00000000000E+00 0.  1.
</event>
<event>
 7    1  0.2700104E-013  0.7246146E+02  0.7816164E-02  0.1226708E+00
        -11   -1    0    0    0    0  0.00000000000E+00  0.00000000000E+00  0.45593999997E+02  0.45594000000E+02  0.51100000000E-03 0. -1.
         11   -1    0    0    0    0 -0.00000000000E+00 -0.00000000000E+00 -0.45593999997E+02  0.45594000000E+02  0.51100000000E-03 0.  1.
    9900012    2    1    2    0    0 -0.46494409478E+01 -0.64154463463E+00  0.18128830306E+02  0.72461458170E+02  0.69999853938E+02 0.  0.
        -12    1    1    2    0    0  0.46494409478E+01  0.64154463463E+00 -0.18128830306E+02  0.18726541830E+02  0.00000000000E+00 0.  1.
         11    1    3    3    0    0 -0.49004196630E+01 -0.72912560398E+01 -0.84597530609E+01  0.12196062874E+02  0.51100000000E-03 0. -1.
        -11    1    3    3    0    0  0.13944964555E+02 -0.12537502012E+02 -0.63168588263E+01  0.19787715857E+02  0.51100000000E-03 0.  1.
         12    1    3    3    0    0 -0.13693985840E+02  0.19187213417E+02  0.32905442193E+02  0.40477679440E+02  0.00000000000E+00 0. -1.
</event>
<event>
 7    1  0.2700104E-013  0.7246123E+02  0.7816164E-02  0.1226709E+00
        -11   -1    0    0    0    0  0.00000000000E+00  0.00000000000E+00  0.45593999997E+02  0.45594000000E+02  0.51100000000E-03 0. -1.
         11   -1    0    0    0    0 -0.00000000000E+00 -0.00000000000E+00 -0.45593999997E+02  0.45594000000E+02  0.51100000000E-03 0.  1.
    9900012    2    1    2    0    0  0.80285324399E+01  0.11824442912E+02  0.12100301271E+02  0.72461225741E+02  0.69999551153E+02 0.  0.
        -12    1    1    2    0    0 -0.80285324399E+01 -0.11824442912E+02 -0.12100301271E+02  0.18726774259E+02  0.00000000000E+00 0.  1.
         11    1    3    3    0    0  0.41492285112E+01 -0.42281207846E+01  0.44890435003E+01  0.74326720913E+01  0.51100000000E-03 0. -1.
        -11    1    3    3    0    0  0.22835618931E+02  0.10888735292E+02 -0.19221038402E+02  0.31772289275E+02  0.51100000000E-03 0.  1.
         12    1    3    3    0    0 -0.18956315003E+02  0.51638284044E+01  0.26832296172E+02  0.33256264375E+02  0.00000000000E+00 0. -1.
</event>
<event>
 7    1  0.2700104E-013  0.7246159E+02  0.7816164E-02  0.1226708E+00
        -11   -1    0    0    0    0  0.00000000000E+00  0.00000000000E+00  0.45593999997E+02  0.45594000000E+02  0.51100000000E-03 0.  1.
         11   -1    0    0    0    0 -0.00000000000E+00 -0.00000000000E+00 -0.45593999997E+02  0.45594000000E+02  0.51100000000E-03 0. -1.
    9900012    2    1    2    0    0  0.78453591546E+00 -0.18153976762E+02 -0.45272378632E+01  0.72461594805E+02  0.70000031929E+02 0.  0.
        -12    1    1    2    0    0 -0.78453591546E+00  0.18153976762E+02  0.45272378632E+01  0.18726405195E+02  0.00000000000E+00 0.  1.
         11    1    3    3    0    0 -0.10800001886E+02  0.18029559178E+01  0.27891270247E+01  0.11299111496E+02  0.51100000000E-03 0.  1.
        -11    1    3    3    0    0 -0.20436473811E+02 -0.32957287199E+01 -0.13255492377E+02  0.24580874030E+02  0.51100000000E-03 0. -1.
        -12    1    3    3    0    0  0.32021011613E+02 -0.16661203959E+02  0.59391274895E+01  0.36581609279E+02  0.00000000000E+00 0.  1.
</event>
<event>
 7    1  0.2700104E-013  0.7246154E+02  0.7816164E-02  0.1226708E+00
        -11   -1    0    0    0    0  0.00000000000E+00  0.00000000000E+00  0.45593999997E+02  0.45594000000E+02  0.51100000000E-03 0. -1.
         11   -1    0    0    0    0 -0.00000000000E+00 -0.00000000000E+00 -0.45593999997E+02  0.45594000000E+02  0.51100000000E-03 0.  1.
    9900012    2    1    2    0    0  0.11185805054E+02  0.92750501300E+01 -0.11812341836E+02  0.72461542533E+02  0.69999963835E+02 0.  0.
        -12    1    1    2    0    0 -0.11185805054E+02 -0.92750501300E+01  0.11812341836E+02  0.18726457467E+02  0.00000000000E+00 0.  1.
         11    1    3    3    0    0 -0.22801662929E+01 -0.15427670542E+02 -0.56549600746E+01  0.16588874296E+02  0.51100000000E-03 0. -1.
        -11    1    3    3    0    0 -0.43502203004E+01  0.22604751655E+02 -0.22071995677E+02  0.31891569536E+02  0.51100000000E-03 0.  1.
         12    1    3    3    0    0  0.17816191647E+02  0.20979690178E+01  0.15914613916E+02  0.23981098701E+02  0.00000000000E+00 0. -1.
</event>
<event>
 7    1  0.2700104E-013  0.7246156E+02  0.7816164E-02  0.1226708E+00
        -11   -1    0    0    0    0  0.00000000000E+00  0.00000000000E+00  0.45593999997E+02  0.45594000000E+02  0.51100000000E-03 0. -1.
         11   -1    0    0    0    0 -0.00000000000E+00 -0.00000000000E+00 -0.45593999997E+02  0.45594000000E+02  0.51100000000E-03 0.  1.
    9900012    2    1    2    0    0 -0.17418554163E+02  0.22251959496E+00  0.68719633947E+01  0.72461563473E+02  0.69999991114E+02 0.  0.
        -12    1    1    2    0    0  0.17418554163E+02 -0.22251959496E+00 -0.68719633947E+01  0.18726436527E+02  0.00000000000E+00 0.  1.
         11    1    3    3    0    0 -0.47390729032E+01  0.29108785224E+01  0.79103482308E+01  0.96698311850E+01  0.51100000000E-03 0. -1.
        -11    1    3    3    0    0 -0.57179820196E+01 -0.31970881073E+02 -0.30801269418E+01  0.32623913579E+02  0.51100000000E-03 0.  1.
         12    1    3    3    0    0 -0.69614992402E+01  0.29282522145E+02  0.20417421058E+01  0.30167818709E+02  0.00000000000E+00 0. -1.
</event>
<event>
 7    1  0.2700104E-013  0.7246154E+02  0.7816164E-02  0.1226708E+00
        -11   -1    0    0    0    0  0.00000000000E+00  0.00000000000E+00  0.45593999997E+02  0.45594000000E+02  0.51100000000E-03 0.  1.
         11   -1    0    0    0    0 -0.00000000000E+00 -0.00000000000E+00 -0.45593999997E+02  0.45594000000E+02  0.51100000000E-03 0. -1.
    9900012    2    1    2    0    0 -0.66704920782E+01 -0.17316837584E+02  0.25123490139E+01  0.72461542085E+02  0.69999963252E+02 0.  0.
        -12    1    1    2    0    0  0.66704920782E+01  0.17316837584E+02 -0.25123490139E+01  0.18726457915E+02  0.00000000000E+00 0.  1.
         11    1    3    3    0    0  0.32120351729E+01 -0.45285731179E+01  0.84162366402E+01  0.10082568318E+02  0.51100000000E-03 0. -1.
        -11    1    3    3    0    0 -0.74958752070E+01 -0.16292887867E+02  0.25231600558E+02  0.30956098061E+02  0.51100000000E-03 0.  1.
         12    1    3    3    0    0 -0.23866520442E+01  0.35046234014E+01 -0.31135488184E+02  0.31422875706E+02  0.00000000000E+00 0. -1.
</event>
<event>
 7    1  0.2700104E-013  0.7246157E+02  0.7816164E-02  0.1226708E+00
        -11   -1    0    0    0    0  0.00000000000E+00  0.00000000000E+00  0.45593999997E+02  0.45594000000E+02  0.51100000000E-03 0. -1.
         11   -1    0    0    0    0 -0.00000000000E+00 -0.00000000000E+00 -0.45593999997E+02  0.45594000000E+02  0.51100000000E-03 0.  1.
    9900012    2    1    2    0    0 -0.60795669129E+01 -0.17629604321E+02 -0.17073728885E+01  0.72461569359E+02  0.69999998781E+02 0.  0.
        -12    1    1    2    0    0  0.60795669129E+01  0.17629604321E+02  0.17073728885E+01  0.18726430641E+02  0.00000000000E+00 0.  1.
         11    1    3    3    0    0  0.19026238939E+01  0.56630461188E+01 -0.17326553689E+01  0.62203025580E+01  0.51100000000E-03 0. -1.
        -11    1    3    3    0    0  0.16446919099E+02  0.12689459934E+02  0.75523142902E+01  0.22103415860E+02  0.51100000000E-03 0.  1.
         12    1    3    3    0    0 -0.24429109906E+02 -0.35982110375E+02 -0.75270318098E+01  0.44137850941E+02  0.00000000000E+00 0. -1.
</event>
<event>
 7    1  0.2700104E-013  0.7246147E+02  0.7816164E-02  0.1226708E+00
        -11   -1    0    0    0    0  0.00000000000E+00  0.00000000000E+00  0.45593999997E+02  0.45594000000E+02  0.51100000000E-03 0.  1.
         11   -1    0    0    0    0 -0.00000000000E+00 -0.00000000000E+00 -0.45593999997E+02  0.45594000000E+02  0.51100000000E-03 0. -1.
    9900012    2    1    2    0    0  0.87649521992E+01 -0.72546511748E+01 -0.14873757311E+02  0.72461467826E+02  0.69999866516E+02 0.  0.
        -12    1    1    2    0    0 -0.87649521992E+01  0.72546511748E+01  0.14873757311E+02  0.18726532174E+02  0.00000000000E+00 0.  1.
         11    1    3    3    0    0  0.47392364070E+00  0.23623455562E+01  0.22931822470E+01  0.33262539325E+01  0.51100000000E-03 0. -1.
        -11    1    3    3    0    0 -0.51966260245E+01 -0.36513059894E+02 -0.93224171417E+01  0.38040976939E+02  0.51100000000E-03 0.  1.
         12    1    3    3    0    0  0.13487654583E+02  0.26896063163E+02 -0.78445224163E+01  0.31094236954E+02  0.00000000000E+00 0. -1.
</event>
<event>
 7    1  0.2700104E-013  0.7246154E+02  0.7816164E-02  0.1226708E+00
        -11   -1    0    0    0    0  0.00000000000E+00  0.00000000000E+00  0.45593999997E+02  0.45594000000E+02  0.51100000000E-03 0.  1.
         11   -1    0    0    0    0 -0.00000000000E+00 -0.00000000000E+00 -0.45593999997E+02  0.45594000000E+02  0.51100000000E-03 0. -1.
    9900012    2    1    2    0    0  0.18110187523E+02  0.47644910462E+01 -0.34159125966E-01  0.72461536535E+02  0.69999956022E+02 0.  0.
        -12    1    1    2    0    0 -0.18110187523E+02 -0.47644910462E+01  0.34159125966E-01  0.18726463465E+02  0.00000000000E+00 0.  1.
         11    1    3    3    0    0  0.40541193079E+02  0.37390213849E+01 -0.66881556240E+01  0.41258938948E+02  0.51100000000E-03 0. -1.
        -11    1    3    3    0    0 -0.86786230524E+01 -0.35611524918E+01 -0.66717951331E+01  0.11511435867E+02  0.51100000000E-03 0.  1.
        -12    1    3    3    0    0 -0.13752382503E+02  0.45866221530E+01  0.13325791631E+02  0.19691161720E+02  0.00000000000E+00 0.  1.
</event>
<event>
 7    1  0.2700104E-013  0.7246162E+02  0.7816164E-02  0.1226708E+00
        -11   -1    0    0    0    0  0.00000000000E+00  0.00000000000E+00  0.45593999997E+02  0.45594000000E+02  0.51100000000E-03 0. -1.
         11   -1    0    0    0    0 -0.00000000000E+00 -0.00000000000E+00 -0.45593999997E+02  0.45594000000E+02  0.51100000000E-03 0.  1.
    9900012    2    1    2    0    0  0.12051281382E+02  0.61411560140E+01  0.12951072868E+02  0.72461615710E+02  0.70000059162E+02 0.  0.
        -12    1    1    2    0    0 -0.12051281382E+02 -0.61411560140E+01 -0.12951072868E+02  0.18726384290E+02  0.00000000000E+00 0.  1.
         11    1    3    3    0    0  0.47385760351E+01  0.22032216914E+02  0.12433425304E+02  0.25738351735E+02  0.51100000000E-03 0. -1.
        -11    1    3    3    0    0  0.20136449486E+02 -0.15480972071E+02  0.13249787257E+02  0.28647756575E+02  0.51100000000E-03 0.  1.
         12    1    3    3    0    0 -0.12823744139E+02 -0.41008882877E+00 -0.12732139693E+02  0.18075507400E+02  0.00000000000E+00 0. -1.
</event>
<event>
 7    1  0.2700104E-013  0.7246145E+02  0.7816164E-02  0.1226708E+00
        -11   -1    0    0    0    0  0.00000000000E+00  0.00000000000E+00  0.45593999997E+02  0.45594000000E+02  0.51100000000E-03 0. -1.
         11   -1    0    0    0    0 -0.00000000000E+00 -0.00000000000E+00 -0.45593999997E+02  0.45594000000E+02  0.51100000000E-03 0.  1.
    9900012    2    1    2    0    0 -0.34408380229E+01 -0.15233410519E+02 -0.10333807356E+02  0.72461448347E+02  0.69999841141E+02 0.  0.
        -12    1    1    2    0    0  0.34408380229E+01  0.15233410519E+02  0.10333807356E+02  0.18726551653E+02  0.00000000000E+00 0.  1.
         11    1    3    3    0    0 -0.21469224516E+01  0.13536657042E+01  0.17140895362E+01  0.30626442907E+01  0.51100000000E-03 0. -1.
        -11    1    3    3    0    0  0.69724689615E+01  0.20766725040E+02  0.11229210691E+02  0.24616404394E+02  0.51100000000E-03 0.  1.
         12    1    3    3    0    0 -0.82663845328E+01 -0.37353801263E+02 -0.23277107583E+02  0.44782399662E+02  0.00000000000E+00 0. -1.
</event>
<event>
 7    1  0.2700104E-013  0.7246148E+02  0.7816164E-02  0.1226708E+00
        -11   -1    0    0    0    0  0.00000000000E+00  0.00000000000E+00  0.45593999997E+02  0.45594000000E+02  0.51100000000E-03 0. -1.
         11   -1    0    0    0    0 -0.00000000000E+00 -0.00000000000E+00 -0.45593999997E+02  0.45594000000E+02  0.51100000000E-03 0.  1.
    9900012    2    1    2    0    0 -0.14843534945E+02 -0.51467448670E+01  0.10191324960E+02  0.72461478250E+02  0.69999880096E+02 0.  0.
        -12    1    1    2    0    0  0.14843534945E+02  0.51467448670E+01 -0.10191324960E+02  0.18726521750E+02  0.00000000000E+00 0.  1.
         11    1    3    3    0    0  0.92821102495E+01  0.68370685557E+01 -0.36107794469E+01  0.12080596243E+02  0.51100000000E-03 0. -1.
        -11    1    3    3    0    0 -0.14917504659E+01  0.65269121282E+01 -0.16782227362E+02  0.18068454745E+02  0.51100000000E-03 0.  1.
         12    1    3    3    0    0 -0.22633894729E+02 -0.18510725551E+02  0.30584331769E+02  0.42312427262E+02  0.00000000000E+00 0. -1.
</event>
<event>
 7    1  0.2700104E-013  0.7246163E+02  0.7816164E-02  0.1226708E+00
        -11   -1    0    0    0    0  0.00000000000E+00  0.00000000000E+00  0.45593999997E+02  0.45594000000E+02  0.51100000000E-03 0.  1.
         11   -1    0    0    0    0 -0.00000000000E+00 -0.00000000000E+00 -0.45593999997E+02  0.45594000000E+02  0.51100000000E-03 0. -1.
    9900012    2    1    2    0    0 -0.13885811771E+02  0.82423915905E+01 -0.94828352456E+01  0.72461629503E+02  0.70000077131E+02 0.  0.
        -12    1    1    2    0    0  0.13885811771E+02 -0.82423915905E+01  0.94828352456E+01  0.18726370497E+02  0.00000000000E+00 0.  1.
         11    1    3    3    0    0 -0.19667672594E+02 -0.69327796717E+00 -0.16303614329E+02  0.25555935124E+02  0.51100000000E-03 0. -1.
        -11    1    3    3    0    0 -0.67919231219E+01  0.18037552546E+02 -0.11849893080E+02  0.22625284259E+02  0.51100000000E-03 0.  1.
         12    1    3    3    0    0  0.12573783944E+02 -0.91018829882E+01  0.18670672163E+02  0.24280410121E+02  0.00000000000E+00 0. -1.
</event>
<event>
 7    1  0.2700104E-013  0.7246158E+02  0.7816164E-02  0.1226708E+00
        -11   -1    0    0    0    0  0.00000000000E+00  0.00000000000E+00  0.45593999997E+02  0.45594000000E+02  0.51100000000E-03 0. -1.
         11   -1    0    0    0    0 -0.00000000000E+00 -0.00000000000E+00 -0.45593999997E+02  0.45594000000E+02  0.51100000000E-03 0.  1.
    9900012    2    1    2    0    0 -0.78907876724E+01  0.61309612128E+01  0.15837469415E+02  0.72461584087E+02  0.70000017967E+02 0.  0.
        -12    1    1    2    0    0  0.78907876724E+01 -0.61309612128E+01 -0.15837469415E+02  0.18726415913E+02  0.00000000000E+00 0.  1.
         11    1    3    3    0    0 -0.71219279628E+01  0.91369905935E+01  0.89605253286E-01  0.11585097513E+02  0.51100000000E-03 0. -1.
        -11    1    3    3    0    0  0.27614261633E+02 -0.18002883939E+01 -0.13740799594E+01  0.27706977097E+02  0.51100000000E-03 0.  1.
         12    1    3    3    0    0 -0.28383121343E+02 -0.12057409868E+01  0.17121944121E+02  0.33169509477E+02  0.00000000000E+00 0. -1.
</event>
<event>
 7    1  0.2700104E-013  0.7246159E+02  0.7816164E-02  0.1226708E+00
        -11   -1    0    0    0    0  0.00000000000E+00  0.00000000000E+00  0.45593999997E+02  0.45594000000E+02  0.51100000000E-03 0.  1.
         11   -1    0    0    0    0 -0.00000000000E+00 -0.00000000000E+00 -0.45593999997E+02  0.45594000000E+02  0.51100000000E-03 0. -1.
    9900012    2    1    2    0    0  0.58734928727E+01  0.10782563846E+02 -0.14139188936E+02  0.72461594435E+02  0.70000031447E+02 0.  0.
        -12    1    1    2    0    0 -0.58734928727E+01 -0.10782563846E+02  0.14139188936E+02  0.18726405565E+02  0.00000000000E+00 0.  1.
         11    1    3    3    0    0  0.13490833212E+02 -0.10385911532E+02 -0.11955035661E+02  0.20803668354E+02  0.51100000000E-03 0. -1.
        -11    1    3    3    0    0  0.11580480427E+02  0.11506637469E+02 -0.18500934805E+02  0.24673767886E+02  0.51100000000E-03 0.  1.
        -12    1    3    3    0    0 -0.19197820766E+02  0.96618379089E+01  0.16316781530E+02  0.26984158194E+02  0.00000000000E+00 0.  1.
</event>
<event>
 7    1  0.2700104E-013  0.7246166E+02  0.7816164E-02  0.1226708E+00
        -11   -1    0    0    0    0  0.00000000000E+00  0.00000000000E+00  0.45593999997E+02  0.45594000000E+02  0.51100000000E-03 0. -1.
         11   -1    0    0    0    0 -0.00000000000E+00 -0.00000000000E+00 -0.45593999997E+02  0.45594000000E+02  0.51100000000E-03 0.  1.
    9900012    2    1    2    0    0 -0.71767883722E+01 -0.13381422496E+00  0.17296005024E+02  0.72461655258E+02  0.70000110681E+02 0.  0.
        -12    1    1    2    0    0  0.71767883722E+01  0.13381422496E+00 -0.17296005024E+02  0.18726344742E+02  0.00000000000E+00 0.  1.
         11    1    3    3    0    0 -0.27897815582E+02 -0.12619104237E+02  0.13237726543E+02  0.33358167070E+02  0.51100000000E-03 0. -1.
        -11    1    3    3    0    0 -0.60509731106E+01 -0.41784057047E+01  0.53568875735E+00  0.73729446305E+01  0.51100000000E-03 0.  1.
        -12    1    3    3    0    0  0.26772000321E+02  0.16663695717E+02  0.35225897236E+01  0.31730543558E+02  0.00000000000E+00 0.  1.
</event>
<event>
 7    1  0.2700104E-013  0.7246164E+02  0.7816164E-02  0.1226708E+00
        -11   -1    0    0    0    0  0.00000000000E+00  0.00000000000E+00  0.45593999997E+02  0.45594000000E+02  0.51100000000E-03 0. -1.
         11   -1    0    0    0    0 -0.00000000000E+00 -0.00000000000E+00 -0.45593999997E+02  0.45594000000E+02  0.51100000000E-03 0.  1.
    9900012    2    1    2    0    0  0.14886603243E+02  0.10865076291E+02  0.33190181718E+01  0.72461635682E+02  0.70000085180E+02 0.  0.
        -12    1    1    2    0    0 -0.14886603243E+02 -0.10865076291E+02 -0.33190181718E+01  0.18726364318E+02  0.00000000000E+00 0.  1.
         11    1    3    3    0    0  0.20448891822E+02  0.61756151999E+01  0.29117844082E+02  0.36112937351E+02  0.51100000000E-03 0.  1.
        -11    1    3    3    0    0  0.74343734300E+01  0.30774197513E+01 -0.74763871448E+00  0.80808034582E+01  0.51100000000E-03 0. -1.
        -12    1    3    3    0    0 -0.12996662009E+02  0.16120413400E+01 -0.25051187196E+02  0.28267894873E+02  0.00000000000E+00 0.  1.
</event>
<event>
 7    1  0.2700104E-013  0.7246157E+02  0.7816164E-02  0.1226708E+00
        -11   -1    0    0    0    0  0.00000000000E+00  0.00000000000E+00  0.45593999997E+02  0.45594000000E+02  0.51100000000E-03 0.  1.
         11   -1    0    0    0    0 -0.00000000000E+00 -0.00000000000E+00 -0.45593999997E+02  0.45594000000E+02  0.51100000000E-03 0. -1.
    9900012    2    1    2    0    0  0.17651147507E+02 -0.50755286794E+01 -0.36544815123E+01  0.72461568551E+02  0.69999997729E+02 0.  0.
        -12    1    1    2    0    0 -0.17651147507E+02  0.50755286794E+01  0.36544815123E+01  0.18726431449E+02  0.00000000000E+00 0.  1.
         11    1    3    3    0    0  0.76356923983E+00 -0.75143313856E+01  0.75877738038E+01  0.10706190999E+02  0.51100000000E-03 0. -1.
        -11    1    3    3    0    0 -0.16828197975E+02  0.10540902294E+02  0.87831399881E+01  0.21712724762E+02  0.51100000000E-03 0.  1.
         12    1    3    3    0    0  0.33715776243E+02 -0.81020995876E+01 -0.20025395304E+02  0.40042652790E+02  0.00000000000E+00 0. -1.
</event>
<event>
 7    1  0.4584962E-013  0.7246127E+02  0.7816164E-02  0.1226709E+00
        -11   -1    0    0    0    0  0.00000000000E+00  0.00000000000E+00  0.45593999997E+02  0.45594000000E+02  0.51100000000E-03 0. -1.
         11   -1    0    0    0    0 -0.00000000000E+00 -0.00000000000E+00 -0.45593999997E+02  0.45594000000E+02  0.51100000000E-03 0.  1.
    9900012    2    1    2    0    0  0.42983054811E+01  0.39935283531E+01  0.17783885734E+02  0.72461273363E+02  0.69999613191E+02 0.  0.
        -12    1    1    2    0    0 -0.42983054811E+01 -0.39935283531E+01 -0.17783885734E+02  0.18726726637E+02  0.00000000000E+00 0.  1.
         11    1    3    3    0    0 -0.10173233687E+02  0.76719922715E+01  0.37735047621E+02  0.39828230795E+02  0.51100000000E-03 0. -1.
        -11    1    3    3    0    0  0.38461667812E+01  0.21896922699E+01  0.38819189067E+01  0.58870235098E+01  0.51100000000E-03 0.  1.
        -12    1    3    3    0    0  0.10625372387E+02 -0.58681561883E+01 -0.23833080793E+02  0.26746019059E+02  0.00000000000E+00 0.  1.
</event>
<event>
 7    1  0.2700104E-013  0.7246156E+02  0.7816164E-02  0.1226708E+00
        -11   -1    0    0    0    0  0.00000000000E+00  0.00000000000E+00  0.45593999997E+02  0.45594000000E+02  0.51100000000E-03 0. -1.
         11   -1    0    0    0    0 -0.00000000000E+00 -0.00000000000E+00 -0.45593999997E+02  0.45594000000E+02  0.51100000000E-03 0.  1.
    9900012    2    1    2    0    0 -0.48992802520E+01  0.16400727247E+02  0.75955752025E+01  0.72461559765E+02  0.69999986284E+02 0.  0.
        -12    1    1    2    0    0  0.48992802520E+01 -0.16400727247E+02 -0.75955752025E+01  0.18726440235E+02  0.00000000000E+00 0.  1.
         11    1    3    3    0    0 -0.12648043785E+02  0.34330113645E+02  0.72077010090E+01  0.37289149475E+02  0.51100000000E-03 0. -1.
        -11    1    3    3    0    0  0.61777872517E+01  0.44043857511E+01  0.84682702821E+01  0.11369928364E+02  0.51100000000E-03 0.  1.
        -12    1    3    3    0    0  0.15709762813E+01 -0.22333772150E+02 -0.80803960886E+01  0.23802481926E+02  0.00000000000E+00 0.  1.
</event>
<event>
 7    1  0.2700104E-013  0.7246153E+02  0.7816164E-02  0.1226708E+00
        -11   -1    0    0    0    0  0.00000000000E+00  0.00000000000E+00  0.45593999997E+02  0.45594000000E+02  0.51100000000E-03 0.  1.
         11   -1    0    0    0    0 -0.00000000000E+00 -0.00000000000E+00 -0.45593999997E+02  0.45594000000E+02  0.51100000000E-03 0. -1.
    9900012    2    1    2    0    0  0.11598509057E+02 -0.72935863844E+01 -0.12765527811E+02  0.72461534371E+02  0.69999953203E+02 0.  0.
        -12    1    1    2    0    0 -0.11598509057E+02  0.72935863844E+01  0.12765527811E+02  0.18726465629E+02  0.00000000000E+00 0.  1.
         11    1    3    3    0    0  0.37240263044E+01 -0.14101432700E+02 -0.22249584349E+02  0.26603811383E+02  0.51100000000E-03 0. -1.
        -11    1    3    3    0    0 -0.16944979537E+02 -0.36581544314E+01  0.73764468800E+01  0.18839490285E+02  0.51100000000E-03 0.  1.
         12    1    3    3    0    0  0.24819462289E+02  0.10466000747E+02  0.21076096589E+01  0.27018232704E+02  0.00000000000E+00 0. -1.
</event>
<event>
 7    1  0.2700104E-013  0.7246156E+02  0.7816164E-02  0.1226708E+00
        -11   -1    0    0    0    0  0.00000000000E+00  0.00000000000E+00  0.45593999997E+02  0.45594000000E+02  0.51100000000E-03 0.  1.
         11   -1    0    0    0    0 -0.00000000000E+00 -0.00000000000E+00 -0.45593999997E+02  0.45594000000E+02  0.51100000000E-03 0. -1.
    9900012    2    1    2    0    0  0.15167463503E+02  0.13737106283E+01 -0.10896807680E+02  0.72461562869E+02  0.69999990327E+02 0.  0.
        -12    1    1    2    0    0 -0.15167463503E+02 -0.13737106283E+01  0.10896807680E+02  0.18726437131E+02  0.00000000000E+00 0.  1.
         11    1    3    3    0    0  0.18421600047E+02  0.23523603537E+01 -0.19299628090E+02  0.26783662785E+02  0.51100000000E-03 0. -1.
        -11    1    3    3    0    0 -0.63051274795E+01  0.17318570413E+02  0.17144166143E+02  0.25171609934E+02  0.51100000000E-03 0.  1.
         12    1    3    3    0    0  0.30509909360E+01 -0.18297220138E+02 -0.87413457330E+01  0.20506290150E+02  0.00000000000E+00 0. -1.
</event>
<event>
 7    1  0.2700104E-013  0.7246156E+02  0.7816164E-02  0.1226708E+00
        -11   -1    0    0    0    0  0.00000000000E+00  0.00000000000E+00  0.45593999997E+02  0.45594000000E+02  0.51100000000E-03 0.  1.
         11   -1    0    0    0    0 -0.00000000000E+00 -0.00000000000E+00 -0.45593999997E+02  0.45594000000E+02  0.51100000000E-03 0. -1.
    9900012    2    1    2    0    0 -0.10788208222E+02  0.13604792161E+02  0.70145341040E+01  0.72461561601E+02  0.69999988676E+02 0.  0.
        -12    1    1    2    0    0  0.10788208222E+02 -0.13604792161E+02 -0.70145341040E+01  0.18726438399E+02  0.00000000000E+00 0.  1.
         11    1    3    3    0    0 -0.15111248718E+02  0.27611139509E+02 -0.90516986427E+01  0.32751459683E+02  0.51100000000E-03 0. -1.
        -11    1    3    3    0    0  0.33473649072E+01  0.10732908881E+02  0.74857332786E+01  0.13506901490E+02  0.51100000000E-03 0.  1.
        -12    1    3    3    0    0  0.97567558906E+00 -0.24739256228E+02  0.85804994681E+01  0.26203200429E+02  0.00000000000E+00 0.  1.
</event>
<event>
 7    1  0.2700104E-013  0.7246147E+02  0.7816164E-02  0.1226708E+00
        -11   -1    0    0    0    0  0.00000000000E+00  0.00000000000E+00  0.45593999997E+02  0.45594000000E+02  0.51100000000E-03 0.  1.
         11   -1    0    0    0    0 -0.00000000000E+00 -0.00000000000E+00 -0.45593999997E+02  0.45594000000E+02  0.51100000000E-03 0. -1.
    9900012    2    1    2    0    0 -0.68985327216E+01  0.15110233352E+02 -0.86471902163E+01  0.72461473245E+02  0.69999873575E+02 0.  0.
        -12    1    1    2    0    0  0.68985327216E+01 -0.15110233352E+02  0.86471902163E+01  0.18726526755E+02  0.00000000000E+00 0.  1.
         11    1    3    3    0    0 -0.25761918865E+02  0.61025183591E+01 -0.20953679233E+01  0.26557630936E+02  0.51100000000E-03 0. -1.
        -11    1    3    3    0    0  0.12919165950E+02 -0.53119449999E+01  0.14253349316E+02  0.19956943040E+02  0.51100000000E-03 0.  1.
        -12    1    3    3    0    0  0.59442201937E+01  0.14319659993E+02 -0.20805171609E+02  0.25946899269E+02  0.00000000000E+00 0.  1.
</event>
<event>
 7    1  0.2700104E-013  0.7246157E+02  0.7816164E-02  0.1226708E+00
        -11   -1    0    0    0    0  0.00000000000E+00  0.00000000000E+00  0.45593999997E+02  0.45594000000E+02  0.51100000000E-03 0. -1.
         11   -1    0    0    0    0 -0.00000000000E+00 -0.00000000000E+00 -0.45593999997E+02  0.45594000000E+02  0.51100000000E-03 0.  1.
    9900012    2    1    2    0    0  0.17931780029E+02  0.88085713140E+00 -0.53249055704E+01  0.72461567782E+02  0.69999996727E+02 0.  0.
        -12    1    1    2    0    0 -0.17931780029E+02 -0.88085713140E+00  0.53249055704E+01  0.18726432218E+02  0.00000000000E+00 0.  1.
         11    1    3    3    0    0  0.11522011237E+02 -0.18845896709E+02  0.16432304981E+02  0.27530804800E+02  0.51100000000E-03 0. -1.
        -11    1    3    3    0    0  0.11213159637E+02 -0.54742011757E+01 -0.12486054029E+02  0.17652290873E+02  0.51100000000E-03 0.  1.
        -12    1    3    3    0    0 -0.48033908456E+01  0.25200955016E+02 -0.92711565219E+01  0.27278472109E+02  0.00000000000E+00 0.  1.
</event>
<event>
 7    1  0.2700104E-013  0.7246150E+02  0.7816164E-02  0.1226708E+00
        -11   -1    0    0    0    0  0.00000000000E+00  0.00000000000E+00  0.45593999997E+02  0.45594000000E+02  0.51100000000E-03 0. -1.
         11   -1    0    0    0    0 -0.00000000000E+00 -0.00000000000E+00 -0.45593999997E+02  0.45594000000E+02  0.51100000000E-03 0.  1.
    9900012    2    1    2    0    0  0.15896214096E+02 -0.35202102239E+01  0.92520513000E+01  0.72461495898E+02  0.69999903085E+02 0.  0.
        -12    1    1    2    0    0 -0.15896214096E+02  0.35202102239E+01 -0.92520513000E+01  0.18726504102E+02  0.00000000000E+00 0.  1.
         11    1    3    3    0    0  0.92836693682E+01 -0.13692324021E+02 -0.11045154281E+01  0.16579692658E+02  0.51100000000E-03 0. -1.
        -11    1    3    3    0    0  0.73837944668E+01 -0.19754588193E+02 -0.57880563140E+01  0.21869288318E+02  0.51100000000E-03 0.  1.
         12    1    3    3    0    0 -0.77124973874E+00  0.29926701990E+02  0.16144623042E+02  0.34012514922E+02  0.00000000000E+00 0. -1.
</event>
<event>
 7    1  0.2700104E-013  0.7246155E+02  0.7816164E-02  0.1226708E+00
        -11   -1    0    0    0    0  0.00000000000E+00  0.00000000000E+00  0.45593999997E+02  0.45594000000E+02  0.51100000000E-03 0. -1.
         11   -1    0    0    0    0 -0.00000000000E+00 -0.00000000000E+00 -0.45593999997E+02  0.45594000000E+02  0.51100000000E-03 0.  1.
    9900012    2    1    2    0    0 -0.13519422585E+02 -0.16477568982E+00  0.12956767231E+02  0.72461554658E+02  0.69999979630E+02 0.  0.
        -12    1    1    2    0    0  0.13519422585E+02  0.16477568982E+00 -0.12956767231E+02  0.18726445342E+02  0.00000000000E+00 0.  1.
         11    1    3    3    0    0 -0.19105686216E+01  0.11188052871E+02  0.73766255265E+00  0.11373959109E+02  0.51100000000E-03 0. -1.
        -11    1    3    3    0    0 -0.19947594580E+02  0.17614735805E+02  0.15449184078E+02  0.30771134784E+02  0.51100000000E-03 0.  1.
         12    1    3    3    0    0  0.83387406157E+01 -0.28967564366E+02 -0.32300793988E+01  0.30316460764E+02  0.00000000000E+00 0. -1.
</event>
<event>
 7    1  0.2700104E-013  0.7246159E+02  0.7816164E-02  0.1226708E+00
        -11   -1    0    0    0    0  0.00000000000E+00  0.00000000000E+00  0.45593999997E+02  0.45594000000E+02  0.51100000000E-03 0.  1.
         11   -1    0    0    0    0 -0.00000000000E+00 -0.00000000000E+00 -0.45593999997E+02  0.45594000000E+02  0.51100000000E-03 0. -1.
    9900012    2    1    2    0    0 -0.13232728000E+02 -0.25371359129E+01 -0.13005237395E+02  0.72461592212E+02  0.70000028551E+02 0.  0.
        -12    1    1    2    0    0  0.13232728000E+02  0.25371359129E+01  0.13005237395E+02  0.18726407788E+02  0.00000000000E+00 0.  1.
         11    1    3    3    0    0  0.32926281745E+01 -0.12582716261E+02 -0.25041450479E+02  0.28217731857E+02  0.51100000000E-03 0. -1.
        -11    1    3    3    0    0 -0.88624395335E+01 -0.14010081450E+02  0.76516371185E+00  0.16595502176E+02  0.51100000000E-03 0.  1.
         12    1    3    3    0    0 -0.76629166405E+01  0.24055661798E+02  0.11271049372E+02  0.27648358178E+02  0.00000000000E+00 0. -1.
</event>
<event>
 7    1  0.2700104E-013  0.7246160E+02  0.7816164E-02  0.1226708E+00
        -11   -1    0    0    0    0  0.00000000000E+00  0.00000000000E+00  0.45593999997E+02  0.45594000000E+02  0.51100000000E-03 0. -1.
         11   -1    0    0    0    0 -0.00000000000E+00 -0.00000000000E+00 -0.45593999997E+02  0.45594000000E+02  0.51100000000E-03 0.  1.
    9900012    2    1    2    0    0  0.11033487522E+02  0.70685744386E+01  0.13378173226E+02  0.72461598575E+02  0.70000036840E+02 0.  0.
        -12    1    1    2    0    0 -0.11033487522E+02 -0.70685744386E+01 -0.13378173226E+02  0.18726401425E+02  0.00000000000E+00 0.  1.
         11    1    3    3    0    0  0.48741796438E+01 -0.77828891014E+01  0.20847552901E+02  0.22780505969E+02  0.51100000000E-03 0. -1.
        -11    1    3    3    0    0  0.13512097355E+02  0.29061481727E+02 -0.60188525654E-01  0.32049182798E+02  0.51100000000E-03 0.  1.
         12    1    3    3    0    0 -0.73527894777E+01 -0.14210018187E+02 -0.74091911500E+01  0.17631909808E+02  0.00000000000E+00 0. -1.
</event>
<event>
 7    1  0.2700104E-013  0.7246153E+02  0.7816164E-02  0.1226708E+00
        -11   -1    0    0    0    0  0.00000000000E+00  0.00000000000E+00  0.45593999997E+02  0.45594000000E+02  0.51100000000E-03 0.  1.
         11   -1    0    0    0    0 -0.00000000000E+00 -0.00000000000E+00 -0.45593999997E+02  0.45594000000E+02  0.51100000000E-03 0. -1.
    9900012    2    1    2    0    0 -0.43143113748E+01 -0.41704378823E+01 -0.17739072503E+02  0.72461534022E+02  0.69999952748E+02 0.  0.
        -12    1    1    2    0    0  0.43143113748E+01  0.41704378823E+01  0.17739072503E+02  0.18726465978E+02  0.00000000000E+00 0.  1.
         11    1    3    3    0    0  0.14722912995E+02  0.21031559019E+01 -0.53513068761E+01  0.15805819098E+02  0.51100000000E-03 0. -1.
        -11    1    3    3    0    0 -0.11483703465E+02 -0.80331698313E+01  0.19401639947E+02  0.23933885930E+02  0.51100000000E-03 0.  1.
         12    1    3    3    0    0 -0.75535209050E+01  0.17595760471E+01 -0.31789405574E+02  0.32721828994E+02  0.00000000000E+00 0. -1.
</event>
<event>
 7    1  0.2700104E-013  0.7246145E+02  0.7816164E-02  0.1226708E+00
        -11   -1    0    0    0    0  0.00000000000E+00  0.00000000000E+00  0.45593999997E+02  0.45594000000E+02  0.51100000000E-03 0.  1.
         11   -1    0    0    0    0 -0.00000000000E+00 -0.00000000000E+00 -0.45593999997E+02  0.45594000000E+02  0.51100000000E-03 0. -1.
    9900012    2    1    2    0    0 -0.72718098383E+01  0.21813276958E+01  0.17118597362E+02  0.72461447074E+02  0.69999839482E+02 0.  0.
        -12    1    1    2    0    0  0.72718098383E+01 -0.21813276958E+01 -0.17118597362E+02  0.18726552926E+02  0.00000000000E+00 0.  1.
         11    1    3    3    0    0 -0.21475562463E+02 -0.10526666025E+02  0.16412105722E+01  0.23972985903E+02  0.51100000000E-03 0. -1.
        -11    1    3    3    0    0 -0.26399172525E+01 -0.37073542173E+01  0.23270468788E+02  0.23711355007E+02  0.51100000000E-03 0.  1.
         12    1    3    3    0    0  0.16843669877E+02  0.16415347938E+02 -0.77930819977E+01  0.24777106164E+02  0.00000000000E+00 0. -1.
</event>
<event>
 7    1  0.2700104E-013  0.7246136E+02  0.7816164E-02  0.1226709E+00
        -11   -1    0    0    0    0  0.00000000000E+00  0.00000000000E+00  0.45593999997E+02  0.45594000000E+02  0.51100000000E-03 0.  1.
         11   -1    0    0    0    0 -0.00000000000E+00 -0.00000000000E+00 -0.45593999997E+02  0.45594000000E+02  0.51100000000E-03 0. -1.
    9900012    2    1    2    0    0  0.74099654404E+01  0.14459327245E+02 -0.93116817088E+01  0.72461357257E+02  0.69999722478E+02 0.  0.
        -12    1    1    2    0    0 -0.74099654404E+01 -0.14459327245E+02  0.93116817088E+01  0.18726642743E+02  0.00000000000E+00 0.  1.
         11    1    3    3    0    0  0.26347315308E+02  0.21494705179E+02 -0.68052892430E+01  0.34677302903E+02  0.51100000000E-03 0. -1.
        -11    1    3    3    0    0 -0.47323235035E+01  0.10686231561E+02  0.64745782417E+01  0.13360785695E+02  0.51100000000E-03 0.  1.
         12    1    3    3    0    0 -0.14205026364E+02 -0.17721609496E+02 -0.89809707075E+01  0.24423268659E+02  0.00000000000E+00 0. -1.
</event>
<event>
 7    1  0.2700104E-013  0.7246158E+02  0.7816164E-02  0.1226708E+00
        -11   -1    0    0    0    0  0.00000000000E+00  0.00000000000E+00  0.45593999997E+02  0.45594000000E+02  0.51100000000E-03 0.  1.
         11   -1    0    0    0    0 -0.00000000000E+00 -0.00000000000E+00 -0.45593999997E+02  0.45594000000E+02  0.51100000000E-03 0. -1.
    9900012    2    1    2    0    0  0.72645197650E+01 -0.15654461068E+02  0.72693500338E+01  0.72461578862E+02  0.70000011160E+02 0.  0.
        -12    1    1    2    0    0 -0.72645197650E+01  0.15654461068E+02 -0.72693500338E+01  0.18726421138E+02  0.00000000000E+00 0.  1.
         11    1    3    3    0    0 -0.58238609462E+01 -0.94690817531E+01 -0.21376380009E+02  0.24094200301E+02  0.51100000000E-03 0. -1.
        -11    1    3    3    0    0  0.10240788518E+02 -0.17381695753E+02  0.32059870341E+01  0.20427321162E+02  0.51100000000E-03 0.  1.
        -12    1    3    3    0    0  0.28475921928E+01  0.11196316439E+02  0.25439743009E+02  0.27940057399E+02  0.00000000000E+00 0.  1.
</event>
<event>
 7    1  0.2700104E-013  0.7246223E+02  0.7816164E-02  0.1226706E+00
        -11   -1    0    0    0    0  0.00000000000E+00  0.00000000000E+00  0.45593999997E+02  0.45594000000E+02  0.51100000000E-03 0.  1.
         11   -1    0    0    0    0 -0.00000000000E+00 -0.00000000000E+00 -0.45593999997E+02  0.45594000000E+02  0.51100000000E-03 0. -1.
    9900012    2    1    2    0    0 -0.94517308657E+01  0.11177944676E+02 -0.11677877372E+02  0.72462229430E+02  0.70000858641E+02 0.  0.
        -12    1    1    2    0    0  0.94517308657E+01 -0.11177944676E+02  0.11677877372E+02  0.18725770570E+02  0.00000000000E+00 0.  1.
         11    1    3    3    0    0 -0.81155788238E+01 -0.38114442673E+01 -0.21251789983E+02  0.23065738765E+02  0.51100000000E-03 0. -1.
        -11    1    3    3    0    0  0.15719194312E+00  0.22588722865E+02 -0.12630232240E+02  0.25880453564E+02  0.51100000000E-03 0.  1.
        -12    1    3    3    0    0 -0.14933439850E+01 -0.75993339221E+01  0.22204144851E+02  0.23516037100E+02  0.00000000000E+00 0.  1.
</event>
<event>
 7    1  0.2700104E-013  0.7246166E+02  0.7816164E-02  0.1226708E+00
        -11   -1    0    0    0    0  0.00000000000E+00  0.00000000000E+00  0.45593999997E+02  0.45594000000E+02  0.51100000000E-03 0. -1.
         11   -1    0    0    0    0 -0.00000000000E+00 -0.00000000000E+00 -0.45593999997E+02  0.45594000000E+02  0.51100000000E-03 0.  1.
    9900012    2    1    2    0    0  0.44025768874E+01  0.18131543544E+02  0.15938552527E+01  0.72461656815E+02  0.70000112709E+02 0.  0.
        -12    1    1    2    0    0 -0.44025768874E+01 -0.18131543544E+02 -0.15938552527E+01  0.18726343185E+02  0.00000000000E+00 0.  1.
         11    1    3    3    0    0 -0.51218844432E+01 -0.25853747966E+01  0.57317625379E+01  0.81099300330E+01  0.51100000000E-03 0. -1.
        -11    1    3    3    0    0 -0.25090148342E+02  0.32414227543E+01 -0.37418197027E+01  0.25573884731E+02  0.51100000000E-03 0.  1.
         12    1    3    3    0    0  0.34614609672E+02  0.17475495586E+02 -0.39608758248E+00  0.38777842051E+02  0.00000000000E+00 0. -1.
</event>
<event>
 7    1  0.2700104E-013  0.7246150E+02  0.7816164E-02  0.1226708E+00
        -11   -1    0    0    0    0  0.00000000000E+00  0.00000000000E+00  0.45593999997E+02  0.45594000000E+02  0.51100000000E-03 0. -1.
         11   -1    0    0    0    0 -0.00000000000E+00 -0.00000000000E+00 -0.45593999997E+02  0.45594000000E+02  0.51100000000E-03 0.  1.
    9900012    2    1    2    0    0  0.47745522262E+01 -0.17471883197E+02  0.47559203283E+01  0.72461499270E+02  0.69999907478E+02 0.  0.
        -12    1    1    2    0    0 -0.47745522262E+01  0.17471883197E+02 -0.47559203283E+01  0.18726500730E+02  0.00000000000E+00 0.  1.
         11    1    3    3    0    0 -0.12532078966E+02 -0.18983365209E+02 -0.11387536502E+01  0.22775379646E+02  0.51100000000E-03 0. -1.
        -11    1    3    3    0    0  0.12417913470E+02  0.48754040545E+00 -0.19872995492E+02  0.23438818671E+02  0.51100000000E-03 0.  1.
         12    1    3    3    0    0  0.48887177231E+01  0.10239416059E+01  0.25767669471E+02  0.26247300954E+02  0.00000000000E+00 0. -1.
</event>
<event>
 7    1  0.2700104E-013  0.7246160E+02  0.7816164E-02  0.1226708E+00
        -11   -1    0    0    0    0  0.00000000000E+00  0.00000000000E+00  0.45593999997E+02  0.45594000000E+02  0.51100000000E-03 0.  1.
         11   -1    0    0    0    0 -0.00000000000E+00 -0.00000000000E+00 -0.45593999997E+02  0.45594000000E+02  0.51100000000E-03 0. -1.
    9900012    2    1    2    0    0  0.54622451798E+01  0.69707954121E+01 -0.16499999391E+02  0.72461599092E+02  0.70000037514E+02 0.  0.
        -12    1    1    2    0    0 -0.54622451798E+01 -0.69707954121E+01  0.16499999391E+02  0.18726400908E+02  0.00000000000E+00 0.  1.
         11    1    3    3    0    0 -0.73167715225E+01  0.17039886997E+01 -0.23921126710E+02  0.25073073731E+02  0.51100000000E-03 0. -1.
        -11    1    3    3    0    0 -0.80731064165E+01 -0.52875158381E+01 -0.13110792784E+02  0.16279611747E+02  0.51100000000E-03 0.  1.
        -12    1    3    3    0    0  0.20852123119E+02  0.10554322550E+02  0.20531920103E+02  0.31108913613E+02  0.00000000000E+00 0.  1.
</event>
<event>
 7    1  0.2700104E-013  0.7246154E+02  0.7816164E-02  0.1226708E+00
        -11   -1    0    0    0    0  0.00000000000E+00  0.00000000000E+00  0.45593999997E+02  0.45594000000E+02  0.51100000000E-03 0.  1.
         11   -1    0    0    0    0 -0.00000000000E+00 -0.00000000000E+00 -0.45593999997E+02  0.45594000000E+02  0.51100000000E-03 0. -1.
    9900012    2    1    2    0    0  0.77592165795E+00  0.14402226672E+02 -0.11943782640E+02  0.72461544615E+02  0.69999966548E+02 0.  0.
        -12    1    1    2    0    0 -0.77592165795E+00 -0.14402226672E+02  0.11943782640E+02  0.18726455385E+02  0.00000000000E+00 0.  1.
         11    1    3    3    0    0 -0.24868947861E+01 -0.18246897915E+01 -0.59382277051E+01  0.66915384667E+01  0.51100000000E-03 0. -1.
        -11    1    3    3    0    0  0.25577659273E+01  0.30826788185E+02 -0.26407923438E+02  0.40671998438E+02  0.51100000000E-03 0.  1.
         12    1    3    3    0    0  0.70505051682E+00 -0.14599871722E+02  0.20402368503E+02  0.25098007711E+02  0.00000000000E+00 0. -1.
</event>
<event>
 7    1  0.2700104E-013  0.7246133E+02  0.7816164E-02  0.1226709E+00
        -11   -1    0    0    0    0  0.00000000000E+00  0.00000000000E+00  0.45593999997E+02  0.45594000000E+02  0.51100000000E-03 0. -1.
         11   -1    0    0    0    0 -0.00000000000E+00 -0.00000000000E+00 -0.45593999997E+02  0.45594000000E+02  0.51100000000E-03 0.  1.
    9900012    2    1    2    0    0 -0.11571493755E+02  0.84156375135E+01 -0.12081634080E+02  0.72461326389E+02  0.69999682267E+02 0.  0.
        -12    1    1    2    0    0  0.11571493755E+02 -0.84156375135E+01  0.12081634080E+02  0.18726673611E+02  0.00000000000E+00 0.  1.
         11    1    3    3    0    0 -0.11365460133E+02  0.77816914779E+00 -0.19836187295E+02  0.22874736237E+02  0.51100000000E-03 0. -1.
        -11    1    3    3    0    0  0.18757330362E+02 -0.86726921615E+01 -0.53534578342E+01  0.21347424731E+02  0.51100000000E-03 0.  1.
         12    1    3    3    0    0 -0.18963363983E+02  0.16310160527E+02  0.13108011049E+02  0.28239165420E+02  0.00000000000E+00 0. -1.
</event>
<event>
 7    1  0.2700104E-013  0.7246155E+02  0.7816164E-02  0.1226708E+00
        -11   -1    0    0    0    0  0.00000000000E+00  0.00000000000E+00  0.45593999997E+02  0.45594000000E+02  0.51100000000E-03 0.  1.
         11   -1    0    0    0    0 -0.00000000000E+00 -0.00000000000E+00 -0.45593999997E+02  0.45594000000E+02  0.51100000000E-03 0. -1.
    9900012    2    1    2    0    0 -0.81715520326E+01  0.14236033948E+02 -0.90133789069E+01  0.72461550136E+02  0.69999973740E+02 0.  0.
        -12    1    1    2    0    0  0.81715520326E+01 -0.14236033948E+02  0.90133789069E+01  0.18726449864E+02  0.00000000000E+00 0.  1.
         11    1    3    3    0    0 -0.39321243622E+01  0.43422053499E+01 -0.97897436502E+00  0.59392541930E+01  0.51100000000E-03 0. -1.
        -11    1    3    3    0    0 -0.30805726087E+02 -0.88616918055E+01  0.29669984537E+01  0.32192008659E+02  0.51100000000E-03 0.  1.
         12    1    3    3    0    0  0.26566298417E+02  0.18755520403E+02 -0.11001402996E+02  0.34330287284E+02  0.00000000000E+00 0. -1.
</event>
<event>
 7    1  0.2700104E-013  0.7246157E+02  0.7816164E-02  0.1226708E+00
        -11   -1    0    0    0    0  0.00000000000E+00  0.00000000000E+00  0.45593999997E+02  0.45594000000E+02  0.51100000000E-03 0.  1.
         11   -1    0    0    0    0 -0.00000000000E+00 -0.00000000000E+00 -0.45593999997E+02  0.45594000000E+02  0.51100000000E-03 0. -1.
    9900012    2    1    2    0    0 -0.12581179575E+02  0.12841765602E+02 -0.52423497809E+01  0.72461568025E+02  0.69999997044E+02 0.  0.
        -12    1    1    2    0    0  0.12581179575E+02 -0.12841765602E+02  0.52423497809E+01  0.18726431975E+02  0.00000000000E+00 0.  1.
         11    1    3    3    0    0 -0.20971376825E+01 -0.53764824139E+01  0.20678908811E+01  0.61303117835E+01  0.51100000000E-03 0. -1.
        -11    1    3    3    0    0  0.39218816152E+01 -0.19791887837E+02  0.95525937318E+01  0.22323799561E+02  0.51100000000E-03 0.  1.
         12    1    3    3    0    0 -0.14405923508E+02  0.38010135853E+02 -0.16862834394E+02  0.44007456681E+02  0.00000000000E+00 0. -1.
</event>
<event>
 7    1  0.2700104E-013  0.7246160E+02  0.7816164E-02  0.1226708E+00
        -11   -1    0    0    0    0  0.00000000000E+00  0.00000000000E+00  0.45593999997E+02  0.45594000000E+02  0.51100000000E-03 0.  1.
         11   -1    0    0    0    0 -0.00000000000E+00 -0.00000000000E+00 -0.45593999997E+02  0.45594000000E+02  0.51100000000E-03 0. -1.
    9900012    2    1    2    0    0 -0.17096755292E+02  0.76406071367E+01 -0.17601838591E-01  0.72461595413E+02  0.70000032722E+02 0.  0.
        -12    1    1    2    0    0  0.17096755292E+02 -0.76406071367E+01  0.17601838591E-01  0.18726404587E+02  0.00000000000E+00 0.  1.
         11    1    3    3    0    0  0.67124253745E+01  0.16664908980E+02 -0.20330218846E+02  0.27131045765E+02  0.51100000000E-03 0. -1.
        -11    1    3    3    0    0  0.55276071327E+01 -0.75565999739E+01  0.11153556429E+02  0.14562227338E+02  0.51100000000E-03 0.  1.
        -12    1    3    3    0    0 -0.29336787799E+02 -0.14677018691E+01  0.91590605779E+01  0.30768322310E+02  0.00000000000E+00 0.  1.
</event>
<event>
 7    1  0.2700104E-013  0.7246155E+02  0.7816164E-02  0.1226708E+00
        -11   -1    0    0    0    0  0.00000000000E+00  0.00000000000E+00  0.45593999997E+02  0.45594000000E+02  0.51100000000E-03 0.  1.
         11   -1    0    0    0    0 -0.00000000000E+00 -0.00000000000E+00 -0.45593999997E+02  0.45594000000E+02  0.51100000000E-03 0. -1.
    9900012    2    1    2    0    0  0.14699499009E+02 -0.61135646805E+00 -0.11585810354E+02  0.72461547335E+02  0.69999970091E+02 0.  0.
        -12    1    1    2    0    0 -0.14699499009E+02  0.61135646805E+00  0.11585810354E+02  0.18726452665E+02  0.00000000000E+00 0.  1.
         11    1    3    3    0    0  0.24482633362E+00  0.27373954448E+02 -0.13546551894E+01  0.27408546350E+02  0.51100000000E-03 0. -1.
        -11    1    3    3    0    0  0.13245841716E+02 -0.34542564066E-01  0.37648022101E+01  0.13770521119E+02  0.51100000000E-03 0.  1.
         12    1    3    3    0    0  0.12088309597E+01 -0.27950768352E+02 -0.13995957375E+02  0.31282479866E+02  0.00000000000E+00 0. -1.
</event>
<event>
 7    1  0.2700104E-013  0.7246159E+02  0.7816164E-02  0.1226708E+00
        -11   -1    0    0    0    0  0.00000000000E+00  0.00000000000E+00  0.45593999997E+02  0.45594000000E+02  0.51100000000E-03 0.  1.
         11   -1    0    0    0    0 -0.00000000000E+00 -0.00000000000E+00 -0.45593999997E+02  0.45594000000E+02  0.51100000000E-03 0. -1.
    9900012    2    1    2    0    0 -0.14416080578E+02  0.11391084128E+02 -0.36191252835E+01  0.72461594988E+02  0.70000032168E+02 0.  0.
        -12    1    1    2    0    0  0.14416080578E+02 -0.11391084128E+02  0.36191252835E+01  0.18726405012E+02  0.00000000000E+00 0.  1.
         11    1    3    3    0    0 -0.37232362286E+02  0.28464623591E+01 -0.56454928299E+01  0.37765364276E+02  0.51100000000E-03 0. -1.
        -11    1    3    3    0    0 -0.46205148541E+01 -0.20454203365E+01  0.15403644755E+01  0.52825774816E+01  0.51100000000E-03 0.  1.
        -12    1    3    3    0    0  0.27436796562E+02  0.10590042105E+02  0.48600307094E+00  0.29413653230E+02  0.00000000000E+00 0.  1.
</event>
<event>
 7    1  0.2700104E-013  0.7246164E+02  0.7816164E-02  0.1226708E+00
        -11   -1    0    0    0    0  0.00000000000E+00  0.00000000000E+00  0.45593999997E+02  0.45594000000E+02  0.51100000000E-03 0. -1.
         11   -1    0    0    0    0 -0.00000000000E+00 -0.00000000000E+00 -0.45593999997E+02  0.45594000000E+02  0.51100000000E-03 0.  1.
    9900012    2    1    2    0    0 -0.78153491647E+01  0.13439770040E+02  0.10438845196E+02  0.72461639160E+02  0.70000089710E+02 0.  0.
        -12    1    1    2    0    0  0.78153491647E+01 -0.13439770040E+02 -0.10438845196E+02  0.18726360840E+02  0.00000000000E+00 0.  1.
         11    1    3    3    0    0  0.84718486795E+01 -0.13354775905E+02  0.28480121068E+02  0.32576671957E+02  0.51100000000E-03 0. -1.
        -11    1    3    3    0    0  0.94066289466E+00 -0.16543209292E+01  0.26444914121E+00  0.19213427669E+01  0.51100000000E-03 0.  1.
        -12    1    3    3    0    0 -0.17227860739E+02  0.28448866874E+02 -0.18305725012E+02  0.37963624436E+02  0.00000000000E+00 0.  1.
</event>
<event>
 7    1  0.2700104E-013  0.7246194E+02  0.7816164E-02  0.1226707E+00
        -11   -1    0    0    0    0  0.00000000000E+00  0.00000000000E+00  0.45593999997E+02  0.45594000000E+02  0.51100000000E-03 0.  1.
         11   -1    0    0    0    0 -0.00000000000E+00 -0.00000000000E+00 -0.45593999997E+02  0.45594000000E+02  0.51100000000E-03 0. -1.
    9900012    2    1    2    0    0 -0.10119270797E+02 -0.89214268300E+01 -0.12987441611E+02  0.72461944950E+02  0.70000488057E+02 0.  0.
        -12    1    1    2    0    0  0.10119270797E+02  0.89214268300E+01  0.12987441611E+02  0.18726055050E+02  0.00000000000E+00 0.  1.
         11    1    3    3    0    0  0.17928416082E+02  0.80050908101E+01 -0.17880639722E+02  0.26556107757E+02  0.51100000000E-03 0. -1.
        -11    1    3    3    0    0 -0.19110368479E+01  0.76989695591E+01  0.60510170574E+01  0.99770236942E+01  0.51100000000E-03 0.  1.
        -12    1    3    3    0    0 -0.26136650032E+02 -0.24625487199E+02 -0.11578189459E+01  0.35928813498E+02  0.00000000000E+00 0.  1.
</event>
<event>
 7    1  0.2700104E-013  0.7246157E+02  0.7816164E-02  0.1226708E+00
        -11   -1    0    0    0    0  0.00000000000E+00  0.00000000000E+00  0.45593999997E+02  0.45594000000E+02  0.51100000000E-03 0. -1.
         11   -1    0    0    0    0 -0.00000000000E+00 -0.00000000000E+00 -0.45593999997E+02  0.45594000000E+02  0.51100000000E-03 0.  1.
    9900012    2    1    2    0    0  0.51911966931E+01 -0.17401066249E+02 -0.45753384967E+01  0.72461565420E+02  0.69999993651E+02 0.  0.
        -12    1    1    2    0    0 -0.51911966931E+01  0.17401066249E+02  0.45753384967E+01  0.18726434580E+02  0.00000000000E+00 0.  1.
         11    1    3    3    0    0 -0.24621604034E+02 -0.14079272646E+02  0.15934076848E+01  0.28407538644E+02  0.51100000000E-03 0. -1.
        -11    1    3    3    0    0 -0.21321288013E+01 -0.78786763343E+01  0.53863738957E+01  0.97791890263E+01  0.51100000000E-03 0.  1.
        -12    1    3    3    0    0  0.31944929529E+02  0.45568827316E+01 -0.11555120077E+02  0.34274837751E+02  0.00000000000E+00 0.  1.
</event>
<event>
 7    1  0.2700104E-013  0.7246160E+02  0.7816164E-02  0.1226708E+00
        -11   -1    0    0    0    0  0.00000000000E+00  0.00000000000E+00  0.45593999997E+02  0.45594000000E+02  0.51100000000E-03 0.  1.
         11   -1    0    0    0    0 -0.00000000000E+00 -0.00000000000E+00 -0.45593999997E+02  0.45594000000E+02  0.51100000000E-03 0. -1.
    9900012    2    1    2    0    0 -0.14618871045E+02  0.93283874387E+01 -0.70673814530E+01  0.72461599293E+02  0.70000037776E+02 0.  0.
        -12    1    1    2    0    0  0.14618871045E+02 -0.93283874387E+01  0.70673814530E+01  0.18726400707E+02  0.00000000000E+00 0.  1.
         11    1    3    3    0    0 -0.30140178223E+01  0.22144236218E+02 -0.21060138140E+01  0.22447422915E+02  0.51100000000E-03 0. -1.
        -11    1    3    3    0    0 -0.79593470567E+01 -0.36238954180E+01  0.20722579565E+02  0.22492423784E+02  0.51100000000E-03 0.  1.
         12    1    3    3    0    0 -0.36455061665E+01 -0.91919533610E+01 -0.25683947204E+02  0.27521752593E+02  0.00000000000E+00 0. -1.
</event>
<event>
 7    1  0.2700104E-013  0.7246156E+02  0.7816164E-02  0.1226708E+00
        -11   -1    0    0    0    0  0.00000000000E+00  0.00000000000E+00  0.45593999997E+02  0.45594000000E+02  0.51100000000E-03 0.  1.
         11   -1    0    0    0    0 -0.00000000000E+00 -0.00000000000E+00 -0.45593999997E+02  0.45594000000E+02  0.51100000000E-03 0. -1.
    9900012    2    1    2    0    0 -0.10206828868E+02 -0.11951970799E+02 -0.10180896013E+02  0.72461558663E+02  0.69999984848E+02 0.  0.
        -12    1    1    2    0    0  0.10206828868E+02  0.11951970799E+02  0.10180896013E+02  0.18726441337E+02  0.00000000000E+00 0.  1.
         11    1    3    3    0    0 -0.18006101702E+02  0.11984309699E+02 -0.74796994936E+01  0.22886443197E+02  0.51100000000E-03 0. -1.
        -11    1    3    3    0    0 -0.67603684396E+01  0.89825327731E+01  0.57119350118E+01  0.12610102232E+02  0.51100000000E-03 0.  1.
         12    1    3    3    0    0  0.14559641273E+02 -0.32918813271E+02 -0.84131315310E+01  0.36965013233E+02  0.00000000000E+00 0. -1.
</event>
<event>
 7    1  0.2700104E-013  0.7246157E+02  0.7816164E-02  0.1226708E+00
        -11   -1    0    0    0    0  0.00000000000E+00  0.00000000000E+00  0.45593999997E+02  0.45594000000E+02  0.51100000000E-03 0.  1.
         11   -1    0    0    0    0 -0.00000000000E+00 -0.00000000000E+00 -0.45593999997E+02  0.45594000000E+02  0.51100000000E-03 0. -1.
    9900012    2    1    2    0    0 -0.12424758110E+02 -0.77660097418E+01  0.11661638351E+02  0.72461565998E+02  0.69999994403E+02 0.  0.
        -12    1    1    2    0    0  0.12424758110E+02  0.77660097418E+01 -0.11661638351E+02  0.18726434002E+02  0.00000000000E+00 0.  1.
         11    1    3    3    0    0 -0.21425163300E+01 -0.76898937324E+01 -0.94837363705E+00  0.80389212371E+01  0.51100000000E-03 0. -1.
        -11    1    3    3    0    0  0.77432629133E+01 -0.28456506823E+02  0.44429120347E+01  0.29823989818E+02  0.51100000000E-03 0.  1.
         12    1    3    3    0    0 -0.18025504694E+02  0.28380390813E+02  0.81670999532E+01  0.34598654942E+02  0.00000000000E+00 0. -1.
</event>
<event>
 7    1  0.2700104E-013  0.7246158E+02  0.7816164E-02  0.1226708E+00
        -11   -1    0    0    0    0  0.00000000000E+00  0.00000000000E+00  0.45593999997E+02  0.45594000000E+02  0.51100000000E-03 0.  1.
         11   -1    0    0    0    0 -0.00000000000E+00 -0.00000000000E+00 -0.45593999997E+02  0.45594000000E+02  0.51100000000E-03 0. -1.
    9900012    2    1    2    0    0 -0.40934009537E+01 -0.13273685168E+02 -0.12559140687E+02  0.72461583789E+02  0.70000017579E+02 0.  0.
        -12    1    1    2    0    0  0.40934009537E+01  0.13273685168E+02  0.12559140687E+02  0.18726416211E+02  0.00000000000E+00 0.  1.
         11    1    3    3    0    0  0.19532405778E+01  0.88587469846E+01  0.23938890693E+01  0.93820707751E+01  0.51100000000E-03 0. -1.
        -11    1    3    3    0    0  0.15328636794E+02 -0.12565949440E+02 -0.29478183742E+02  0.35522295932E+02  0.51100000000E-03 0.  1.
         12    1    3    3    0    0 -0.21375278326E+02 -0.95664827130E+01  0.14525153985E+02  0.27557217082E+02  0.00000000000E+00 0. -1.
</event>
<event>
 7    1  0.2700104E-013  0.7246158E+02  0.7816164E-02  0.1226708E+00
        -11   -1    0    0    0    0  0.00000000000E+00  0.00000000000E+00  0.45593999997E+02  0.45594000000E+02  0.51100000000E-03 0. -1.
         11   -1    0    0    0    0 -0.00000000000E+00 -0.00000000000E+00 -0.45593999997E+02  0.45594000000E+02  0.51100000000E-03 0.  1.
    9900012    2    1    2    0    0  0.14381134563E+02 -0.74541035381E+01  0.93967156556E+01  0.72461575996E+02  0.70000007427E+02 0.  0.
        -12    1    1    2    0    0 -0.14381134563E+02  0.74541035381E+01 -0.93967156556E+01  0.18726424004E+02  0.00000000000E+00 0.  1.
         11    1    3    3    0    0  0.38750783696E+01  0.70938881146E+01 -0.10563925873E+01  0.81520210078E+01  0.51100000000E-03 0. -1.
        -11    1    3    3    0    0 -0.16401258199E+02  0.21411343794E+01 -0.16028361861E+02  0.23032457774E+02  0.51100000000E-03 0.  1.
        -12    1    3    3    0    0  0.26907314392E+02 -0.16689126032E+02  0.26481470103E+02  0.41277097213E+02  0.00000000000E+00 0.  1.
</event>
<event>
 7    1  0.2700104E-013  0.7246157E+02  0.7816164E-02  0.1226708E+00
        -11   -1    0    0    0    0  0.00000000000E+00  0.00000000000E+00  0.45593999997E+02  0.45594000000E+02  0.51100000000E-03 0.  1.
         11   -1    0    0    0    0 -0.00000000000E+00 -0.00000000000E+00 -0.45593999997E+02  0.45594000000E+02  0.51100000000E-03 0. -1.
    9900012    2    1    2    0    0  0.59420552767E+00  0.18240889609E+02 -0.41947731450E+01  0.72461567994E+02  0.69999997004E+02 0.  0.
        -12    1    1    2    0    0 -0.59420552767E+00 -0.18240889609E+02  0.41947731450E+01  0.18726432006E+02  0.00000000000E+00 0.  1.
         11    1    3    3    0    0  0.56494391536E+00  0.71197484027E+01  0.50476459964E+00  0.71599417950E+01  0.51100000000E-03 0. -1.
        -11    1    3    3    0    0  0.15591082690E+02  0.31319745523E+02  0.93166782160E+01  0.36205093735E+02  0.51100000000E-03 0.  1.
         12    1    3    3    0    0 -0.15561821077E+02 -0.20198604317E+02 -0.14016215961E+02  0.29096532465E+02  0.00000000000E+00 0. -1.
</event>
<event>
 7    1  0.2700104E-013  0.7246156E+02  0.7816164E-02  0.1226708E+00
        -11   -1    0    0    0    0  0.00000000000E+00  0.00000000000E+00  0.45593999997E+02  0.45594000000E+02  0.51100000000E-03 0.  1.
         11   -1    0    0    0    0 -0.00000000000E+00 -0.00000000000E+00 -0.45593999997E+02  0.45594000000E+02  0.51100000000E-03 0. -1.
    9900012    2    1    2    0    0 -0.15320169003E+01 -0.94114132188E+01 -0.16116997649E+02  0.72461564467E+02  0.69999992409E+02 0.  0.
        -12    1    1    2    0    0  0.15320169003E+01  0.94114132188E+01  0.16116997649E+02  0.18726435533E+02  0.00000000000E+00 0.  1.
         11    1    3    3    0    0 -0.12135188958E+01  0.10346117716E+02  0.11637863167E+02  0.15619047322E+02  0.51100000000E-03 0. -1.
        -11    1    3    3    0    0 -0.33946372361E+01  0.78785612419E+01  0.78757052909E+01  0.11645686897E+02  0.51100000000E-03 0.  1.
         12    1    3    3    0    0  0.30761392316E+01 -0.27636092177E+02 -0.35630566107E+02  0.45196830248E+02  0.00000000000E+00 0. -1.
</event>
<event>
 7    1  0.2700104E-013  0.7246159E+02  0.7816164E-02  0.1226708E+00
        -11   -1    0    0    0    0  0.00000000000E+00  0.00000000000E+00  0.45593999997E+02  0.45594000000E+02  0.51100000000E-03 0. -1.
         11   -1    0    0    0    0 -0.00000000000E+00 -0.00000000000E+00 -0.45593999997E+02  0.45594000000E+02  0.51100000000E-03 0.  1.
    9900012    2    1    2    0    0 -0.94735263209E+01 -0.15861202475E+02 -0.30582877189E+01  0.72461586337E+02  0.70000020899E+02 0.  0.
        -12    1    1    2    0    0  0.94735263209E+01  0.15861202475E+02  0.30582877189E+01  0.18726413663E+02  0.00000000000E+00 0.  1.
         11    1    3    3    0    0 -0.13423834024E+02 -0.31397128867E+02  0.86524325178E+01  0.35225610140E+02  0.51100000000E-03 0.  1.
        -11    1    3    3    0    0 -0.72908378567E+01  0.11611477835E+00  0.72873760694E+01  0.10309008174E+02  0.51100000000E-03 0. -1.
        -12    1    3    3    0    0  0.11241145559E+02  0.15419811614E+02 -0.18998096306E+02  0.26926968024E+02  0.00000000000E+00 0.  1.
</event>
<event>
 7    1  0.2700104E-013  0.7246157E+02  0.7816164E-02  0.1226708E+00
        -11   -1    0    0    0    0  0.00000000000E+00  0.00000000000E+00  0.45593999997E+02  0.45594000000E+02  0.51100000000E-03 0.  1.
         11   -1    0    0    0    0 -0.00000000000E+00 -0.00000000000E+00 -0.45593999997E+02  0.45594000000E+02  0.51100000000E-03 0. -1.
    9900012    2    1    2    0    0 -0.11816518461E+02 -0.95914719791E+01 -0.10911120915E+02  0.72461574743E+02  0.70000005795E+02 0.  0.
        -12    1    1    2    0    0  0.11816518461E+02  0.95914719791E+01  0.10911120915E+02  0.18726425257E+02  0.00000000000E+00 0.  1.
         11    1    3    3    0    0 -0.21940205181E+02 -0.20591210676E+01  0.11834989317E+02  0.25013587415E+02  0.51100000000E-03 0. -1.
        -11    1    3    3    0    0 -0.23559770324E+01  0.12535435095E+02  0.23577669952E+01  0.12970999432E+02  0.51100000000E-03 0.  1.
         12    1    3    3    0    0  0.12479663752E+02 -0.20067786006E+02 -0.25103877228E+02  0.34476987897E+02  0.00000000000E+00 0. -1.
</event>
<event>
 7    1  0.2700104E-013  0.7246165E+02  0.7816164E-02  0.1226708E+00
        -11   -1    0    0    0    0  0.00000000000E+00  0.00000000000E+00  0.45593999997E+02  0.45594000000E+02  0.51100000000E-03 0.  1.
         11   -1    0    0    0    0 -0.00000000000E+00 -0.00000000000E+00 -0.45593999997E+02  0.45594000000E+02  0.51100000000E-03 0. -1.
    9900012    2    1    2    0    0 -0.49365284244E+01 -0.10697300457E+02 -0.14555913230E+02  0.72461650651E+02  0.70000104680E+02 0.  0.
        -12    1    1    2    0    0  0.49365284244E+01  0.10697300457E+02  0.14555913230E+02  0.18726349349E+02  0.00000000000E+00 0.  1.
         11    1    3    3    0    0 -0.13492429933E+00 -0.29992717442E+01  0.81794581609E+01  0.87130575362E+01  0.51100000000E-03 0. -1.
        -11    1    3    3    0    0  0.76184995027E+00  0.38592514765E+01  0.19353194028E+02  0.19748933051E+02  0.51100000000E-03 0.  1.
         12    1    3    3    0    0 -0.55634540754E+01 -0.11557280190E+02 -0.42088565420E+02  0.43999660064E+02  0.00000000000E+00 0. -1.
</event>
<event>
 7    1  0.2700104E-013  0.7246174E+02  0.7816164E-02  0.1226708E+00
        -11   -1    0    0    0    0  0.00000000000E+00  0.00000000000E+00  0.45593999997E+02  0.45594000000E+02  0.51100000000E-03 0.  1.
         11   -1    0    0    0    0 -0.00000000000E+00 -0.00000000000E+00 -0.45593999997E+02  0.45594000000E+02  0.51100000000E-03 0. -1.
    9900012    2    1    2    0    0  0.10237683013E+02  0.13093312340E+02 -0.86271635613E+01  0.72461736822E+02  0.70000216933E+02 0.  0.
        -12    1    1    2    0    0 -0.10237683013E+02 -0.13093312340E+02  0.86271635613E+01  0.18726263178E+02  0.00000000000E+00 0.  1.
         11    1    3    3    0    0  0.66804398638E+00  0.23954392907E+02 -0.10648277083E+02  0.26222986623E+02  0.51100000000E-03 0. -1.
        -11    1    3    3    0    0 -0.14679263382E+02  0.68160031436E+01  0.90803964043E+00  0.16209972503E+02  0.51100000000E-03 0.  1.
        -12    1    3    3    0    0  0.24248902408E+02 -0.17677083711E+02  0.11130738808E+01  0.30028777697E+02  0.00000000000E+00 0.  1.
</event>
<event>
 7    1  0.2700104E-013  0.7246159E+02  0.7816164E-02  0.1226708E+00
        -11   -1    0    0    0    0  0.00000000000E+00  0.00000000000E+00  0.45593999997E+02  0.45594000000E+02  0.51100000000E-03 0. -1.
         11   -1    0    0    0    0 -0.00000000000E+00 -0.00000000000E+00 -0.45593999997E+02  0.45594000000E+02  0.51100000000E-03 0.  1.
    9900012    2    1    2    0    0 -0.90605449747E+01  0.12994201913E+02  0.99867827306E+01  0.72461585824E+02  0.70000020230E+02 0.  0.
        -12    1    1    2    0    0  0.90605449747E+01 -0.12994201913E+02 -0.99867827306E+01  0.18726414176E+02  0.00000000000E+00 0.  1.
         11    1    3    3    0    0 -0.38178942013E+01 -0.16510051579E+02  0.16293091904E+02  0.23507934051E+02  0.51100000000E-03 0. -1.
        -11    1    3    3    0    0  0.13330095320E+02  0.16624294517E+01  0.38575483519E+01  0.13976258171E+02  0.51100000000E-03 0.  1.
         12    1    3    3    0    0 -0.18572746093E+02  0.27841824041E+02 -0.10163857526E+02  0.34977393602E+02  0.00000000000E+00 0. -1.
</event>
<event>
 7    1  0.2700104E-013  0.7246153E+02  0.7816164E-02  0.1226708E+00
        -11   -1    0    0    0    0  0.00000000000E+00  0.00000000000E+00  0.45593999997E+02  0.45594000000E+02  0.51100000000E-03 0. -1.
         11   -1    0    0    0    0 -0.00000000000E+00 -0.00000000000E+00 -0.45593999997E+02  0.45594000000E+02  0.51100000000E-03 0.  1.
    9900012    2    1    2    0    0  0.16882372483E+02 -0.37752805713E+01  0.71703209487E+01  0.72461528188E+02  0.69999945148E+02 0.  0.
        -12    1    1    2    0    0 -0.16882372483E+02  0.37752805713E+01 -0.71703209487E+01  0.18726471812E+02  0.00000000000E+00 0.  1.
         11    1    3    3    0    0 -0.10310669728E+02  0.18107651888E+02  0.12364222880E+02  0.24229547557E+02  0.51100000000E-03 0. -1.
        -11    1    3    3    0    0  0.19833989453E+01 -0.54031602077E+01  0.12173154291E+02  0.13465277467E+02  0.51100000000E-03 0.  1.
        -12    1    3    3    0    0  0.25209643266E+02 -0.16479772252E+02 -0.17367056222E+02  0.34766703164E+02  0.00000000000E+00 0.  1.
</event>
<event>
 7    1  0.2999656E-013  0.7246155E+02  0.7816164E-02  0.1226708E+00
        -11   -1    0    0    0    0  0.00000000000E+00  0.00000000000E+00  0.45593999997E+02  0.45594000000E+02  0.51100000000E-03 0. -1.
         11   -1    0    0    0    0 -0.00000000000E+00 -0.00000000000E+00 -0.45593999997E+02  0.45594000000E+02  0.51100000000E-03 0.  1.
    9900012    2    1    2    0    0 -0.15760159291E+02 -0.23774691847E-01  0.10114178080E+02  0.72461553879E+02  0.69999978616E+02 0.  0.
        -12    1    1    2    0    0  0.15760159291E+02  0.23774691847E-01 -0.10114178080E+02  0.18726446121E+02  0.00000000000E+00 0.  1.
         11    1    3    3    0    0 -0.23638631220E+01 -0.13286605853E+02  0.22349013147E+02  0.26107472740E+02  0.51100000000E-03 0. -1.
        -11    1    3    3    0    0  0.34661483439E+01 -0.19330061946E+01  0.12302914252E+02  0.12927196008E+02  0.51100000000E-03 0.  1.
        -12    1    3    3    0    0 -0.16862444513E+02  0.15195837355E+02 -0.24537749319E+02  0.33426885131E+02  0.00000000000E+00 0.  1.
</event>
<event>
 7    1  0.2700104E-013  0.7246160E+02  0.7816164E-02  0.1226708E+00
        -11   -1    0    0    0    0  0.00000000000E+00  0.00000000000E+00  0.45593999997E+02  0.45594000000E+02  0.51100000000E-03 0.  1.
         11   -1    0    0    0    0 -0.00000000000E+00 -0.00000000000E+00 -0.45593999997E+02  0.45594000000E+02  0.51100000000E-03 0. -1.
    9900012    2    1    2    0    0  0.10304215676E+02 -0.11660991591E+02 -0.10417410390E+02  0.72461600858E+02  0.70000039815E+02 0.  0.
        -12    1    1    2    0    0 -0.10304215676E+02  0.11660991591E+02  0.10417410390E+02  0.18726399142E+02  0.00000000000E+00 0.  1.
         11    1    3    3    0    0  0.15835818623E+02 -0.23690144516E+02 -0.50908947728E+01  0.28946732259E+02  0.51100000000E-03 0. -1.
        -11    1    3    3    0    0  0.10583261671E+02  0.70313441714E+01  0.13292517265E+02  0.18388481284E+02  0.51100000000E-03 0.  1.
        -12    1    3    3    0    0 -0.16114864619E+02  0.49978087531E+01 -0.18619032882E+02  0.25126387314E+02  0.00000000000E+00 0.  1.
</event>
<event>
 7    1  0.2700104E-013  0.7246160E+02  0.7816164E-02  0.1226708E+00
        -11   -1    0    0    0    0  0.00000000000E+00  0.00000000000E+00  0.45593999997E+02  0.45594000000E+02  0.51100000000E-03 0.  1.
         11   -1    0    0    0    0 -0.00000000000E+00 -0.00000000000E+00 -0.45593999997E+02  0.45594000000E+02  0.51100000000E-03 0. -1.
    9900012    2    1    2    0    0 -0.32300019479E+01  0.15176377721E+02  0.10484403845E+02  0.72461599457E+02  0.70000037990E+02 0.  0.
        -12    1    1    2    0    0  0.32300019479E+01 -0.15176377721E+02 -0.10484403845E+02  0.18726400543E+02  0.00000000000E+00 0.  1.
         11    1    3    3    0    0 -0.57671425940E+01  0.12697979239E+02 -0.24872917723E+02  0.28515971784E+02  0.51100000000E-03 0. -1.
        -11    1    3    3    0    0  0.52415471371E+01  0.58739210864E+00 -0.25754655487E+01  0.58695714438E+01  0.51100000000E-03 0.  1.
        -12    1    3    3    0    0 -0.27044064909E+01  0.18910063736E+01  0.37932787117E+02  0.38076056230E+02  0.00000000000E+00 0.  1.
</event>
<event>
 7    1  0.2700104E-013  0.7246153E+02  0.7816164E-02  0.1226708E+00
        -11   -1    0    0    0    0  0.00000000000E+00  0.00000000000E+00  0.45593999997E+02  0.45594000000E+02  0.51100000000E-03 0.  1.
         11   -1    0    0    0    0 -0.00000000000E+00 -0.00000000000E+00 -0.45593999997E+02  0.45594000000E+02  0.51100000000E-03 0. -1.
    9900012    2    1    2    0    0 -0.55505595723E+00  0.13380464131E+02 -0.13089523111E+02  0.72461534163E+02  0.69999952933E+02 0.  0.
        -12    1    1    2    0    0  0.55505595723E+00 -0.13380464131E+02  0.13089523111E+02  0.18726465837E+02  0.00000000000E+00 0.  1.
         11    1    3    3    0    0  0.50635313883E+01 -0.10081227961E+02 -0.23406115799E+02  0.25983009148E+02  0.51100000000E-03 0. -1.
        -11    1    3    3    0    0 -0.34909227789E+01 -0.21794249774E+01 -0.11833229061E+02  0.12528437466E+02  0.51100000000E-03 0.  1.
        -12    1    3    3    0    0 -0.21276645666E+01  0.25641117069E+02  0.22149821749E+02  0.33950087549E+02  0.00000000000E+00 0.  1.
</event>
<event>
 7    1  0.2700104E-013  0.7246157E+02  0.7816164E-02  0.1226708E+00
        -11   -1    0    0    0    0  0.00000000000E+00  0.00000000000E+00  0.45593999997E+02  0.45594000000E+02  0.51100000000E-03 0.  1.
         11   -1    0    0    0    0 -0.00000000000E+00 -0.00000000000E+00 -0.45593999997E+02  0.45594000000E+02  0.51100000000E-03 0. -1.
    9900012    2    1    2    0    0 -0.13386506032E+02 -0.62057747251E+00 -0.13080353771E+02  0.72461566412E+02  0.69999994943E+02 0.  0.
        -12    1    1    2    0    0  0.13386506032E+02  0.62057747251E+00  0.13080353771E+02  0.18726433588E+02  0.00000000000E+00 0.  1.
         11    1    3    3    0    0 -0.14418369696E+02  0.28032900364E+02 -0.17380535788E+02  0.35997443132E+02  0.51100000000E-03 0. -1.
        -11    1    3    3    0    0 -0.10054003409E+02 -0.92899496181E+01 -0.25600300925E+00  0.13691299656E+02  0.51100000000E-03 0.  1.
        -12    1    3    3    0    0  0.11085867073E+02 -0.19363528219E+02  0.45561850263E+01  0.22772823624E+02  0.00000000000E+00 0.  1.
</event>
<event>
 7    1  0.2700104E-013  0.7246233E+02  0.7816164E-02  0.1226706E+00
        -11   -1    0    0    0    0  0.00000000000E+00  0.00000000000E+00  0.45593999997E+02  0.45594000000E+02  0.51100000000E-03 0.  1.
         11   -1    0    0    0    0 -0.00000000000E+00 -0.00000000000E+00 -0.45593999997E+02  0.45594000000E+02  0.51100000000E-03 0. -1.
    9900012    2    1    2    0    0  0.87289169819E+01  0.13146222244E+02 -0.10081338578E+02  0.72462334765E+02  0.70000995858E+02 0.  0.
        -12    1    1    2    0    0 -0.87289169819E+01 -0.13146222244E+02  0.10081338578E+02  0.18725665235E+02  0.00000000000E+00 0.  1.
         11    1    3    3    0    0  0.11520658497E+02  0.62601714338E+00  0.51010592318E+01  0.12615001990E+02  0.51100000000E-03 0. -1.
        -11    1    3    3    0    0  0.22550673610E+02  0.11646574608E+02  0.68134175501E+01  0.26279235897E+02  0.51100000000E-03 0.  1.
         12    1    3    3    0    0 -0.25342415125E+02  0.87363049287E+00 -0.21995815360E+02  0.33568096878E+02  0.00000000000E+00 0. -1.
</event>
<event>
 7    1  0.2700104E-013  0.7246140E+02  0.7816164E-02  0.1226708E+00
        -11   -1    0    0    0    0  0.00000000000E+00  0.00000000000E+00  0.45593999997E+02  0.45594000000E+02  0.51100000000E-03 0.  1.
         11   -1    0    0    0    0 -0.00000000000E+00 -0.00000000000E+00 -0.45593999997E+02  0.45594000000E+02  0.51100000000E-03 0. -1.
    9900012    2    1    2    0    0 -0.49175303645E+01 -0.48072529337E+01 -0.17418204671E+02  0.72461397543E+02  0.69999774958E+02 0.  0.
        -12    1    1    2    0    0  0.49175303645E+01  0.48072529337E+01  0.17418204671E+02  0.18726602457E+02  0.00000000000E+00 0.  1.
         11    1    3    3    0    0 -0.10453598718E+02  0.38014479233E+01  0.23014944361E+01  0.11358944025E+02  0.51100000000E-03 0. -1.
        -11    1    3    3    0    0  0.16524199641E+02 -0.15869790148E+02  0.12639295062E+02  0.26165840194E+02  0.51100000000E-03 0.  1.
         12    1    3    3    0    0 -0.10988131288E+02  0.72610892913E+01 -0.32358994169E+02  0.34936613323E+02  0.00000000000E+00 0. -1.
</event>
<event>
 7    1  0.2700104E-013  0.7246157E+02  0.7816164E-02  0.1226708E+00
        -11   -1    0    0    0    0  0.00000000000E+00  0.00000000000E+00  0.45593999997E+02  0.45594000000E+02  0.51100000000E-03 0.  1.
         11   -1    0    0    0    0 -0.00000000000E+00 -0.00000000000E+00 -0.45593999997E+02  0.45594000000E+02  0.51100000000E-03 0. -1.
    9900012    2    1    2    0    0  0.13358674725E+02  0.15163601403E+01  0.13035554387E+02  0.72461569036E+02  0.69999998361E+02 0.  0.
        -12    1    1    2    0    0 -0.13358674725E+02 -0.15163601403E+01 -0.13035554387E+02  0.18726430964E+02  0.00000000000E+00 0.  1.
         11    1    3    3    0    0  0.10377646276E+02 -0.20627457450E+02  0.17012870745E+02  0.28681445472E+02  0.51100000000E-03 0. -1.
        -11    1    3    3    0    0  0.11880359449E+02  0.72567518996E+01  0.13332589928E+02  0.19275926520E+02  0.51100000000E-03 0.  1.
         12    1    3    3    0    0 -0.88993310004E+01  0.14887065691E+02 -0.17309906286E+02  0.24504197044E+02  0.00000000000E+00 0. -1.
</event>
<event>
 7    1  0.2700104E-013  0.7246155E+02  0.7816164E-02  0.1226708E+00
        -11   -1    0    0    0    0  0.00000000000E+00  0.00000000000E+00  0.45593999997E+02  0.45594000000E+02  0.51100000000E-03 0.  1.
         11   -1    0    0    0    0 -0.00000000000E+00 -0.00000000000E+00 -0.45593999997E+02  0.45594000000E+02  0.51100000000E-03 0. -1.
    9900012    2    1    2    0    0 -0.77084476310E+01  0.18153162884E+01 -0.16969518416E+02  0.72461545627E+02  0.69999967866E+02 0.  0.
        -12    1    1    2    0    0  0.77084476310E+01 -0.18153162884E+01  0.16969518416E+02  0.18726454373E+02  0.00000000000E+00 0.  1.
         11    1    3    3    0    0 -0.59714302184E+01 -0.88084908239E+01 -0.13484381844E+02  0.17177777605E+02  0.51100000000E-03 0. -1.
        -11    1    3    3    0    0 -0.23954320378E+02  0.19855734737E+02 -0.21397424243E+01  0.31187147427E+02  0.51100000000E-03 0.  1.
         12    1    3    3    0    0  0.22217302965E+02 -0.92319276244E+01 -0.13453941479E+01  0.24096620596E+02  0.00000000000E+00 0. -1.
</event>
<event>
 7    1  0.2700104E-013  0.7246154E+02  0.7816164E-02  0.1226708E+00
        -11   -1    0    0    0    0  0.00000000000E+00  0.00000000000E+00  0.45593999997E+02  0.45594000000E+02  0.51100000000E-03 0. -1.
         11   -1    0    0    0    0 -0.00000000000E+00 -0.00000000000E+00 -0.45593999997E+02  0.45594000000E+02  0.51100000000E-03 0.  1.
    9900012    2    1    2    0    0 -0.91384755469E+00 -0.87941970571E+01  0.16507797303E+02  0.72461537680E+02  0.69999957514E+02 0.  0.
        -12    1    1    2    0    0  0.91384755469E+00  0.87941970571E+01 -0.16507797303E+02  0.18726462320E+02  0.00000000000E+00 0.  1.
         11    1    3    3    0    0  0.22317404629E+02 -0.45978608606E-03 -0.56463793178E+01  0.23020602712E+02  0.51100000000E-03 0. -1.
        -11    1    3    3    0    0  0.83298326875E+01 -0.38648934542E+01 -0.19940614154E+01  0.93967970716E+01  0.51100000000E-03 0.  1.
        -12    1    3    3    0    0 -0.31561084871E+02 -0.49288438168E+01  0.24148238036E+02  0.40044137896E+02  0.00000000000E+00 0.  1.
</event>
<event>
 7    1  0.2700104E-013  0.7246159E+02  0.7816164E-02  0.1226708E+00
        -11   -1    0    0    0    0  0.00000000000E+00  0.00000000000E+00  0.45593999997E+02  0.45594000000E+02  0.51100000000E-03 0.  1.
         11   -1    0    0    0    0 -0.00000000000E+00 -0.00000000000E+00 -0.45593999997E+02  0.45594000000E+02  0.51100000000E-03 0. -1.
    9900012    2    1    2    0    0 -0.37509469183E+01  0.16693793852E+02  0.76109135908E+01  0.72461591865E+02  0.70000028099E+02 0.  0.
        -12    1    1    2    0    0  0.37509469183E+01 -0.16693793852E+02 -0.76109135908E+01  0.18726408135E+02  0.00000000000E+00 0.  1.
         11    1    3    3    0    0  0.12823667569E+02  0.98902894804E+00  0.69940860363E+01  0.14640418980E+02  0.51100000000E-03 0. -1.
        -11    1    3    3    0    0  0.15591879880E+02  0.17181692095E+02  0.84313435362E+01  0.24686125973E+02  0.51100000000E-03 0.  1.
         12    1    3    3    0    0 -0.32166494367E+02 -0.14769271911E+01 -0.78145159818E+01  0.33135046912E+02  0.00000000000E+00 0. -1.
</event>
<event>
 7    1  0.4536684E-013  0.7246160E+02  0.7816164E-02  0.1226708E+00
        -11   -1    0    0    0    0  0.00000000000E+00  0.00000000000E+00  0.45593999997E+02  0.45594000000E+02  0.51100000000E-03 0. -1.
         11   -1    0    0    0    0 -0.00000000000E+00 -0.00000000000E+00 -0.45593999997E+02  0.45594000000E+02  0.51100000000E-03 0.  1.
    9900012    2    1    2    0    0  0.67614226901E+01  0.47845994073E+01  0.16794900024E+02  0.72461604321E+02  0.70000044327E+02 0.  0.
        -12    1    1    2    0    0 -0.67614226901E+01 -0.47845994073E+01 -0.16794900024E+02  0.18726395679E+02  0.00000000000E+00 0.  1.
         11    1    3    3    0    0 -0.15265124925E+02  0.65503811710E+01  0.18366157143E+02  0.24763829690E+02  0.51100000000E-03 0. -1.
        -11    1    3    3    0    0  0.41644035205E+01  0.19092167450E+02 -0.45852192975E+01  0.20071804874E+02  0.51100000000E-03 0.  1.
        -12    1    3    3    0    0  0.17862144094E+02 -0.20857949214E+02  0.30139621790E+01  0.27625969758E+02  0.00000000000E+00 0.  1.
</event>
<event>
 7    1  0.2700104E-013  0.7246167E+02  0.7816164E-02  0.1226708E+00
        -11   -1    0    0    0    0  0.00000000000E+00  0.00000000000E+00  0.45593999997E+02  0.45594000000E+02  0.51100000000E-03 0. -1.
         11   -1    0    0    0    0 -0.00000000000E+00 -0.00000000000E+00 -0.45593999997E+02  0.45594000000E+02  0.51100000000E-03 0.  1.
    9900012    2    1    2    0    0 -0.15143160750E+02  0.30316575119E+01  0.10591001825E+02  0.72461666017E+02  0.70000124697E+02 0.  0.
        -12    1    1    2    0    0  0.15143160750E+02 -0.30316575119E+01 -0.10591001825E+02  0.18726333983E+02  0.00000000000E+00 0.  1.
         11    1    3    3    0    0  0.19043668133E+01  0.87303131164E+01  0.25012991129E+02  0.26561150305E+02  0.51100000000E-03 0. -1.
        -11    1    3    3    0    0  0.68395151833E+00  0.15212796443E+02 -0.70732134114E+00  0.15244581629E+02  0.51100000000E-03 0.  1.
         12    1    3    3    0    0 -0.17731479082E+02 -0.20911452048E+02 -0.13714667963E+02  0.30655934083E+02  0.00000000000E+00 0. -1.
</event>
<event>
 7    1  0.2700104E-013  0.7246160E+02  0.7816164E-02  0.1226708E+00
        -11   -1    0    0    0    0  0.00000000000E+00  0.00000000000E+00  0.45593999997E+02  0.45594000000E+02  0.51100000000E-03 0. -1.
         11   -1    0    0    0    0 -0.00000000000E+00 -0.00000000000E+00 -0.45593999997E+02  0.45594000000E+02  0.51100000000E-03 0.  1.
    9900012    2    1    2    0    0 -0.14881682196E+02  0.10752203452E+02  0.36883176790E+01  0.72461600683E+02  0.70000039587E+02 0.  0.
        -12    1    1    2    0    0  0.14881682196E+02 -0.10752203452E+02 -0.36883176790E+01  0.18726399317E+02  0.00000000000E+00 0.  1.
         11    1    3    3    0    0  0.14342969444E+01 -0.24952607708E+01  0.32446427319E+02  0.32573826610E+02  0.51100000000E-03 0. -1.
        -11    1    3    3    0    0 -0.20086770909E+01 -0.16499134184E+01  0.16858937748E+01  0.30982633885E+01  0.51100000000E-03 0.  1.
        -12    1    3    3    0    0 -0.14307302050E+02  0.14897377641E+02 -0.30444003414E+02  0.36789510685E+02  0.00000000000E+00 0.  1.
</event>
<event>
 7    1  0.2700104E-013  0.7246158E+02  0.7816164E-02  0.1226708E+00
        -11   -1    0    0    0    0  0.00000000000E+00  0.00000000000E+00  0.45593999997E+02  0.45594000000E+02  0.51100000000E-03 0. -1.
         11   -1    0    0    0    0 -0.00000000000E+00 -0.00000000000E+00 -0.45593999997E+02  0.45594000000E+02  0.51100000000E-03 0.  1.
    9900012    2    1    2    0    0 -0.15305570839E+02 -0.88582134454E+01  0.61603739362E+01  0.72461584134E+02  0.70000018028E+02 0.  0.
        -12    1    1    2    0    0  0.15305570839E+02  0.88582134454E+01 -0.61603739362E+01  0.18726415866E+02  0.00000000000E+00 0.  1.
         11    1    3    3    0    0  0.18620260293E+01  0.44720758515E+01 -0.18158684774E+02  0.18793733965E+02  0.51100000000E-03 0. -1.
        -11    1    3    3    0    0 -0.50961052387E+01  0.28251605072E+01 -0.11312452998E+02  0.12724913107E+02  0.51100000000E-03 0.  1.
         12    1    3    3    0    0 -0.12071491630E+02 -0.16155449804E+02  0.35631511709E+02  0.40942937061E+02  0.00000000000E+00 0. -1.
</event>
<event>
 7    1  0.2700104E-013  0.7246160E+02  0.7816164E-02  0.1226708E+00
        -11   -1    0    0    0    0  0.00000000000E+00  0.00000000000E+00  0.45593999997E+02  0.45594000000E+02  0.51100000000E-03 0. -1.
         11   -1    0    0    0    0 -0.00000000000E+00 -0.00000000000E+00 -0.45593999997E+02  0.45594000000E+02  0.51100000000E-03 0.  1.
    9900012    2    1    2    0    0  0.72311557260E+01  0.64282676879E+01  0.16033266834E+02  0.72461604619E+02  0.70000044714E+02 0.  0.
        -12    1    1    2    0    0 -0.72311557260E+01 -0.64282676879E+01 -0.16033266834E+02  0.18726395381E+02  0.00000000000E+00 0.  1.
         11    1    3    3    0    0  0.33218555828E+01  0.46417318200E+01 -0.21984932557E+02  0.22713820872E+02  0.51100000000E-03 0.  1.
        -11    1    3    3    0    0 -0.14060862699E+02  0.52210237503E+00  0.16638343720E+02  0.21790248570E+02  0.51100000000E-03 0. -1.
        -12    1    3    3    0    0  0.17970162842E+02  0.12644334929E+01  0.21379855671E+02  0.27957535177E+02  0.00000000000E+00 0.  1.
</event>
<event>
 7    1  0.2700104E-013  0.7246156E+02  0.7816164E-02  0.1226708E+00
        -11   -1    0    0    0    0  0.00000000000E+00  0.00000000000E+00  0.45593999997E+02  0.45594000000E+02  0.51100000000E-03 0. -1.
         11   -1    0    0    0    0 -0.00000000000E+00 -0.00000000000E+00 -0.45593999997E+02  0.45594000000E+02  0.51100000000E-03 0.  1.
    9900012    2    1    2    0    0 -0.66357693693E+00 -0.17403115837E+02  0.68826536260E+01  0.72461556234E+02  0.69999981684E+02 0.  0.
        -12    1    1    2    0    0  0.66357693693E+00  0.17403115837E+02 -0.68826536260E+01  0.18726443766E+02  0.00000000000E+00 0.  1.
         11    1    3    3    0    0 -0.40502216717E+01 -0.24120343723E+01 -0.11921201535E+02  0.12819409179E+02  0.51100000000E-03 0. -1.
        -11    1    3    3    0    0 -0.16618635615E+02 -0.64234754357E+01 -0.12322055263E+02  0.21662712954E+02  0.51100000000E-03 0.  1.
         12    1    3    3    0    0  0.20005280349E+02 -0.85676060289E+01  0.31125910424E+02  0.37979434101E+02  0.00000000000E+00 0. -1.
</event>
<event>
 7    1  0.2700104E-013  0.7246156E+02  0.7816164E-02  0.1226708E+00
        -11   -1    0    0    0    0  0.00000000000E+00  0.00000000000E+00  0.45593999997E+02  0.45594000000E+02  0.51100000000E-03 0. -1.
         11   -1    0    0    0    0 -0.00000000000E+00 -0.00000000000E+00 -0.45593999997E+02  0.45594000000E+02  0.51100000000E-03 0.  1.
    9900012    2    1    2    0    0  0.13227339463E+02  0.13087723615E+02  0.21043999869E+01  0.72461560989E+02  0.69999987878E+02 0.  0.
        -12    1    1    2    0    0 -0.13227339463E+02 -0.13087723615E+02 -0.21043999869E+01  0.18726439011E+02  0.00000000000E+00 0.  1.
         11    1    3    3    0    0  0.51775779827E+01  0.11693612966E+02  0.13597340480E+02  0.18666428859E+02  0.51100000000E-03 0. -1.
        -11    1    3    3    0    0 -0.14547494751E+01  0.15233457455E+02  0.15644438988E+02  0.21884309301E+02  0.51100000000E-03 0.  1.
        -12    1    3    3    0    0  0.95045109558E+01 -0.13839346806E+02 -0.27137379481E+02  0.31910822829E+02  0.00000000000E+00 0.  1.
</event>
<event>
 7    1  0.2700104E-013  0.7246155E+02  0.7816164E-02  0.1226708E+00
        -11   -1    0    0    0    0  0.00000000000E+00  0.00000000000E+00  0.45593999997E+02  0.45594000000E+02  0.51100000000E-03 0.  1.
         11   -1    0    0    0    0 -0.00000000000E+00 -0.00000000000E+00 -0.45593999997E+02  0.45594000000E+02  0.51100000000E-03 0. -1.
    9900012    2    1    2    0    0  0.88642188731E+01 -0.14018111056E+00 -0.16495028151E+02  0.72461548636E+02  0.69999971787E+02 0.  0.
        -12    1    1    2    0    0 -0.88642188731E+01  0.14018111056E+00  0.16495028151E+02  0.18726451364E+02  0.00000000000E+00 0.  1.
         11    1    3    3    0    0 -0.50849603187E+01 -0.34280431049E+01  0.86516124217E+01  0.10604654578E+02  0.51100000000E-03 0. -1.
        -11    1    3    3    0    0  0.26424814542E+02  0.13687116363E+02  0.24243416963E+01  0.29857752943E+02  0.51100000000E-03 0.  1.
         12    1    3    3    0    0 -0.12475635350E+02 -0.10399254369E+02 -0.27570982269E+02  0.31999141115E+02  0.00000000000E+00 0. -1.
</event>
<event>
 7    1  0.2700104E-013  0.7246155E+02  0.7816164E-02  0.1226708E+00
        -11   -1    0    0    0    0  0.00000000000E+00  0.00000000000E+00  0.45593999997E+02  0.45594000000E+02  0.51100000000E-03 0. -1.
         11   -1    0    0    0    0 -0.00000000000E+00 -0.00000000000E+00 -0.45593999997E+02  0.45594000000E+02  0.51100000000E-03 0.  1.
    9900012    2    1    2    0    0 -0.17688427591E+01 -0.16427089197E+02  0.88148568238E+01  0.72461554395E+02  0.69999979288E+02 0.  0.
        -12    1    1    2    0    0  0.17688427591E+01  0.16427089197E+02 -0.88148568238E+01  0.18726445605E+02  0.00000000000E+00 0.  1.
         11    1    3    3    0    0  0.13648722529E+02 -0.57168769172E+01 -0.22729765565E+01  0.14971196714E+02  0.51100000000E-03 0. -1.
        -11    1    3    3    0    0  0.13383337939E+02 -0.18356838140E+02 -0.55165703164E+01  0.23377762707E+02  0.51100000000E-03 0.  1.
        -12    1    3    3    0    0 -0.28800903226E+02  0.76466258607E+01  0.16604403697E+02  0.34112594974E+02  0.00000000000E+00 0.  1.
</event>
<event>
 7    1  0.2700104E-013  0.7246109E+02  0.7816164E-02  0.1226709E+00
        -11   -1    0    0    0    0  0.00000000000E+00  0.00000000000E+00  0.45593999997E+02  0.45594000000E+02  0.51100000000E-03 0.  1.
         11   -1    0    0    0    0 -0.00000000000E+00 -0.00000000000E+00 -0.45593999997E+02  0.45594000000E+02  0.51100000000E-03 0. -1.
    9900012    2    1    2    0    0 -0.15496831046E+02 -0.99854183994E+01 -0.32919035804E+01  0.72461094696E+02  0.69999380443E+02 0.  0.
        -12    1    1    2    0    0  0.15496831046E+02  0.99854183994E+01  0.32919035804E+01  0.18726905304E+02  0.00000000000E+00 0.  1.
         11    1    3    3    0    0 -0.66072737771E+01 -0.61652240825E+01 -0.10766227342E+02  0.14056233713E+02  0.51100000000E-03 0. -1.
        -11    1    3    3    0    0  0.14581632602E+02 -0.23161973904E+02  0.55753524736E+01  0.27931802662E+02  0.51100000000E-03 0.  1.
         12    1    3    3    0    0 -0.23471189870E+02  0.19341779587E+02  0.18989712884E+01  0.30473058322E+02  0.00000000000E+00 0. -1.
</event>
<event>
 7    1  0.2700104E-013  0.7246152E+02  0.7816164E-02  0.1226708E+00
        -11   -1    0    0    0    0  0.00000000000E+00  0.00000000000E+00  0.45593999997E+02  0.45594000000E+02  0.51100000000E-03 0. -1.
         11   -1    0    0    0    0 -0.00000000000E+00 -0.00000000000E+00 -0.45593999997E+02  0.45594000000E+02  0.51100000000E-03 0.  1.
    9900012    2    1    2    0    0  0.14119530133E+02  0.68144032188E+01  0.10241276392E+02  0.72461522367E+02  0.69999937565E+02 0.  0.
        -12    1    1    2    0    0 -0.14119530133E+02 -0.68144032188E+01 -0.10241276392E+02  0.18726477633E+02  0.00000000000E+00 0.  1.
         11    1    3    3    0    0  0.77649815322E+01  0.12665594357E+02  0.87064741404E+01  0.17219608324E+02  0.51100000000E-03 0. -1.
        -11    1    3    3    0    0  0.70328059359E+01 -0.83323363858E+01 -0.25683597612E+02  0.27902246783E+02  0.51100000000E-03 0.  1.
         12    1    3    3    0    0 -0.67825733468E+00  0.24811452472E+01  0.27218399863E+02  0.27339667260E+02  0.00000000000E+00 0. -1.
</event>
<event>
 7    1  0.2700104E-013  0.7246163E+02  0.7816164E-02  0.1226708E+00
        -11   -1    0    0    0    0  0.00000000000E+00  0.00000000000E+00  0.45593999997E+02  0.45594000000E+02  0.51100000000E-03 0.  1.
         11   -1    0    0    0    0 -0.00000000000E+00 -0.00000000000E+00 -0.45593999997E+02  0.45594000000E+02  0.51100000000E-03 0. -1.
    9900012    2    1    2    0    0 -0.10396205434E+02  0.15548981298E+02  0.90837039885E+00  0.72461627057E+02  0.70000073943E+02 0.  0.
        -12    1    1    2    0    0  0.10396205434E+02 -0.15548981298E+02 -0.90837039885E+00  0.18726372943E+02  0.00000000000E+00 0.  1.
         11    1    3    3    0    0 -0.80035853995E+01 -0.15621059232E+01 -0.13305480667E+01  0.82624398685E+01  0.51100000000E-03 0. -1.
        -11    1    3    3    0    0  0.65071183933E+01 -0.87396536597E+01  0.25864306185E+02  0.28065752628E+02  0.51100000000E-03 0.  1.
         12    1    3    3    0    0 -0.88997384276E+01  0.25850740881E+02 -0.23625387720E+02  0.36133434560E+02  0.00000000000E+00 0. -1.
</event>
<event>
 7    1  0.2700104E-013  0.7246161E+02  0.7816164E-02  0.1226708E+00
        -11   -1    0    0    0    0  0.00000000000E+00  0.00000000000E+00  0.45593999997E+02  0.45594000000E+02  0.51100000000E-03 0.  1.
         11   -1    0    0    0    0 -0.00000000000E+00 -0.00000000000E+00 -0.45593999997E+02  0.45594000000E+02  0.51100000000E-03 0. -1.
    9900012    2    1    2    0    0  0.17059622199E+02  0.76219768653E+01 -0.12459639219E+01  0.72461610412E+02  0.70000052261E+02 0.  0.
        -12    1    1    2    0    0 -0.17059622199E+02 -0.76219768653E+01  0.12459639219E+01  0.18726389588E+02  0.00000000000E+00 0.  1.
         11    1    3    3    0    0  0.23261275927E+02  0.16003002657E+01 -0.22982156498E+02  0.32738775729E+02  0.51100000000E-03 0. -1.
        -11    1    3    3    0    0 -0.20134915683E+01 -0.95258960035E+01 -0.30172600734E+01  0.10193169359E+02  0.51100000000E-03 0.  1.
        -12    1    3    3    0    0 -0.41881621594E+01  0.15547572603E+02  0.24753452649E+02  0.29529665325E+02  0.00000000000E+00 0.  1.
</event>
<event>
 7    1  0.2700104E-013  0.7246147E+02  0.7816164E-02  0.1226708E+00
        -11   -1    0    0    0    0  0.00000000000E+00  0.00000000000E+00  0.45593999997E+02  0.45594000000E+02  0.51100000000E-03 0. -1.
         11   -1    0    0    0    0 -0.00000000000E+00 -0.00000000000E+00 -0.45593999997E+02  0.45594000000E+02  0.51100000000E-03 0.  1.
    9900012    2    1    2    0    0  0.71905931621E+01  0.18889744097E+01  0.17187500204E+02  0.72461467550E+02  0.69999866156E+02 0.  0.
        -12    1    1    2    0    0 -0.71905931621E+01 -0.18889744097E+01 -0.17187500204E+02  0.18726532450E+02  0.00000000000E+00 0.  1.
         11    1    3    3    0    0  0.47129373514E+01 -0.44404263983E+01  0.12029449311E+02  0.13661508557E+02  0.51100000000E-03 0. -1.
        -11    1    3    3    0    0  0.25594229375E+02  0.14424506088E+02 -0.87233282203E+01  0.30646817268E+02  0.51100000000E-03 0.  1.
         12    1    3    3    0    0 -0.23116573564E+02 -0.80951052804E+01  0.13881379114E+02  0.28153141724E+02  0.00000000000E+00 0. -1.
</event>
<event>
 7    1  0.2700104E-013  0.7246156E+02  0.7816164E-02  0.1226708E+00
        -11   -1    0    0    0    0  0.00000000000E+00  0.00000000000E+00  0.45593999997E+02  0.45594000000E+02  0.51100000000E-03 0. -1.
         11   -1    0    0    0    0 -0.00000000000E+00 -0.00000000000E+00 -0.45593999997E+02  0.45594000000E+02  0.51100000000E-03 0.  1.
    9900012    2    1    2    0    0  0.10657301047E+02  0.70582225402E+01  0.13685133179E+02  0.72461563041E+02  0.69999990552E+02 0.  0.
        -12    1    1    2    0    0 -0.10657301047E+02 -0.70582225402E+01 -0.13685133179E+02  0.18726436959E+02  0.00000000000E+00 0.  1.
         11    1    3    3    0    0 -0.57978142959E+01  0.18998950432E+02  0.19857503463E+02  0.28087278475E+02  0.51100000000E-03 0. -1.
        -11    1    3    3    0    0  0.15999556258E+02  0.11974094986E+02 -0.18717555406E+01  0.20071577423E+02  0.51100000000E-03 0.  1.
         12    1    3    3    0    0  0.45555908586E+00 -0.23914822877E+02 -0.43006147433E+01  0.24302707144E+02  0.00000000000E+00 0. -1.
</event>
<event>
 7    1  0.2700104E-013  0.7246158E+02  0.7816164E-02  0.1226708E+00
        -11   -1    0    0    0    0  0.00000000000E+00  0.00000000000E+00  0.45593999997E+02  0.45594000000E+02  0.51100000000E-03 0. -1.
         11   -1    0    0    0    0 -0.00000000000E+00 -0.00000000000E+00 -0.45593999997E+02  0.45594000000E+02  0.51100000000E-03 0.  1.
    9900012    2    1    2    0    0  0.89687430884E+01 -0.93849357742E+01  0.13496787983E+02  0.72461583954E+02  0.70000017794E+02 0.  0.
        -12    1    1    2    0    0 -0.89687430884E+01  0.93849357742E+01 -0.13496787983E+02  0.18726416046E+02  0.00000000000E+00 0.  1.
         11    1    3    3    0    0 -0.91268790379E+01 -0.13869929870E+01  0.55850502403E+01  0.10789645822E+02  0.51100000000E-03 0. -1.
        -11    1    3    3    0    0  0.10649284068E+02 -0.32627354628E+02 -0.12902236076E+01  0.34345541172E+02  0.51100000000E-03 0.  1.
         12    1    3    3    0    0  0.74463380582E+01  0.24629411841E+02  0.92019613503E+01  0.27326396960E+02  0.00000000000E+00 0. -1.
</event>
<event>
 7    1  0.2700104E-013  0.7246158E+02  0.7816164E-02  0.1226708E+00
        -11   -1    0    0    0    0  0.00000000000E+00  0.00000000000E+00  0.45593999997E+02  0.45594000000E+02  0.51100000000E-03 0.  1.
         11   -1    0    0    0    0 -0.00000000000E+00 -0.00000000000E+00 -0.45593999997E+02  0.45594000000E+02  0.51100000000E-03 0. -1.
    9900012    2    1    2    0    0  0.55129601856E+01  0.77010989997E+01 -0.16154853209E+02  0.72461576476E+02  0.70000008053E+02 0.  0.
        -12    1    1    2    0    0 -0.55129601856E+01 -0.77010989997E+01  0.16154853209E+02  0.18726423524E+02  0.00000000000E+00 0.  1.
         11    1    3    3    0    0 -0.82673067902E+01 -0.17231010322E+02 -0.13098982226E+02  0.23169795292E+02  0.51100000000E-03 0. -1.
        -11    1    3    3    0    0 -0.33378045540E+01  0.16403791981E+02 -0.18324439474E+02  0.24819557065E+02  0.51100000000E-03 0.  1.
        -12    1    3    3    0    0  0.17118071530E+02  0.85283173403E+01  0.15268568491E+02  0.24472224119E+02  0.00000000000E+00 0.  1.
</event>
<event>
 7    1  0.2700104E-013  0.7246156E+02  0.7816164E-02  0.1226708E+00
        -11   -1    0    0    0    0  0.00000000000E+00  0.00000000000E+00  0.45593999997E+02  0.45594000000E+02  0.51100000000E-03 0.  1.
         11   -1    0    0    0    0 -0.00000000000E+00 -0.00000000000E+00 -0.45593999997E+02  0.45594000000E+02  0.51100000000E-03 0. -1.
    9900012    2    1    2    0    0 -0.27446138232E+01 -0.16695445865E+02 -0.80255149532E+01  0.72461555919E+02  0.69999981273E+02 0.  0.
        -12    1    1    2    0    0  0.27446138232E+01  0.16695445865E+02  0.80255149532E+01  0.18726444081E+02  0.00000000000E+00 0.  1.
         11    1    3    3    0    0  0.20552515461E+02  0.72893002636E+01 -0.21255612141E+02  0.30452271473E+02  0.51100000000E-03 0. -1.
        -11    1    3    3    0    0  0.55842073593E-01 -0.51017346812E+01 -0.47795415481E+01  0.69910537665E+01  0.51100000000E-03 0.  1.
        -12    1    3    3    0    0 -0.23352971357E+02 -0.18883011447E+02  0.18009638736E+02  0.35018230680E+02  0.00000000000E+00 0.  1.
</event>
<event>
 7    1  0.2700104E-013  0.7246150E+02  0.7816164E-02  0.1226708E+00
        -11   -1    0    0    0    0  0.00000000000E+00  0.00000000000E+00  0.45593999997E+02  0.45594000000E+02  0.51100000000E-03 0. -1.
         11   -1    0    0    0    0 -0.00000000000E+00 -0.00000000000E+00 -0.45593999997E+02  0.45594000000E+02  0.51100000000E-03 0.  1.
    9900012    2    1    2    0    0 -0.97925032567E+01  0.13210582944E+02 -0.89592974938E+01  0.72461504510E+02  0.69999914303E+02 0.  0.
        -12    1    1    2    0    0  0.97925032567E+01 -0.13210582944E+02  0.89592974938E+01  0.18726495490E+02  0.00000000000E+00 0.  1.
         11    1    3    3    0    0  0.21722445156E+01 -0.19523164286E+01  0.32178172247E+01  0.43456338578E+01  0.51100000000E-03 0. -1.
        -11    1    3    3    0    0  0.15627382165E+02  0.23967419729E+02  0.11370319655E+02  0.30788576633E+02  0.51100000000E-03 0.  1.
        -12    1    3    3    0    0 -0.27592129937E+02 -0.88045203554E+01 -0.23547434374E+02  0.37327294019E+02  0.00000000000E+00 0.  1.
</event>
<event>
 7    1  0.2700104E-013  0.7246160E+02  0.7816164E-02  0.1226708E+00
        -11   -1    0    0    0    0  0.00000000000E+00  0.00000000000E+00  0.45593999997E+02  0.45594000000E+02  0.51100000000E-03 0.  1.
         11   -1    0    0    0    0 -0.00000000000E+00 -0.00000000000E+00 -0.45593999997E+02  0.45594000000E+02  0.51100000000E-03 0. -1.
    9900012    2    1    2    0    0 -0.11868886052E+02 -0.13160412793E+02 -0.60507152133E+01  0.72461599502E+02  0.70000038049E+02 0.  0.
        -12    1    1    2    0    0  0.11868886052E+02  0.13160412793E+02  0.60507152133E+01  0.18726400498E+02  0.00000000000E+00 0.  1.
         11    1    3    3    0    0  0.95674468209E+01  0.19943368792E+01  0.67886840219E+00  0.97966464071E+01  0.51100000000E-03 0. -1.
        -11    1    3    3    0    0  0.26680113260E+01 -0.10629612806E+02  0.22188379963E+02  0.24747346493E+02  0.51100000000E-03 0.  1.
         12    1    3    3    0    0 -0.24104344199E+02 -0.45251368666E+01 -0.28917963578E+02  0.37917606602E+02  0.00000000000E+00 0. -1.
</event>
<event>
 7    1  0.2700104E-013  0.7246154E+02  0.7816164E-02  0.1226708E+00
        -11   -1    0    0    0    0  0.00000000000E+00  0.00000000000E+00  0.45593999997E+02  0.45594000000E+02  0.51100000000E-03 0.  1.
         11   -1    0    0    0    0 -0.00000000000E+00 -0.00000000000E+00 -0.45593999997E+02  0.45594000000E+02  0.51100000000E-03 0. -1.
    9900012    2    1    2    0    0 -0.33509539191E+01  0.51156652837E+01 -0.17699759968E+02  0.72461536736E+02  0.69999956284E+02 0.  0.
        -12    1    1    2    0    0  0.33509539191E+01 -0.51156652837E+01  0.17699759968E+02  0.18726463264E+02  0.00000000000E+00 0.  1.
         11    1    3    3    0    0 -0.28464668549E+01  0.11133685096E+02  0.73764649580E+01  0.13655531952E+02  0.51100000000E-03 0. -1.
        -11    1    3    3    0    0 -0.17754795668E+02 -0.19953523908E+02 -0.19726451919E+01  0.26781844875E+02  0.51100000000E-03 0.  1.
         12    1    3    3    0    0  0.17250308604E+02  0.13935504096E+02 -0.23103579734E+02  0.32024159909E+02  0.00000000000E+00 0. -1.
</event>
<event>
 7    1  0.2700104E-013  0.7246121E+02  0.7816164E-02  0.1226709E+00
        -11   -1    0    0    0    0  0.00000000000E+00  0.00000000000E+00  0.45593999997E+02  0.45594000000E+02  0.51100000000E-03 0. -1.
         11   -1    0    0    0    0 -0.00000000000E+00 -0.00000000000E+00 -0.45593999997E+02  0.45594000000E+02  0.51100000000E-03 0.  1.
    9900012    2    1    2    0    0 -0.14597996419E+02 -0.70439727473E+01  0.93794196853E+01  0.72461212631E+02  0.69999534076E+02 0.  0.
        -12    1    1    2    0    0  0.14597996419E+02  0.70439727473E+01 -0.93794196853E+01  0.18726787369E+02  0.00000000000E+00 0.  1.
         11    1    3    3    0    0 -0.25914146950E+02  0.96089023761E+00  0.14556811137E+02  0.29738309853E+02  0.51100000000E-03 0. -1.
        -11    1    3    3    0    0 -0.27434617071E+01  0.14737632194E+02 -0.55433501592E+01  0.15982900740E+02  0.51100000000E-03 0.  1.
         12    1    3    3    0    0  0.14059612238E+02 -0.22742495179E+02  0.36595870792E+00  0.26740002038E+02  0.00000000000E+00 0. -1.
</event>
<event>
 7    1  0.2700104E-013  0.7246152E+02  0.7816164E-02  0.1226708E+00
        -11   -1    0    0    0    0  0.00000000000E+00  0.00000000000E+00  0.45593999997E+02  0.45594000000E+02  0.51100000000E-03 0.  1.
         11   -1    0    0    0    0 -0.00000000000E+00 -0.00000000000E+00 -0.45593999997E+02  0.45594000000E+02  0.51100000000E-03 0. -1.
    9900012    2    1    2    0    0 -0.12528911737E+02  0.98741422991E+01 -0.98086042070E+01  0.72461520567E+02  0.69999935221E+02 0.  0.
        -12    1    1    2    0    0  0.12528911737E+02 -0.98741422991E+01  0.98086042070E+01  0.18726479433E+02  0.00000000000E+00 0.  1.
         11    1    3    3    0    0 -0.18225728314E+02 -0.14832195228E+00 -0.83928750198E+00  0.18245645391E+02  0.51100000000E-03 0. -1.
        -11    1    3    3    0    0 -0.79735399899E+01  0.12467184573E+02 -0.27398708009E+02  0.31139961977E+02  0.51100000000E-03 0.  1.
        -12    1    3    3    0    0  0.13670356566E+02 -0.24447203221E+01  0.18429391304E+02  0.23075913198E+02  0.00000000000E+00 0.  1.
</event>
<event>
 7    1  0.2700104E-013  0.7246165E+02  0.7816164E-02  0.1226708E+00
        -11   -1    0    0    0    0  0.00000000000E+00  0.00000000000E+00  0.45593999997E+02  0.45594000000E+02  0.51100000000E-03 0.  1.
         11   -1    0    0    0    0 -0.00000000000E+00 -0.00000000000E+00 -0.45593999997E+02  0.45594000000E+02  0.51100000000E-03 0. -1.
    9900012    2    1    2    0    0  0.93592462098E+01  0.13028305534E+02 -0.96614683884E+01  0.72461649418E+02  0.70000103073E+02 0.  0.
        -12    1    1    2    0    0 -0.93592462098E+01 -0.13028305534E+02  0.96614683884E+01  0.18726350582E+02  0.00000000000E+00 0.  1.
         11    1    3    3    0    0 -0.51452938090E+01 -0.92328440549E+01 -0.17462461814E+00  0.10571184973E+02  0.51100000000E-03 0. -1.
        -11    1    3    3    0    0  0.17359965398E+02  0.29598035667E+00  0.19044044159E+02  0.25770751274E+02  0.51100000000E-03 0.  1.
         12    1    3    3    0    0 -0.28554253795E+01  0.21965169232E+02 -0.28530887930E+02  0.36119713171E+02  0.00000000000E+00 0. -1.
</event>
<event>
 7    1  0.2700104E-013  0.7246158E+02  0.7816164E-02  0.1226708E+00
        -11   -1    0    0    0    0  0.00000000000E+00  0.00000000000E+00  0.45593999997E+02  0.45594000000E+02  0.51100000000E-03 0. -1.
         11   -1    0    0    0    0 -0.00000000000E+00 -0.00000000000E+00 -0.45593999997E+02  0.45594000000E+02  0.51100000000E-03 0.  1.
    9900012    2    1    2    0    0  0.14682183646E+02 -0.11371075705E+02  0.24105898141E+01  0.72461579559E+02  0.70000012068E+02 0.  0.
        -12    1    1    2    0    0 -0.14682183646E+02  0.11371075705E+02 -0.24105898141E+01  0.18726420441E+02  0.00000000000E+00 0.  1.
         11    1    3    3    0    0  0.55703928106E+01  0.14838469387E+02  0.78974614690E+01  0.17708171778E+02  0.51100000000E-03 0.  1.
        -11    1    3    3    0    0 -0.57572774384E+01 -0.11843895931E+01  0.16988881314E+02  0.17976960554E+02  0.51100000000E-03 0. -1.
        -12    1    3    3    0    0  0.14869068274E+02 -0.25025155499E+02 -0.22475752969E+02  0.36776447226E+02  0.00000000000E+00 0.  1.
</event>
<event>
 7    1  0.2700104E-013  0.7246160E+02  0.7816164E-02  0.1226708E+00
        -11   -1    0    0    0    0  0.00000000000E+00  0.00000000000E+00  0.45593999997E+02  0.45594000000E+02  0.51100000000E-03 0. -1.
         11   -1    0    0    0    0 -0.00000000000E+00 -0.00000000000E+00 -0.45593999997E+02  0.45594000000E+02  0.51100000000E-03 0.  1.
    9900012    2    1    2    0    0  0.18397499584E+02 -0.74667027671E+00 -0.34135866768E+01  0.72461599346E+02  0.70000037845E+02 0.  0.
        -12    1    1    2    0    0 -0.18397499584E+02  0.74667027671E+00  0.34135866768E+01  0.18726400654E+02  0.00000000000E+00 0.  1.
         11    1    3    3    0    0  0.97488546900E+01  0.86575664660E+01  0.15225343569E+02  0.20045067023E+02  0.51100000000E-03 0. -1.
        -11    1    3    3    0    0 -0.56785712404E+01  0.17517743620E+02 -0.55868644756E+01  0.19243974844E+02  0.51100000000E-03 0.  1.
        -12    1    3    3    0    0  0.14327216134E+02 -0.26921980363E+02 -0.13052065770E+02  0.33172557479E+02  0.00000000000E+00 0.  1.
</event>
<event>
 7    1  0.2700104E-013  0.7246161E+02  0.7816164E-02  0.1226708E+00
        -11   -1    0    0    0    0  0.00000000000E+00  0.00000000000E+00  0.45593999997E+02  0.45594000000E+02  0.51100000000E-03 0.  1.
         11   -1    0    0    0    0 -0.00000000000E+00 -0.00000000000E+00 -0.45593999997E+02  0.45594000000E+02  0.51100000000E-03 0. -1.
    9900012    2    1    2    0    0 -0.11778817701E+02  0.14304742018E+02 -0.27039691422E+01  0.72461611140E+02  0.70000053208E+02 0.  0.
        -12    1    1    2    0    0  0.11778817701E+02 -0.14304742018E+02  0.27039691422E+01  0.18726388860E+02  0.00000000000E+00 0.  1.
         11    1    3    3    0    0 -0.26760609613E+02 -0.90792152948E+01 -0.15667957375E+02  0.32311720254E+02  0.51100000000E-03 0. -1.
        -11    1    3    3    0    0 -0.18214346689E+01 -0.24114670049E+01 -0.39894788447E+01  0.50048715350E+01  0.51100000000E-03 0.  1.
        -12    1    3    3    0    0  0.16803226580E+02  0.25795424317E+02  0.16953467077E+02  0.35145019351E+02  0.00000000000E+00 0.  1.
</event>
<event>
 7    1  0.2700104E-013  0.7246153E+02  0.7816164E-02  0.1226708E+00
        -11   -1    0    0    0    0  0.00000000000E+00  0.00000000000E+00  0.45593999997E+02  0.45594000000E+02  0.51100000000E-03 0. -1.
         11   -1    0    0    0    0 -0.00000000000E+00 -0.00000000000E+00 -0.45593999997E+02  0.45594000000E+02  0.51100000000E-03 0.  1.
    9900012    2    1    2    0    0  0.24711135444E+01 -0.77448250243E+01  0.16869848509E+02  0.72461534623E+02  0.69999953531E+02 0.  0.
        -12    1    1    2    0    0 -0.24711135444E+01  0.77448250243E+01 -0.16869848509E+02  0.18726465377E+02  0.00000000000E+00 0.  1.
         11    1    3    3    0    0 -0.81908304031E+01 -0.18874803887E+02 -0.56613807651E+01  0.21340083338E+02  0.51100000000E-03 0.  1.
        -11    1    3    3    0    0 -0.13732820470E+02  0.75013019288E+01  0.21296661192E+02  0.26427403710E+02  0.51100000000E-03 0. -1.
        -12    1    3    3    0    0  0.24394764417E+02  0.36286769338E+01  0.12345680826E+01  0.24694047574E+02  0.00000000000E+00 0.  1.
</event>
<event>
 7    1  0.2700104E-013  0.7246205E+02  0.7816164E-02  0.1226707E+00
        -11   -1    0    0    0    0  0.00000000000E+00  0.00000000000E+00  0.45593999997E+02  0.45594000000E+02  0.51100000000E-03 0. -1.
         11   -1    0    0    0    0 -0.00000000000E+00 -0.00000000000E+00 -0.45593999997E+02  0.45594000000E+02  0.51100000000E-03 0.  1.
    9900012    2    1    2    0    0  0.17679271233E+01 -0.59402224229E+01  0.17670580932E+02  0.72462049043E+02  0.70000623657E+02 0.  0.
        -12    1    1    2    0    0 -0.17679271233E+01  0.59402224229E+01 -0.17670580932E+02  0.18725950957E+02  0.00000000000E+00 0.  1.
         11    1    3    3    0    0  0.65349313177E+01 -0.18013246697E+02  0.26403179981E+02  0.32623768900E+02  0.51100000000E-03 0. -1.
        -11    1    3    3    0    0  0.29168732088E+01 -0.77995470831E+01  0.88955035839E+01  0.12184870467E+02  0.51100000000E-03 0.  1.
        -12    1    3    3    0    0 -0.76838774031E+01  0.19872571357E+02 -0.17628102633E+02  0.27653409676E+02  0.00000000000E+00 0.  1.
</event>
<event>
 7    1  0.2700104E-013  0.7246155E+02  0.7816164E-02  0.1226708E+00
        -11   -1    0    0    0    0  0.00000000000E+00  0.00000000000E+00  0.45593999997E+02  0.45594000000E+02  0.51100000000E-03 0.  1.
         11   -1    0    0    0    0 -0.00000000000E+00 -0.00000000000E+00 -0.45593999997E+02  0.45594000000E+02  0.51100000000E-03 0. -1.
    9900012    2    1    2    0    0  0.11149053459E+00  0.16364520881E+01 -0.18654473445E+02  0.72461553858E+02  0.69999978589E+02 0.  0.
        -12    1    1    2    0    0 -0.11149053459E+00 -0.16364520881E+01  0.18654473445E+02  0.18726446142E+02  0.00000000000E+00 0.  1.
         11    1    3    3    0    0 -0.80919084592E+01 -0.91056767720E+01 -0.11674816674E+02  0.16872868062E+02  0.51100000000E-03 0. -1.
        -11    1    3    3    0    0  0.22088331466E+01 -0.21639228496E+02  0.74067407854E+00  0.21764276972E+02  0.51100000000E-03 0.  1.
        -12    1    3    3    0    0  0.59945658472E+01  0.32381357356E+02 -0.77203308495E+01  0.33824408825E+02  0.00000000000E+00 0.  1.
</event>
<event>
 7    1  0.2700104E-013  0.7246159E+02  0.7816164E-02  0.1226708E+00
        -11   -1    0    0    0    0  0.00000000000E+00  0.00000000000E+00  0.45593999997E+02  0.45594000000E+02  0.51100000000E-03 0. -1.
         11   -1    0    0    0    0 -0.00000000000E+00 -0.00000000000E+00 -0.45593999997E+02  0.45594000000E+02  0.51100000000E-03 0.  1.
    9900012    2    1    2    0    0 -0.13813201801E+02 -0.12164206387E+02  0.34505221865E+01  0.72461586452E+02  0.70000021048E+02 0.  0.
        -12    1    1    2    0    0  0.13813201801E+02  0.12164206387E+02 -0.34505221865E+01  0.18726413548E+02  0.00000000000E+00 0.  1.
         11    1    3    3    0    0 -0.16597062326E+02  0.49208413418E+01  0.17882528048E+01  0.17403304449E+02  0.51100000000E-03 0. -1.
        -11    1    3    3    0    0 -0.73931502597E+01  0.17023002730E+02 -0.40847804127E+01  0.19003334549E+02  0.51100000000E-03 0.  1.
         12    1    3    3    0    0  0.10177010785E+02 -0.34108050458E+02  0.57470497944E+01  0.36054947454E+02  0.00000000000E+00 0. -1.
</event>
<event>
 7    1  0.2700104E-013  0.7246162E+02  0.7816164E-02  0.1226708E+00
        -11   -1    0    0    0    0  0.00000000000E+00  0.00000000000E+00  0.45593999997E+02  0.45594000000E+02  0.51100000000E-03 0. -1.
         11   -1    0    0    0    0 -0.00000000000E+00 -0.00000000000E+00 -0.45593999997E+02  0.45594000000E+02  0.51100000000E-03 0.  1.
    9900012    2    1    2    0    0  0.64367589050E+01  0.31550337954E+01  0.17300034032E+02  0.72461620719E+02  0.70000065688E+02 0.  0.
        -12    1    1    2    0    0 -0.64367589050E+01 -0.31550337954E+01 -0.17300034032E+02  0.18726379281E+02  0.00000000000E+00 0.  1.
         11    1    3    3    0    0 -0.12941305960E+01 -0.94086696691E+01  0.24294922935E+02  0.26085266332E+02  0.51100000000E-03 0. -1.
        -11    1    3    3    0    0 -0.98978089157E+01 -0.95934839566E+01  0.62287854451E+01  0.15126113980E+02  0.51100000000E-03 0.  1.
         12    1    3    3    0    0  0.17628698417E+02  0.22157187421E+02 -0.13223674348E+02  0.31250240408E+02  0.00000000000E+00 0. -1.
</event>
<event>
 7    1  0.2700104E-013  0.7246159E+02  0.7816164E-02  0.1226708E+00
        -11   -1    0    0    0    0  0.00000000000E+00  0.00000000000E+00  0.45593999997E+02  0.45594000000E+02  0.51100000000E-03 0.  1.
         11   -1    0    0    0    0 -0.00000000000E+00 -0.00000000000E+00 -0.45593999997E+02  0.45594000000E+02  0.51100000000E-03 0. -1.
    9900012    2    1    2    0    0  0.44547677287E+01 -0.14713100169E+02 -0.10693845976E+02  0.72461585131E+02  0.70000019328E+02 0.  0.
        -12    1    1    2    0    0 -0.44547677287E+01  0.14713100169E+02  0.10693845976E+02  0.18726414869E+02  0.00000000000E+00 0.  1.
         11    1    3    3    0    0  0.13115168803E+02  0.37775417419E+01 -0.15013767803E+01  0.13730681223E+02  0.51100000000E-03 0. -1.
        -11    1    3    3    0    0  0.14338283351E+01  0.27256949749E+00  0.21400269268E+02  0.21449980952E+02  0.51100000000E-03 0.  1.
        -12    1    3    3    0    0 -0.10094229410E+02 -0.18763211408E+02 -0.30592738464E+02  0.37280922956E+02  0.00000000000E+00 0.  1.
</event>
<event>
 7    1  0.2700104E-013  0.7246162E+02  0.7816164E-02  0.1226708E+00
        -11   -1    0    0    0    0  0.00000000000E+00  0.00000000000E+00  0.45593999997E+02  0.45594000000E+02  0.51100000000E-03 0.  1.
         11   -1    0    0    0    0 -0.00000000000E+00 -0.00000000000E+00 -0.45593999997E+02  0.45594000000E+02  0.51100000000E-03 0. -1.
    9900012    2    1    2    0    0 -0.17330211851E+02  0.45783195434E+01 -0.54203313090E+01  0.72461621703E+02  0.70000066969E+02 0.  0.
        -12    1    1    2    0    0  0.17330211851E+02 -0.45783195434E+01  0.54203313090E+01  0.18726378297E+02  0.00000000000E+00 0.  1.
         11    1    3    3    0    0 -0.18577065457E+02  0.84003211497E+01 -0.27851930427E+02  0.34516702988E+02  0.51100000000E-03 0. -1.
        -11    1    3    3    0    0 -0.10707989667E+02 -0.16224758263E+01 -0.16636030061E+01  0.10957237140E+02  0.51100000000E-03 0.  1.
        -12    1    3    3    0    0  0.11954843274E+02 -0.21995257799E+01  0.24095202124E+02  0.26987681574E+02  0.00000000000E+00 0.  1.
</event>
<event>
 7    1  0.2700104E-013  0.7246151E+02  0.7816164E-02  0.1226708E+00
        -11   -1    0    0    0    0  0.00000000000E+00  0.00000000000E+00  0.45593999997E+02  0.45594000000E+02  0.51100000000E-03 0. -1.
         11   -1    0    0    0    0 -0.00000000000E+00 -0.00000000000E+00 -0.45593999997E+02  0.45594000000E+02  0.51100000000E-03 0.  1.
    9900012    2    1    2    0    0  0.41643076544E+01 -0.18043182000E+02 -0.27899021530E+01  0.72461509967E+02  0.69999921413E+02 0.  0.
        -12    1    1    2    0    0 -0.41643076544E+01  0.18043182000E+02  0.27899021530E+01  0.18726490033E+02  0.00000000000E+00 0.  1.
         11    1    3    3    0    0 -0.26892976426E+01  0.11204126290E+01 -0.24668136927E+01  0.38174358312E+01  0.51100000000E-03 0. -1.
        -11    1    3    3    0    0 -0.46743976269E+01 -0.65754298289E+01 -0.31815960794E+02  0.32822882751E+02  0.51100000000E-03 0.  1.
         12    1    3    3    0    0  0.11528002924E+02 -0.12588164800E+02  0.31492872333E+02  0.35821191385E+02  0.00000000000E+00 0. -1.
</event>
<event>
 7    1  0.2700104E-013  0.7246162E+02  0.7816164E-02  0.1226708E+00
        -11   -1    0    0    0    0  0.00000000000E+00  0.00000000000E+00  0.45593999997E+02  0.45594000000E+02  0.51100000000E-03 0. -1.
         11   -1    0    0    0    0 -0.00000000000E+00 -0.00000000000E+00 -0.45593999997E+02  0.45594000000E+02  0.51100000000E-03 0.  1.
    9900012    2    1    2    0    0 -0.11863249632E+01  0.45841735174E+01  0.18117818174E+02  0.72461618899E+02  0.70000063317E+02 0.  0.
        -12    1    1    2    0    0  0.11863249632E+01 -0.45841735174E+01 -0.18117818174E+02  0.18726381101E+02  0.00000000000E+00 0.  1.
         11    1    3    3    0    0  0.14991886507E+01  0.36587657662E+00  0.25136158619E+02  0.25183484720E+02  0.51100000000E-03 0. -1.
        -11    1    3    3    0    0  0.67264622118E+01 -0.14202341139E+02  0.11532683906E+02  0.19492423811E+02  0.51100000000E-03 0.  1.
        -12    1    3    3    0    0 -0.94119758256E+01  0.18420638080E+02 -0.18551024351E+02  0.27785710368E+02  0.00000000000E+00 0.  1.
</event>
<event>
 7    1  0.2700104E-013  0.7246159E+02  0.7816164E-02  0.1226708E+00
        -11   -1    0    0    0    0  0.00000000000E+00  0.00000000000E+00  0.45593999997E+02  0.45594000000E+02  0.51100000000E-03 0. -1.
         11   -1    0    0    0    0 -0.00000000000E+00 -0.00000000000E+00 -0.45593999997E+02  0.45594000000E+02  0.51100000000E-03 0.  1.
    9900012    2    1    2    0    0 -0.35734748086E+01 -0.44222458521E+01  0.17842437852E+02  0.72461586326E+02  0.70000020884E+02 0.  0.
        -12    1    1    2    0    0  0.35734748086E+01  0.44222458521E+01 -0.17842437852E+02  0.18726413674E+02  0.00000000000E+00 0.  1.
         11    1    3    3    0    0  0.19764198483E+02  0.18845761760E+02  0.18903742808E+02  0.33213517886E+02  0.51100000000E-03 0. -1.
        -11    1    3    3    0    0  0.28183907613E+01  0.15074667671E+01 -0.33214566095E+00  0.32134255147E+01  0.51100000000E-03 0.  1.
        -12    1    3    3    0    0 -0.26156064053E+02 -0.24775474379E+02 -0.72915929495E+00  0.36034642925E+02  0.00000000000E+00 0.  1.
</event>
<event>
 7    1  0.2700104E-013  0.7246167E+02  0.7816164E-02  0.1226708E+00
        -11   -1    0    0    0    0  0.00000000000E+00  0.00000000000E+00  0.45593999997E+02  0.45594000000E+02  0.51100000000E-03 0.  1.
         11   -1    0    0    0    0 -0.00000000000E+00 -0.00000000000E+00 -0.45593999997E+02  0.45594000000E+02  0.51100000000E-03 0. -1.
    9900012    2    1    2    0    0 -0.15830270197E+01  0.78729371627E-01 -0.18659131221E+02  0.72461672256E+02  0.70000132824E+02 0.  0.
        -12    1    1    2    0    0  0.15830270197E+01 -0.78729371627E-01  0.18659131221E+02  0.18726327744E+02  0.00000000000E+00 0.  1.
         11    1    3    3    0    0 -0.24646004627E+02  0.22472523238E+02 -0.64573561454E+01  0.33972596212E+02  0.51100000000E-03 0. -1.
        -11    1    3    3    0    0 -0.15350755149E+01  0.10755938053E+01 -0.25172481082E+01  0.31384545831E+01  0.51100000000E-03 0.  1.
        -12    1    3    3    0    0  0.24598053122E+02 -0.23469387672E+02 -0.96845269669E+01  0.35350621461E+02  0.00000000000E+00 0.  1.
</event>
<event>
 7    1  0.2700104E-013  0.7246153E+02  0.7816164E-02  0.1226708E+00
        -11   -1    0    0    0    0  0.00000000000E+00  0.00000000000E+00  0.45593999997E+02  0.45594000000E+02  0.51100000000E-03 0. -1.
         11   -1    0    0    0    0 -0.00000000000E+00 -0.00000000000E+00 -0.45593999997E+02  0.45594000000E+02  0.51100000000E-03 0.  1.
    9900012    2    1    2    0    0  0.54760867285E+01  0.34188589202E+01  0.17578529214E+02  0.72461526453E+02  0.69999942889E+02 0.  0.
        -12    1    1    2    0    0 -0.54760867285E+01 -0.34188589202E+01 -0.17578529214E+02  0.18726473547E+02  0.00000000000E+00 0.  1.
         11    1    3    3    0    0  0.21198962982E+02 -0.14630528765E+02  0.17359402747E+01  0.25815923232E+02  0.51100000000E-03 0. -1.
        -11    1    3    3    0    0  0.48403585681E+01 -0.67628775101E+01 -0.35415109159E+01  0.90392412907E+01  0.51100000000E-03 0.  1.
        -12    1    3    3    0    0 -0.20563234821E+02  0.24812265195E+02  0.19384099855E+02  0.37606361930E+02  0.00000000000E+00 0.  1.
</event>
<event>
 7    1  0.2700104E-013  0.7246154E+02  0.7816164E-02  0.1226708E+00
        -11   -1    0    0    0    0  0.00000000000E+00  0.00000000000E+00  0.45593999997E+02  0.45594000000E+02  0.51100000000E-03 0.  1.
         11   -1    0    0    0    0 -0.00000000000E+00 -0.00000000000E+00 -0.45593999997E+02  0.45594000000E+02  0.51100000000E-03 0. -1.
    9900012    2    1    2    0    0  0.80937916271E+01  0.63737943537E+01  0.15637949595E+02  0.72461543184E+02  0.69999964683E+02 0.  0.
        -12    1    1    2    0    0 -0.80937916271E+01 -0.63737943537E+01 -0.15637949595E+02  0.18726456816E+02  0.00000000000E+00 0.  1.
         11    1    3    3    0    0  0.46504184273E+01  0.15478744571E+02 -0.13200240367E+02  0.20867780693E+02  0.51100000000E-03 0. -1.
        -11    1    3    3    0    0  0.83004430248E+01  0.81471143563E+01 -0.54954500933E+01  0.12863623079E+02  0.51100000000E-03 0.  1.
         12    1    3    3    0    0 -0.48570698249E+01 -0.17252064574E+02  0.34333640055E+02  0.38730139411E+02  0.00000000000E+00 0. -1.
</event>
<event>
 7    1  0.2700104E-013  0.7246123E+02  0.7816164E-02  0.1226709E+00
        -11   -1    0    0    0    0  0.00000000000E+00  0.00000000000E+00  0.45593999997E+02  0.45594000000E+02  0.51100000000E-03 0. -1.
         11   -1    0    0    0    0 -0.00000000000E+00 -0.00000000000E+00 -0.45593999997E+02  0.45594000000E+02  0.51100000000E-03 0.  1.
    9900012    2    1    2    0    0 -0.38090171405E+01 -0.12036675741E+02  0.13831182636E+02  0.72461233392E+02  0.69999561121E+02 0.  0.
        -12    1    1    2    0    0  0.38090171405E+01  0.12036675741E+02 -0.13831182636E+02  0.18726766608E+02  0.00000000000E+00 0.  1.
         11    1    3    3    0    0  0.15256785748E+02  0.22429813191E+02  0.94436443314E+01  0.28723656620E+02  0.51100000000E-03 0. -1.
        -11    1    3    3    0    0 -0.80801293939E+00  0.21847848774E+01  0.13160362809E+01  0.26754666180E+01  0.51100000000E-03 0.  1.
        -12    1    3    3    0    0 -0.18257789949E+02 -0.36651273809E+02  0.30715020234E+01  0.41062110154E+02  0.00000000000E+00 0.  1.
</event>
<event>
 7    1  0.2700104E-013  0.7246160E+02  0.7816164E-02  0.1226708E+00
        -11   -1    0    0    0    0  0.00000000000E+00  0.00000000000E+00  0.45593999997E+02  0.45594000000E+02  0.51100000000E-03 0.  1.
         11   -1    0    0    0    0 -0.00000000000E+00 -0.00000000000E+00 -0.45593999997E+02  0.45594000000E+02  0.51100000000E-03 0. -1.
    9900012    2    1    2    0    0 -0.13223363367E+02  0.81599765614E+01 -0.10451572253E+02  0.72461603690E+02  0.70000043504E+02 0.  0.
        -12    1    1    2    0    0  0.13223363367E+02 -0.81599765614E+01  0.10451572253E+02  0.18726396310E+02  0.00000000000E+00 0.  1.
         11    1    3    3    0    0 -0.30272463214E+02  0.10833720405E+02 -0.17963701803E+02  0.36830505150E+02  0.51100000000E-03 0. -1.
        -11    1    3    3    0    0 -0.63909657888E+01  0.45032463865E+01 -0.37295893915E+01  0.86621884660E+01  0.51100000000E-03 0.  1.
        -12    1    3    3    0    0  0.23440065636E+02 -0.71769902305E+01  0.11241718942E+02  0.26968910074E+02  0.00000000000E+00 0.  1.
</event>
<event>
 7    1  0.2700104E-013  0.7246155E+02  0.7816164E-02  0.1226708E+00
        -11   -1    0    0    0    0  0.00000000000E+00  0.00000000000E+00  0.45593999997E+02  0.45594000000E+02  0.51100000000E-03 0.  1.
         11   -1    0    0    0    0 -0.00000000000E+00 -0.00000000000E+00 -0.45593999997E+02  0.45594000000E+02  0.51100000000E-03 0. -1.
    9900012    2    1    2    0    0  0.17836987286E+02 -0.14251856265E+01 -0.55218472094E+01  0.72461546355E+02  0.69999968814E+02 0.  0.
        -12    1    1    2    0    0 -0.17836987286E+02  0.14251856265E+01  0.55218472094E+01  0.18726453645E+02  0.00000000000E+00 0.  1.
         11    1    3    3    0    0  0.15395149857E+01  0.38676696282E+01 -0.20058509729E+02  0.20485916810E+02  0.51100000000E-03 0.  1.
        -11    1    3    3    0    0  0.19215152734E+02 -0.71671358100E+01 -0.12960702007E+02  0.24260456036E+02  0.51100000000E-03 0. -1.
        -12    1    3    3    0    0 -0.29176804328E+01  0.18742805553E+01  0.27497364526E+02  0.27715173509E+02  0.00000000000E+00 0.  1.
</event>
<event>
 7    1  0.2700104E-013  0.7246157E+02  0.7816164E-02  0.1226708E+00
        -11   -1    0    0    0    0  0.00000000000E+00  0.00000000000E+00  0.45593999997E+02  0.45594000000E+02  0.51100000000E-03 0.  1.
         11   -1    0    0    0    0 -0.00000000000E+00 -0.00000000000E+00 -0.45593999997E+02  0.45594000000E+02  0.51100000000E-03 0. -1.
    9900012    2    1    2    0    0 -0.84388461437E+01  0.13427075206E+02 -0.99588581938E+01  0.72461566027E+02  0.69999994441E+02 0.  0.
        -12    1    1    2    0    0  0.84388461437E+01 -0.13427075206E+02  0.99588581938E+01  0.18726433973E+02  0.00000000000E+00 0.  1.
         11    1    3    3    0    0 -0.74090870773E+00  0.78346854442E+01  0.38066453793E+01  0.87419557896E+01  0.51100000000E-03 0. -1.
        -11    1    3    3    0    0 -0.91487068679E+00  0.24598525166E+02  0.14817033602E+02  0.28730974813E+02  0.51100000000E-03 0.  1.
         12    1    3    3    0    0 -0.67830667491E+01 -0.19006135404E+02 -0.28582537175E+02  0.34988635424E+02  0.00000000000E+00 0. -1.
</event>
<event>
 7    1  0.2700104E-013  0.7246152E+02  0.7816164E-02  0.1226708E+00
        -11   -1    0    0    0    0  0.00000000000E+00  0.00000000000E+00  0.45593999997E+02  0.45594000000E+02  0.51100000000E-03 0.  1.
         11   -1    0    0    0    0 -0.00000000000E+00 -0.00000000000E+00 -0.45593999997E+02  0.45594000000E+02  0.51100000000E-03 0. -1.
    9900012    2    1    2    0    0  0.40690823896E+01 -0.17377506079E+02  0.56697254516E+01  0.72461523136E+02  0.69999938568E+02 0.  0.
        -12    1    1    2    0    0 -0.40690823896E+01  0.17377506079E+02 -0.56697254516E+01  0.18726476864E+02  0.00000000000E+00 0.  1.
         11    1    3    3    0    0  0.10364530373E+00 -0.13508328909E+02 -0.12949796486E+01  0.13570654546E+02  0.51100000000E-03 0. -1.
        -11    1    3    3    0    0  0.18256775202E+02 -0.18519593063E+02  0.21537678733E+02  0.33766207567E+02  0.51100000000E-03 0.  1.
        -12    1    3    3    0    0 -0.14291338116E+02  0.14650415893E+02 -0.14572973633E+02  0.25124661022E+02  0.00000000000E+00 0.  1.
</event>
<event>
 7    1  0.2700104E-013  0.7246142E+02  0.7816164E-02  0.1226708E+00
        -11   -1    0    0    0    0  0.00000000000E+00  0.00000000000E+00  0.45593999997E+02  0.45594000000E+02  0.51100000000E-03 0.  1.
         11   -1    0    0    0    0 -0.00000000000E+00 -0.00000000000E+00 -0.45593999997E+02  0.45594000000E+02  0.51100000000E-03 0. -1.
    9900012    2    1    2    0    0  0.80607783109E+01  0.14631985804E+02  0.84624845221E+01  0.72461419964E+02  0.69999804167E+02 0.  0.
        -12    1    1    2    0    0 -0.80607783109E+01 -0.14631985804E+02 -0.84624845221E+01  0.18726580036E+02  0.00000000000E+00 0.  1.
         11    1    3    3    0    0  0.40789219472E+01  0.73539746027E+01 -0.11240029357E+01  0.84842164970E+01  0.51100000000E-03 0. -1.
        -11    1    3    3    0    0  0.29696059456E+02  0.78398229359E+01  0.19535248892E+02  0.36399790115E+02  0.51100000000E-03 0.  1.
         12    1    3    3    0    0 -0.25714203093E+02 -0.56181173414E+00 -0.99487614340E+01  0.27577413352E+02  0.00000000000E+00 0. -1.
</event>
<event>
 7    1  0.2700104E-013  0.7246159E+02  0.7816164E-02  0.1226708E+00
        -11   -1    0    0    0    0  0.00000000000E+00  0.00000000000E+00  0.45593999997E+02  0.45594000000E+02  0.51100000000E-03 0.  1.
         11   -1    0    0    0    0 -0.00000000000E+00 -0.00000000000E+00 -0.45593999997E+02  0.45594000000E+02  0.51100000000E-03 0. -1.
    9900012    2    1    2    0    0  0.13309143218E+02  0.12417576865E+02  0.43987489074E+01  0.72461588161E+02  0.70000023275E+02 0.  0.
        -12    1    1    2    0    0 -0.13309143218E+02 -0.12417576865E+02 -0.43987489074E+01  0.18726411839E+02  0.00000000000E+00 0.  1.
         11    1    3    3    0    0 -0.19593202920E+01 -0.43049574358E+01 -0.22739310282E+02  0.23226016165E+02  0.51100000000E-03 0. -1.
        -11    1    3    3    0    0  0.47593168468E+00 -0.26985864240E+01 -0.68561020190E+01  0.73834283915E+01  0.51100000000E-03 0.  1.
        -12    1    3    3    0    0  0.14792531826E+02  0.19421120725E+02  0.33994161209E+02  0.41852143605E+02  0.00000000000E+00 0.  1.
</event>
<event>
 7    1  0.2700104E-013  0.7246146E+02  0.7816164E-02  0.1226708E+00
        -11   -1    0    0    0    0  0.00000000000E+00  0.00000000000E+00  0.45593999997E+02  0.45594000000E+02  0.51100000000E-03 0.  1.
         11   -1    0    0    0    0 -0.00000000000E+00 -0.00000000000E+00 -0.45593999997E+02  0.45594000000E+02  0.51100000000E-03 0. -1.
    9900012    2    1    2    0    0 -0.48369110434E+01 -0.17962607321E+02 -0.21523016063E+01  0.72461458076E+02  0.69999853815E+02 0.  0.
        -12    1    1    2    0    0  0.48369110434E+01  0.17962607321E+02  0.21523016063E+01  0.18726541924E+02  0.00000000000E+00 0.  1.
         11    1    3    3    0    0 -0.91097740793E+01 -0.20782226923E+02 -0.11265526794E+02  0.25333792330E+02  0.51100000000E-03 0. -1.
        -11    1    3    3    0    0 -0.41878349715E+01 -0.13045473947E+02 -0.12822010572E+02  0.18765028847E+02  0.51100000000E-03 0.  1.
        -12    1    3    3    0    0  0.84606980074E+01  0.15865093548E+02  0.21935235759E+02  0.28362636899E+02  0.00000000000E+00 0.  1.
</event>
<event>
 7    1  0.2700104E-013  0.7246156E+02  0.7816164E-02  0.1226708E+00
        -11   -1    0    0    0    0  0.00000000000E+00  0.00000000000E+00  0.45593999997E+02  0.45594000000E+02  0.51100000000E-03 0. -1.
         11   -1    0    0    0    0 -0.00000000000E+00 -0.00000000000E+00 -0.45593999997E+02  0.45594000000E+02  0.51100000000E-03 0.  1.
    9900012    2    1    2    0    0  0.45422541652E+01  0.12968306998E+02  0.12722835792E+02  0.72461558537E+02  0.69999984683E+02 0.  0.
        -12    1    1    2    0    0 -0.45422541652E+01 -0.12968306998E+02 -0.12722835792E+02  0.18726441463E+02  0.00000000000E+00 0.  1.
         11    1    3    3    0    0 -0.42795511732E+01 -0.95952918412E+01  0.46176304977E+00  0.10516530280E+02  0.51100000000E-03 0. -1.
        -11    1    3    3    0    0  0.15490671528E+02 -0.10128060231E+02  0.20458506719E+02  0.27587841631E+02  0.51100000000E-03 0.  1.
        -12    1    3    3    0    0 -0.66688661897E+01  0.32691659070E+02 -0.81974339763E+01  0.34357186625E+02  0.00000000000E+00 0.  1.
</event>
<event>
 7    1  0.2700104E-013  0.7246154E+02  0.7816164E-02  0.1226708E+00
        -11   -1    0    0    0    0  0.00000000000E+00  0.00000000000E+00  0.45593999997E+02  0.45594000000E+02  0.51100000000E-03 0.  1.
         11   -1    0    0    0    0 -0.00000000000E+00 -0.00000000000E+00 -0.45593999997E+02  0.45594000000E+02  0.51100000000E-03 0. -1.
    9900012    2    1    2    0    0 -0.15346476915E+01 -0.59695937296E+01 -0.17683020567E+02  0.72461537195E+02  0.69999956882E+02 0.  0.
        -12    1    1    2    0    0  0.15346476915E+01  0.59695937296E+01  0.17683020567E+02  0.18726462805E+02  0.00000000000E+00 0.  1.
         11    1    3    3    0    0 -0.39501991108E+01  0.67879931460E+01 -0.29743078342E+02  0.30762503694E+02  0.51100000000E-03 0. -1.
        -11    1    3    3    0    0 -0.22014626108E+01  0.12308373805E+02  0.10212951816E+02  0.16144562193E+02  0.51100000000E-03 0.  1.
         12    1    3    3    0    0  0.46170140300E+01 -0.25065960681E+02  0.18471059593E+01  0.25554471308E+02  0.00000000000E+00 0. -1.
</event>
<event>
 7    1  0.2700104E-013  0.7246157E+02  0.7816164E-02  0.1226708E+00
        -11   -1    0    0    0    0  0.00000000000E+00  0.00000000000E+00  0.45593999997E+02  0.45594000000E+02  0.51100000000E-03 0.  1.
         11   -1    0    0    0    0 -0.00000000000E+00 -0.00000000000E+00 -0.45593999997E+02  0.45594000000E+02  0.51100000000E-03 0. -1.
    9900012    2    1    2    0    0 -0.15778969216E+02 -0.12180576810E+01 -0.10010967041E+02  0.72461574951E+02  0.70000006066E+02 0.  0.
        -12    1    1    2    0    0  0.15778969216E+02  0.12180576810E+01  0.10010967041E+02  0.18726425049E+02  0.00000000000E+00 0.  1.
         11    1    3    3    0    0  0.16952605024E+02  0.92541718991E+01  0.92280213218E+01  0.21405300568E+02  0.51100000000E-03 0. -1.
        -11    1    3    3    0    0 -0.19112637467E+01  0.42088373145E+01 -0.16127008645E+02  0.16776401544E+02  0.51100000000E-03 0.  1.
        -12    1    3    3    0    0 -0.30820310493E+02 -0.14681066895E+02 -0.31119797171E+01  0.34279872839E+02  0.00000000000E+00 0.  1.
</event>
<event>
 7    1  0.2700104E-013  0.7246155E+02  0.7816164E-02  0.1226708E+00
        -11   -1    0    0    0    0  0.00000000000E+00  0.00000000000E+00  0.45593999997E+02  0.45594000000E+02  0.51100000000E-03 0. -1.
         11   -1    0    0    0    0 -0.00000000000E+00 -0.00000000000E+00 -0.45593999997E+02  0.45594000000E+02  0.51100000000E-03 0.  1.
    9900012    2    1    2    0    0 -0.10514813913E+02  0.31690680262E+01  0.15168244733E+02  0.72461549400E+02  0.69999972781E+02 0.  0.
        -12    1    1    2    0    0  0.10514813913E+02 -0.31690680262E+01 -0.15168244733E+02  0.18726450600E+02  0.00000000000E+00 0.  1.
         11    1    3    3    0    0 -0.31636003066E+01 -0.40801291907E+01 -0.84819765636E+01  0.99297405706E+01  0.51100000000E-03 0. -1.
        -11    1    3    3    0    0  0.53334424685E+00 -0.18423944226E+02 -0.87873441810E+01  0.20419196726E+02  0.51100000000E-03 0.  1.
         12    1    3    3    0    0 -0.78845578530E+01  0.25673141442E+02  0.32437565478E+02  0.42112612104E+02  0.00000000000E+00 0. -1.
</event>
<event>
 7    1  0.2700104E-013  0.7246159E+02  0.7816164E-02  0.1226708E+00
        -11   -1    0    0    0    0  0.00000000000E+00  0.00000000000E+00  0.45593999997E+02  0.45594000000E+02  0.51100000000E-03 0.  1.
         11   -1    0    0    0    0 -0.00000000000E+00 -0.00000000000E+00 -0.45593999997E+02  0.45594000000E+02  0.51100000000E-03 0. -1.
    9900012    2    1    2    0    0 -0.18430640702E+02  0.33137874552E+01  0.94364765429E-01  0.72461585269E+02  0.70000019507E+02 0.  0.
        -12    1    1    2    0    0  0.18430640702E+02 -0.33137874552E+01 -0.94364765429E-01  0.18726414731E+02  0.00000000000E+00 0.  1.
         11    1    3    3    0    0  0.51567327524E+01  0.49394992396E+01 -0.16408276853E+02  0.17894750486E+02  0.51100000000E-03 0. -1.
        -11    1    3    3    0    0 -0.68715218907E+01 -0.22676934849E+02  0.14057845176E+01  0.23736836723E+02  0.51100000000E-03 0.  1.
         12    1    3    3    0    0 -0.16715851563E+02  0.21051223065E+02  0.15096857101E+02  0.30829998059E+02  0.00000000000E+00 0. -1.
</event>
<event>
 7    1  0.2700104E-013  0.7246156E+02  0.7816164E-02  0.1226708E+00
        -11   -1    0    0    0    0  0.00000000000E+00  0.00000000000E+00  0.45593999997E+02  0.45594000000E+02  0.51100000000E-03 0.  1.
         11   -1    0    0    0    0 -0.00000000000E+00 -0.00000000000E+00 -0.45593999997E+02  0.45594000000E+02  0.51100000000E-03 0. -1.
    9900012    2    1    2    0    0 -0.10021072355E+02  0.15354003163E+02  0.38095143126E+01  0.72461556035E+02  0.69999981425E+02 0.  0.
        -12    1    1    2    0    0  0.10021072355E+02 -0.15354003163E+02 -0.38095143126E+01  0.18726443965E+02  0.00000000000E+00 0.  1.
         11    1    3    3    0    0 -0.18756410446E+02  0.16378025888E+02  0.43767623360E+01  0.25282379509E+02  0.51100000000E-03 0. -1.
        -11    1    3    3    0    0  0.63458497589E+01  0.17282245421E+02  0.14431658295E+02  0.23392703507E+02  0.51100000000E-03 0.  1.
        -12    1    3    3    0    0  0.23894883323E+01 -0.18306268147E+02 -0.14998906319E+02  0.23786473019E+02  0.00000000000E+00 0.  1.
</event>
<event>
 7    1  0.2700104E-013  0.7246155E+02  0.7816164E-02  0.1226708E+00
        -11   -1    0    0    0    0  0.00000000000E+00  0.00000000000E+00  0.45593999997E+02  0.45594000000E+02  0.51100000000E-03 0. -1.
         11   -1    0    0    0    0 -0.00000000000E+00 -0.00000000000E+00 -0.45593999997E+02  0.45594000000E+02  0.51100000000E-03 0.  1.
    9900012    2    1    2    0    0 -0.95184628706E+01 -0.68173832852E+01  0.14615130699E+02  0.72461550907E+02  0.69999974745E+02 0.  0.
        -12    1    1    2    0    0  0.95184628706E+01  0.68173832852E+01 -0.14615130699E+02  0.18726449093E+02  0.00000000000E+00 0.  1.
         11    1    3    3    0    0  0.66172813854E+01  0.73458623031E+01  0.14634238075E+02  0.17661003092E+02  0.51100000000E-03 0. -1.
        -11    1    3    3    0    0 -0.32452396849E+01 -0.31306244636E+02 -0.70025899357E+01  0.32243585407E+02  0.51100000000E-03 0.  1.
         12    1    3    3    0    0 -0.12890504571E+02  0.17142999048E+02  0.69834825599E+01  0.22556962409E+02  0.00000000000E+00 0. -1.
</event>
<event>
 7    1  0.2700104E-013  0.7246155E+02  0.7816164E-02  0.1226708E+00
        -11   -1    0    0    0    0  0.00000000000E+00  0.00000000000E+00  0.45593999997E+02  0.45594000000E+02  0.51100000000E-03 0. -1.
         11   -1    0    0    0    0 -0.00000000000E+00 -0.00000000000E+00 -0.45593999997E+02  0.45594000000E+02  0.51100000000E-03 0.  1.
    9900012    2    1    2    0    0 -0.84183170011E+01 -0.15443826813E+02  0.64265137068E+01  0.72461550092E+02  0.69999973682E+02 0.  0.
        -12    1    1    2    0    0  0.84183170011E+01  0.15443826813E+02 -0.64265137068E+01  0.18726449908E+02  0.00000000000E+00 0.  1.
         11    1    3    3    0    0  0.16794705559E+01 -0.78382611184E+01  0.19601081309E+01  0.82523319646E+01  0.51100000000E-03 0. -1.
        -11    1    3    3    0    0 -0.60223334519E+01 -0.15428804245E+01 -0.29151363333E+02  0.29806894582E+02  0.51100000000E-03 0.  1.
         12    1    3    3    0    0 -0.40754541052E+01 -0.60626852696E+01  0.33617768909E+02  0.34402323545E+02  0.00000000000E+00 0. -1.
</event>
<event>
 7    1  0.2700104E-013  0.7246160E+02  0.7816164E-02  0.1226708E+00
        -11   -1    0    0    0    0  0.00000000000E+00  0.00000000000E+00  0.45593999997E+02  0.45594000000E+02  0.51100000000E-03 0.  1.
         11   -1    0    0    0    0 -0.00000000000E+00 -0.00000000000E+00 -0.45593999997E+02  0.45594000000E+02  0.51100000000E-03 0. -1.
    9900012    2    1    2    0    0 -0.15036384874E+02 -0.10648931835E+02 -0.33444588537E+01  0.72461600871E+02  0.70000039832E+02 0.  0.
        -12    1    1    2    0    0  0.15036384874E+02  0.10648931835E+02  0.33444588537E+01  0.18726399129E+02  0.00000000000E+00 0.  1.
         11    1    3    3    0    0  0.14933169150E+02  0.85294096707E+01  0.95668951045E+01  0.19679325507E+02  0.51100000000E-03 0. -1.
        -11    1    3    3    0    0  0.78712828081E+00  0.88874708201E+01 -0.55264531046E+01  0.10495160441E+02  0.51100000000E-03 0.  1.
         12    1    3    3    0    0 -0.30756682305E+02 -0.28065812326E+02 -0.73849008536E+01  0.42287114923E+02  0.00000000000E+00 0. -1.
</event>
<event>
 7    1  0.2700104E-013  0.7246177E+02  0.7816164E-02  0.1226707E+00
        -11   -1    0    0    0    0  0.00000000000E+00  0.00000000000E+00  0.45593999997E+02  0.45594000000E+02  0.51100000000E-03 0. -1.
         11   -1    0    0    0    0 -0.00000000000E+00 -0.00000000000E+00 -0.45593999997E+02  0.45594000000E+02  0.51100000000E-03 0.  1.
    9900012    2    1    2    0    0 -0.14853779214E+02 -0.96541798731E+01  0.60690718860E+01  0.72461772950E+02  0.70000263996E+02 0.  0.
        -12    1    1    2    0    0  0.14853779214E+02  0.96541798731E+01 -0.60690718860E+01  0.18726227050E+02  0.00000000000E+00 0.  1.
         11    1    3    3    0    0  0.69090861774E+01  0.18758727284E+02  0.12134457866E+02  0.23385260082E+02  0.51100000000E-03 0. -1.
        -11    1    3    3    0    0  0.39175165478E+01  0.29368270667E+01 -0.69978961023E+01  0.85406345924E+01  0.51100000000E-03 0.  1.
        -12    1    3    3    0    0 -0.25680381940E+02 -0.31349734224E+02  0.93251012174E+00  0.40535878276E+02  0.00000000000E+00 0.  1.
</event>
<event>
 7    1  0.2700104E-013  0.7246158E+02  0.7816164E-02  0.1226708E+00
        -11   -1    0    0    0    0  0.00000000000E+00  0.00000000000E+00  0.45593999997E+02  0.45594000000E+02  0.51100000000E-03 0.  1.
         11   -1    0    0    0    0 -0.00000000000E+00 -0.00000000000E+00 -0.45593999997E+02  0.45594000000E+02  0.51100000000E-03 0. -1.
    9900012    2    1    2    0    0 -0.14584766536E+01 -0.67838906206E+01 -0.17393399126E+02  0.72461583918E+02  0.70000017748E+02 0.  0.
        -12    1    1    2    0    0  0.14584766536E+01  0.67838906206E+01  0.17393399126E+02  0.18726416082E+02  0.00000000000E+00 0.  1.
         11    1    3    3    0    0 -0.86665930907E+01  0.50562933114E+01 -0.19490721027E+02  0.21921773292E+02  0.51100000000E-03 0. -1.
        -11    1    3    3    0    0  0.25950416873E+02 -0.11941905665E+02 -0.74271423253E+01  0.29516024295E+02  0.51100000000E-03 0.  1.
        -12    1    3    3    0    0 -0.18742300436E+02  0.10172173274E+00  0.95244642255E+01  0.21023786332E+02  0.00000000000E+00 0.  1.
</event>
<event>
 7    1  0.2700104E-013  0.7246152E+02  0.7816164E-02  0.1226708E+00
        -11   -1    0    0    0    0  0.00000000000E+00  0.00000000000E+00  0.45593999997E+02  0.45594000000E+02  0.51100000000E-03 0. -1.
         11   -1    0    0    0    0 -0.00000000000E+00 -0.00000000000E+00 -0.45593999997E+02  0.45594000000E+02  0.51100000000E-03 0.  1.
    9900012    2    1    2    0    0 -0.11795423010E+02  0.13943690592E+02 -0.41379228677E+01  0.72461523637E+02  0.69999939220E+02 0.  0.
        -12    1    1    2    0    0  0.11795423010E+02 -0.13943690592E+02  0.41379228677E+01  0.18726476363E+02  0.00000000000E+00 0.  1.
         11    1    3    3    0    0 -0.20568660708E+02 -0.11604905661E+02 -0.85648899185E+01  0.25121723235E+02  0.51100000000E-03 0.  1.
        -11    1    3    3    0    0  0.31062068452E+01 -0.95355970630E+01 -0.40305027265E+01  0.10808380304E+02  0.51100000000E-03 0. -1.
         12    1    3    3    0    0  0.56670308519E+01  0.35084193316E+02  0.84574697773E+01  0.36531420098E+02  0.00000000000E+00 0. -1.
</event>
<event>
 7    1  0.2700104E-013  0.7246158E+02  0.7816164E-02  0.1226708E+00
        -11   -1    0    0    0    0  0.00000000000E+00  0.00000000000E+00  0.45593999997E+02  0.45594000000E+02  0.51100000000E-03 0.  1.
         11   -1    0    0    0    0 -0.00000000000E+00 -0.00000000000E+00 -0.45593999997E+02  0.45594000000E+02  0.51100000000E-03 0. -1.
    9900012    2    1    2    0    0  0.13858406162E+02  0.70307168464E+00 -0.12574934018E+02  0.72461582919E+02  0.70000016446E+02 0.  0.
        -12    1    1    2    0    0 -0.13858406162E+02 -0.70307168464E+00  0.12574934018E+02  0.18726417081E+02  0.00000000000E+00 0.  1.
         11    1    3    3    0    0 -0.12793428428E+02 -0.25432792860E+01 -0.18482029875E+02  0.22621350734E+02  0.51100000000E-03 0. -1.
        -11    1    3    3    0    0 -0.98352154079E+01  0.77466131928E+01 -0.46637117910E+00  0.12528327120E+02  0.51100000000E-03 0.  1.
         12    1    3    3    0    0  0.36487049997E+02 -0.45002622221E+01  0.63734670356E+01  0.37311905066E+02  0.00000000000E+00 0. -1.
</event>
<event>
 7    1  0.2700104E-013  0.7246158E+02  0.7816164E-02  0.1226708E+00
        -11   -1    0    0    0    0  0.00000000000E+00  0.00000000000E+00  0.45593999997E+02  0.45594000000E+02  0.51100000000E-03 0.  1.
         11   -1    0    0    0    0 -0.00000000000E+00 -0.00000000000E+00 -0.45593999997E+02  0.45594000000E+02  0.51100000000E-03 0. -1.
    9900012    2    1    2    0    0  0.99808158433E+01  0.20003529124E+01 -0.15718170304E+02  0.72461575505E+02  0.70000006788E+02 0.  0.
        -12    1    1    2    0    0 -0.99808158433E+01 -0.20003529124E+01  0.15718170304E+02  0.18726424495E+02  0.00000000000E+00 0.  1.
         11    1    3    3    0    0 -0.17016085232E+02  0.12128649728E+02  0.27405223187E+01  0.21075145638E+02  0.51100000000E-03 0. -1.
        -11    1    3    3    0    0  0.14535572386E+02  0.13527072096E+02 -0.19221901478E+01  0.19948918751E+02  0.51100000000E-03 0.  1.
         12    1    3    3    0    0  0.12461328689E+02 -0.23655368912E+02 -0.16536502475E+02  0.31437511116E+02  0.00000000000E+00 0. -1.
</event>
<event>
 7    1  0.2700104E-013  0.7246160E+02  0.7816164E-02  0.1226708E+00
        -11   -1    0    0    0    0  0.00000000000E+00  0.00000000000E+00  0.45593999997E+02  0.45594000000E+02  0.51100000000E-03 0. -1.
         11   -1    0    0    0    0 -0.00000000000E+00 -0.00000000000E+00 -0.45593999997E+02  0.45594000000E+02  0.51100000000E-03 0.  1.
    9900012    2    1    2    0    0  0.14910987951E+02 -0.10183655771E+01  0.11282883911E+02  0.72461598865E+02  0.70000037219E+02 0.  0.
        -12    1    1    2    0    0 -0.14910987951E+02  0.10183655771E+01 -0.11282883911E+02  0.18726401135E+02  0.00000000000E+00 0.  1.
         11    1    3    3    0    0 -0.77462143580E+01  0.14003847451E+01  0.47733114456E+01  0.92059446409E+01  0.51100000000E-03 0. -1.
        -11    1    3    3    0    0 -0.18587984475E+02  0.68690704096E+01 -0.26610985807E+01  0.19994467761E+02  0.51100000000E-03 0.  1.
         12    1    3    3    0    0  0.41245186784E+02 -0.92878207318E+01  0.91706710461E+01  0.43261186463E+02  0.00000000000E+00 0. -1.
</event>
<event>
 7    1  0.2700104E-013  0.7246158E+02  0.7816164E-02  0.1226708E+00
        -11   -1    0    0    0    0  0.00000000000E+00  0.00000000000E+00  0.45593999997E+02  0.45594000000E+02  0.51100000000E-03 0. -1.
         11   -1    0    0    0    0 -0.00000000000E+00 -0.00000000000E+00 -0.45593999997E+02  0.45594000000E+02  0.51100000000E-03 0.  1.
    9900012    2    1    2    0    0  0.13863789824E+02  0.58735779218E+01  0.11134423256E+02  0.72461575698E+02  0.70000007039E+02 0.  0.
        -12    1    1    2    0    0 -0.13863789824E+02 -0.58735779218E+01 -0.11134423256E+02  0.18726424302E+02  0.00000000000E+00 0.  1.
         11    1    3    3    0    0  0.23070036506E+02  0.14109990611E+02 -0.15133709666E+02  0.30989475438E+02  0.51100000000E-03 0. -1.
        -11    1    3    3    0    0  0.80147430722E+01 -0.18451333289E+01 -0.13185712896E+01  0.83294209896E+01  0.51100000000E-03 0.  1.
        -12    1    3    3    0    0 -0.17220989754E+02 -0.63912793599E+01  0.27586704211E+02  0.33142679270E+02  0.00000000000E+00 0.  1.
</event>
<event>
 7    1  0.2700104E-013  0.7246154E+02  0.7816164E-02  0.1226708E+00
        -11   -1    0    0    0    0  0.00000000000E+00  0.00000000000E+00  0.45593999997E+02  0.45594000000E+02  0.51100000000E-03 0. -1.
         11   -1    0    0    0    0 -0.00000000000E+00 -0.00000000000E+00 -0.45593999997E+02  0.45594000000E+02  0.51100000000E-03 0.  1.
    9900012    2    1    2    0    0  0.34999950099E+01 -0.18395571776E+02  0.18236228112E+00  0.72461540590E+02  0.69999961305E+02 0.  0.
        -12    1    1    2    0    0 -0.34999950099E+01  0.18395571776E+02 -0.18236228112E+00  0.18726459410E+02  0.00000000000E+00 0.  1.
         11    1    3    3    0    0  0.14402509889E+02 -0.66694620538E+01 -0.12310587133E+02  0.20086427532E+02  0.51100000000E-03 0. -1.
        -11    1    3    3    0    0 -0.13607975455E+02 -0.21625891410E+02 -0.10166940485E+02  0.27499506438E+02  0.51100000000E-03 0.  1.
         12    1    3    3    0    0  0.27054605760E+01  0.98997816880E+01  0.22659889900E+02  0.24875606619E+02  0.00000000000E+00 0. -1.
</event>
<event>
 7    1  0.2700104E-013  0.7246183E+02  0.7816164E-02  0.1226707E+00
        -11   -1    0    0    0    0  0.00000000000E+00  0.00000000000E+00  0.45593999997E+02  0.45594000000E+02  0.51100000000E-03 0.  1.
         11   -1    0    0    0    0 -0.00000000000E+00 -0.00000000000E+00 -0.45593999997E+02  0.45594000000E+02  0.51100000000E-03 0. -1.
    9900012    2    1    2    0    0  0.10448970535E+02  0.11645316528E+01 -0.15496205971E+02  0.72461827975E+02  0.70000335676E+02 0.  0.
        -12    1    1    2    0    0 -0.10448970535E+02 -0.11645316528E+01  0.15496205971E+02  0.18726172025E+02  0.00000000000E+00 0.  1.
         11    1    3    3    0    0  0.11832209033E+02  0.63252687331E+01 -0.81663318331E+00  0.13441617655E+02  0.51100000000E-03 0. -1.
        -11    1    3    3    0    0  0.97127622939E+01 -0.23605661010E+02  0.89564676576E+01  0.27051493420E+02  0.51100000000E-03 0.  1.
         12    1    3    3    0    0 -0.11096000792E+02  0.18444923929E+02 -0.23636040445E+02  0.31968716901E+02  0.00000000000E+00 0. -1.
</event>
<event>
 7    1  0.2700104E-013  0.7246156E+02  0.7816164E-02  0.1226708E+00
        -11   -1    0    0    0    0  0.00000000000E+00  0.00000000000E+00  0.45593999997E+02  0.45594000000E+02  0.51100000000E-03 0.  1.
         11   -1    0    0    0    0 -0.00000000000E+00 -0.00000000000E+00 -0.45593999997E+02  0.45594000000E+02  0.51100000000E-03 0. -1.
    9900012    2    1    2    0    0 -0.45059897379E+01  0.11187663614E+02 -0.14325220922E+02  0.72461555727E+02  0.69999981023E+02 0.  0.
        -12    1    1    2    0    0  0.45059897379E+01 -0.11187663614E+02  0.14325220922E+02  0.18726444273E+02  0.00000000000E+00 0.  1.
         11    1    3    3    0    0  0.11054480653E+02 -0.30951644470E+01  0.19460597243E+01  0.11643398738E+02  0.51100000000E-03 0. -1.
        -11    1    3    3    0    0 -0.19004995947E+02 -0.14462653259E+02 -0.20607562347E+02  0.31544093526E+02  0.51100000000E-03 0.  1.
         12    1    3    3    0    0  0.34445255558E+01  0.28745481320E+02  0.43362817012E+01  0.29274063463E+02  0.00000000000E+00 0. -1.
</event>
<event>
 7    1  0.2700104E-013  0.7246200E+02  0.7816164E-02  0.1226707E+00
        -11   -1    0    0    0    0  0.00000000000E+00  0.00000000000E+00  0.45593999997E+02  0.45594000000E+02  0.51100000000E-03 0. -1.
         11   -1    0    0    0    0 -0.00000000000E+00 -0.00000000000E+00 -0.45593999997E+02  0.45594000000E+02  0.51100000000E-03 0.  1.
    9900012    2    1    2    0    0  0.43983988107E+01 -0.11696897311E+02  0.13946321339E+02  0.72461996750E+02  0.70000555536E+02 0.  0.
        -12    1    1    2    0    0 -0.43983988107E+01  0.11696897311E+02 -0.13946321339E+02  0.18726003250E+02  0.00000000000E+00 0.  1.
         11    1    3    3    0    0 -0.98306081994E+01 -0.89458746009E+01  0.18697809214E+02  0.22940741043E+02  0.51100000000E-03 0. -1.
        -11    1    3    3    0    0  0.17072981641E+02 -0.22978826377E+02 -0.36823989977E+00  0.28629508635E+02  0.51100000000E-03 0.  1.
         12    1    3    3    0    0 -0.28439746309E+01  0.20227803667E+02 -0.43832479751E+01  0.20891747072E+02  0.00000000000E+00 0. -1.
</event>
<event>
 7    1  0.2700104E-013  0.7246151E+02  0.7816164E-02  0.1226708E+00
        -11   -1    0    0    0    0  0.00000000000E+00  0.00000000000E+00  0.45593999997E+02  0.45594000000E+02  0.51100000000E-03 0. -1.
         11   -1    0    0    0    0 -0.00000000000E+00 -0.00000000000E+00 -0.45593999997E+02  0.45594000000E+02  0.51100000000E-03 0.  1.
    9900012    2    1    2    0    0  0.85129235187E+01  0.16369880254E+02 -0.31997727606E+01  0.72461510951E+02  0.69999922695E+02 0.  0.
        -12    1    1    2    0    0 -0.85129235187E+01 -0.16369880254E+02  0.31997727606E+01  0.18726489049E+02  0.00000000000E+00 0.  1.
         11    1    3    3    0    0  0.28040954109E+01  0.27438110234E+00 -0.62656273733E+01  0.68699579842E+01  0.51100000000E-03 0. -1.
        -11    1    3    3    0    0  0.19704233987E+02 -0.10344715884E+02  0.21094299237E+02  0.30663324091E+02  0.51100000000E-03 0.  1.
         12    1    3    3    0    0 -0.13995405879E+02  0.26440215036E+02 -0.18028444625E+02  0.34928228876E+02  0.00000000000E+00 0. -1.
</event>
<event>
 7    1  0.2700104E-013  0.7246159E+02  0.7816164E-02  0.1226708E+00
        -11   -1    0    0    0    0  0.00000000000E+00  0.00000000000E+00  0.45593999997E+02  0.45594000000E+02  0.51100000000E-03 0.  1.
         11   -1    0    0    0    0 -0.00000000000E+00 -0.00000000000E+00 -0.45593999997E+02  0.45594000000E+02  0.51100000000E-03 0. -1.
    9900012    2    1    2    0    0  0.12127924815E+01 -0.48103995297E+01 -0.18057346716E+02  0.72461586044E+02  0.70000020516E+02 0.  0.
        -12    1    1    2    0    0 -0.12127924815E+01  0.48103995297E+01  0.18057346716E+02  0.18726413956E+02  0.00000000000E+00 0.  1.
         11    1    3    3    0    0 -0.13222515918E+02  0.13480182809E+02  0.16138754726E+01  0.18951381218E+02  0.51100000000E-03 0. -1.
        -11    1    3    3    0    0  0.89495496988E+01  0.81216563820E+01  0.82916860823E+01  0.14656322886E+02  0.51100000000E-03 0.  1.
        -12    1    3    3    0    0  0.54857587005E+01 -0.26412238721E+02 -0.27962908271E+02  0.38853881939E+02  0.00000000000E+00 0.  1.
</event>
<event>
 7    1  0.2700104E-013  0.7246154E+02  0.7816164E-02  0.1226708E+00
        -11   -1    0    0    0    0  0.00000000000E+00  0.00000000000E+00  0.45593999997E+02  0.45594000000E+02  0.51100000000E-03 0.  1.
         11   -1    0    0    0    0 -0.00000000000E+00 -0.00000000000E+00 -0.45593999997E+02  0.45594000000E+02  0.51100000000E-03 0. -1.
    9900012    2    1    2    0    0  0.15528219355E+01 -0.18484192481E+02 -0.25697398061E+01  0.72461543039E+02  0.69999964495E+02 0.  0.
        -12    1    1    2    0    0 -0.15528219355E+01  0.18484192481E+02  0.25697398061E+01  0.18726456961E+02  0.00000000000E+00 0.  1.
         11    1    3    3    0    0  0.12448316179E+00 -0.92031442034E-01 -0.14081335467E+01  0.14166178703E+01  0.51100000000E-03 0. -1.
        -11    1    3    3    0    0  0.30406328274E+02 -0.26189454998E+02 -0.62310045183E+01  0.40611054773E+02  0.51100000000E-03 0.  1.
         12    1    3    3    0    0 -0.28977989500E+02  0.77972939597E+01  0.50693982589E+01  0.30433870396E+02  0.00000000000E+00 0. -1.
</event>
<event>
 7    1  0.2700104E-013  0.7246155E+02  0.7816164E-02  0.1226708E+00
        -11   -1    0    0    0    0  0.00000000000E+00  0.00000000000E+00  0.45593999997E+02  0.45594000000E+02  0.51100000000E-03 0.  1.
         11   -1    0    0    0    0 -0.00000000000E+00 -0.00000000000E+00 -0.45593999997E+02  0.45594000000E+02  0.51100000000E-03 0. -1.
    9900012    2    1    2    0    0 -0.73534537194E+01 -0.15053419482E+02 -0.83666617859E+01  0.72461554819E+02  0.69999979840E+02 0.  0.
        -12    1    1    2    0    0  0.73534537194E+01  0.15053419482E+02  0.83666617859E+01  0.18726445181E+02  0.00000000000E+00 0.  1.
         11    1    3    3    0    0  0.57063079917E+01 -0.99721538770E+01 -0.10349070644E+02  0.15463151920E+02  0.51100000000E-03 0. -1.
        -11    1    3    3    0    0 -0.60648717930E+01  0.19312388050E+01 -0.26285668085E+02  0.27045308283E+02  0.51100000000E-03 0.  1.
        -12    1    3    3    0    0 -0.69948899181E+01 -0.70125044096E+01  0.28268076943E+02  0.29953094616E+02  0.00000000000E+00 0.  1.
</event>
<event>
 7    1  0.2700104E-013  0.7246159E+02  0.7816164E-02  0.1226708E+00
        -11   -1    0    0    0    0  0.00000000000E+00  0.00000000000E+00  0.45593999997E+02  0.45594000000E+02  0.51100000000E-03 0. -1.
         11   -1    0    0    0    0 -0.00000000000E+00 -0.00000000000E+00 -0.45593999997E+02  0.45594000000E+02  0.51100000000E-03 0.  1.
    9900012    2    1    2    0    0 -0.93917934707E+01 -0.16190463210E+02 -0.58445386759E+00  0.72461588975E+02  0.70000024335E+02 0.  0.
        -12    1    1    2    0    0  0.93917934707E+01  0.16190463210E+02  0.58445386759E+00  0.18726411025E+02  0.00000000000E+00 0.  1.
         11    1    3    3    0    0 -0.13706161224E+02 -0.85489923158E+01  0.11755325994E+02  0.19978283575E+02  0.51100000000E-03 0. -1.
        -11    1    3    3    0    0 -0.46912341995E+01 -0.27533707872E+02 -0.11664442946E+01  0.27954844661E+02  0.51100000000E-03 0.  1.
        -12    1    3    3    0    0  0.90056019524E+01  0.19892236978E+02 -0.11173335567E+02  0.24528460739E+02  0.00000000000E+00 0.  1.
</event>
<event>
 7    1  0.2700104E-013  0.7246159E+02  0.7816164E-02  0.1226708E+00
        -11   -1    0    0    0    0  0.00000000000E+00  0.00000000000E+00  0.45593999997E+02  0.45594000000E+02  0.51100000000E-03 0. -1.
         11   -1    0    0    0    0 -0.00000000000E+00 -0.00000000000E+00 -0.45593999997E+02  0.45594000000E+02  0.51100000000E-03 0.  1.
    9900012    2    1    2    0    0  0.62596749970E+01 -0.14093266195E+02  0.10624253158E+02  0.72461589819E+02  0.70000025435E+02 0.  0.
        -12    1    1    2    0    0 -0.62596749970E+01  0.14093266195E+02 -0.10624253158E+02  0.18726410181E+02  0.00000000000E+00 0.  1.
         11    1    3    3    0    0  0.74662993908E+01  0.13257880819E+02  0.66301050802E+01  0.16597449323E+02  0.51100000000E-03 0. -1.
        -11    1    3    3    0    0 -0.35658504302E+01 -0.14403880487E+01 -0.20063183326E+02  0.20428444201E+02  0.51100000000E-03 0.  1.
         12    1    3    3    0    0  0.23592260363E+01 -0.25910758965E+02  0.24057331404E+02  0.35435696295E+02  0.00000000000E+00 0. -1.
</event>
<event>
 7    1  0.2700104E-013  0.7246155E+02  0.7816164E-02  0.1226708E+00
        -11   -1    0    0    0    0  0.00000000000E+00  0.00000000000E+00  0.45593999997E+02  0.45594000000E+02  0.51100000000E-03 0. -1.
         11   -1    0    0    0    0 -0.00000000000E+00 -0.00000000000E+00 -0.45593999997E+02  0.45594000000E+02  0.51100000000E-03 0.  1.
    9900012    2    1    2    0    0 -0.14118048900E+02  0.12216414266E+02 -0.14559506418E+01  0.72461551470E+02  0.69999975478E+02 0.  0.
        -12    1    1    2    0    0  0.14118048900E+02 -0.12216414266E+02  0.14559506418E+01  0.18726448530E+02  0.00000000000E+00 0.  1.
         11    1    3    3    0    0 -0.10375742863E+02 -0.20979353841E+02 -0.10195150636E+02  0.25529011425E+02  0.51100000000E-03 0. -1.
        -11    1    3    3    0    0 -0.80893600967E+01 -0.35929976495E+01  0.35040197784E+01  0.95197444163E+01  0.51100000000E-03 0.  1.
        -12    1    3    3    0    0  0.43470540589E+01  0.36788765757E+02  0.52351802162E+01  0.37412795629E+02  0.00000000000E+00 0.  1.
</event>
<event>
 7    1  0.2700104E-013  0.7246156E+02  0.7816164E-02  0.1226708E+00
        -11   -1    0    0    0    0  0.00000000000E+00  0.00000000000E+00  0.45593999997E+02  0.45594000000E+02  0.51100000000E-03 0. -1.
         11   -1    0    0    0    0 -0.00000000000E+00 -0.00000000000E+00 -0.45593999997E+02  0.45594000000E+02  0.51100000000E-03 0.  1.
    9900012    2    1    2    0    0  0.93280037371E+01  0.10058984345E+02  0.12746946175E+02  0.72461562630E+02  0.69999990016E+02 0.  0.
        -12    1    1    2    0    0 -0.93280037371E+01 -0.10058984345E+02 -0.12746946175E+02  0.18726437370E+02  0.00000000000E+00 0.  1.
         11    1    3    3    0    0  0.10179978736E+02  0.24246426664E+02 -0.37355547249E+01  0.26560789567E+02  0.51100000000E-03 0. -1.
        -11    1    3    3    0    0 -0.44059210026E+01  0.57040600545E+01 -0.10163414586E+02  0.12459672439E+02  0.51100000000E-03 0.  1.
         12    1    3    3    0    0  0.35539460041E+01 -0.19891502374E+02  0.26645915486E+02  0.33441100624E+02  0.00000000000E+00 0. -1.
</event>
<event>
 7    1  0.2700104E-013  0.7246168E+02  0.7816164E-02  0.1226708E+00
        -11   -1    0    0    0    0  0.00000000000E+00  0.00000000000E+00  0.45593999997E+02  0.45594000000E+02  0.51100000000E-03 0. -1.
         11   -1    0    0    0    0 -0.00000000000E+00 -0.00000000000E+00 -0.45593999997E+02  0.45594000000E+02  0.51100000000E-03 0.  1.
    9900012    2    1    2    0    0 -0.18090379531E+01  0.79820356906E+00  0.18621640284E+02  0.72461675371E+02  0.70000136881E+02 0.  0.
        -12    1    1    2    0    0  0.18090379531E+01 -0.79820356906E+00 -0.18621640284E+02  0.18726324629E+02  0.00000000000E+00 0.  1.
         11    1    3    3    0    0  0.17534174924E+02  0.14610572323E+02 -0.82223685968E+01  0.24259502458E+02  0.51100000000E-03 0. -1.
        -11    1    3    3    0    0 -0.13985669270E+02  0.28701089067E+01 -0.20369760066E+01  0.14421710772E+02  0.51100000000E-03 0.  1.
        -12    1    3    3    0    0 -0.53575436074E+01 -0.16682477661E+02  0.28880984887E+02  0.33780462141E+02  0.00000000000E+00 0.  1.
</event>
<event>
 7    1  0.2700104E-013  0.7246166E+02  0.7816164E-02  0.1226708E+00
        -11   -1    0    0    0    0  0.00000000000E+00  0.00000000000E+00  0.45593999997E+02  0.45594000000E+02  0.51100000000E-03 0.  1.
         11   -1    0    0    0    0 -0.00000000000E+00 -0.00000000000E+00 -0.45593999997E+02  0.45594000000E+02  0.51100000000E-03 0. -1.
    9900012    2    1    2    0    0  0.77504194081E+01 -0.73860240866E+01 -0.15364027303E+02  0.72461663258E+02  0.70000121102E+02 0.  0.
        -12    1    1    2    0    0 -0.77504194081E+01  0.73860240866E+01  0.15364027303E+02  0.18726336742E+02  0.00000000000E+00 0.  1.
         11    1    3    3    0    0 -0.42467821062E+01 -0.83958325816E+01 -0.38798122161E+02  0.39922668329E+02  0.51100000000E-03 0. -1.
        -11    1    3    3    0    0 -0.49079658939E+00  0.81410886785E+01  0.94031730196E+01  0.12447404117E+02  0.51100000000E-03 0.  1.
        -12    1    3    3    0    0  0.12487998104E+02 -0.71312801835E+01  0.14030921839E+02  0.20091590811E+02  0.00000000000E+00 0.  1.
</event>
<event>
 7    1  0.2973870E-013  0.7246161E+02  0.7816164E-02  0.1226708E+00
        -11   -1    0    0    0    0  0.00000000000E+00  0.00000000000E+00  0.45593999997E+02  0.45594000000E+02  0.51100000000E-03 0. -1.
         11   -1    0    0    0    0 -0.00000000000E+00 -0.00000000000E+00 -0.45593999997E+02  0.45594000000E+02  0.51100000000E-03 0.  1.
    9900012    2    1    2    0    0 -0.46646622935E+01 -0.11958895055E+02  0.13634638821E+02  0.72461611639E+02  0.70000053859E+02 0.  0.
        -12    1    1    2    0    0  0.46646622935E+01  0.11958895055E+02 -0.13634638821E+02  0.18726388361E+02  0.00000000000E+00 0.  1.
         11    1    3    3    0    0 -0.13265303912E+02 -0.11921378093E+02  0.35084254029E+02  0.39357241069E+02  0.51100000000E-03 0. -1.
        -11    1    3    3    0    0 -0.45277601633E+01  0.35136050538E+01  0.19379346039E+01  0.60499275500E+01  0.51100000000E-03 0.  1.
        -12    1    3    3    0    0  0.13128401782E+02 -0.35511220163E+01 -0.23387549812E+02  0.27054443020E+02  0.00000000000E+00 0.  1.
</event>
<event>
 7    1  0.2700104E-013  0.7246157E+02  0.7816164E-02  0.1226708E+00
        -11   -1    0    0    0    0  0.00000000000E+00  0.00000000000E+00  0.45593999997E+02  0.45594000000E+02  0.51100000000E-03 0.  1.
         11   -1    0    0    0    0 -0.00000000000E+00 -0.00000000000E+00 -0.45593999997E+02  0.45594000000E+02  0.51100000000E-03 0. -1.
    9900012    2    1    2    0    0  0.92437212504E+01 -0.10945393953E+02 -0.12059489308E+02  0.72461566444E+02  0.69999994985E+02 0.  0.
        -12    1    1    2    0    0 -0.92437212504E+01  0.10945393953E+02  0.12059489308E+02  0.18726433556E+02  0.00000000000E+00 0.  1.
         11    1    3    3    0    0  0.17016675351E+02 -0.49988244080E+01 -0.14949453373E+02  0.23195724647E+02  0.51100000000E-03 0. -1.
        -11    1    3    3    0    0  0.12548288607E+02  0.11688042646E+02  0.11920689379E+02  0.20884748583E+02  0.51100000000E-03 0.  1.
         12    1    3    3    0    0 -0.20321242708E+02 -0.17634612192E+02 -0.90307253136E+01  0.28381093214E+02  0.00000000000E+00 0. -1.
</event>
<event>
 7    1  0.2700104E-013  0.7246160E+02  0.7816164E-02  0.1226708E+00
        -11   -1    0    0    0    0  0.00000000000E+00  0.00000000000E+00  0.45593999997E+02  0.45594000000E+02  0.51100000000E-03 0.  1.
         11   -1    0    0    0    0 -0.00000000000E+00 -0.00000000000E+00 -0.45593999997E+02  0.45594000000E+02  0.51100000000E-03 0. -1.
    9900012    2    1    2    0    0  0.82507699081E+01  0.12958210005E+02 -0.10709223519E+02  0.72461604752E+02  0.70000044887E+02 0.  0.
        -12    1    1    2    0    0 -0.82507699081E+01 -0.12958210005E+02  0.10709223519E+02  0.18726395248E+02  0.00000000000E+00 0.  1.
         11    1    3    3    0    0 -0.19880085091E+02  0.49828536008E+01 -0.31241633885E+01  0.20731787438E+02  0.51100000000E-03 0. -1.
        -11    1    3    3    0    0 -0.48311441810E+01 -0.10922886775E+02  0.29471872039E+01  0.12301842231E+02  0.51100000000E-03 0.  1.
        -12    1    3    3    0    0  0.32961999180E+02  0.18898243180E+02 -0.10532247334E+02  0.39427975083E+02  0.00000000000E+00 0.  1.
</event>
<event>
 7    1  0.2700104E-013  0.7246156E+02  0.7816164E-02  0.1226708E+00
        -11   -1    0    0    0    0  0.00000000000E+00  0.00000000000E+00  0.45593999997E+02  0.45594000000E+02  0.51100000000E-03 0. -1.
         11   -1    0    0    0    0 -0.00000000000E+00 -0.00000000000E+00 -0.45593999997E+02  0.45594000000E+02  0.51100000000E-03 0.  1.
    9900012    2    1    2    0    0 -0.33207300063E+01 -0.15221372303E+02  0.10390482507E+02  0.72461560155E+02  0.69999986791E+02 0.  0.
        -12    1    1    2    0    0  0.33207300063E+01  0.15221372303E+02 -0.10390482507E+02  0.18726439845E+02  0.00000000000E+00 0.  1.
         11    1    3    3    0    0  0.27926346309E+00  0.78258490073E+01 -0.41399823765E+01  0.88578414473E+01  0.51100000000E-03 0. -1.
        -11    1    3    3    0    0  0.78464248760E+01  0.11082031854E+02 -0.12602546497E+02  0.18525711641E+02  0.51100000000E-03 0.  1.
         12    1    3    3    0    0 -0.11446418345E+02 -0.34129253164E+02  0.27133011380E+02  0.45078007066E+02  0.00000000000E+00 0. -1.
</event>
<event>
 7    1  0.2700104E-013  0.7246148E+02  0.7816164E-02  0.1226708E+00
        -11   -1    0    0    0    0  0.00000000000E+00  0.00000000000E+00  0.45593999997E+02  0.45594000000E+02  0.51100000000E-03 0.  1.
         11   -1    0    0    0    0 -0.00000000000E+00 -0.00000000000E+00 -0.45593999997E+02  0.45594000000E+02  0.51100000000E-03 0. -1.
    9900012    2    1    2    0    0  0.48161346784E+01 -0.12563018155E+02 -0.13025281285E+02  0.72461480544E+02  0.69999883083E+02 0.  0.
        -12    1    1    2    0    0 -0.48161346784E+01  0.12563018155E+02  0.13025281285E+02  0.18726519456E+02  0.00000000000E+00 0.  1.
         11    1    3    3    0    0  0.16793777122E+02  0.41984750214E+01 -0.42322979309E+01  0.17820507528E+02  0.51100000000E-03 0.  1.
        -11    1    3    3    0    0  0.14215881677E+02 -0.19830685504E+02 -0.13448422107E+02  0.27860499580E+02  0.51100000000E-03 0. -1.
        -12    1    3    3    0    0 -0.26193524121E+02  0.30691923279E+01  0.46554387535E+01  0.26780473435E+02  0.00000000000E+00 0.  1.
</event>
<event>
 7    1  0.2700104E-013  0.7246141E+02  0.7816164E-02  0.1226708E+00
        -11   -1    0    0    0    0  0.00000000000E+00  0.00000000000E+00  0.45593999997E+02  0.45594000000E+02  0.51100000000E-03 0.  1.
         11   -1    0    0    0    0 -0.00000000000E+00 -0.00000000000E+00 -0.45593999997E+02  0.45594000000E+02  0.51100000000E-03 0. -1.
    9900012    2    1    2    0    0  0.74992827589E+01  0.11562980638E+02 -0.12678455336E+02  0.72461414811E+02  0.69999797454E+02 0.  0.
        -12    1    1    2    0    0 -0.74992827589E+01 -0.11562980638E+02  0.12678455336E+02  0.18726585189E+02  0.00000000000E+00 0.  1.
         11    1    3    3    0    0  0.88403932400E+01 -0.19190648421E+02 -0.20582002860E+02  0.29496650343E+02  0.51100000000E-03 0.  1.
        -11    1    3    3    0    0  0.30690731207E+01  0.14648716238E+02 -0.10372218977E+02  0.18209531131E+02  0.51100000000E-03 0. -1.
        -12    1    3    3    0    0 -0.44101836018E+01  0.16104912821E+02  0.18275766502E+02  0.24755233338E+02  0.00000000000E+00 0.  1.
</event>
<event>
 7    1  0.2700104E-013  0.7246156E+02  0.7816164E-02  0.1226708E+00
        -11   -1    0    0    0    0  0.00000000000E+00  0.00000000000E+00  0.45593999997E+02  0.45594000000E+02  0.51100000000E-03 0.  1.
         11   -1    0    0    0    0 -0.00000000000E+00 -0.00000000000E+00 -0.45593999997E+02  0.45594000000E+02  0.51100000000E-03 0. -1.
    9900012    2    1    2    0    0  0.12023510140E+02  0.74748964938E+01 -0.12257263286E+02  0.72461564756E+02  0.69999992786E+02 0.  0.
        -12    1    1    2    0    0 -0.12023510140E+02 -0.74748964938E+01  0.12257263286E+02  0.18726435244E+02  0.00000000000E+00 0.  1.
         11    1    3    3    0    0 -0.23756540505E+02  0.16680128066E+02 -0.17530022632E+02  0.33910198802E+02  0.51100000000E-03 0. -1.
        -11    1    3    3    0    0  0.77574229458E+01 -0.32067818780E+01  0.52371944698E+01  0.98939004922E+01  0.51100000000E-03 0.  1.
        -12    1    3    3    0    0  0.28022627699E+02 -0.59984496938E+01  0.35564876048E-01  0.28657465462E+02  0.00000000000E+00 0.  1.
</event>
<event>
 7    1  0.2700104E-013  0.7246157E+02  0.7816164E-02  0.1226708E+00
        -11   -1    0    0    0    0  0.00000000000E+00  0.00000000000E+00  0.45593999997E+02  0.45594000000E+02  0.51100000000E-03 0.  1.
         11   -1    0    0    0    0 -0.00000000000E+00 -0.00000000000E+00 -0.45593999997E+02  0.45594000000E+02  0.51100000000E-03 0. -1.
    9900012    2    1    2    0    0  0.60696896650E+01  0.17431819027E+02  0.31575134124E+01  0.72461565791E+02  0.69999994134E+02 0.  0.
        -12    1    1    2    0    0 -0.60696896650E+01 -0.17431819027E+02 -0.31575134124E+01  0.18726434209E+02  0.00000000000E+00 0.  1.
         11    1    3    3    0    0  0.11179552974E+01  0.13025094081E+02  0.23043092606E+02  0.26493150379E+02  0.51100000000E-03 0. -1.
        -11    1    3    3    0    0 -0.71776122647E+01  0.14677646604E+02  0.44214213760E+01  0.16926322545E+02  0.51100000000E-03 0.  1.
         12    1    3    3    0    0  0.12129346632E+02 -0.10270921658E+02 -0.24307000570E+02  0.29042092868E+02  0.00000000000E+00 0. -1.
</event>
<event>
 7    1  0.2700104E-013  0.7246153E+02  0.7816164E-02  0.1226708E+00
        -11   -1    0    0    0    0  0.00000000000E+00  0.00000000000E+00  0.45593999997E+02  0.45594000000E+02  0.51100000000E-03 0.  1.
         11   -1    0    0    0    0 -0.00000000000E+00 -0.00000000000E+00 -0.45593999997E+02  0.45594000000E+02  0.51100000000E-03 0. -1.
    9900012    2    1    2    0    0  0.10810145826E+02  0.14738294203E+02 -0.40748002868E+01  0.72461533004E+02  0.69999951422E+02 0.  0.
        -12    1    1    2    0    0 -0.10810145826E+02 -0.14738294203E+02  0.40748002868E+01  0.18726466996E+02  0.00000000000E+00 0.  1.
         11    1    3    3    0    0  0.15150878591E+02 -0.85475726812E+00  0.17260126004E+02  0.22982421152E+02  0.51100000000E-03 0. -1.
        -11    1    3    3    0    0  0.74993087758E+01  0.14992206695E+02  0.74532018826E+01  0.18345465714E+02  0.51100000000E-03 0.  1.
         12    1    3    3    0    0 -0.11840041541E+02  0.60084477612E+00 -0.28788128173E+02  0.31133646138E+02  0.00000000000E+00 0. -1.
</event>
<event>
 7    1  0.2700104E-013  0.7246153E+02  0.7816164E-02  0.1226708E+00
        -11   -1    0    0    0    0  0.00000000000E+00  0.00000000000E+00  0.45593999997E+02  0.45594000000E+02  0.51100000000E-03 0.  1.
         11   -1    0    0    0    0 -0.00000000000E+00 -0.00000000000E+00 -0.45593999997E+02  0.45594000000E+02  0.51100000000E-03 0. -1.
    9900012    2    1    2    0    0 -0.73965182004E+01 -0.12046499569E+02 -0.12282267032E+02  0.72461528982E+02  0.69999946183E+02 0.  0.
        -12    1    1    2    0    0  0.73965182004E+01  0.12046499569E+02  0.12282267032E+02  0.18726471018E+02  0.00000000000E+00 0.  1.
         11    1    3    3    0    0 -0.22669319389E+01 -0.11654453315E+02 -0.30824006186E+02  0.33031570052E+02  0.51100000000E-03 0. -1.
        -11    1    3    3    0    0  0.27968964859E+01 -0.75170596710E-02 -0.96996132522E+01  0.10094809754E+02  0.51100000000E-03 0.  1.
        -12    1    3    3    0    0 -0.79264827475E+01 -0.38452919363E+00  0.28241352406E+02  0.29335149176E+02  0.00000000000E+00 0.  1.
</event>
<event>
 7    1  0.2700104E-013  0.7246161E+02  0.7816164E-02  0.1226708E+00
        -11   -1    0    0    0    0  0.00000000000E+00  0.00000000000E+00  0.45593999997E+02  0.45594000000E+02  0.51100000000E-03 0.  1.
         11   -1    0    0    0    0 -0.00000000000E+00 -0.00000000000E+00 -0.45593999997E+02  0.45594000000E+02  0.51100000000E-03 0. -1.
    9900012    2    1    2    0    0 -0.80428403119E+01 -0.43118400685E+01 -0.16352323940E+02  0.72461608375E+02  0.70000049607E+02 0.  0.
        -12    1    1    2    0    0  0.80428403119E+01  0.43118400685E+01  0.16352323940E+02  0.18726391625E+02  0.00000000000E+00 0.  1.
         11    1    3    3    0    0 -0.13857582908E+02 -0.17652550088E+02 -0.18655064807E+02  0.29183155619E+02  0.51100000000E-03 0. -1.
        -11    1    3    3    0    0 -0.90513384955E+01 -0.53906804237E+01 -0.11557450630E+02  0.15638440757E+02  0.51100000000E-03 0.  1.
        -12    1    3    3    0    0  0.14866081091E+02  0.18731390444E+02  0.13860191497E+02  0.27640011999E+02  0.00000000000E+00 0.  1.
</event>
<event>
 7    1  0.2700104E-013  0.7246156E+02  0.7816164E-02  0.1226708E+00
        -11   -1    0    0    0    0  0.00000000000E+00  0.00000000000E+00  0.45593999997E+02  0.45594000000E+02  0.51100000000E-03 0.  1.
         11   -1    0    0    0    0 -0.00000000000E+00 -0.00000000000E+00 -0.45593999997E+02  0.45594000000E+02  0.51100000000E-03 0. -1.
    9900012    2    1    2    0    0 -0.10460482697E+02 -0.69247568179E+01 -0.13903437873E+02  0.72461560404E+02  0.69999987116E+02 0.  0.
        -12    1    1    2    0    0  0.10460482697E+02  0.69247568179E+01  0.13903437873E+02  0.18726439596E+02  0.00000000000E+00 0.  1.
         11    1    3    3    0    0 -0.15121159475E+02  0.13053573275E+01  0.64275699974E+01  0.16482326230E+02  0.51100000000E-03 0. -1.
        -11    1    3    3    0    0 -0.12995652934E+02  0.15567025046E+02 -0.16415014077E+02  0.26089690519E+02  0.51100000000E-03 0.  1.
         12    1    3    3    0    0  0.17656329712E+02 -0.23797139191E+02 -0.39159937939E+01  0.29889543656E+02  0.00000000000E+00 0. -1.
</event>
<event>
 7    1  0.2700104E-013  0.7246155E+02  0.7816164E-02  0.1226708E+00
        -11   -1    0    0    0    0  0.00000000000E+00  0.00000000000E+00  0.45593999997E+02  0.45594000000E+02  0.51100000000E-03 0.  1.
         11   -1    0    0    0    0 -0.00000000000E+00 -0.00000000000E+00 -0.45593999997E+02  0.45594000000E+02  0.51100000000E-03 0. -1.
    9900012    2    1    2    0    0  0.81524916512E+01 -0.16817404436E+02 -0.11796809840E+01  0.72461551877E+02  0.69999976007E+02 0.  0.
        -12    1    1    2    0    0 -0.81524916512E+01  0.16817404436E+02  0.11796809840E+01  0.18726448123E+02  0.00000000000E+00 0.  1.
         11    1    3    3    0    0 -0.74870067353E+01  0.33065143435E+01  0.34048427976E+01  0.88646072500E+01  0.51100000000E-03 0. -1.
        -11    1    3    3    0    0  0.18861189009E+02  0.17290045793E+02  0.11318489692E+01  0.25611935044E+02  0.51100000000E-03 0.  1.
         12    1    3    3    0    0 -0.32216906221E+01 -0.37413964573E+02 -0.57163727508E+01  0.37985009582E+02  0.00000000000E+00 0. -1.
</event>
<event>
 7    1  0.2700104E-013  0.7246163E+02  0.7816164E-02  0.1226708E+00
        -11   -1    0    0    0    0  0.00000000000E+00  0.00000000000E+00  0.45593999997E+02  0.45594000000E+02  0.51100000000E-03 0.  1.
         11   -1    0    0    0    0 -0.00000000000E+00 -0.00000000000E+00 -0.45593999997E+02  0.45594000000E+02  0.51100000000E-03 0. -1.
    9900012    2    1    2    0    0  0.66961086910E+01 -0.45513816566E+01 -0.16885609625E+02  0.72461634656E+02  0.70000083843E+02 0.  0.
        -12    1    1    2    0    0 -0.66961086910E+01  0.45513816566E+01  0.16885609625E+02  0.18726365344E+02  0.00000000000E+00 0.  1.
         11    1    3    3    0    0  0.48556817074E+01 -0.74110309192E+01  0.20835913276E+01  0.91017787937E+01  0.51100000000E-03 0. -1.
        -11    1    3    3    0    0  0.61705386466E+01 -0.21369844640E+02  0.10805728703E+02  0.24728719744E+02  0.51100000000E-03 0.  1.
         12    1    3    3    0    0 -0.43301116630E+01  0.24229493902E+02 -0.29774929656E+02  0.38631136118E+02  0.00000000000E+00 0. -1.
</event>
<event>
 7    1  0.2700104E-013  0.7246160E+02  0.7816164E-02  0.1226708E+00
        -11   -1    0    0    0    0  0.00000000000E+00  0.00000000000E+00  0.45593999997E+02  0.45594000000E+02  0.51100000000E-03 0. -1.
         11   -1    0    0    0    0 -0.00000000000E+00 -0.00000000000E+00 -0.45593999997E+02  0.45594000000E+02  0.51100000000E-03 0.  1.
    9900012    2    1    2    0    0 -0.12748643049E+02 -0.13655078467E+02  0.12995405194E+01  0.72461604909E+02  0.70000045093E+02 0.  0.
        -12    1    1    2    0    0  0.12748643049E+02  0.13655078467E+02 -0.12995405194E+01  0.18726395091E+02  0.00000000000E+00 0.  1.
         11    1    3    3    0    0 -0.74314065414E+01  0.45548489265E+01 -0.24912253560E+00  0.87197771890E+01  0.51100000000E-03 0. -1.
        -11    1    3    3    0    0 -0.13304175478E+02 -0.13285513233E+02 -0.27445039812E+02  0.33267644305E+02  0.51100000000E-03 0.  1.
        -12    1    3    3    0    0  0.79869389702E+01 -0.49244141596E+01  0.28993702867E+02  0.30474183416E+02  0.00000000000E+00 0.  1.
</event>
<event>
 7    1  0.2700104E-013  0.7246157E+02  0.7816164E-02  0.1226708E+00
        -11   -1    0    0    0    0  0.00000000000E+00  0.00000000000E+00  0.45593999997E+02  0.45594000000E+02  0.51100000000E-03 0.  1.
         11   -1    0    0    0    0 -0.00000000000E+00 -0.00000000000E+00 -0.45593999997E+02  0.45594000000E+02  0.51100000000E-03 0. -1.
    9900012    2    1    2    0    0  0.41976774309E+01  0.14939926767E+02 -0.10481274050E+02  0.72461574464E+02  0.70000005432E+02 0.  0.
        -12    1    1    2    0    0 -0.41976774309E+01 -0.14939926767E+02  0.10481274050E+02  0.18726425536E+02  0.00000000000E+00 0.  1.
         11    1    3    3    0    0  0.39931882033E+01  0.14986291101E+02 -0.62200706473E+01  0.16709989590E+02  0.51100000000E-03 0. -1.
        -11    1    3    3    0    0  0.19597169634E+02  0.14902765241E+02 -0.15199367058E+02  0.28933755870E+02  0.51100000000E-03 0.  1.
        -12    1    3    3    0    0 -0.19392680407E+02 -0.14949129574E+02  0.10938163655E+02  0.26817829005E+02  0.00000000000E+00 0.  1.
</event>
<event>
 7    1  0.2700104E-013  0.7246157E+02  0.7816164E-02  0.1226708E+00
        -11   -1    0    0    0    0  0.00000000000E+00  0.00000000000E+00  0.45593999997E+02  0.45594000000E+02  0.51100000000E-03 0. -1.
         11   -1    0    0    0    0 -0.00000000000E+00 -0.00000000000E+00 -0.45593999997E+02  0.45594000000E+02  0.51100000000E-03 0.  1.
    9900012    2    1    2    0    0 -0.33918680573E+01 -0.13742075487E+02  0.12260901039E+02  0.72461572100E+02  0.70000002352E+02 0.  0.
        -12    1    1    2    0    0  0.33918680573E+01  0.13742075487E+02 -0.12260901039E+02  0.18726427900E+02  0.00000000000E+00 0.  1.
         11    1    3    3    0    0 -0.26329455320E+01 -0.26207628340E+02 -0.22439366148E+01  0.26434966184E+02  0.51100000000E-03 0. -1.
        -11    1    3    3    0    0  0.18657915758E+02 -0.28995300401E+01  0.72357667035E+01  0.20220816377E+02  0.51100000000E-03 0.  1.
         12    1    3    3    0    0 -0.19416838284E+02  0.15365082892E+02  0.72690709505E+01  0.25805789539E+02  0.00000000000E+00 0. -1.
</event>
<event>
 7    1  0.2700104E-013  0.7246157E+02  0.7816164E-02  0.1226708E+00
        -11   -1    0    0    0    0  0.00000000000E+00  0.00000000000E+00  0.45593999997E+02  0.45594000000E+02  0.51100000000E-03 0. -1.
         11   -1    0    0    0    0 -0.00000000000E+00 -0.00000000000E+00 -0.45593999997E+02  0.45594000000E+02  0.51100000000E-03 0.  1.
    9900012    2    1    2    0    0 -0.88075745210E+01  0.92051508895E+01  0.13724826066E+02  0.72461574223E+02  0.70000005118E+02 0.  0.
        -12    1    1    2    0    0  0.88075745210E+01 -0.92051508895E+01 -0.13724826066E+02  0.18726425777E+02  0.00000000000E+00 0.  1.
         11    1    3    3    0    0 -0.14366878427E+02 -0.13164697272E+02  0.58534342294E+01  0.20346477399E+02  0.51100000000E-03 0. -1.
        -11    1    3    3    0    0 -0.68225468965E+01 -0.11994040270E+02 -0.27617169633E+01  0.14072356910E+02  0.51100000000E-03 0.  1.
         12    1    3    3    0    0  0.12381850803E+02  0.34363888431E+02  0.10633108800E+02  0.38042739914E+02  0.00000000000E+00 0. -1.
</event>
<event>
 7    1  0.2700104E-013  0.7246159E+02  0.7816164E-02  0.1226708E+00
        -11   -1    0    0    0    0  0.00000000000E+00  0.00000000000E+00  0.45593999997E+02  0.45594000000E+02  0.51100000000E-03 0.  1.
         11   -1    0    0    0    0 -0.00000000000E+00 -0.00000000000E+00 -0.45593999997E+02  0.45594000000E+02  0.51100000000E-03 0. -1.
    9900012    2    1    2    0    0 -0.83831518178E+01  0.88085026420E+01 -0.14241191650E+02  0.72461588363E+02  0.70000023537E+02 0.  0.
        -12    1    1    2    0    0  0.83831518178E+01 -0.88085026420E+01  0.14241191650E+02  0.18726411637E+02  0.00000000000E+00 0.  1.
         11    1    3    3    0    0  0.16955420994E+02 -0.13439038923E+01 -0.30327663895E+01  0.17276864617E+02  0.51100000000E-03 0. -1.
        -11    1    3    3    0    0  0.41500634320E+00 -0.29388136410E+01  0.15535463659E+02  0.15816430926E+02  0.51100000000E-03 0.  1.
         12    1    3    3    0    0 -0.25753579155E+02  0.13091220175E+02 -0.26743888920E+02  0.39368292820E+02  0.00000000000E+00 0. -1.
</event>
<event>
 7    1  0.2700104E-013  0.7246154E+02  0.7816164E-02  0.1226708E+00
        -11   -1    0    0    0    0  0.00000000000E+00  0.00000000000E+00  0.45593999997E+02  0.45594000000E+02  0.51100000000E-03 0. -1.
         11   -1    0    0    0    0 -0.00000000000E+00 -0.00000000000E+00 -0.45593999997E+02  0.45594000000E+02  0.51100000000E-03 0.  1.
    9900012    2    1    2    0    0  0.95694664819E+01 -0.15013873285E+02 -0.58042316014E+01  0.72461543201E+02  0.69999964706E+02 0.  0.
        -12    1    1    2    0    0 -0.95694664819E+01  0.15013873285E+02  0.58042316014E+01  0.18726456799E+02  0.00000000000E+00 0.  1.
         11    1    3    3    0    0  0.83719162073E+01  0.58841856624E+01  0.57987873764E+01  0.11761741248E+02  0.51100000000E-03 0. -1.
        -11    1    3    3    0    0 -0.21737227762E+02 -0.90453338571E+01  0.11366439122E+02  0.26144235960E+02  0.51100000000E-03 0.  1.
         12    1    3    3    0    0  0.22934778037E+02 -0.11852725090E+02 -0.22969458100E+02  0.34555565992E+02  0.00000000000E+00 0. -1.
</event>
<event>
 7    1  0.2700104E-013  0.7246173E+02  0.7816164E-02  0.1226708E+00
        -11   -1    0    0    0    0  0.00000000000E+00  0.00000000000E+00  0.45593999997E+02  0.45594000000E+02  0.51100000000E-03 0.  1.
         11   -1    0    0    0    0 -0.00000000000E+00 -0.00000000000E+00 -0.45593999997E+02  0.45594000000E+02  0.51100000000E-03 0. -1.
    9900012    2    1    2    0    0  0.11083114363E+02  0.89414319707E-01 -0.15094030444E+02  0.72461730378E+02  0.70000208539E+02 0.  0.
        -12    1    1    2    0    0 -0.11083114363E+02 -0.89414319707E-01  0.15094030444E+02  0.18726269622E+02  0.00000000000E+00 0.  1.
         11    1    3    3    0    0  0.13871065041E+02  0.69010679353E+01  0.73855232082E+01  0.17163249615E+02  0.51100000000E-03 0.  1.
        -11    1    3    3    0    0  0.13604178591E+02 -0.22431761342E+02 -0.18994908121E+02  0.32389259436E+02  0.51100000000E-03 0. -1.
        -12    1    3    3    0    0 -0.16392129269E+02  0.15620107726E+02 -0.34846455315E+01  0.22909221327E+02  0.00000000000E+00 0.  1.
</event>
<event>
 7    1  0.2700104E-013  0.7246153E+02  0.7816164E-02  0.1226708E+00
        -11   -1    0    0    0    0  0.00000000000E+00  0.00000000000E+00  0.45593999997E+02  0.45594000000E+02  0.51100000000E-03 0.  1.
         11   -1    0    0    0    0 -0.00000000000E+00 -0.00000000000E+00 -0.45593999997E+02  0.45594000000E+02  0.51100000000E-03 0. -1.
    9900012    2    1    2    0    0 -0.94611791235E+01  0.87435039252E+01 -0.13591101908E+02  0.72461526163E+02  0.69999942510E+02 0.  0.
        -12    1    1    2    0    0  0.94611791235E+01 -0.87435039252E+01  0.13591101908E+02  0.18726473837E+02  0.00000000000E+00 0.  1.
         11    1    3    3    0    0 -0.14652772818E+02 -0.25269778935E+01 -0.12227060169E+02  0.19250723861E+02  0.51100000000E-03 0. -1.
        -11    1    3    3    0    0 -0.10457910850E+01  0.30725946707E+02 -0.79314347690E+01  0.31750356498E+02  0.51100000000E-03 0.  1.
         12    1    3    3    0    0  0.62373847793E+01 -0.19455464888E+02  0.65673930297E+01  0.21460445804E+02  0.00000000000E+00 0. -1.
</event>
<event>
 7    1  0.2700104E-013  0.7246158E+02  0.7816164E-02  0.1226708E+00
        -11   -1    0    0    0    0  0.00000000000E+00  0.00000000000E+00  0.45593999997E+02  0.45594000000E+02  0.51100000000E-03 0. -1.
         11   -1    0    0    0    0 -0.00000000000E+00 -0.00000000000E+00 -0.45593999997E+02  0.45594000000E+02  0.51100000000E-03 0.  1.
    9900012    2    1    2    0    0 -0.77039252620E+01  0.16226231672E+02  0.52950550196E+01  0.72461583729E+02  0.70000017501E+02 0.  0.
        -12    1    1    2    0    0  0.77039252620E+01 -0.16226231672E+02 -0.52950550196E+01  0.18726416271E+02  0.00000000000E+00 0.  1.
         11    1    3    3    0    0 -0.21573022584E+01 -0.56758588169E+01 -0.14296191371E+02  0.15532237904E+02  0.51100000000E-03 0. -1.
        -11    1    3    3    0    0  0.85101170557E+00 -0.79732006874E+01 -0.11053895432E+02  0.13655942099E+02  0.51100000000E-03 0.  1.
         12    1    3    3    0    0 -0.63976347091E+01  0.29875291176E+02  0.30645141822E+02  0.43273403726E+02  0.00000000000E+00 0. -1.
</event>
<event>
 7    1  0.2700104E-013  0.7246163E+02  0.7816164E-02  0.1226708E+00
        -11   -1    0    0    0    0  0.00000000000E+00  0.00000000000E+00  0.45593999997E+02  0.45594000000E+02  0.51100000000E-03 0. -1.
         11   -1    0    0    0    0 -0.00000000000E+00 -0.00000000000E+00 -0.45593999997E+02  0.45594000000E+02  0.51100000000E-03 0.  1.
    9900012    2    1    2    0    0  0.12627726151E+02  0.12709889510E+02  0.54475934322E+01  0.72461627332E+02  0.70000074302E+02 0.  0.
        -12    1    1    2    0    0 -0.12627726151E+02 -0.12709889510E+02 -0.54475934322E+01  0.18726372668E+02  0.00000000000E+00 0.  1.
         11    1    3    3    0    0  0.38753935070E+01 -0.45898812130E+01 -0.17087204284E+02  0.18112377946E+02  0.51100000000E-03 0. -1.
        -11    1    3    3    0    0 -0.37823068969E-01  0.61155494694E+00 -0.13586269538E+02  0.13600079053E+02  0.51100000000E-03 0.  1.
         12    1    3    3    0    0  0.87901557133E+01  0.16688215776E+02  0.36121067253E+02  0.40749170332E+02  0.00000000000E+00 0. -1.
</event>
<event>
 7    1  0.2700104E-013  0.7246166E+02  0.7816164E-02  0.1226708E+00
        -11   -1    0    0    0    0  0.00000000000E+00  0.00000000000E+00  0.45593999997E+02  0.45594000000E+02  0.51100000000E-03 0.  1.
         11   -1    0    0    0    0 -0.00000000000E+00 -0.00000000000E+00 -0.45593999997E+02  0.45594000000E+02  0.51100000000E-03 0. -1.
    9900012    2    1    2    0    0  0.17860926268E+02  0.45777875154E+01 -0.32721295267E+01  0.72461664071E+02  0.70000122162E+02 0.  0.
        -12    1    1    2    0    0 -0.17860926268E+02 -0.45777875154E+01  0.32721295267E+01  0.18726335929E+02  0.00000000000E+00 0.  1.
         11    1    3    3    0    0  0.13540520688E+02 -0.10456701765E+00 -0.22956802099E+02  0.26652793430E+02  0.51100000000E-03 0. -1.
        -11    1    3    3    0    0  0.18066259935E+02  0.10056398794E+02 -0.64505203678E+00  0.20686638130E+02  0.51100000000E-03 0.  1.
        -12    1    3    3    0    0 -0.13745854355E+02 -0.53740442610E+01  0.20329724609E+02  0.25122232511E+02  0.00000000000E+00 0.  1.
</event>
<event>
 7    1  0.2700104E-013  0.7246182E+02  0.7816164E-02  0.1226707E+00
        -11   -1    0    0    0    0  0.00000000000E+00  0.00000000000E+00  0.45593999997E+02  0.45594000000E+02  0.51100000000E-03 0.  1.
         11   -1    0    0    0    0 -0.00000000000E+00 -0.00000000000E+00 -0.45593999997E+02  0.45594000000E+02  0.51100000000E-03 0. -1.
    9900012    2    1    2    0    0 -0.17934886632E+02  0.52445293730E+01 -0.12266494757E+01  0.72461817373E+02  0.70000321865E+02 0.  0.
        -12    1    1    2    0    0  0.17934886632E+02 -0.52445293730E+01  0.12266494757E+01  0.18726182627E+02  0.00000000000E+00 0.  1.
         11    1    3    3    0    0  0.58468457927E+01 -0.20169677442E+02 -0.14509280416E+01  0.21050099436E+02  0.51100000000E-03 0. -1.
        -11    1    3    3    0    0  0.60750685548E+01 -0.43659830366E+01  0.49612191304E+01  0.89767455875E+01  0.51100000000E-03 0.  1.
        -12    1    3    3    0    0 -0.29856800980E+02  0.29780189852E+02 -0.47369405645E+01  0.42434972349E+02  0.00000000000E+00 0.  1.
</event>
<event>
 7    1  0.2700104E-013  0.7246220E+02  0.7816164E-02  0.1226706E+00
        -11   -1    0    0    0    0  0.00000000000E+00  0.00000000000E+00  0.45593999997E+02  0.45594000000E+02  0.51100000000E-03 0.  1.
         11   -1    0    0    0    0 -0.00000000000E+00 -0.00000000000E+00 -0.45593999997E+02  0.45594000000E+02  0.51100000000E-03 0. -1.
    9900012    2    1    2    0    0 -0.10150908994E+02  0.79478613402E+01 -0.13581090391E+02  0.72462203101E+02  0.70000824344E+02 0.  0.
        -12    1    1    2    0    0  0.10150908994E+02 -0.79478613402E+01  0.13581090391E+02  0.18725796899E+02  0.00000000000E+00 0.  1.
         11    1    3    3    0    0  0.64839577592E+01  0.20165484069E+01 -0.17893924657E+02  0.19138984184E+02  0.51100000000E-03 0. -1.
        -11    1    3    3    0    0 -0.15117059372E+02 -0.16527953536E+02 -0.12106203830E+02  0.25460928962E+02  0.51100000000E-03 0.  1.
        -12    1    3    3    0    0 -0.15178073809E+01  0.22459266470E+02  0.16419038096E+02  0.27862289956E+02  0.00000000000E+00 0.  1.
</event>
<event>
 7    1  0.2700104E-013  0.7246152E+02  0.7816164E-02  0.1226708E+00
        -11   -1    0    0    0    0  0.00000000000E+00  0.00000000000E+00  0.45593999997E+02  0.45594000000E+02  0.51100000000E-03 0.  1.
         11   -1    0    0    0    0 -0.00000000000E+00 -0.00000000000E+00 -0.45593999997E+02  0.45594000000E+02  0.51100000000E-03 0. -1.
    9900012    2    1    2    0    0 -0.85009565001E+01 -0.45241720701E+01 -0.16060716719E+02  0.72461520997E+02  0.69999935780E+02 0.  0.
        -12    1    1    2    0    0  0.85009565001E+01  0.45241720701E+01  0.16060716719E+02  0.18726479003E+02  0.00000000000E+00 0.  1.
         11    1    3    3    0    0  0.30173281656E+01  0.95921052065E+01 -0.98653205691E+00  0.10103761543E+02  0.51100000000E-03 0. -1.
        -11    1    3    3    0    0  0.17231194233E+01  0.21853479644E+02 -0.27365645634E+01  0.22091457602E+02  0.51100000000E-03 0.  1.
         12    1    3    3    0    0 -0.13241404089E+02 -0.35969756920E+02 -0.12337620099E+02  0.40266301852E+02  0.00000000000E+00 0. -1.
</event>
<event>
 7    1  0.2700104E-013  0.7246157E+02  0.7816164E-02  0.1226708E+00
        -11   -1    0    0    0    0  0.00000000000E+00  0.00000000000E+00  0.45593999997E+02  0.45594000000E+02  0.51100000000E-03 0.  1.
         11   -1    0    0    0    0 -0.00000000000E+00 -0.00000000000E+00 -0.45593999997E+02  0.45594000000E+02  0.51100000000E-03 0. -1.
    9900012    2    1    2    0    0 -0.17523009747E+02  0.64275728548E+01 -0.15197769707E+01  0.72461567199E+02  0.69999995968E+02 0.  0.
        -12    1    1    2    0    0  0.17523009747E+02 -0.64275728548E+01  0.15197769707E+01  0.18726432801E+02  0.00000000000E+00 0.  1.
         11    1    3    3    0    0 -0.37368303619E+01 -0.13773141838E+02 -0.87036209357E+00  0.14297582582E+02  0.51100000000E-03 0. -1.
        -11    1    3    3    0    0 -0.12195272880E+02 -0.49209458964E+01 -0.21684104161E+02  0.25360220083E+02  0.51100000000E-03 0.  1.
        -12    1    3    3    0    0 -0.15909065055E+01  0.25121660590E+02  0.21034689284E+02  0.32803764534E+02  0.00000000000E+00 0.  1.
</event>
<event>
 7    1  0.2700104E-013  0.7246156E+02  0.7816164E-02  0.1226708E+00
        -11   -1    0    0    0    0  0.00000000000E+00  0.00000000000E+00  0.45593999997E+02  0.45594000000E+02  0.51100000000E-03 0.  1.
         11   -1    0    0    0    0 -0.00000000000E+00 -0.00000000000E+00 -0.45593999997E+02  0.45594000000E+02  0.51100000000E-03 0. -1.
    9900012    2    1    2    0    0  0.33254273958E+00  0.36793761738E+01 -0.18358413395E+02  0.72461555167E+02  0.69999980294E+02 0.  0.
        -12    1    1    2    0    0 -0.33254273958E+00 -0.36793761738E+01  0.18358413395E+02  0.18726444833E+02  0.00000000000E+00 0.  1.
         11    1    3    3    0    0 -0.11561714936E+02  0.99233425243E+01 -0.76196345573E+01  0.17035398738E+02  0.51100000000E-03 0. -1.
        -11    1    3    3    0    0 -0.66553821041E+01  0.17992096137E+02 -0.15338054400E+02  0.24561464683E+02  0.51100000000E-03 0.  1.
        -12    1    3    3    0    0  0.18549639779E+02 -0.24236062487E+02  0.45992755624E+01  0.30864691745E+02  0.00000000000E+00 0.  1.
</event>
<event>
 7    1  0.2700104E-013  0.7246152E+02  0.7816164E-02  0.1226708E+00
        -11   -1    0    0    0    0  0.00000000000E+00  0.00000000000E+00  0.45593999997E+02  0.45594000000E+02  0.51100000000E-03 0. -1.
         11   -1    0    0    0    0 -0.00000000000E+00 -0.00000000000E+00 -0.45593999997E+02  0.45594000000E+02  0.51100000000E-03 0.  1.
    9900012    2    1    2    0    0  0.17475342233E+02  0.64773382640E+01 -0.18268748080E+01  0.72461522255E+02  0.69999937420E+02 0.  0.
        -12    1    1    2    0    0 -0.17475342233E+02 -0.64773382640E+01  0.18268748080E+01  0.18726477745E+02  0.00000000000E+00 0.  1.
         11    1    3    3    0    0  0.88210916265E+01  0.88360087364E+01  0.12723208958E+01  0.12550119864E+02  0.51100000000E-03 0. -1.
        -11    1    3    3    0    0  0.28455086002E+02  0.14527819025E+02 -0.90699676429E+01  0.33211650942E+02  0.51100000000E-03 0.  1.
        -12    1    3    3    0    0 -0.19800835395E+02 -0.16886489498E+02  0.59707719391E+01  0.26699751449E+02  0.00000000000E+00 0.  1.
</event>
<event>
 7    1  0.2700104E-013  0.7246156E+02  0.7816164E-02  0.1226708E+00
        -11   -1    0    0    0    0  0.00000000000E+00  0.00000000000E+00  0.45593999997E+02  0.45594000000E+02  0.51100000000E-03 0. -1.
         11   -1    0    0    0    0 -0.00000000000E+00 -0.00000000000E+00 -0.45593999997E+02  0.45594000000E+02  0.51100000000E-03 0.  1.
    9900012    2    1    2    0    0  0.41255356657E+01 -0.58052542447E+01  0.17319305906E+02  0.72461564716E+02  0.69999992733E+02 0.  0.
        -12    1    1    2    0    0 -0.41255356657E+01  0.58052542447E+01 -0.17319305906E+02  0.18726435284E+02  0.00000000000E+00 0.  1.
         11    1    3    3    0    0 -0.15465517730E+02 -0.19192477914E+02 -0.77286076560E+00  0.24660307402E+02  0.51100000000E-03 0. -1.
        -11    1    3    3    0    0  0.32875527323E+01  0.43639810211E+01 -0.11556598204E+02  0.12783086311E+02  0.51100000000E-03 0.  1.
        -12    1    3    3    0    0  0.16303500663E+02  0.90232426478E+01  0.29648764876E+02  0.35018171003E+02  0.00000000000E+00 0.  1.
</event>
<event>
 7    1  0.2700104E-013  0.7246150E+02  0.7816164E-02  0.1226708E+00
        -11   -1    0    0    0    0  0.00000000000E+00  0.00000000000E+00  0.45593999997E+02  0.45594000000E+02  0.51100000000E-03 0. -1.
         11   -1    0    0    0    0 -0.00000000000E+00 -0.00000000000E+00 -0.45593999997E+02  0.45594000000E+02  0.51100000000E-03 0.  1.
    9900012    2    1    2    0    0 -0.18622321318E+02 -0.12254482251E+01 -0.15457285755E+01  0.72461498686E+02  0.69999906717E+02 0.  0.
        -12    1    1    2    0    0  0.18622321318E+02  0.12254482251E+01  0.15457285755E+01  0.18726501314E+02  0.00000000000E+00 0.  1.
         11    1    3    3    0    0 -0.14950998203E+02 -0.24700980023E+01  0.14012175013E+01  0.15218316009E+02  0.51100000000E-03 0. -1.
        -11    1    3    3    0    0  0.70354934647E+01 -0.22310820238E+02  0.13084776864E+02  0.26804519280E+02  0.51100000000E-03 0.  1.
         12    1    3    3    0    0 -0.10706816580E+02  0.23555470016E+02 -0.16031722941E+02  0.30438663397E+02  0.00000000000E+00 0. -1.
</event>
<event>
 7    1  0.2700104E-013  0.7246151E+02  0.7816164E-02  0.1226708E+00
        -11   -1    0    0    0    0  0.00000000000E+00  0.00000000000E+00  0.45593999997E+02  0.45594000000E+02  0.51100000000E-03 0. -1.
         11   -1    0    0    0    0 -0.00000000000E+00 -0.00000000000E+00 -0.45593999997E+02  0.45594000000E+02  0.51100000000E-03 0.  1.
    9900012    2    1    2    0    0 -0.66906364119E+01  0.65833992303E+01  0.16204188671E+02  0.72461508297E+02  0.69999919237E+02 0.  0.
        -12    1    1    2    0    0  0.66906364119E+01 -0.65833992303E+01 -0.16204188671E+02  0.18726491703E+02  0.00000000000E+00 0.  1.
         11    1    3    3    0    0 -0.53917445334E+01 -0.82111966030E+01 -0.10702183324E+02  0.14526919389E+02  0.51100000000E-03 0. -1.
        -11    1    3    3    0    0  0.15895846808E+01 -0.92248723417E+01 -0.10068934696E+02  0.13748036054E+02  0.51100000000E-03 0.  1.
         12    1    3    3    0    0 -0.28884765593E+01  0.24019468175E+02  0.36975306691E+02  0.44186552854E+02  0.00000000000E+00 0. -1.
</event>
<event>
 7    1  0.2700104E-013  0.7246152E+02  0.7816164E-02  0.1226708E+00
        -11   -1    0    0    0    0  0.00000000000E+00  0.00000000000E+00  0.45593999997E+02  0.45594000000E+02  0.51100000000E-03 0.  1.
         11   -1    0    0    0    0 -0.00000000000E+00 -0.00000000000E+00 -0.45593999997E+02  0.45594000000E+02  0.51100000000E-03 0. -1.
    9900012    2    1    2    0    0 -0.14595093384E+02  0.10044452236E+02 -0.60641085751E+01  0.72461516496E+02  0.69999929918E+02 0.  0.
        -12    1    1    2    0    0  0.14595093384E+02 -0.10044452236E+02  0.60641085751E+01  0.18726483504E+02  0.00000000000E+00 0.  1.
         11    1    3    3    0    0 -0.19208282411E+01  0.13962167197E+01  0.84627699723E+01  0.87896233210E+01  0.51100000000E-03 0. -1.
        -11    1    3    3    0    0 -0.30785592646E+02 -0.12632310422E+02 -0.12869735028E+02  0.35678537821E+02  0.51100000000E-03 0.  1.
         12    1    3    3    0    0  0.18111327503E+02  0.21280545938E+02 -0.16571435196E+01  0.27993355354E+02  0.00000000000E+00 0. -1.
</event>
<event>
 7    1  0.2700104E-013  0.7246156E+02  0.7816164E-02  0.1226708E+00
        -11   -1    0    0    0    0  0.00000000000E+00  0.00000000000E+00  0.45593999997E+02  0.45594000000E+02  0.51100000000E-03 0.  1.
         11   -1    0    0    0    0 -0.00000000000E+00 -0.00000000000E+00 -0.45593999997E+02  0.45594000000E+02  0.51100000000E-03 0. -1.
    9900012    2    1    2    0    0 -0.12068341478E+02 -0.14316180650E+02  0.28601356058E+00  0.72461556178E+02  0.69999981611E+02 0.  0.
        -12    1    1    2    0    0  0.12068341478E+02  0.14316180650E+02 -0.28601356058E+00  0.18726443822E+02  0.00000000000E+00 0.  1.
         11    1    3    3    0    0 -0.35683778024E+01  0.19250777730E+02 -0.12058707143E+00  0.19579078244E+02  0.51100000000E-03 0. -1.
        -11    1    3    3    0    0  0.14346104669E+02 -0.54667085962E+01 -0.52554132664E+01  0.16226983420E+02  0.51100000000E-03 0.  1.
        -12    1    3    3    0    0 -0.22846068345E+02 -0.28100249784E+02  0.56620138984E+01  0.36655494515E+02  0.00000000000E+00 0.  1.
</event>
<event>
 7    1  0.2700104E-013  0.7246173E+02  0.7816164E-02  0.1226708E+00
        -11   -1    0    0    0    0  0.00000000000E+00  0.00000000000E+00  0.45593999997E+02  0.45594000000E+02  0.51100000000E-03 0.  1.
         11   -1    0    0    0    0 -0.00000000000E+00 -0.00000000000E+00 -0.45593999997E+02  0.45594000000E+02  0.51100000000E-03 0. -1.
    9900012    2    1    2    0    0  0.13962820643E+02  0.70902989885E+01  0.10268419808E+02  0.72461731140E+02  0.70000209531E+02 0.  0.
        -12    1    1    2    0    0 -0.13962820643E+02 -0.70902989885E+01 -0.10268419808E+02  0.18726268860E+02  0.00000000000E+00 0.  1.
         11    1    3    3    0    0  0.27087267643E+02  0.19753837196E+02  0.49262764905E+01  0.33885134685E+02  0.51100000000E-03 0. -1.
        -11    1    3    3    0    0 -0.66798396847E+00  0.81324200906E+01  0.10988173716E+02  0.13686578133E+02  0.51100000000E-03 0.  1.
        -12    1    3    3    0    0 -0.12456463032E+02 -0.20795958298E+02 -0.56460303990E+01  0.24890018322E+02  0.00000000000E+00 0.  1.
</event>
<event>
 7    1  0.2700104E-013  0.7246156E+02  0.7816164E-02  0.1226708E+00
        -11   -1    0    0    0    0  0.00000000000E+00  0.00000000000E+00  0.45593999997E+02  0.45594000000E+02  0.51100000000E-03 0.  1.
         11   -1    0    0    0    0 -0.00000000000E+00 -0.00000000000E+00 -0.45593999997E+02  0.45594000000E+02  0.51100000000E-03 0. -1.
    9900012    2    1    2    0    0  0.11863343375E+02  0.90151977385E+01 -0.11343146269E+02  0.72461556836E+02  0.69999982468E+02 0.  0.
        -12    1    1    2    0    0 -0.11863343375E+02 -0.90151977385E+01  0.11343146269E+02  0.18726443164E+02  0.00000000000E+00 0.  1.
         11    1    3    3    0    0  0.23409823968E+02  0.77743842701E+01  0.13424014273E+01  0.24703500781E+02  0.51100000000E-03 0.  1.
        -11    1    3    3    0    0  0.99599660402E+01 -0.13693515446E+02 -0.13356248974E+02  0.21566239258E+02  0.51100000000E-03 0. -1.
        -12    1    3    3    0    0 -0.21506446633E+02  0.14934328915E+02  0.67070127788E+00  0.26191816797E+02  0.00000000000E+00 0.  1.
</event>
<event>
 7    1  0.2700104E-013  0.7246155E+02  0.7816164E-02  0.1226708E+00
        -11   -1    0    0    0    0  0.00000000000E+00  0.00000000000E+00  0.45593999997E+02  0.45594000000E+02  0.51100000000E-03 0. -1.
         11   -1    0    0    0    0 -0.00000000000E+00 -0.00000000000E+00 -0.45593999997E+02  0.45594000000E+02  0.51100000000E-03 0.  1.
    9900012    2    1    2    0    0 -0.12547266395E+02  0.71054947268E+01 -0.11948132504E+02  0.72461552936E+02  0.69999977387E+02 0.  0.
        -12    1    1    2    0    0  0.12547266395E+02 -0.71054947268E+01  0.11948132504E+02  0.18726447064E+02  0.00000000000E+00 0.  1.
         11    1    3    3    0    0  0.57459028780E+00  0.12291843073E+01  0.25907794444E+02  0.25943300894E+02  0.51100000000E-03 0. -1.
        -11    1    3    3    0    0  0.24217085096E+01  0.28161403420E+00  0.21406061628E+01  0.32444065058E+01  0.51100000000E-03 0.  1.
        -12    1    3    3    0    0 -0.15543565193E+02  0.55946963853E+01 -0.39996533111E+02  0.43273845536E+02  0.00000000000E+00 0.  1.
</event>
<event>
 7    1  0.2700104E-013  0.7246156E+02  0.7816164E-02  0.1226708E+00
        -11   -1    0    0    0    0  0.00000000000E+00  0.00000000000E+00  0.45593999997E+02  0.45594000000E+02  0.51100000000E-03 0. -1.
         11   -1    0    0    0    0 -0.00000000000E+00 -0.00000000000E+00 -0.45593999997E+02  0.45594000000E+02  0.51100000000E-03 0.  1.
    9900012    2    1    2    0    0 -0.54930630639E+01  0.11467826993E+02  0.13747530545E+02  0.72461564304E+02  0.69999992197E+02 0.  0.
        -12    1    1    2    0    0  0.54930630639E+01 -0.11467826993E+02 -0.13747530545E+02  0.18726435696E+02  0.00000000000E+00 0.  1.
         11    1    3    3    0    0 -0.67339112288E+01  0.27510668511E+02  0.22578539472E+02  0.36221166289E+02  0.51100000000E-03 0. -1.
        -11    1    3    3    0    0  0.37495470285E+01  0.83686963729E+01  0.20492440590E+01  0.93964665367E+01  0.51100000000E-03 0.  1.
        -12    1    3    3    0    0 -0.25086988636E+01 -0.24411537891E+02 -0.10880252986E+02  0.26843931479E+02  0.00000000000E+00 0.  1.
</event>
<event>
 7    1  0.2700104E-013  0.7246167E+02  0.7816164E-02  0.1226708E+00
        -11   -1    0    0    0    0  0.00000000000E+00  0.00000000000E+00  0.45593999997E+02  0.45594000000E+02  0.51100000000E-03 0. -1.
         11   -1    0    0    0    0 -0.00000000000E+00 -0.00000000000E+00 -0.45593999997E+02  0.45594000000E+02  0.51100000000E-03 0.  1.
    9900012    2    1    2    0    0 -0.93032391767E+01 -0.42778876960E+01  0.15678798685E+02  0.72461673331E+02  0.70000134224E+02 0.  0.
        -12    1    1    2    0    0  0.93032391767E+01  0.42778876960E+01 -0.15678798685E+02  0.18726326669E+02  0.00000000000E+00 0.  1.
         11    1    3    3    0    0  0.63912208466E+01  0.14681229854E+02 -0.10715499904E+02  0.19266762894E+02  0.51100000000E-03 0. -1.
        -11    1    3    3    0    0  0.20708584738E+01 -0.13845394959E+02 -0.65208237867E+01  0.15443592831E+02  0.51100000000E-03 0.  1.
         12    1    3    3    0    0 -0.17765318497E+02 -0.51137225908E+01  0.32915122376E+02  0.37751317607E+02  0.00000000000E+00 0. -1.
</event>
<event>
 7    1  0.2700104E-013  0.7246163E+02  0.7816164E-02  0.1226708E+00
        -11   -1    0    0    0    0  0.00000000000E+00  0.00000000000E+00  0.45593999997E+02  0.45594000000E+02  0.51100000000E-03 0.  1.
         11   -1    0    0    0    0 -0.00000000000E+00 -0.00000000000E+00 -0.45593999997E+02  0.45594000000E+02  0.51100000000E-03 0. -1.
    9900012    2    1    2    0    0 -0.63849438378E+01  0.14760859262E+02  0.95930408839E+01  0.72461630694E+02  0.70000078682E+02 0.  0.
        -12    1    1    2    0    0  0.63849438378E+01 -0.14760859262E+02 -0.95930408839E+01  0.18726369306E+02  0.00000000000E+00 0.  1.
         11    1    3    3    0    0  0.13564564551E+02  0.31838676779E+01  0.12381490420E+02  0.18639627950E+02  0.51100000000E-03 0. -1.
        -11    1    3    3    0    0 -0.18098845507E+02  0.22986324636E+02  0.14791231022E+02  0.32782920009E+02  0.51100000000E-03 0.  1.
         12    1    3    3    0    0 -0.18506628819E+01 -0.11409333052E+02 -0.17579680558E+02  0.21039082734E+02  0.00000000000E+00 0. -1.
</event>
<event>
 7    1  0.2700104E-013  0.7246162E+02  0.7816164E-02  0.1226708E+00
        -11   -1    0    0    0    0  0.00000000000E+00  0.00000000000E+00  0.45593999997E+02  0.45594000000E+02  0.51100000000E-03 0. -1.
         11   -1    0    0    0    0 -0.00000000000E+00 -0.00000000000E+00 -0.45593999997E+02  0.45594000000E+02  0.51100000000E-03 0.  1.
    9900012    2    1    2    0    0  0.11003669204E+02  0.11513700951E+02  0.98504528314E+01  0.72461615765E+02  0.70000059234E+02 0.  0.
        -12    1    1    2    0    0 -0.11003669204E+02 -0.11513700951E+02 -0.98504528314E+01  0.18726384235E+02  0.00000000000E+00 0.  1.
         11    1    3    3    0    0  0.23121946404E+02 -0.37090232312E+01 -0.36826465167E+01  0.23705339999E+02  0.51100000000E-03 0. -1.
        -11    1    3    3    0    0  0.15594976110E+02  0.35072359098E+01  0.56978846937E+00  0.15994644190E+02  0.51100000000E-03 0.  1.
         12    1    3    3    0    0 -0.27713253311E+02  0.11715488273E+02  0.12963310879E+02  0.32761631575E+02  0.00000000000E+00 0. -1.
</event>
<event>
 7    1  0.2700104E-013  0.7246166E+02  0.7816164E-02  0.1226708E+00
        -11   -1    0    0    0    0  0.00000000000E+00  0.00000000000E+00  0.45593999997E+02  0.45594000000E+02  0.51100000000E-03 0.  1.
         11   -1    0    0    0    0 -0.00000000000E+00 -0.00000000000E+00 -0.45593999997E+02  0.45594000000E+02  0.51100000000E-03 0. -1.
    9900012    2    1    2    0    0 -0.15495664579E+02  0.19386840023E+01 -0.10334491971E+02  0.72461659174E+02  0.70000115783E+02 0.  0.
        -12    1    1    2    0    0  0.15495664579E+02 -0.19386840023E+01  0.10334491971E+02  0.18726340826E+02  0.00000000000E+00 0.  1.
         11    1    3    3    0    0 -0.32838258782E+02  0.94545135607E+01 -0.22317820569E+02  0.40814509450E+02  0.51100000000E-03 0. -1.
        -11    1    3    3    0    0 -0.22795414191E+01  0.15687024051E+01 -0.39251364664E+01  0.48024819477E+01  0.51100000000E-03 0.  1.
        -12    1    3    3    0    0  0.19622135622E+02 -0.90845319635E+01  0.15908465064E+02  0.26844667776E+02  0.00000000000E+00 0.  1.
</event>
<event>
 7    1  0.2700104E-013  0.7246155E+02  0.7816164E-02  0.1226708E+00
        -11   -1    0    0    0    0  0.00000000000E+00  0.00000000000E+00  0.45593999997E+02  0.45594000000E+02  0.51100000000E-03 0. -1.
         11   -1    0    0    0    0 -0.00000000000E+00 -0.00000000000E+00 -0.45593999997E+02  0.45594000000E+02  0.51100000000E-03 0.  1.
    9900012    2    1    2    0    0  0.17367143321E+02 -0.36217044206E+01  0.59954699126E+01  0.72461546264E+02  0.69999968697E+02 0.  0.
        -12    1    1    2    0    0 -0.17367143321E+02  0.36217044206E+01 -0.59954699126E+01  0.18726453736E+02  0.00000000000E+00 0.  1.
         11    1    3    3    0    0  0.26065865603E+02 -0.11231039956E+02  0.61267099057E+01  0.29036221907E+02  0.51100000000E-03 0. -1.
        -11    1    3    3    0    0  0.76936794001E+01  0.17006336408E+02 -0.10961878560E+02  0.21646500007E+02  0.51100000000E-03 0.  1.
         12    1    3    3    0    0 -0.16392401682E+02 -0.93970008727E+01  0.10830638567E+02  0.21778824350E+02  0.00000000000E+00 0. -1.
</event>
<event>
 7    1  0.2700104E-013  0.7246158E+02  0.7816164E-02  0.1226708E+00
        -11   -1    0    0    0    0  0.00000000000E+00  0.00000000000E+00  0.45593999997E+02  0.45594000000E+02  0.51100000000E-03 0.  1.
         11   -1    0    0    0    0 -0.00000000000E+00 -0.00000000000E+00 -0.45593999997E+02  0.45594000000E+02  0.51100000000E-03 0. -1.
    9900012    2    1    2    0    0  0.84311144392E+01 -0.89316971137E+01 -0.14135769817E+02  0.72461577695E+02  0.70000009641E+02 0.  0.
        -12    1    1    2    0    0 -0.84311144392E+01  0.89316971137E+01  0.14135769817E+02  0.18726422305E+02  0.00000000000E+00 0.  1.
         11    1    3    3    0    0  0.48695237617E+01 -0.21743384307E+02 -0.20161011899E+01  0.22373012472E+02  0.51100000000E-03 0. -1.
        -11    1    3    3    0    0  0.18619075051E+02  0.11293632558E+02 -0.22828376325E+02  0.31549181574E+02  0.51100000000E-03 0.  1.
        -12    1    3    3    0    0 -0.15057484373E+02  0.15180546361E+01  0.10708707698E+02  0.18539383649E+02  0.00000000000E+00 0.  1.
</event>
<event>
 7    1  0.2700104E-013  0.7246225E+02  0.7816164E-02  0.1226706E+00
        -11   -1    0    0    0    0  0.00000000000E+00  0.00000000000E+00  0.45593999997E+02  0.45594000000E+02  0.51100000000E-03 0.  1.
         11   -1    0    0    0    0 -0.00000000000E+00 -0.00000000000E+00 -0.45593999997E+02  0.45594000000E+02  0.51100000000E-03 0. -1.
    9900012    2    1    2    0    0  0.79309356279E+01  0.16796899541E+02 -0.23702471614E+01  0.72462251798E+02  0.70000887780E+02 0.  0.
        -12    1    1    2    0    0 -0.79309356279E+01 -0.16796899541E+02  0.23702471614E+01  0.18725748202E+02  0.00000000000E+00 0.  1.
         11    1    3    3    0    0 -0.97590049335E+01  0.62451694845E+01 -0.10925062257E+02  0.15924738766E+02  0.51100000000E-03 0. -1.
        -11    1    3    3    0    0  0.32000579409E+02 -0.13598485810E+01 -0.63919566734E+01  0.32661037660E+02  0.51100000000E-03 0.  1.
         12    1    3    3    0    0 -0.14310638848E+02  0.11911578637E+02  0.14946771769E+02  0.23876475372E+02  0.00000000000E+00 0. -1.
</event>
<event>
 7    1  0.2700104E-013  0.7246151E+02  0.7816164E-02  0.1226708E+00
        -11   -1    0    0    0    0  0.00000000000E+00  0.00000000000E+00  0.45593999997E+02  0.45594000000E+02  0.51100000000E-03 0.  1.
         11   -1    0    0    0    0 -0.00000000000E+00 -0.00000000000E+00 -0.45593999997E+02  0.45594000000E+02  0.51100000000E-03 0. -1.
    9900012    2    1    2    0    0  0.16798817808E+02  0.15215038502E+01 -0.81342495523E+01  0.72461514225E+02  0.69999926959E+02 0.  0.
        -12    1    1    2    0    0 -0.16798817808E+02 -0.15215038502E+01  0.81342495523E+01  0.18726485775E+02  0.00000000000E+00 0.  1.
         11    1    3    3    0    0  0.12504717611E+02 -0.20762965217E+02 -0.29588987292E+02  0.38248880459E+02  0.51100000000E-03 0. -1.
        -11    1    3    3    0    0  0.22195363416E+01 -0.15154827426E+01  0.29756873682E+01  0.40097063594E+01  0.51100000000E-03 0.  1.
        -12    1    3    3    0    0  0.20745638553E+01  0.23799951810E+02  0.18479050371E+02  0.30202927407E+02  0.00000000000E+00 0.  1.
</event>
<event>
 7    1  0.2700104E-013  0.7246161E+02  0.7816164E-02  0.1226708E+00
        -11   -1    0    0    0    0  0.00000000000E+00  0.00000000000E+00  0.45593999997E+02  0.45594000000E+02  0.51100000000E-03 0. -1.
         11   -1    0    0    0    0 -0.00000000000E+00 -0.00000000000E+00 -0.45593999997E+02  0.45594000000E+02  0.51100000000E-03 0.  1.
    9900012    2    1    2    0    0  0.15254199987E+00  0.17149465382E+02  0.75199786695E+01  0.72461614573E+02  0.70000057681E+02 0.  0.
        -12    1    1    2    0    0 -0.15254199987E+00 -0.17149465382E+02 -0.75199786695E+01  0.18726385427E+02  0.00000000000E+00 0.  1.
         11    1    3    3    0    0 -0.10264867761E+02  0.32928133270E+01 -0.14891947412E+02  0.18384238568E+02  0.51100000000E-03 0. -1.
        -11    1    3    3    0    0 -0.47259646818E+01  0.14630050465E+02 -0.99679258746E+01  0.18323009176E+02  0.51100000000E-03 0.  1.
         12    1    3    3    0    0  0.15143374443E+02 -0.77339840952E+00  0.32379851956E+02  0.35754366828E+02  0.00000000000E+00 0. -1.
</event>
<event>
 7    1  0.2700104E-013  0.7246160E+02  0.7816164E-02  0.1226708E+00
        -11   -1    0    0    0    0  0.00000000000E+00  0.00000000000E+00  0.45593999997E+02  0.45594000000E+02  0.51100000000E-03 0. -1.
         11   -1    0    0    0    0 -0.00000000000E+00 -0.00000000000E+00 -0.45593999997E+02  0.45594000000E+02  0.51100000000E-03 0.  1.
    9900012    2    1    2    0    0  0.12904036671E+02 -0.12945123553E+02  0.40728133700E+01  0.72461596315E+02  0.70000033897E+02 0.  0.
        -12    1    1    2    0    0 -0.12904036671E+02  0.12945123553E+02 -0.40728133700E+01  0.18726403685E+02  0.00000000000E+00 0.  1.
         11    1    3    3    0    0  0.13923816205E+02 -0.62876955612E+01  0.23992086314E+02  0.28443417150E+02  0.51100000000E-03 0. -1.
        -11    1    3    3    0    0  0.11043923557E+02 -0.12819172237E+02  0.32022141693E+01  0.17220731698E+02  0.51100000000E-03 0.  1.
        -12    1    3    3    0    0 -0.12063703092E+02  0.61617442446E+01 -0.23121487113E+02  0.26797447467E+02  0.00000000000E+00 0.  1.
</event>
<event>
 7    1  0.2700104E-013  0.7246158E+02  0.7816164E-02  0.1226708E+00
        -11   -1    0    0    0    0  0.00000000000E+00  0.00000000000E+00  0.45593999997E+02  0.45594000000E+02  0.51100000000E-03 0. -1.
         11   -1    0    0    0    0 -0.00000000000E+00 -0.00000000000E+00 -0.45593999997E+02  0.45594000000E+02  0.51100000000E-03 0.  1.
    9900012    2    1    2    0    0 -0.15469534118E+02 -0.99444310939E+01 -0.35327803771E+01  0.72461581955E+02  0.70000015190E+02 0.  0.
        -12    1    1    2    0    0  0.15469534118E+02  0.99444310939E+01  0.35327803771E+01  0.18726418045E+02  0.00000000000E+00 0.  1.
         11    1    3    3    0    0  0.12465220472E+02 -0.29026316888E+00  0.20794424630E+00  0.12470333403E+02  0.51100000000E-03 0. -1.
        -11    1    3    3    0    0 -0.53587231827E+00  0.11491926646E+02  0.16335402968E+02  0.19979913102E+02  0.51100000000E-03 0.  1.
         12    1    3    3    0    0 -0.27398882272E+02 -0.21146094571E+02 -0.20076127592E+02  0.40011335449E+02  0.00000000000E+00 0. -1.
</event>
<event>
 7    1  0.2700104E-013  0.7246157E+02  0.7816164E-02  0.1226708E+00
        -11   -1    0    0    0    0  0.00000000000E+00  0.00000000000E+00  0.45593999997E+02  0.45594000000E+02  0.51100000000E-03 0.  1.
         11   -1    0    0    0    0 -0.00000000000E+00 -0.00000000000E+00 -0.45593999997E+02  0.45594000000E+02  0.51100000000E-03 0. -1.
    9900012    2    1    2    0    0  0.62531466621E+01 -0.13809014710E+02 -0.10994923604E+02  0.72461572805E+02  0.70000003270E+02 0.  0.
        -12    1    1    2    0    0 -0.62531466621E+01  0.13809014710E+02  0.10994923604E+02  0.18726427195E+02  0.00000000000E+00 0.  1.
         11    1    3    3    0    0  0.70245093340E+01 -0.27740657437E+02 -0.18690689333E+02  0.34179374986E+02  0.51100000000E-03 0. -1.
        -11    1    3    3    0    0 -0.96466764779E+01  0.13743759341E+02 -0.92363862824E+01  0.19164031927E+02  0.51100000000E-03 0.  1.
        -12    1    3    3    0    0  0.88753138060E+01  0.18788338647E+00  0.16932152011E+02  0.19118165892E+02  0.00000000000E+00 0.  1.
</event>
<event>
 7    1  0.2700104E-013  0.7246157E+02  0.7816164E-02  0.1226708E+00
        -11   -1    0    0    0    0  0.00000000000E+00  0.00000000000E+00  0.45593999997E+02  0.45594000000E+02  0.51100000000E-03 0. -1.
         11   -1    0    0    0    0 -0.00000000000E+00 -0.00000000000E+00 -0.45593999997E+02  0.45594000000E+02  0.51100000000E-03 0.  1.
    9900012    2    1    2    0    0 -0.91340432125E+01  0.10147908921E+02  0.12816717187E+02  0.72461573744E+02  0.70000004494E+02 0.  0.
        -12    1    1    2    0    0  0.91340432125E+01 -0.10147908921E+02 -0.12816717187E+02  0.18726426256E+02  0.00000000000E+00 0.  1.
         11    1    3    3    0    0  0.64979562609E+01 -0.15377054089E+02  0.43230777408E+01  0.17244310060E+02  0.51100000000E-03 0. -1.
        -11    1    3    3    0    0 -0.10354754289E+01  0.14763748375E+02 -0.17879915507E+02  0.23210597887E+02  0.51100000000E-03 0.  1.
         12    1    3    3    0    0 -0.14596524044E+02  0.10761214635E+02  0.26373554953E+02  0.32006665797E+02  0.00000000000E+00 0. -1.
</event>
<event>
 7    1  0.2700104E-013  0.7246158E+02  0.7816164E-02  0.1226708E+00
        -11   -1    0    0    0    0  0.00000000000E+00  0.00000000000E+00  0.45593999997E+02  0.45594000000E+02  0.51100000000E-03 0. -1.
         11   -1    0    0    0    0 -0.00000000000E+00 -0.00000000000E+00 -0.45593999997E+02  0.45594000000E+02  0.51100000000E-03 0.  1.
    9900012    2    1    2    0    0 -0.18674543277E+01  0.16045964236E+01  0.18563858580E+02  0.72461575870E+02  0.70000007263E+02 0.  0.
        -12    1    1    2    0    0  0.18674543277E+01 -0.16045964236E+01 -0.18563858580E+02  0.18726424130E+02  0.00000000000E+00 0.  1.
         11    1    3    3    0    0  0.11259190541E+02 -0.13493577605E+02  0.23833183923E+02  0.29611934493E+02  0.51100000000E-03 0. -1.
        -11    1    3    3    0    0 -0.32557047226E+01  0.10510366778E+02  0.15730278769E+02  0.19196590673E+02  0.51100000000E-03 0.  1.
        -12    1    3    3    0    0 -0.98709401463E+01  0.45878072499E+01 -0.20999604113E+02  0.23653050704E+02  0.00000000000E+00 0.  1.
</event>
<event>
 7    1  0.2700104E-013  0.7246157E+02  0.7816164E-02  0.1226708E+00
        -11   -1    0    0    0    0  0.00000000000E+00  0.00000000000E+00  0.45593999997E+02  0.45594000000E+02  0.51100000000E-03 0. -1.
         11   -1    0    0    0    0 -0.00000000000E+00 -0.00000000000E+00 -0.45593999997E+02  0.45594000000E+02  0.51100000000E-03 0.  1.
    9900012    2    1    2    0    0 -0.81355847266E+01  0.33739770581E+01  0.16525969970E+02  0.72461570990E+02  0.70000000906E+02 0.  0.
        -12    1    1    2    0    0  0.81355847266E+01 -0.33739770581E+01 -0.16525969970E+02  0.18726429010E+02  0.00000000000E+00 0.  1.
         11    1    3    3    0    0 -0.18031770738E+01  0.30428728726E+01 -0.76790214516E+00  0.36194194070E+01  0.51100000000E-03 0. -1.
        -11    1    3    3    0    0  0.70414767705E+01  0.10612077066E+02 -0.22369350869E+02  0.25740754327E+02  0.51100000000E-03 0.  1.
         12    1    3    3    0    0 -0.13373884423E+02 -0.10280972881E+02  0.39663222984E+02  0.43101397256E+02  0.00000000000E+00 0. -1.
</event>
<event>
 7    1  0.2700104E-013  0.7246152E+02  0.7816164E-02  0.1226708E+00
        -11   -1    0    0    0    0  0.00000000000E+00  0.00000000000E+00  0.45593999997E+02  0.45594000000E+02  0.51100000000E-03 0.  1.
         11   -1    0    0    0    0 -0.00000000000E+00 -0.00000000000E+00 -0.45593999997E+02  0.45594000000E+02  0.51100000000E-03 0. -1.
    9900012    2    1    2    0    0 -0.78179594551E+01  0.11322117763E+02 -0.12703158930E+02  0.72461519084E+02  0.69999933289E+02 0.  0.
        -12    1    1    2    0    0  0.78179594551E+01 -0.11322117763E+02  0.12703158930E+02  0.18726480916E+02  0.00000000000E+00 0.  1.
         11    1    3    3    0    0 -0.12676816542E+02  0.16571468459E+02 -0.33073845835E+02  0.39104916866E+02  0.51100000000E-03 0. -1.
        -11    1    3    3    0    0 -0.23326533524E+01 -0.63421435043E+01 -0.40482051174E+01  0.78773105071E+01  0.51100000000E-03 0.  1.
        -12    1    3    3    0    0  0.71915104397E+01  0.10927928083E+01  0.24418892022E+02  0.25479291711E+02  0.00000000000E+00 0.  1.
</event>
<event>
 7    1  0.2700104E-013  0.7246162E+02  0.7816164E-02  0.1226708E+00
        -11   -1    0    0    0    0  0.00000000000E+00  0.00000000000E+00  0.45593999997E+02  0.45594000000E+02  0.51100000000E-03 0.  1.
         11   -1    0    0    0    0 -0.00000000000E+00 -0.00000000000E+00 -0.45593999997E+02  0.45594000000E+02  0.51100000000E-03 0. -1.
    9900012    2    1    2    0    0 -0.11827522036E+02 -0.48457187039E+01 -0.13685981460E+02  0.72461618722E+02  0.70000063085E+02 0.  0.
        -12    1    1    2    0    0  0.11827522036E+02  0.48457187039E+01  0.13685981460E+02  0.18726381278E+02  0.00000000000E+00 0.  1.
         11    1    3    3    0    0  0.11200682375E+01 -0.98196785199E+01  0.59845274038E-01  0.98835328101E+01  0.51100000000E-03 0. -1.
        -11    1    3    3    0    0  0.37599673178E+01 -0.18532691361E+01 -0.34682990752E+02  0.34935394781E+02  0.51100000000E-03 0.  1.
        -12    1    3    3    0    0 -0.16707557591E+02  0.68272289521E+01  0.20937164018E+02  0.27642691131E+02  0.00000000000E+00 0.  1.
</event>
<event>
 7    1  0.2700104E-013  0.7246151E+02  0.7816164E-02  0.1226708E+00
        -11   -1    0    0    0    0  0.00000000000E+00  0.00000000000E+00  0.45593999997E+02  0.45594000000E+02  0.51100000000E-03 0.  1.
         11   -1    0    0    0    0 -0.00000000000E+00 -0.00000000000E+00 -0.45593999997E+02  0.45594000000E+02  0.51100000000E-03 0. -1.
    9900012    2    1    2    0    0  0.16599534028E+02 -0.57905768860E+01  0.64502816964E+01  0.72461509550E+02  0.69999920869E+02 0.  0.
        -12    1    1    2    0    0 -0.16599534028E+02  0.57905768860E+01 -0.64502816964E+01  0.18726490450E+02  0.00000000000E+00 0.  1.
         11    1    3    3    0    0 -0.11184542549E+01 -0.14754632518E+02  0.12443882662E+02  0.19333916743E+02  0.51100000000E-03 0. -1.
        -11    1    3    3    0    0  0.35886588267E+00  0.65974278301E+01 -0.25830254935E+02  0.26661899950E+02  0.51100000000E-03 0.  1.
         12    1    3    3    0    0  0.17359122400E+02  0.23666278021E+01  0.19836653969E+02  0.26465692856E+02  0.00000000000E+00 0. -1.
</event>
<event>
 7    1  0.2700104E-013  0.7246157E+02  0.7816164E-02  0.1226708E+00
        -11   -1    0    0    0    0  0.00000000000E+00  0.00000000000E+00  0.45593999997E+02  0.45594000000E+02  0.51100000000E-03 0.  1.
         11   -1    0    0    0    0 -0.00000000000E+00 -0.00000000000E+00 -0.45593999997E+02  0.45594000000E+02  0.51100000000E-03 0. -1.
    9900012    2    1    2    0    0  0.69171330296E+01  0.11388469180E+02 -0.13158087369E+02  0.72461568871E+02  0.69999998146E+02 0.  0.
        -12    1    1    2    0    0 -0.69171330296E+01 -0.11388469180E+02  0.13158087369E+02  0.18726431129E+02  0.00000000000E+00 0.  1.
         11    1    3    3    0    0 -0.11824384500E+02 -0.17967109911E+02 -0.12719182022E+02  0.24988211199E+02  0.51100000000E-03 0.  1.
        -11    1    3    3    0    0  0.10596554368E+02 -0.25385489150E+01  0.79682125077E+01  0.13499022405E+02  0.51100000000E-03 0. -1.
        -12    1    3    3    0    0  0.81449631617E+01  0.31894128006E+02 -0.84071178546E+01  0.33974335267E+02  0.00000000000E+00 0.  1.
</event>
<event>
 7    1  0.2700104E-013  0.7246141E+02  0.7816164E-02  0.1226708E+00
        -11   -1    0    0    0    0  0.00000000000E+00  0.00000000000E+00  0.45593999997E+02  0.45594000000E+02  0.51100000000E-03 0.  1.
         11   -1    0    0    0    0 -0.00000000000E+00 -0.00000000000E+00 -0.45593999997E+02  0.45594000000E+02  0.51100000000E-03 0. -1.
    9900012    2    1    2    0    0  0.13516886380E+02  0.26954634094E+01 -0.12677276925E+02  0.72461412200E+02  0.69999794052E+02 0.  0.
        -12    1    1    2    0    0 -0.13516886380E+02 -0.26954634094E+01  0.12677276925E+02  0.18726587800E+02  0.00000000000E+00 0.  1.
         11    1    3    3    0    0  0.12330855535E+02 -0.37975440145E+01 -0.18966945576E+00  0.12903771291E+02  0.51100000000E-03 0. -1.
        -11    1    3    3    0    0  0.20356484942E+02  0.11413371593E+02  0.13446311211E+02  0.26934268428E+02  0.51100000000E-03 0.  1.
         12    1    3    3    0    0 -0.19170454097E+02 -0.49203641690E+01 -0.25933918681E+02  0.32623372480E+02  0.00000000000E+00 0. -1.
</event>
<event>
 7    1  0.2700104E-013  0.7246147E+02  0.7816164E-02  0.1226708E+00
        -11   -1    0    0    0    0  0.00000000000E+00  0.00000000000E+00  0.45593999997E+02  0.45594000000E+02  0.51100000000E-03 0.  1.
         11   -1    0    0    0    0 -0.00000000000E+00 -0.00000000000E+00 -0.45593999997E+02  0.45594000000E+02  0.51100000000E-03 0. -1.
    9900012    2    1    2    0    0 -0.15714328211E+02 -0.92623385473E+01 -0.42369804867E+01  0.72461467216E+02  0.69999865721E+02 0.  0.
        -12    1    1    2    0    0  0.15714328211E+02  0.92623385473E+01  0.42369804867E+01  0.18726532784E+02  0.00000000000E+00 0.  1.
         11    1    3    3    0    0 -0.35429043221E+02  0.30956470763E+01 -0.25716970164E+00  0.35564958469E+02  0.51100000000E-03 0. -1.
        -11    1    3    3    0    0 -0.66555368888E+01 -0.69962674976E+01  0.23201759681E+00  0.96590766951E+01  0.51100000000E-03 0.  1.
        -12    1    3    3    0    0  0.26370251899E+02 -0.53617181261E+01 -0.42118283818E+01  0.27237432052E+02  0.00000000000E+00 0.  1.
</event>
<event>
 7    1  0.2700104E-013  0.7246155E+02  0.7816164E-02  0.1226708E+00
        -11   -1    0    0    0    0  0.00000000000E+00  0.00000000000E+00  0.45593999997E+02  0.45594000000E+02  0.51100000000E-03 0.  1.
         11   -1    0    0    0    0 -0.00000000000E+00 -0.00000000000E+00 -0.45593999997E+02  0.45594000000E+02  0.51100000000E-03 0. -1.
    9900012    2    1    2    0    0  0.88585367834E+01  0.13839701366E+02 -0.89815799858E+01  0.72461553811E+02  0.69999978527E+02 0.  0.
        -12    1    1    2    0    0 -0.88585367834E+01 -0.13839701366E+02  0.89815799858E+01  0.18726446189E+02  0.00000000000E+00 0.  1.
         11    1    3    3    0    0 -0.12992746964E+01  0.21450239740E+02 -0.16578346186E+02  0.27141158084E+02  0.51100000000E-03 0. -1.
        -11    1    3    3    0    0 -0.37940256836E+01  0.12844542600E+02  0.14376913151E+02  0.19648728649E+02  0.51100000000E-03 0.  1.
         12    1    3    3    0    0  0.13951837163E+02 -0.20455080974E+02 -0.67801469515E+01  0.25671667078E+02  0.00000000000E+00 0. -1.
</event>
<event>
 7    1  0.2700104E-013  0.7246110E+02  0.7816164E-02  0.1226709E+00
        -11   -1    0    0    0    0  0.00000000000E+00  0.00000000000E+00  0.45593999997E+02  0.45594000000E+02  0.51100000000E-03 0.  1.
         11   -1    0    0    0    0 -0.00000000000E+00 -0.00000000000E+00 -0.45593999997E+02  0.45594000000E+02  0.51100000000E-03 0. -1.
    9900012    2    1    2    0    0 -0.37853208249E+01  0.57463369447E+01 -0.17416886253E+02  0.72461095056E+02  0.69999380911E+02 0.  0.
        -12    1    1    2    0    0  0.37853208249E+01 -0.57463369447E+01  0.17416886253E+02  0.18726904944E+02  0.00000000000E+00 0.  1.
         11    1    3    3    0    0  0.11456965167E+02  0.27984878337E+02  0.38628883097E+01  0.30485035226E+02  0.51100000000E-03 0. -1.
        -11    1    3    3    0    0 -0.44273430428E+01  0.28958871388E+01  0.23818890989E+01  0.58018035713E+01  0.51100000000E-03 0.  1.
        -12    1    3    3    0    0 -0.10814942950E+02 -0.25134428531E+02 -0.23661663662E+02  0.36174256258E+02  0.00000000000E+00 0.  1.
</event>
<event>
 7    1  0.2700104E-013  0.7246156E+02  0.7816164E-02  0.1226708E+00
        -11   -1    0    0    0    0  0.00000000000E+00  0.00000000000E+00  0.45593999997E+02  0.45594000000E+02  0.51100000000E-03 0.  1.
         11   -1    0    0    0    0 -0.00000000000E+00 -0.00000000000E+00 -0.45593999997E+02  0.45594000000E+02  0.51100000000E-03 0. -1.
    9900012    2    1    2    0    0  0.14013196192E+02 -0.59304736428E+01 -0.10915091622E+02  0.72461563867E+02  0.69999991627E+02 0.  0.
        -12    1    1    2    0    0 -0.14013196192E+02  0.59304736428E+01  0.10915091622E+02  0.18726436133E+02  0.00000000000E+00 0.  1.
         11    1    3    3    0    0  0.22541052354E+02 -0.20470639385E+02 -0.50473406550E+01  0.30864571373E+02  0.51100000000E-03 0. -1.
        -11    1    3    3    0    0  0.10987814295E+02 -0.15823971844E+01 -0.11154110998E+02  0.15736906820E+02  0.51100000000E-03 0.  1.
        -12    1    3    3    0    0 -0.19515670458E+02  0.16122562927E+02  0.52863600315E+01  0.25860085675E+02  0.00000000000E+00 0.  1.
</event>
<event>
 7    1  0.2700104E-013  0.7246158E+02  0.7816164E-02  0.1226708E+00
        -11   -1    0    0    0    0  0.00000000000E+00  0.00000000000E+00  0.45593999997E+02  0.45594000000E+02  0.51100000000E-03 0.  1.
         11   -1    0    0    0    0 -0.00000000000E+00 -0.00000000000E+00 -0.45593999997E+02  0.45594000000E+02  0.51100000000E-03 0. -1.
    9900012    2    1    2    0    0  0.65451380001E+01  0.66539781863E+01 -0.16234674612E+02  0.72461577039E+02  0.70000008787E+02 0.  0.
        -12    1    1    2    0    0 -0.65451380001E+01 -0.66539781863E+01  0.16234674612E+02  0.18726422961E+02  0.00000000000E+00 0.  1.
         11    1    3    3    0    0  0.17514599153E+01  0.10749581693E+02  0.95572156221E+01  0.14490047934E+02  0.51100000000E-03 0. -1.
        -11    1    3    3    0    0 -0.61598036194E+01  0.55822523322E-01  0.14636699175E+02  0.15880153015E+02  0.51100000000E-03 0.  1.
         12    1    3    3    0    0  0.10953481704E+02 -0.41514260304E+01 -0.40428589409E+02  0.42091376090E+02  0.00000000000E+00 0. -1.
</event>
<event>
 7    1  0.2700104E-013  0.7246156E+02  0.7816164E-02  0.1226708E+00
        -11   -1    0    0    0    0  0.00000000000E+00  0.00000000000E+00  0.45593999997E+02  0.45594000000E+02  0.51100000000E-03 0.  1.
         11   -1    0    0    0    0 -0.00000000000E+00 -0.00000000000E+00 -0.45593999997E+02  0.45594000000E+02  0.51100000000E-03 0. -1.
    9900012    2    1    2    0    0 -0.49370014604E+01  0.14365405618E+02 -0.10951744503E+02  0.72461559610E+02  0.69999986082E+02 0.  0.
        -12    1    1    2    0    0  0.49370014604E+01 -0.14365405618E+02  0.10951744503E+02  0.18726440390E+02  0.00000000000E+00 0.  1.
         11    1    3    3    0    0  0.69580730030E+01  0.23588557479E+02 -0.19210489656E+02  0.31207014227E+02  0.51100000000E-03 0. -1.
        -11    1    3    3    0    0 -0.14988243982E+02  0.10955910425E+02 -0.15023229965E+01  0.18626228968E+02  0.51100000000E-03 0.  1.
        -12    1    3    3    0    0  0.30931695188E+01 -0.20179062286E+02  0.97610681491E+01  0.22628316416E+02  0.00000000000E+00 0.  1.
</event>
<event>
 7    1  0.2700104E-013  0.7246154E+02  0.7816164E-02  0.1226708E+00
        -11   -1    0    0    0    0  0.00000000000E+00  0.00000000000E+00  0.45593999997E+02  0.45594000000E+02  0.51100000000E-03 0. -1.
         11   -1    0    0    0    0 -0.00000000000E+00 -0.00000000000E+00 -0.45593999997E+02  0.45594000000E+02  0.51100000000E-03 0.  1.
    9900012    2    1    2    0    0  0.11860631556E+02  0.23087117621E+01  0.14306486401E+02  0.72461540537E+02  0.69999961235E+02 0.  0.
        -12    1    1    2    0    0 -0.11860631556E+02 -0.23087117621E+01 -0.14306486401E+02  0.18726459463E+02  0.00000000000E+00 0.  1.
         11    1    3    3    0    0  0.19480990580E+02 -0.20533655252E+02  0.92144322110E+01  0.29766520677E+02  0.51100000000E-03 0. -1.
        -11    1    3    3    0    0  0.46279341398E+01 -0.47064694747E+01  0.10167186299E+02  0.12121893698E+02  0.51100000000E-03 0.  1.
        -12    1    3    3    0    0 -0.12248293164E+02  0.27548836489E+02 -0.50751321097E+01  0.30573126161E+02  0.00000000000E+00 0.  1.
</event>
<event>
 7    1  0.2700104E-013  0.7246157E+02  0.7816164E-02  0.1226708E+00
        -11   -1    0    0    0    0  0.00000000000E+00  0.00000000000E+00  0.45593999997E+02  0.45594000000E+02  0.51100000000E-03 0.  1.
         11   -1    0    0    0    0 -0.00000000000E+00 -0.00000000000E+00 -0.45593999997E+02  0.45594000000E+02  0.51100000000E-03 0. -1.
    9900012    2    1    2    0    0 -0.19076531170E+01  0.15817111358E+02  0.98416950187E+01  0.72461571804E+02  0.70000001967E+02 0.  0.
        -12    1    1    2    0    0  0.19076531170E+01 -0.15817111358E+02 -0.98416950187E+01  0.18726428196E+02  0.00000000000E+00 0.  1.
         11    1    3    3    0    0 -0.12727339378E+02 -0.18067427172E+00 -0.78453374927E+01  0.14952161432E+02  0.51100000000E-03 0. -1.
        -11    1    3    3    0    0  0.34923098297E+01  0.32094666898E+02  0.22293198477E+02  0.39233283955E+02  0.51100000000E-03 0.  1.
         12    1    3    3    0    0  0.73273764318E+01 -0.16096881268E+02 -0.46061659660E+01  0.18276126418E+02  0.00000000000E+00 0. -1.
</event>
<event>
 7    1  0.2700104E-013  0.7246158E+02  0.7816164E-02  0.1226708E+00
        -11   -1    0    0    0    0  0.00000000000E+00  0.00000000000E+00  0.45593999997E+02  0.45594000000E+02  0.51100000000E-03 0.  1.
         11   -1    0    0    0    0 -0.00000000000E+00 -0.00000000000E+00 -0.45593999997E+02  0.45594000000E+02  0.51100000000E-03 0. -1.
    9900012    2    1    2    0    0 -0.11961051425E+02 -0.77474658000E+01  0.12148621653E+02  0.72461575205E+02  0.70000006398E+02 0.  0.
        -12    1    1    2    0    0  0.11961051425E+02  0.77474658000E+01 -0.12148621653E+02  0.18726424795E+02  0.00000000000E+00 0.  1.
         11    1    3    3    0    0  0.15396076468E+02 -0.14831831514E+02 -0.12646425743E+02  0.24838568417E+02  0.51100000000E-03 0. -1.
        -11    1    3    3    0    0 -0.19340816929E+02  0.67608771116E+01 -0.10956886263E+01  0.20517728739E+02  0.51100000000E-03 0.  1.
        -12    1    3    3    0    0 -0.80163109649E+01  0.32348860237E+00  0.25890736022E+02  0.27105278049E+02  0.00000000000E+00 0.  1.
</event>
<event>
 7    1  0.2700104E-013  0.7246142E+02  0.7816164E-02  0.1226708E+00
        -11   -1    0    0    0    0  0.00000000000E+00  0.00000000000E+00  0.45593999997E+02  0.45594000000E+02  0.51100000000E-03 0.  1.
         11   -1    0    0    0    0 -0.00000000000E+00 -0.00000000000E+00 -0.45593999997E+02  0.45594000000E+02  0.51100000000E-03 0. -1.
    9900012    2    1    2    0    0  0.12661826799E+02 -0.10532849336E+02 -0.89118961985E+01  0.72461423514E+02  0.69999808791E+02 0.  0.
        -12    1    1    2    0    0 -0.12661826799E+02  0.10532849336E+02  0.89118961985E+01  0.18726576486E+02  0.00000000000E+00 0.  1.
         11    1    3    3    0    0  0.91356892822E+01 -0.79311854248E+00 -0.11155253192E+02  0.14440551572E+02  0.51100000000E-03 0. -1.
        -11    1    3    3    0    0  0.27791276614E+02 -0.13052691120E+02 -0.75934475530E+01  0.31628914735E+02  0.51100000000E-03 0.  1.
        -12    1    3    3    0    0 -0.24265139097E+02  0.33129603263E+01  0.98368045461E+01  0.26391957207E+02  0.00000000000E+00 0.  1.
</event>
<event>
 7    1  0.2700104E-013  0.7246158E+02  0.7816164E-02  0.1226708E+00
        -11   -1    0    0    0    0  0.00000000000E+00  0.00000000000E+00  0.45593999997E+02  0.45594000000E+02  0.51100000000E-03 0. -1.
         11   -1    0    0    0    0 -0.00000000000E+00 -0.00000000000E+00 -0.45593999997E+02  0.45594000000E+02  0.51100000000E-03 0.  1.
    9900012    2    1    2    0    0  0.15068102678E+02  0.59307051546E+01  0.94051990273E+01  0.72461581477E+02  0.70000014568E+02 0.  0.
        -12    1    1    2    0    0 -0.15068102678E+02 -0.59307051546E+01 -0.94051990273E+01  0.18726418523E+02  0.00000000000E+00 0.  1.
         11    1    3    3    0    0 -0.10214299555E+02 -0.79488250717E+01 -0.97590922720E+01  0.16209738359E+02  0.51100000000E-03 0. -1.
        -11    1    3    3    0    0 -0.12011566477E+02  0.88143636017E+01  0.25664895713E+01  0.15118121706E+02  0.51100000000E-03 0.  1.
         12    1    3    3    0    0  0.37293968710E+02  0.50651666246E+01  0.16597801728E+02  0.41133721413E+02  0.00000000000E+00 0. -1.
</event>
<event>
 7    1  0.2700104E-013  0.7246157E+02  0.7816164E-02  0.1226708E+00
        -11   -1    0    0    0    0  0.00000000000E+00  0.00000000000E+00  0.45593999997E+02  0.45594000000E+02  0.51100000000E-03 0.  1.
         11   -1    0    0    0    0 -0.00000000000E+00 -0.00000000000E+00 -0.45593999997E+02  0.45594000000E+02  0.51100000000E-03 0. -1.
    9900012    2    1    2    0    0 -0.24007458583E+01  0.12003449843E+02 -0.14171554838E+02  0.72461565333E+02  0.69999993537E+02 0.  0.
        -12    1    1    2    0    0  0.24007458583E+01 -0.12003449843E+02  0.14171554838E+02  0.18726434667E+02  0.00000000000E+00 0.  1.
         11    1    3    3    0    0  0.23686670000E+02  0.11148794315E+02  0.47973332168E+01  0.26615190336E+02  0.51100000000E-03 0.  1.
        -11    1    3    3    0    0 -0.86318921860E+01 -0.10881090922E+02 -0.20494274687E+02  0.24757281708E+02  0.51100000000E-03 0. -1.
         12    1    3    3    0    0 -0.17455523672E+02  0.11735746450E+02  0.15253866321E+01  0.21089093290E+02  0.00000000000E+00 0. -1.
</event>
<event>
 7    1  0.2700104E-013  0.7246167E+02  0.7816164E-02  0.1226708E+00
        -11   -1    0    0    0    0  0.00000000000E+00  0.00000000000E+00  0.45593999997E+02  0.45594000000E+02  0.51100000000E-03 0.  1.
         11   -1    0    0    0    0 -0.00000000000E+00 -0.00000000000E+00 -0.45593999997E+02  0.45594000000E+02  0.51100000000E-03 0. -1.
    9900012    2    1    2    0    0 -0.93659536208E+01 -0.42396094395E+01 -0.15651840302E+02  0.72461668798E+02  0.70000128320E+02 0.  0.
        -12    1    1    2    0    0  0.93659536208E+01  0.42396094395E+01  0.15651840302E+02  0.18726331202E+02  0.00000000000E+00 0.  1.
         11    1    3    3    0    0 -0.41063545542E+01 -0.27302658401E+02  0.21683848873E+01  0.27694750346E+02  0.51100000000E-03 0. -1.
        -11    1    3    3    0    0  0.82739668999E+01  0.18709337110E+02  0.18013689315E+01  0.20536376352E+02  0.51100000000E-03 0.  1.
         12    1    3    3    0    0 -0.13533565966E+02  0.43537118508E+01 -0.19621594121E+02  0.24230542101E+02  0.00000000000E+00 0. -1.
</event>
<event>
 7    1  0.2700104E-013  0.7246156E+02  0.7816164E-02  0.1226708E+00
        -11   -1    0    0    0    0  0.00000000000E+00  0.00000000000E+00  0.45593999997E+02  0.45594000000E+02  0.51100000000E-03 0.  1.
         11   -1    0    0    0    0 -0.00000000000E+00 -0.00000000000E+00 -0.45593999997E+02  0.45594000000E+02  0.51100000000E-03 0. -1.
    9900012    2    1    2    0    0 -0.10474424726E+02 -0.10160253616E+02 -0.11736059018E+02  0.72461563923E+02  0.69999991700E+02 0.  0.
        -12    1    1    2    0    0  0.10474424726E+02  0.10160253616E+02  0.11736059018E+02  0.18726436077E+02  0.00000000000E+00 0.  1.
         11    1    3    3    0    0 -0.12239863358E+02 -0.57820193463E+01 -0.35865784897E+01  0.14003911891E+02  0.51100000000E-03 0.  1.
        -11    1    3    3    0    0 -0.23400314868E+02 -0.14309083571E+02  0.57754972774E+01  0.28030001384E+02  0.51100000000E-03 0. -1.
        -12    1    3    3    0    0  0.25165753500E+02  0.99308493009E+01 -0.13924977806E+02  0.30427650647E+02  0.00000000000E+00 0.  1.
</event>
<event>
 7    1  0.2700104E-013  0.7246153E+02  0.7816164E-02  0.1226708E+00
        -11   -1    0    0    0    0  0.00000000000E+00  0.00000000000E+00  0.45593999997E+02  0.45594000000E+02  0.51100000000E-03 0.  1.
         11   -1    0    0    0    0 -0.00000000000E+00 -0.00000000000E+00 -0.45593999997E+02  0.45594000000E+02  0.51100000000E-03 0. -1.
    9900012    2    1    2    0    0 -0.18515150622E+02  0.25160930200E+01 -0.12406399393E+01  0.72461529054E+02  0.69999946276E+02 0.  0.
        -12    1    1    2    0    0  0.18515150622E+02 -0.25160930200E+01  0.12406399393E+01  0.18726470946E+02  0.00000000000E+00 0.  1.
         11    1    3    3    0    0  0.90225553653E+01 -0.11896721921E+02 -0.22408670694E+02  0.26927439914E+02  0.51100000000E-03 0. -1.
        -11    1    3    3    0    0  0.40654273230E+01 -0.12016219849E+01 -0.31919144153E+00  0.42512913510E+01  0.51100000000E-03 0.  1.
        -12    1    3    3    0    0 -0.31603133311E+02  0.15614436926E+02  0.21487222196E+02  0.41282797789E+02  0.00000000000E+00 0.  1.
</event>
<event>
 7    1  0.2700104E-013  0.7246159E+02  0.7816164E-02  0.1226708E+00
        -11   -1    0    0    0    0  0.00000000000E+00  0.00000000000E+00  0.45593999997E+02  0.45594000000E+02  0.51100000000E-03 0.  1.
         11   -1    0    0    0    0 -0.00000000000E+00 -0.00000000000E+00 -0.45593999997E+02  0.45594000000E+02  0.51100000000E-03 0. -1.
    9900012    2    1    2    0    0 -0.99184823855E+01 -0.22189186285E+01 -0.15728266773E+02  0.72461594355E+02  0.70000031343E+02 0.  0.
        -12    1    1    2    0    0  0.99184823855E+01  0.22189186285E+01  0.15728266773E+02  0.18726405645E+02  0.00000000000E+00 0.  1.
         11    1    3    3    0    0  0.34155957118E+01  0.12355036270E+02 -0.10600875686E+02  0.16634054854E+02  0.51100000000E-03 0. -1.
        -11    1    3    3    0    0 -0.17566769800E+02  0.16577536309E+02 -0.22640470874E+01  0.24259678909E+02  0.51100000000E-03 0.  1.
         12    1    3    3    0    0  0.42326917023E+01 -0.31151491208E+02 -0.28633440000E+01  0.31567860593E+02  0.00000000000E+00 0. -1.
</event>
<event>
 7    1  0.2700104E-013  0.7246153E+02  0.7816164E-02  0.1226708E+00
        -11   -1    0    0    0    0  0.00000000000E+00  0.00000000000E+00  0.45593999997E+02  0.45594000000E+02  0.51100000000E-03 0.  1.
         11   -1    0    0    0    0 -0.00000000000E+00 -0.00000000000E+00 -0.45593999997E+02  0.45594000000E+02  0.51100000000E-03 0. -1.
    9900012    2    1    2    0    0 -0.95839059939E+00 -0.18222474950E+02 -0.42075824020E+01  0.72461525278E+02  0.69999941358E+02 0.  0.
        -12    1    1    2    0    0  0.95839059939E+00  0.18222474950E+02  0.42075824020E+01  0.18726474722E+02  0.00000000000E+00 0.  1.
         11    1    3    3    0    0  0.22473500625E+01 -0.27017796871E+01 -0.11525039804E+02  0.12048931012E+02  0.51100000000E-03 0. -1.
        -11    1    3    3    0    0  0.32683610551E+01  0.21218613349E+02  0.84954682211E+01  0.23088627438E+02  0.51100000000E-03 0.  1.
         12    1    3    3    0    0 -0.64741017170E+01 -0.36739308612E+02 -0.11780108193E+01  0.37323966828E+02  0.00000000000E+00 0. -1.
</event>
<event>
 7    1  0.2700104E-013  0.7246158E+02  0.7816164E-02  0.1226708E+00
        -11   -1    0    0    0    0  0.00000000000E+00  0.00000000000E+00  0.45593999997E+02  0.45594000000E+02  0.51100000000E-03 0.  1.
         11   -1    0    0    0    0 -0.00000000000E+00 -0.00000000000E+00 -0.45593999997E+02  0.45594000000E+02  0.51100000000E-03 0. -1.
    9900012    2    1    2    0    0 -0.10451476238E+01 -0.12951237638E+02 -0.13485242904E+02  0.72461583736E+02  0.70000017510E+02 0.  0.
        -12    1    1    2    0    0  0.10451476238E+01  0.12951237638E+02  0.13485242904E+02  0.18726416264E+02  0.00000000000E+00 0.  1.
         11    1    3    3    0    0  0.27071412310E+01 -0.10434841037E+00  0.13249794277E+01  0.30158038697E+01  0.51100000000E-03 0. -1.
        -11    1    3    3    0    0  0.23788337402E+02  0.14043038116E+02  0.14479075709E+01  0.27662038111E+02  0.51100000000E-03 0.  1.
         12    1    3    3    0    0 -0.27540626256E+02 -0.26889927343E+02 -0.16258129903E+02  0.41783741755E+02  0.00000000000E+00 0. -1.
</event>
<event>
 7    1  0.2700104E-013  0.7246158E+02  0.7816164E-02  0.1226708E+00
        -11   -1    0    0    0    0  0.00000000000E+00  0.00000000000E+00  0.45593999997E+02  0.45594000000E+02  0.51100000000E-03 0.  1.
         11   -1    0    0    0    0 -0.00000000000E+00 -0.00000000000E+00 -0.45593999997E+02  0.45594000000E+02  0.51100000000E-03 0. -1.
    9900012    2    1    2    0    0 -0.16222854224E+02 -0.76308846288E+01 -0.54099456783E+01  0.72461577180E+02  0.70000008969E+02 0.  0.
        -12    1    1    2    0    0  0.16222854224E+02  0.76308846288E+01  0.54099456783E+01  0.18726422820E+02  0.00000000000E+00 0.  1.
         11    1    3    3    0    0  0.93232302367E+00 -0.69779914657E+01 -0.23991160577E+02  0.25002747394E+02  0.51100000000E-03 0. -1.
        -11    1    3    3    0    0 -0.21705090660E+02  0.11681393376E+02 -0.58944122495E-01  0.24648922622E+02  0.51100000000E-03 0.  1.
        -12    1    3    3    0    0  0.45499134120E+01 -0.12334286539E+02  0.18640159022E+02  0.22809907164E+02  0.00000000000E+00 0.  1.
</event>
<event>
 7    1  0.2700104E-013  0.7246154E+02  0.7816164E-02  0.1226708E+00
        -11   -1    0    0    0    0  0.00000000000E+00  0.00000000000E+00  0.45593999997E+02  0.45594000000E+02  0.51100000000E-03 0. -1.
         11   -1    0    0    0    0 -0.00000000000E+00 -0.00000000000E+00 -0.45593999997E+02  0.45594000000E+02  0.51100000000E-03 0.  1.
    9900012    2    1    2    0    0  0.80008750826E+01  0.13532768562E+02  0.10174988202E+02  0.72461542462E+02  0.69999963743E+02 0.  0.
        -12    1    1    2    0    0 -0.80008750826E+01 -0.13532768562E+02 -0.10174988202E+02  0.18726457538E+02  0.00000000000E+00 0.  1.
         11    1    3    3    0    0 -0.13623557167E+02  0.20248793691E+02  0.24241098501E+02  0.34398340260E+02  0.51100000000E-03 0. -1.
        -11    1    3    3    0    0  0.37231816938E+01  0.85138875743E+01 -0.10938579044E+02  0.14352730587E+02  0.51100000000E-03 0.  1.
        -12    1    3    3    0    0  0.17901250556E+02 -0.15229912704E+02 -0.31275312556E+01  0.23710471615E+02  0.00000000000E+00 0.  1.
</event>
<event>
 7    1  0.2700104E-013  0.7246156E+02  0.7816164E-02  0.1226708E+00
        -11   -1    0    0    0    0  0.00000000000E+00  0.00000000000E+00  0.45593999997E+02  0.45594000000E+02  0.51100000000E-03 0.  1.
         11   -1    0    0    0    0 -0.00000000000E+00 -0.00000000000E+00 -0.45593999997E+02  0.45594000000E+02  0.51100000000E-03 0. -1.
    9900012    2    1    2    0    0 -0.23177496791E+01 -0.18014874380E+02  0.45576016764E+01  0.72461564259E+02  0.69999992138E+02 0.  0.
        -12    1    1    2    0    0  0.23177496791E+01  0.18014874380E+02 -0.45576016764E+01  0.18726435741E+02  0.00000000000E+00 0.  1.
         11    1    3    3    0    0 -0.48702039266E+01 -0.40847952038E+01  0.28168268080E+02  0.28876560824E+02  0.51100000000E-03 0. -1.
        -11    1    3    3    0    0  0.61867372195E+01  0.11495540169E+01  0.69118250057E+01  0.93472197488E+01  0.51100000000E-03 0.  1.
         12    1    3    3    0    0 -0.36342829719E+01 -0.15079633193E+02 -0.30522491409E+02  0.34237783687E+02  0.00000000000E+00 0. -1.
</event>
<event>
 7    1  0.2700104E-013  0.7246156E+02  0.7816164E-02  0.1226708E+00
        -11   -1    0    0    0    0  0.00000000000E+00  0.00000000000E+00  0.45593999997E+02  0.45594000000E+02  0.51100000000E-03 0.  1.
         11   -1    0    0    0    0 -0.00000000000E+00 -0.00000000000E+00 -0.45593999997E+02  0.45594000000E+02  0.51100000000E-03 0. -1.
    9900012    2    1    2    0    0 -0.16189616968E+02  0.59288196278E+01  0.73092476595E+01  0.72461556101E+02  0.69999981511E+02 0.  0.
        -12    1    1    2    0    0  0.16189616968E+02 -0.59288196278E+01 -0.73092476595E+01  0.18726443899E+02  0.00000000000E+00 0.  1.
         11    1    3    3    0    0 -0.15890446169E+02 -0.25357534930E+02 -0.49074448774E+01  0.30324806227E+02  0.51100000000E-03 0. -1.
        -11    1    3    3    0    0  0.25806699064E+01  0.15528694562E+01  0.11886666069E+02  0.12262303666E+02  0.51100000000E-03 0.  1.
        -12    1    3    3    0    0 -0.28798407049E+01  0.29733485102E+02  0.33002646834E+00  0.29874446208E+02  0.00000000000E+00 0.  1.
</event>
<event>
 7    1  0.2700104E-013  0.7246156E+02  0.7816164E-02  0.1226708E+00
        -11   -1    0    0    0    0  0.00000000000E+00  0.00000000000E+00  0.45593999997E+02  0.45594000000E+02  0.51100000000E-03 0. -1.
         11   -1    0    0    0    0 -0.00000000000E+00 -0.00000000000E+00 -0.45593999997E+02  0.45594000000E+02  0.51100000000E-03 0.  1.
    9900012    2    1    2    0    0  0.18235492770E+02 -0.30106101901E+01 -0.30137626775E+01  0.72461555175E+02  0.69999980305E+02 0.  0.
        -12    1    1    2    0    0 -0.18235492770E+02  0.30106101901E+01  0.30137626775E+01  0.18726444825E+02  0.00000000000E+00 0.  1.
         11    1    3    3    0    0 -0.20022701910E+01  0.68783305917E+00  0.75671993174E+01  0.78577799668E+01  0.51100000000E-03 0. -1.
        -11    1    3    3    0    0 -0.13428460300E+02 -0.11604520694E+02 -0.21925517024E+02  0.28208451634E+02  0.51100000000E-03 0.  1.
         12    1    3    3    0    0  0.33666223262E+02  0.79060774449E+01  0.11344555029E+02  0.36395323574E+02  0.00000000000E+00 0. -1.
</event>
<event>
 7    1  0.2700104E-013  0.7246158E+02  0.7816164E-02  0.1226708E+00
        -11   -1    0    0    0    0  0.00000000000E+00  0.00000000000E+00  0.45593999997E+02  0.45594000000E+02  0.51100000000E-03 0.  1.
         11   -1    0    0    0    0 -0.00000000000E+00 -0.00000000000E+00 -0.45593999997E+02  0.45594000000E+02  0.51100000000E-03 0. -1.
    9900012    2    1    2    0    0 -0.11973729140E+02  0.13941952794E+02 -0.35958840342E+01  0.72461584987E+02  0.70000019140E+02 0.  0.
        -12    1    1    2    0    0  0.11973729140E+02 -0.13941952794E+02  0.35958840342E+01  0.18726415013E+02  0.00000000000E+00 0.  1.
         11    1    3    3    0    0 -0.18873954474E+01 -0.21781968484E+01  0.35189494065E+01  0.45486050907E+01  0.51100000000E-03 0. -1.
        -11    1    3    3    0    0  0.25383870594E+02  0.58492147117E+01  0.90858673765E+01  0.27588171112E+02  0.51100000000E-03 0.  1.
         12    1    3    3    0    0 -0.35470204287E+02  0.10270934931E+02 -0.16200700817E+02  0.40324808784E+02  0.00000000000E+00 0. -1.
</event>
<event>
 7    1  0.2700104E-013  0.7246157E+02  0.7816164E-02  0.1226708E+00
        -11   -1    0    0    0    0  0.00000000000E+00  0.00000000000E+00  0.45593999997E+02  0.45594000000E+02  0.51100000000E-03 0.  1.
         11   -1    0    0    0    0 -0.00000000000E+00 -0.00000000000E+00 -0.45593999997E+02  0.45594000000E+02  0.51100000000E-03 0. -1.
    9900012    2    1    2    0    0 -0.17069535564E+02  0.61475755664E+01  0.46386713586E+01  0.72461574775E+02  0.70000005837E+02 0.  0.
        -12    1    1    2    0    0  0.17069535564E+02 -0.61475755664E+01 -0.46386713586E+01  0.18726425225E+02  0.00000000000E+00 0.  1.
         11    1    3    3    0    0 -0.84331447279E-01 -0.58293583705E+01 -0.59286605753E+01  0.83148991144E+01  0.51100000000E-03 0. -1.
        -11    1    3    3    0    0  0.72995797216E+00 -0.21348670040E+02  0.15063553324E+02  0.26138270603E+02  0.51100000000E-03 0.  1.
         12    1    3    3    0    0 -0.17715162089E+02  0.33325603976E+02 -0.44962213904E+01  0.38008405058E+02  0.00000000000E+00 0. -1.
</event>
<event>
 7    1  0.2700104E-013  0.7246130E+02  0.7816164E-02  0.1226709E+00
        -11   -1    0    0    0    0  0.00000000000E+00  0.00000000000E+00  0.45593999997E+02  0.45594000000E+02  0.51100000000E-03 0. -1.
         11   -1    0    0    0    0 -0.00000000000E+00 -0.00000000000E+00 -0.45593999997E+02  0.45594000000E+02  0.51100000000E-03 0.  1.
    9900012    2    1    2    0    0 -0.10903842451E+02 -0.15171514937E+02 -0.12731092125E+01  0.72461295732E+02  0.69999642331E+02 0.  0.
        -12    1    1    2    0    0  0.10903842451E+02  0.15171514937E+02  0.12731092125E+01  0.18726704268E+02  0.00000000000E+00 0.  1.
         11    1    3    3    0    0 -0.11747291577E+02  0.67266259424E+01  0.95002074001E+01  0.16537844384E+02  0.51100000000E-03 0. -1.
        -11    1    3    3    0    0  0.13796370817E+02 -0.14996196249E+02 -0.27140963016E+02  0.33939028026E+02  0.51100000000E-03 0.  1.
         12    1    3    3    0    0 -0.12952921691E+02 -0.69019446297E+01  0.16367646403E+02  0.21984423322E+02  0.00000000000E+00 0. -1.
</event>
<event>
 7    1  0.2700104E-013  0.7246149E+02  0.7816164E-02  0.1226708E+00
        -11   -1    0    0    0    0  0.00000000000E+00  0.00000000000E+00  0.45593999997E+02  0.45594000000E+02  0.51100000000E-03 0. -1.
         11   -1    0    0    0    0 -0.00000000000E+00 -0.00000000000E+00 -0.45593999997E+02  0.45594000000E+02  0.51100000000E-03 0.  1.
    9900012    2    1    2    0    0 -0.70996741371E+01 -0.49093006630E+01  0.16618525833E+02  0.72461494541E+02  0.69999901317E+02 0.  0.
        -12    1    1    2    0    0  0.70996741371E+01  0.49093006630E+01 -0.16618525833E+02  0.18726505459E+02  0.00000000000E+00 0.  1.
         11    1    3    3    0    0  0.13972237649E+02  0.24250243427E+00 -0.24145485880E+01  0.14181406048E+02  0.51100000000E-03 0. -1.
        -11    1    3    3    0    0 -0.25638092283E+02  0.15265788151E+02  0.22103787843E+02  0.37133993874E+02  0.51100000000E-03 0.  1.
         12    1    3    3    0    0  0.45661804965E+01 -0.20417591248E+02 -0.30707134219E+01  0.21146094619E+02  0.00000000000E+00 0. -1.
</event>
<event>
 7    1  0.2700104E-013  0.7246126E+02  0.7816164E-02  0.1226709E+00
        -11   -1    0    0    0    0  0.00000000000E+00  0.00000000000E+00  0.45593999997E+02  0.45594000000E+02  0.51100000000E-03 0.  1.
         11   -1    0    0    0    0 -0.00000000000E+00 -0.00000000000E+00 -0.45593999997E+02  0.45594000000E+02  0.51100000000E-03 0. -1.
    9900012    2    1    2    0    0 -0.38288911653E+01  0.15719627390E+02 -0.94299272028E+01  0.72461264570E+02  0.69999601736E+02 0.  0.
        -12    1    1    2    0    0  0.38288911653E+01 -0.15719627390E+02  0.94299272028E+01  0.18726735430E+02  0.00000000000E+00 0.  1.
         11    1    3    3    0    0 -0.52644979836E+01  0.29558117019E+01 -0.34246726423E+01  0.69411918864E+01  0.51100000000E-03 0. -1.
        -11    1    3    3    0    0 -0.28035916552E+02 -0.55664801315E+01 -0.10651934461E+02  0.30503475637E+02  0.51100000000E-03 0.  1.
         12    1    3    3    0    0  0.29471523370E+02  0.18330295819E+02  0.46466799006E+01  0.35016597046E+02  0.00000000000E+00 0. -1.
</event>
<event>
 7    1  0.2700104E-013  0.7246164E+02  0.7816164E-02  0.1226708E+00
        -11   -1    0    0    0    0  0.00000000000E+00  0.00000000000E+00  0.45593999997E+02  0.45594000000E+02  0.51100000000E-03 0.  1.
         11   -1    0    0    0    0 -0.00000000000E+00 -0.00000000000E+00 -0.45593999997E+02  0.45594000000E+02  0.51100000000E-03 0. -1.
    9900012    2    1    2    0    0 -0.19180219813E+01  0.15293862227E+02 -0.10634642053E+02  0.72461637787E+02  0.70000087922E+02 0.  0.
        -12    1    1    2    0    0  0.19180219813E+01 -0.15293862227E+02  0.10634642053E+02  0.18726362213E+02  0.00000000000E+00 0.  1.
         11    1    3    3    0    0  0.76703685052E+01  0.13734741915E+02  0.22430304443E+02  0.27397011628E+02  0.51100000000E-03 0.  1.
        -11    1    3    3    0    0  0.12989079791E+01  0.13945622766E+02 -0.17198395458E+02  0.22179999162E+02  0.51100000000E-03 0. -1.
        -12    1    3    3    0    0 -0.10887298466E+02 -0.12386502455E+02 -0.15866551038E+02  0.22884626997E+02  0.00000000000E+00 0.  1.
</event>
<event>
 7    1  0.2700104E-013  0.7246163E+02  0.7816164E-02  0.1226708E+00
        -11   -1    0    0    0    0  0.00000000000E+00  0.00000000000E+00  0.45593999997E+02  0.45594000000E+02  0.51100000000E-03 0.  1.
         11   -1    0    0    0    0 -0.00000000000E+00 -0.00000000000E+00 -0.45593999997E+02  0.45594000000E+02  0.51100000000E-03 0. -1.
    9900012    2    1    2    0    0  0.22128078101E+01  0.18546155892E+02  0.13492346738E+01  0.72461632200E+02  0.70000080644E+02 0.  0.
        -12    1    1    2    0    0 -0.22128078101E+01 -0.18546155892E+02 -0.13492346738E+01  0.18726367800E+02  0.00000000000E+00 0.  1.
         11    1    3    3    0    0 -0.65998224500E+01  0.10492511774E+02  0.23988590505E+02  0.27001906125E+02  0.51100000000E-03 0. -1.
        -11    1    3    3    0    0 -0.13686408766E+02  0.97716058526E+01 -0.10685420853E+02  0.19924364103E+02  0.51100000000E-03 0.  1.
        -12    1    3    3    0    0  0.22499039026E+02 -0.17179617348E+01 -0.11953934978E+02  0.25535361973E+02  0.00000000000E+00 0.  1.
</event>
<event>
 7    1  0.2700104E-013  0.7246172E+02  0.7816164E-02  0.1226708E+00
        -11   -1    0    0    0    0  0.00000000000E+00  0.00000000000E+00  0.45593999997E+02  0.45594000000E+02  0.51100000000E-03 0. -1.
         11   -1    0    0    0    0 -0.00000000000E+00 -0.00000000000E+00 -0.45593999997E+02  0.45594000000E+02  0.51100000000E-03 0.  1.
    9900012    2    1    2    0    0  0.12957928269E+02  0.42788082727E+01  0.12824100773E+02  0.72461717243E+02  0.70000191428E+02 0.  0.
        -12    1    1    2    0    0 -0.12957928269E+02 -0.42788082727E+01 -0.12824100773E+02  0.18726282757E+02  0.00000000000E+00 0.  1.
         11    1    3    3    0    0 -0.16673387013E+02  0.89891281474E+01  0.61139930654E+01  0.19904451030E+02  0.51100000000E-03 0. -1.
        -11    1    3    3    0    0 -0.10635416883E+02 -0.58526312193E+00  0.56695579412E+01  0.12066420874E+02  0.51100000000E-03 0.  1.
        -12    1    3    3    0    0  0.40266732165E+02 -0.41250567528E+01  0.10405497659E+01  0.40490845339E+02  0.00000000000E+00 0.  1.
</event>
<event>
 7    1  0.2700104E-013  0.7246159E+02  0.7816164E-02  0.1226708E+00
        -11   -1    0    0    0    0  0.00000000000E+00  0.00000000000E+00  0.45593999997E+02  0.45594000000E+02  0.51100000000E-03 0. -1.
         11   -1    0    0    0    0 -0.00000000000E+00 -0.00000000000E+00 -0.45593999997E+02  0.45594000000E+02  0.51100000000E-03 0.  1.
    9900012    2    1    2    0    0 -0.18644816180E+02  0.53034117734E+00 -0.16636986654E+01  0.72461592833E+02  0.70000029361E+02 0.  0.
        -12    1    1    2    0    0  0.18644816180E+02 -0.53034117734E+00  0.16636986654E+01  0.18726407167E+02  0.00000000000E+00 0.  1.
         11    1    3    3    0    0 -0.23145622467E+02  0.99924138295E+01  0.67687107712E+01  0.26103325828E+02  0.51100000000E-03 0. -1.
        -11    1    3    3    0    0 -0.15463469669E+02  0.85647051350E+01  0.13682577215E+01  0.17729782788E+02  0.51100000000E-03 0.  1.
         12    1    3    3    0    0  0.19964275956E+02 -0.18026777787E+02 -0.98006671582E+01  0.28628484217E+02  0.00000000000E+00 0. -1.
</event>
<event>
 7    1  0.2700104E-013  0.7246189E+02  0.7816164E-02  0.1226707E+00
        -11   -1    0    0    0    0  0.00000000000E+00  0.00000000000E+00  0.45593999997E+02  0.45594000000E+02  0.51100000000E-03 0.  1.
         11   -1    0    0    0    0 -0.00000000000E+00 -0.00000000000E+00 -0.45593999997E+02  0.45594000000E+02  0.51100000000E-03 0. -1.
    9900012    2    1    2    0    0  0.73507850885E+01  0.15763295264E+02 -0.69391488064E+01  0.72461887078E+02  0.70000412668E+02 0.  0.
        -12    1    1    2    0    0 -0.73507850885E+01 -0.15763295264E+02  0.69391488064E+01  0.18726112922E+02  0.00000000000E+00 0.  1.
         11    1    3    3    0    0 -0.87444710930E+01 -0.27434661841E+01 -0.16668803310E+02  0.19022128836E+02  0.51100000000E-03 0. -1.
        -11    1    3    3    0    0 -0.70801985479E+01 -0.77877703100E+01 -0.88665141951E+01  0.13762036627E+02  0.51100000000E-03 0.  1.
        -12    1    3    3    0    0  0.23175454729E+02  0.26294531759E+02  0.18596168699E+02  0.39677721615E+02  0.00000000000E+00 0.  1.
</event>
<event>
 7    1  0.2700104E-013  0.7246175E+02  0.7816164E-02  0.1226708E+00
        -11   -1    0    0    0    0  0.00000000000E+00  0.00000000000E+00  0.45593999997E+02  0.45594000000E+02  0.51100000000E-03 0. -1.
         11   -1    0    0    0    0 -0.00000000000E+00 -0.00000000000E+00 -0.45593999997E+02  0.45594000000E+02  0.51100000000E-03 0.  1.
    9900012    2    1    2    0    0  0.12157882846E+02  0.67813698257E+01  0.12524832988E+02  0.72461747481E+02  0.70000230819E+02 0.  0.
        -12    1    1    2    0    0 -0.12157882846E+02 -0.67813698257E+01 -0.12524832988E+02  0.18726252519E+02  0.00000000000E+00 0.  1.
         11    1    3    3    0    0 -0.17662512265E+02  0.89791258895E+00  0.13778682616E+02  0.22419248012E+02  0.51100000000E-03 0. -1.
        -11    1    3    3    0    0 -0.64316047266E+01 -0.14889718289E+01 -0.10043183722E+02  0.12018656996E+02  0.51100000000E-03 0.  1.
        -12    1    3    3    0    0  0.36251999838E+02  0.73724290656E+01  0.87893340943E+01  0.38023842473E+02  0.00000000000E+00 0.  1.
</event>
<event>
 7    1  0.2700104E-013  0.7246155E+02  0.7816164E-02  0.1226708E+00
        -11   -1    0    0    0    0  0.00000000000E+00  0.00000000000E+00  0.45593999997E+02  0.45594000000E+02  0.51100000000E-03 0. -1.
         11   -1    0    0    0    0 -0.00000000000E+00 -0.00000000000E+00 -0.45593999997E+02  0.45594000000E+02  0.51100000000E-03 0.  1.
    9900012    2    1    2    0    0  0.63712902404E+01  0.17587021090E+02  0.88494257061E+00  0.72461554168E+02  0.69999978992E+02 0.  0.
        -12    1    1    2    0    0 -0.63712902404E+01 -0.17587021090E+02 -0.88494257061E+00  0.18726445832E+02  0.00000000000E+00 0.  1.
         11    1    3    3    0    0 -0.15458298675E+02  0.14295854969E+02 -0.10969243496E+01  0.21083968092E+02  0.51100000000E-03 0.  1.
        -11    1    3    3    0    0  0.11046207901E+02 -0.48224858480E+00  0.24082123225E+02  0.26499055303E+02  0.51100000000E-03 0. -1.
        -12    1    3    3    0    0  0.10783381015E+02  0.37734147064E+01 -0.22100256305E+02  0.24878530772E+02  0.00000000000E+00 0.  1.
</event>
<event>
 7    1  0.2700104E-013  0.7246158E+02  0.7816164E-02  0.1226708E+00
        -11   -1    0    0    0    0  0.00000000000E+00  0.00000000000E+00  0.45593999997E+02  0.45594000000E+02  0.51100000000E-03 0.  1.
         11   -1    0    0    0    0 -0.00000000000E+00 -0.00000000000E+00 -0.45593999997E+02  0.45594000000E+02  0.51100000000E-03 0. -1.
    9900012    2    1    2    0    0  0.10157982589E+02 -0.62537515335E+01 -0.14435533750E+02  0.72461584081E+02  0.70000017960E+02 0.  0.
        -12    1    1    2    0    0 -0.10157982589E+02  0.62537515335E+01  0.14435533750E+02  0.18726415919E+02  0.00000000000E+00 0.  1.
         11    1    3    3    0    0  0.84816671935E+01 -0.11995505985E+02 -0.33952346977E+02  0.36994495641E+02  0.51100000000E-03 0. -1.
        -11    1    3    3    0    0  0.70993007138E+01  0.41760949722E+01 -0.54459565909E+01  0.98741218998E+01  0.51100000000E-03 0.  1.
        -12    1    3    3    0    0 -0.54229853178E+01  0.15656594793E+01  0.24962769818E+02  0.25592966541E+02  0.00000000000E+00 0.  1.
</event>
<event>
 7    1  0.2700104E-013  0.7246161E+02  0.7816164E-02  0.1226708E+00
        -11   -1    0    0    0    0  0.00000000000E+00  0.00000000000E+00  0.45593999997E+02  0.45594000000E+02  0.51100000000E-03 0. -1.
         11   -1    0    0    0    0 -0.00000000000E+00 -0.00000000000E+00 -0.45593999997E+02  0.45594000000E+02  0.51100000000E-03 0.  1.
    9900012    2    1    2    0    0  0.92287445628E+01 -0.14642462057E+02 -0.71488522601E+01  0.72461614606E+02  0.70000057724E+02 0.  0.
        -12    1    1    2    0    0 -0.92287445628E+01  0.14642462057E+02  0.71488522601E+01  0.18726385394E+02  0.00000000000E+00 0.  1.
         11    1    3    3    0    0  0.18621293317E+02 -0.27063100382E+01  0.26360115563E+01  0.19000664094E+02  0.51100000000E-03 0. -1.
        -11    1    3    3    0    0  0.73331615375E+01  0.13994871649E+02 -0.15438320862E+02  0.22090120912E+02  0.51100000000E-03 0.  1.
         12    1    3    3    0    0 -0.16725710291E+02 -0.25931023668E+02  0.56534570460E+01  0.31370829600E+02  0.00000000000E+00 0. -1.
</event>
<event>
 7    1  0.2700104E-013  0.7246161E+02  0.7816164E-02  0.1226708E+00
        -11   -1    0    0    0    0  0.00000000000E+00  0.00000000000E+00  0.45593999997E+02  0.45594000000E+02  0.51100000000E-03 0.  1.
         11   -1    0    0    0    0 -0.00000000000E+00 -0.00000000000E+00 -0.45593999997E+02  0.45594000000E+02  0.51100000000E-03 0. -1.
    9900012    2    1    2    0    0 -0.10477483319E+02  0.30341901659E+01 -0.15221482858E+02  0.72461614683E+02  0.70000057824E+02 0.  0.
        -12    1    1    2    0    0  0.10477483319E+02 -0.30341901659E+01  0.15221482858E+02  0.18726385317E+02  0.00000000000E+00 0.  1.
         11    1    3    3    0    0 -0.77185398060E+01 -0.18427252711E+02 -0.14476970810E+01  0.20030859350E+02  0.51100000000E-03 0. -1.
        -11    1    3    3    0    0 -0.19769246021E+02  0.89073217777E+01  0.70059365665E+01  0.22786983497E+02  0.51100000000E-03 0.  1.
         12    1    3    3    0    0  0.17010302508E+02  0.12554121099E+02 -0.20779722343E+02  0.29643771835E+02  0.00000000000E+00 0. -1.
</event>
<event>
 7    1  0.2700104E-013  0.7246157E+02  0.7816164E-02  0.1226708E+00
        -11   -1    0    0    0    0  0.00000000000E+00  0.00000000000E+00  0.45593999997E+02  0.45594000000E+02  0.51100000000E-03 0.  1.
         11   -1    0    0    0    0 -0.00000000000E+00 -0.00000000000E+00 -0.45593999997E+02  0.45594000000E+02  0.51100000000E-03 0. -1.
    9900012    2    1    2    0    0 -0.11316506653E+02  0.52677178298E+01 -0.13959473248E+02  0.72461573023E+02  0.70000003555E+02 0.  0.
        -12    1    1    2    0    0  0.11316506653E+02 -0.52677178298E+01  0.13959473248E+02  0.18726426977E+02  0.00000000000E+00 0.  1.
         11    1    3    3    0    0 -0.19745177266E+01  0.11132628105E+02  0.16766884294E+02  0.20222822206E+02  0.51100000000E-03 0. -1.
        -11    1    3    3    0    0 -0.11467124305E+02  0.11594331086E+02  0.59393978464E+00  0.16317972236E+02  0.51100000000E-03 0.  1.
         12    1    3    3    0    0  0.21251353794E+01 -0.17459241361E+02 -0.31320297327E+02  0.35920778582E+02  0.00000000000E+00 0. -1.
</event>
<event>
 7    1  0.2700104E-013  0.7246164E+02  0.7816164E-02  0.1226708E+00
        -11   -1    0    0    0    0  0.00000000000E+00  0.00000000000E+00  0.45593999997E+02  0.45594000000E+02  0.51100000000E-03 0. -1.
         11   -1    0    0    0    0 -0.00000000000E+00 -0.00000000000E+00 -0.45593999997E+02  0.45594000000E+02  0.51100000000E-03 0.  1.
    9900012    2    1    2    0    0 -0.14676053459E+02  0.10076776026E+02  0.58093700599E+01  0.72461635144E+02  0.70000084479E+02 0.  0.
        -12    1    1    2    0    0  0.14676053459E+02 -0.10076776026E+02 -0.58093700599E+01  0.18726364856E+02  0.00000000000E+00 0.  1.
         11    1    3    3    0    0  0.67621108994E+01  0.65686500184E+01  0.87617558876E+00  0.94678926274E+01  0.51100000000E-03 0. -1.
        -11    1    3    3    0    0 -0.84907463177E+00  0.78510708078E+01 -0.25105517317E+02  0.26318192198E+02  0.51100000000E-03 0.  1.
         12    1    3    3    0    0 -0.20589089727E+02 -0.43429447998E+01  0.30038711788E+02  0.36675550319E+02  0.00000000000E+00 0. -1.
</event>
<event>
 7    1  0.2700104E-013  0.7246161E+02  0.7816164E-02  0.1226708E+00
        -11   -1    0    0    0    0  0.00000000000E+00  0.00000000000E+00  0.45593999997E+02  0.45594000000E+02  0.51100000000E-03 0. -1.
         11   -1    0    0    0    0 -0.00000000000E+00 -0.00000000000E+00 -0.45593999997E+02  0.45594000000E+02  0.51100000000E-03 0.  1.
    9900012    2    1    2    0    0  0.77425345397E+01 -0.19651839767E+01  0.16937198951E+02  0.72461614938E+02  0.70000058157E+02 0.  0.
        -12    1    1    2    0    0 -0.77425345397E+01  0.19651839767E+01 -0.16937198951E+02  0.18726385062E+02  0.00000000000E+00 0.  1.
         11    1    3    3    0    0 -0.18198644255E+01 -0.11293488752E+02 -0.10450093600E+02  0.15493845592E+02  0.51100000000E-03 0. -1.
        -11    1    3    3    0    0 -0.14017450232E+01 -0.24523292150E+01 -0.13099038328E+02  0.13400134816E+02  0.51100000000E-03 0.  1.
         12    1    3    3    0    0  0.10964143988E+02  0.11780633990E+02  0.40486330879E+02  0.43567634531E+02  0.00000000000E+00 0. -1.
</event>
<event>
 7    1  0.2700104E-013  0.7246151E+02  0.7816164E-02  0.1226708E+00
        -11   -1    0    0    0    0  0.00000000000E+00  0.00000000000E+00  0.45593999997E+02  0.45594000000E+02  0.51100000000E-03 0. -1.
         11   -1    0    0    0    0 -0.00000000000E+00 -0.00000000000E+00 -0.45593999997E+02  0.45594000000E+02  0.51100000000E-03 0.  1.
    9900012    2    1    2    0    0 -0.85782206472E+01  0.16380952465E+02 -0.29597412949E+01  0.72461506958E+02  0.69999917492E+02 0.  0.
        -12    1    1    2    0    0  0.85782206472E+01 -0.16380952465E+02  0.29597412949E+01  0.18726493042E+02  0.00000000000E+00 0.  1.
         11    1    3    3    0    0 -0.69197116246E+01 -0.97620542575E+01  0.26962739768E+02  0.29498634686E+02  0.51100000000E-03 0. -1.
        -11    1    3    3    0    0 -0.22007584901E+00 -0.20558605291E+01 -0.38933166505E+00  0.21039427989E+01  0.51100000000E-03 0.  1.
        -12    1    3    3    0    0 -0.14384331736E+01  0.28198867252E+02 -0.29533149398E+02  0.40858929472E+02  0.00000000000E+00 0.  1.
</event>
<event>
 7    1  0.2700104E-013  0.7246158E+02  0.7816164E-02  0.1226708E+00
        -11   -1    0    0    0    0  0.00000000000E+00  0.00000000000E+00  0.45593999997E+02  0.45594000000E+02  0.51100000000E-03 0. -1.
         11   -1    0    0    0    0 -0.00000000000E+00 -0.00000000000E+00 -0.45593999997E+02  0.45594000000E+02  0.51100000000E-03 0.  1.
    9900012    2    1    2    0    0  0.11364570004E+02  0.90127629136E+01  0.11844634943E+02  0.72461582200E+02  0.70000015509E+02 0.  0.
        -12    1    1    2    0    0 -0.11364570004E+02 -0.90127629136E+01 -0.11844634943E+02  0.18726417800E+02  0.00000000000E+00 0.  1.
         11    1    3    3    0    0  0.31121221971E+01 -0.22242174673E+01  0.31491278819E+02  0.31722753503E+02  0.51100000000E-03 0.  1.
        -11    1    3    3    0    0  0.17239743811E+02 -0.39273454295E+01 -0.68754424827E+01  0.18971149633E+02  0.51100000000E-03 0. -1.
        -12    1    3    3    0    0 -0.89872960047E+01  0.15164325810E+02 -0.12771201394E+02  0.21767679063E+02  0.00000000000E+00 0.  1.
</event>
<event>
 7    1  0.2700104E-013  0.7246159E+02  0.7816164E-02  0.1226708E+00
        -11   -1    0    0    0    0  0.00000000000E+00  0.00000000000E+00  0.45593999997E+02  0.45594000000E+02  0.51100000000E-03 0. -1.
         11   -1    0    0    0    0 -0.00000000000E+00 -0.00000000000E+00 -0.45593999997E+02  0.45594000000E+02  0.51100000000E-03 0.  1.
    9900012    2    1    2    0    0 -0.15076297425E+02 -0.10574036271E+02  0.34019856882E+01  0.72461588338E+02  0.70000023505E+02 0.  0.
        -12    1    1    2    0    0  0.15076297425E+02  0.10574036271E+02 -0.34019856882E+01  0.18726411662E+02  0.00000000000E+00 0.  1.
         11    1    3    3    0    0 -0.20040302708E+02 -0.55335976029E+01  0.25658998194E+02  0.33024515495E+02  0.51100000000E-03 0. -1.
        -11    1    3    3    0    0 -0.13145837182E+02 -0.45760576175E+01 -0.62331427994E+01  0.15251406753E+02  0.51100000000E-03 0.  1.
        -12    1    3    3    0    0  0.18109842465E+02 -0.46438105094E+00 -0.16023869706E+02  0.24185666090E+02  0.00000000000E+00 0.  1.
</event>
<event>
 7    1  0.2700104E-013  0.7246172E+02  0.7816164E-02  0.1226708E+00
        -11   -1    0    0    0    0  0.00000000000E+00  0.00000000000E+00  0.45593999997E+02  0.45594000000E+02  0.51100000000E-03 0. -1.
         11   -1    0    0    0    0 -0.00000000000E+00 -0.00000000000E+00 -0.45593999997E+02  0.45594000000E+02  0.51100000000E-03 0.  1.
    9900012    2    1    2    0    0  0.83498743213E+00 -0.16617088660E+02  0.85935230287E+01  0.72461722271E+02  0.70000197978E+02 0.  0.
        -12    1    1    2    0    0 -0.83498743213E+00  0.16617088660E+02 -0.85935230287E+01  0.18726277729E+02  0.00000000000E+00 0.  1.
         11    1    3    3    0    0  0.13654048408E+02 -0.32049525767E+02  0.92067317023E+01  0.36032888432E+02  0.51100000000E-03 0. -1.
        -11    1    3    3    0    0 -0.84377821738E+00 -0.90154098407E+01  0.12559786351E+01  0.91415020029E+01  0.51100000000E-03 0.  1.
        -12    1    3    3    0    0 -0.11975282758E+02  0.24447846948E+02 -0.18691873087E+01  0.27287331836E+02  0.00000000000E+00 0.  1.
</event>
<event>
 7    1  0.2700104E-013  0.7246159E+02  0.7816164E-02  0.1226708E+00
        -11   -1    0    0    0    0  0.00000000000E+00  0.00000000000E+00  0.45593999997E+02  0.45594000000E+02  0.51100000000E-03 0.  1.
         11   -1    0    0    0    0 -0.00000000000E+00 -0.00000000000E+00 -0.45593999997E+02  0.45594000000E+02  0.51100000000E-03 0. -1.
    9900012    2    1    2    0    0  0.13147993480E+02 -0.13289587039E+02 -0.10934714511E+01  0.72461587209E+02  0.70000022034E+02 0.  0.
        -12    1    1    2    0    0 -0.13147993480E+02  0.13289587039E+02  0.10934714511E+01  0.18726412791E+02  0.00000000000E+00 0.  1.
         11    1    3    3    0    0 -0.28287784190E+01 -0.25526477493E+02 -0.12729136314E+02  0.28664157970E+02  0.51100000000E-03 0. -1.
        -11    1    3    3    0    0  0.12950607708E+02 -0.49713339060E+01  0.20068752723E+02  0.24396459516E+02  0.51100000000E-03 0.  1.
        -12    1    3    3    0    0  0.30261641908E+01  0.17208224360E+02 -0.84330878599E+01  0.19400969723E+02  0.00000000000E+00 0.  1.
</event>
<event>
 7    1  0.2700104E-013  0.7246141E+02  0.7816164E-02  0.1226708E+00
        -11   -1    0    0    0    0  0.00000000000E+00  0.00000000000E+00  0.45593999997E+02  0.45594000000E+02  0.51100000000E-03 0.  1.
         11   -1    0    0    0    0 -0.00000000000E+00 -0.00000000000E+00 -0.45593999997E+02  0.45594000000E+02  0.51100000000E-03 0. -1.
    9900012    2    1    2    0    0 -0.50552395803E+01  0.29100467972E+01 -0.17794985667E+02  0.72461405689E+02  0.69999785571E+02 0.  0.
        -12    1    1    2    0    0  0.50552395803E+01 -0.29100467972E+01  0.17794985667E+02  0.18726594311E+02  0.00000000000E+00 0.  1.
         11    1    3    3    0    0 -0.91818591187E+01 -0.17325033396E+02  0.12397509160E+02  0.23198309263E+02  0.51100000000E-03 0. -1.
        -11    1    3    3    0    0  0.63323737273E+01 -0.26486728466E+01  0.40867059303E+01  0.79884660914E+01  0.51100000000E-03 0.  1.
         12    1    3    3    0    0 -0.22057541889E+01  0.22883753040E+02 -0.34279200757E+02  0.41274630335E+02  0.00000000000E+00 0. -1.
</event>
<event>
 7    1  0.2700104E-013  0.7246154E+02  0.7816164E-02  0.1226708E+00
        -11   -1    0    0    0    0  0.00000000000E+00  0.00000000000E+00  0.45593999997E+02  0.45594000000E+02  0.51100000000E-03 0.  1.
         11   -1    0    0    0    0 -0.00000000000E+00 -0.00000000000E+00 -0.45593999997E+02  0.45594000000E+02  0.51100000000E-03 0. -1.
    9900012    2    1    2    0    0  0.13822563242E+02 -0.46337172421E+01 -0.11753546954E+02  0.72461535943E+02  0.69999955251E+02 0.  0.
        -12    1    1    2    0    0 -0.13822563242E+02  0.46337172421E+01  0.11753546954E+02  0.18726464057E+02  0.00000000000E+00 0.  1.
         11    1    3    3    0    0 -0.38137676851E+01  0.20669483115E+02 -0.13897055021E+02  0.25197231885E+02  0.51100000000E-03 0. -1.
        -11    1    3    3    0    0  0.58488089221E+01 -0.21485017731E+00  0.15446330693E+02  0.16517985911E+02  0.51100000000E-03 0.  1.
         12    1    3    3    0    0  0.11787522005E+02 -0.25088350179E+02 -0.13302822627E+02  0.30746318147E+02  0.00000000000E+00 0. -1.
</event>
<event>
 7    1  0.2700104E-013  0.7246156E+02  0.7816164E-02  0.1226708E+00
        -11   -1    0    0    0    0  0.00000000000E+00  0.00000000000E+00  0.45593999997E+02  0.45594000000E+02  0.51100000000E-03 0.  1.
         11   -1    0    0    0    0 -0.00000000000E+00 -0.00000000000E+00 -0.45593999997E+02  0.45594000000E+02  0.51100000000E-03 0. -1.
    9900012    2    1    2    0    0  0.15377910023E+02 -0.10645400112E+02  0.93538391552E+00  0.72461558713E+02  0.69999984913E+02 0.  0.
        -12    1    1    2    0    0 -0.15377910023E+02  0.10645400112E+02 -0.93538391552E+00  0.18726441287E+02  0.00000000000E+00 0.  1.
         11    1    3    3    0    0  0.20847147082E+02  0.46147727891E+01 -0.18207068497E+02  0.28060595377E+02  0.51100000000E-03 0. -1.
        -11    1    3    3    0    0  0.29450535841E+01  0.36121167266E+01 -0.86162353507E+01  0.97959297537E+01  0.51100000000E-03 0.  1.
        -12    1    3    3    0    0 -0.84142906438E+01 -0.18872289628E+02  0.27758687764E+02  0.34605033582E+02  0.00000000000E+00 0.  1.
</event>
<event>
 7    1  0.2700104E-013  0.7246157E+02  0.7816164E-02  0.1226708E+00
        -11   -1    0    0    0    0  0.00000000000E+00  0.00000000000E+00  0.45593999997E+02  0.45594000000E+02  0.51100000000E-03 0.  1.
         11   -1    0    0    0    0 -0.00000000000E+00 -0.00000000000E+00 -0.45593999997E+02  0.45594000000E+02  0.51100000000E-03 0. -1.
    9900012    2    1    2    0    0 -0.10055170124E+02  0.12679711634E+02  0.94232428113E+01  0.72461573795E+02  0.70000004560E+02 0.  0.
        -12    1    1    2    0    0  0.10055170124E+02 -0.12679711634E+02 -0.94232428113E+01  0.18726426205E+02  0.00000000000E+00 0.  1.
         11    1    3    3    0    0 -0.35665397649E+01  0.15901875161E+02 -0.30005493469E+01  0.16570852005E+02  0.51100000000E-03 0. -1.
        -11    1    3    3    0    0 -0.94176495460E+01  0.20325105629E+02 -0.87881023131E+01  0.24063100057E+02  0.51100000000E-03 0.  1.
        -12    1    3    3    0    0  0.29290191871E+01 -0.23547269156E+02  0.21211894471E+02  0.31827621733E+02  0.00000000000E+00 0.  1.
</event>
<event>
 7    1  0.2700104E-013  0.7246156E+02  0.7816164E-02  0.1226708E+00
        -11   -1    0    0    0    0  0.00000000000E+00  0.00000000000E+00  0.45593999997E+02  0.45594000000E+02  0.51100000000E-03 0. -1.
         11   -1    0    0    0    0 -0.00000000000E+00 -0.00000000000E+00 -0.45593999997E+02  0.45594000000E+02  0.51100000000E-03 0.  1.
    9900012    2    1    2    0    0  0.74962675485E+01 -0.43509785654E+01  0.16599833175E+02  0.72461561388E+02  0.69999988398E+02 0.  0.
        -12    1    1    2    0    0 -0.74962675485E+01  0.43509785654E+01 -0.16599833175E+02  0.18726438612E+02  0.00000000000E+00 0.  1.
         11    1    3    3    0    0 -0.15559312122E+02  0.13373879002E+02  0.75513708676E+01  0.21862663047E+02  0.51100000000E-03 0. -1.
        -11    1    3    3    0    0  0.15846690084E+02  0.74682271134E+01 -0.80813673062E+01  0.19292498559E+02  0.51100000000E-03 0.  1.
         12    1    3    3    0    0  0.72088895858E+01 -0.25193084680E+02  0.17129829614E+02  0.31306399783E+02  0.00000000000E+00 0. -1.
</event>
<event>
 7    1  0.2700104E-013  0.7246238E+02  0.7816164E-02  0.1226706E+00
        -11   -1    0    0    0    0  0.00000000000E+00  0.00000000000E+00  0.45593999997E+02  0.45594000000E+02  0.51100000000E-03 0.  1.
         11   -1    0    0    0    0 -0.00000000000E+00 -0.00000000000E+00 -0.45593999997E+02  0.45594000000E+02  0.51100000000E-03 0. -1.
    9900012    2    1    2    0    0 -0.14652487114E+01 -0.18384747101E+02  0.32408540996E+01  0.72462375443E+02  0.70001048848E+02 0.  0.
        -12    1    1    2    0    0  0.14652487114E+01  0.18384747101E+02 -0.32408540996E+01  0.18725624557E+02  0.00000000000E+00 0.  1.
         11    1    3    3    0    0  0.80988328402E+01 -0.19671282733E+02 -0.20656117403E+01  0.21373282617E+02  0.51100000000E-03 0. -1.
        -11    1    3    3    0    0  0.34546517123E+01  0.44433675787E+01  0.25909591561E+02  0.26513865600E+02  0.51100000000E-03 0.  1.
         12    1    3    3    0    0 -0.13018733264E+02 -0.31568319468E+01 -0.20603125721E+02  0.24575227226E+02  0.00000000000E+00 0. -1.
</event>
<event>
 7    1  0.2700104E-013  0.7246144E+02  0.7816164E-02  0.1226708E+00
        -11   -1    0    0    0    0  0.00000000000E+00  0.00000000000E+00  0.45593999997E+02  0.45594000000E+02  0.51100000000E-03 0.  1.
         11   -1    0    0    0    0 -0.00000000000E+00 -0.00000000000E+00 -0.45593999997E+02  0.45594000000E+02  0.51100000000E-03 0. -1.
    9900012    2    1    2    0    0  0.73569007580E+01  0.42655296933E+01 -0.16684279337E+02  0.72461443741E+02  0.69999835141E+02 0.  0.
        -12    1    1    2    0    0 -0.73569007580E+01 -0.42655296933E+01  0.16684279337E+02  0.18726556259E+02  0.00000000000E+00 0.  1.
         11    1    3    3    0    0  0.97424530563E+01  0.18950221981E+01 -0.25810770477E+02  0.27653252495E+02  0.51100000000E-03 0. -1.
        -11    1    3    3    0    0  0.43375568096E+01  0.80643145620E+01 -0.15860209818E+02  0.18313760514E+02  0.51100000000E-03 0.  1.
        -12    1    3    3    0    0 -0.67231091079E+01 -0.56938070668E+01  0.24986700959E+02  0.26494430732E+02  0.00000000000E+00 0.  1.
</event>
<event>
 7    1  0.2700104E-013  0.7246158E+02  0.7816164E-02  0.1226708E+00
        -11   -1    0    0    0    0  0.00000000000E+00  0.00000000000E+00  0.45593999997E+02  0.45594000000E+02  0.51100000000E-03 0. -1.
         11   -1    0    0    0    0 -0.00000000000E+00 -0.00000000000E+00 -0.45593999997E+02  0.45594000000E+02  0.51100000000E-03 0.  1.
    9900012    2    1    2    0    0  0.85148674855E+01  0.16601906032E+02  0.15976967121E+01  0.72461577838E+02  0.70000009827E+02 0.  0.
        -12    1    1    2    0    0 -0.85148674855E+01 -0.16601906032E+02 -0.15976967121E+01  0.18726422162E+02  0.00000000000E+00 0.  1.
         11    1    3    3    0    0  0.31603729874E+02  0.85992586932E+01 -0.36639750996E+01  0.32957058513E+02  0.51100000000E-03 0. -1.
        -11    1    3    3    0    0  0.45616822958E+01  0.10218127358E+02 -0.38376917945E+00  0.11196711621E+02  0.51100000000E-03 0.  1.
        -12    1    3    3    0    0 -0.27650544685E+02 -0.22154800188E+01  0.56454409911E+01  0.28307807705E+02  0.00000000000E+00 0.  1.
</event>
<event>
 7    1  0.2700104E-013  0.7246165E+02  0.7816164E-02  0.1226708E+00
        -11   -1    0    0    0    0  0.00000000000E+00  0.00000000000E+00  0.45593999997E+02  0.45594000000E+02  0.51100000000E-03 0. -1.
         11   -1    0    0    0    0 -0.00000000000E+00 -0.00000000000E+00 -0.45593999997E+02  0.45594000000E+02  0.51100000000E-03 0.  1.
    9900012    2    1    2    0    0  0.10135931727E+02 -0.32025659387E+01  0.15416955105E+02  0.72461653713E+02  0.70000108668E+02 0.  0.
        -12    1    1    2    0    0 -0.10135931727E+02  0.32025659387E+01 -0.15416955105E+02  0.18726346287E+02  0.00000000000E+00 0.  1.
         11    1    3    3    0    0  0.13925975495E+02 -0.13366567261E+02  0.29787957122E+02  0.35495356085E+02  0.51100000000E-03 0. -1.
        -11    1    3    3    0    0  0.12774213381E+02  0.37922194825E+01  0.11694969181E+01  0.13376441208E+02  0.51100000000E-03 0.  1.
         12    1    3    3    0    0 -0.16564257149E+02  0.63717818395E+01 -0.15540498935E+02  0.23589856419E+02  0.00000000000E+00 0. -1.
</event>
<event>
 7    1  0.2700104E-013  0.7246154E+02  0.7816164E-02  0.1226708E+00
        -11   -1    0    0    0    0  0.00000000000E+00  0.00000000000E+00  0.45593999997E+02  0.45594000000E+02  0.51100000000E-03 0.  1.
         11   -1    0    0    0    0 -0.00000000000E+00 -0.00000000000E+00 -0.45593999997E+02  0.45594000000E+02  0.51100000000E-03 0. -1.
    9900012    2    1    2    0    0  0.10266575955E+02  0.11878699087E+02 -0.10206586599E+02  0.72461535202E+02  0.69999954286E+02 0.  0.
        -12    1    1    2    0    0 -0.10266575955E+02 -0.11878699087E+02  0.10206586599E+02  0.18726464798E+02  0.00000000000E+00 0.  1.
         11    1    3    3    0    0 -0.44753998679E+01 -0.43058148675E+01  0.39498042399E+01  0.73600407231E+01  0.51100000000E-03 0. -1.
        -11    1    3    3    0    0  0.89620749057E+01 -0.20803840682E+02 -0.15816427433E+02  0.27627485422E+02  0.51100000000E-03 0.  1.
         12    1    3    3    0    0  0.57799009168E+01  0.36988354636E+02  0.16600365936E+01  0.37474009057E+02  0.00000000000E+00 0. -1.
</event>
<event>
 7    1  0.2700104E-013  0.7246151E+02  0.7816164E-02  0.1226708E+00
        -11   -1    0    0    0    0  0.00000000000E+00  0.00000000000E+00  0.45593999997E+02  0.45594000000E+02  0.51100000000E-03 0. -1.
         11   -1    0    0    0    0 -0.00000000000E+00 -0.00000000000E+00 -0.45593999997E+02  0.45594000000E+02  0.51100000000E-03 0.  1.
    9900012    2    1    2    0    0 -0.61825590546E+01 -0.12075211190E+02 -0.12909170025E+02  0.72461509873E+02  0.69999921290E+02 0.  0.
        -12    1    1    2    0    0  0.61825590546E+01  0.12075211190E+02  0.12909170025E+02  0.18726490127E+02  0.00000000000E+00 0.  1.
         11    1    3    3    0    0  0.22999596869E+02  0.82423905731E+01 -0.13256891728E+02  0.27796827823E+02  0.51100000000E-03 0. -1.
        -11    1    3    3    0    0 -0.13564208886E+02 -0.10057783713E+02 -0.13324782982E+02  0.21510383951E+02  0.51100000000E-03 0.  1.
        -12    1    3    3    0    0 -0.15617947037E+02 -0.10259818050E+02  0.13672504685E+02  0.23154298099E+02  0.00000000000E+00 0.  1.
</event>
<event>
 7    1  0.2700104E-013  0.7246153E+02  0.7816164E-02  0.1226708E+00
        -11   -1    0    0    0    0  0.00000000000E+00  0.00000000000E+00  0.45593999997E+02  0.45594000000E+02  0.51100000000E-03 0.  1.
         11   -1    0    0    0    0 -0.00000000000E+00 -0.00000000000E+00 -0.45593999997E+02  0.45594000000E+02  0.51100000000E-03 0. -1.
    9900012    2    1    2    0    0 -0.14425871594E+02  0.86587792633E+01  0.82219390291E+01  0.72461534477E+02  0.69999953342E+02 0.  0.
        -12    1    1    2    0    0  0.14425871594E+02 -0.86587792633E+01 -0.82219390291E+01  0.18726465523E+02  0.00000000000E+00 0.  1.
         11    1    3    3    0    0 -0.49324167647E+01  0.14848406715E+02 -0.15710873158E+02  0.22172853961E+02  0.51100000000E-03 0. -1.
        -11    1    3    3    0    0  0.66138872707E+01  0.73182187428E+01 -0.75575318775E+01  0.12426428237E+02  0.51100000000E-03 0.  1.
         12    1    3    3    0    0 -0.16107342100E+02 -0.13507846194E+02  0.31490344065E+02  0.37862252279E+02  0.00000000000E+00 0. -1.
</event>
<event>
 7    1  0.2700104E-013  0.7246158E+02  0.7816164E-02  0.1226708E+00
        -11   -1    0    0    0    0  0.00000000000E+00  0.00000000000E+00  0.45593999997E+02  0.45594000000E+02  0.51100000000E-03 0.  1.
         11   -1    0    0    0    0 -0.00000000000E+00 -0.00000000000E+00 -0.45593999997E+02  0.45594000000E+02  0.51100000000E-03 0. -1.
    9900012    2    1    2    0    0 -0.46818323411E+01 -0.16274662779E+02 -0.79934053537E+01  0.72461581982E+02  0.70000015225E+02 0.  0.
        -12    1    1    2    0    0  0.46818323411E+01  0.16274662779E+02  0.79934053537E+01  0.18726418018E+02  0.00000000000E+00 0.  1.
         11    1    3    3    0    0  0.12189134263E+02 -0.48929778093E+01 -0.21151876304E+01  0.13303768072E+02  0.51100000000E-03 0. -1.
        -11    1    3    3    0    0 -0.35270371225E+01 -0.13106320819E+02  0.23334915368E+02  0.26995071990E+02  0.51100000000E-03 0.  1.
         12    1    3    3    0    0 -0.13343929482E+02  0.17246358486E+01 -0.29213133091E+02  0.32162741920E+02  0.00000000000E+00 0. -1.
</event>
<event>
 7    1  0.2700104E-013  0.7246188E+02  0.7816164E-02  0.1226707E+00
        -11   -1    0    0    0    0  0.00000000000E+00  0.00000000000E+00  0.45593999997E+02  0.45594000000E+02  0.51100000000E-03 0.  1.
         11   -1    0    0    0    0 -0.00000000000E+00 -0.00000000000E+00 -0.45593999997E+02  0.45594000000E+02  0.51100000000E-03 0. -1.
    9900012    2    1    2    0    0  0.14991172251E+02 -0.90545939447E+01 -0.66292258058E+01  0.72461880494E+02  0.70000404092E+02 0.  0.
        -12    1    1    2    0    0 -0.14991172251E+02  0.90545939447E+01  0.66292258058E+01  0.18726119506E+02  0.00000000000E+00 0.  1.
         11    1    3    3    0    0  0.10815265515E+02  0.15470594904E+02 -0.16468409540E+02  0.25050305146E+02  0.51100000000E-03 0. -1.
        -11    1    3    3    0    0  0.21135772112E+02 -0.19004655982E+02  0.43797744580E+01  0.28759002701E+02  0.51100000000E-03 0.  1.
         12    1    3    3    0    0 -0.16959865376E+02 -0.55205328669E+01  0.54594092766E+01  0.18652572647E+02  0.00000000000E+00 0. -1.
</event>
<event>
 7    1  0.2700104E-013  0.7246160E+02  0.7816164E-02  0.1226708E+00
        -11   -1    0    0    0    0  0.00000000000E+00  0.00000000000E+00  0.45593999997E+02  0.45594000000E+02  0.51100000000E-03 0.  1.
         11   -1    0    0    0    0 -0.00000000000E+00 -0.00000000000E+00 -0.45593999997E+02  0.45594000000E+02  0.51100000000E-03 0. -1.
    9900012    2    1    2    0    0 -0.15374473617E+02  0.10010221776E+02 -0.37548739841E+01  0.72461599982E+02  0.70000038674E+02 0.  0.
        -12    1    1    2    0    0  0.15374473617E+02 -0.10010221776E+02  0.37548739841E+01  0.18726400018E+02  0.00000000000E+00 0.  1.
         11    1    3    3    0    0 -0.35480678700E+02 -0.97490730010E+01 -0.59769345197E+01  0.37277965769E+02  0.51100000000E-03 0. -1.
        -11    1    3    3    0    0  0.35926157722E+01 -0.38980717617E+01 -0.26463393614E+01  0.59249442042E+01  0.51100000000E-03 0.  1.
        -12    1    3    3    0    0  0.16513589311E+02  0.23657366539E+02  0.48683998970E+01  0.29258690009E+02  0.00000000000E+00 0.  1.
</event>
<event>
 7    1  0.2700104E-013  0.7246152E+02  0.7816164E-02  0.1226708E+00
        -11   -1    0    0    0    0  0.00000000000E+00  0.00000000000E+00  0.45593999997E+02  0.45594000000E+02  0.51100000000E-03 0. -1.
         11   -1    0    0    0    0 -0.00000000000E+00 -0.00000000000E+00 -0.45593999997E+02  0.45594000000E+02  0.51100000000E-03 0.  1.
    9900012    2    1    2    0    0  0.12297888159E+02  0.45152060318E+01  0.13381175631E+02  0.72461521422E+02  0.69999936334E+02 0.  0.
        -12    1    1    2    0    0 -0.12297888159E+02 -0.45152060318E+01 -0.13381175631E+02  0.18726478578E+02  0.00000000000E+00 0.  1.
         11    1    3    3    0    0  0.15591071781E+02 -0.98068751212E+01  0.49076928272E+01  0.19061525859E+02  0.51100000000E-03 0. -1.
        -11    1    3    3    0    0  0.53753742159E+01 -0.12478038398E+02 -0.12358313612E+02  0.18366382491E+02  0.51100000000E-03 0.  1.
         12    1    3    3    0    0 -0.86685578384E+01  0.26800119551E+02  0.20831796416E+02  0.35033613072E+02  0.00000000000E+00 0. -1.
</event>
<event>
 8    1  0.2700104E-013  0.7246155E+02  0.7816164E-02  0.1226708E+00
        -11   -1    0    0    0    0  0.00000000000E+00  0.00000000000E+00  0.45593999997E+02  0.45594000000E+02  0.51100000000E-03 0. -1.
         11   -1    0    0    0    0 -0.00000000000E+00 -0.00000000000E+00 -0.45593999997E+02  0.45594000000E+02  0.51100000000E-03 0.  1.
    9900012    2    1    2    0    0  0.15075558724E+02 -0.72457271817E+00  0.11085230462E+02  0.72461553170E+02  0.69999977693E+02 0.  0.
         23    2    3    3    0    0  0.24152824766E+02  0.69190254891E+01  0.73048318333E+01  0.60007125598E+02  0.54002432321E+02 0.  0.
        -12    1    1    2    0    0 -0.15075558724E+02  0.72457271817E+00 -0.11085230462E+02  0.18726446830E+02  0.00000000000E+00 0.  1.
         11    1    4    4    0    0  0.38529103261E+02  0.10472892087E+02 -0.56581388371E+01  0.40326018922E+02  0.51100000000E-03 0.  1.
        -11    1    4    4    0    0 -0.14376278494E+02 -0.35538665978E+01  0.12962970670E+02  0.19681106676E+02  0.51100000000E-03 0. -1.
        -12    1    3    3    0    0 -0.90772660419E+01 -0.76435982073E+01  0.37803986288E+01  0.12454427572E+02  0.00000000000E+00 0.  1.
</event>
<event>
 7    1  0.2700104E-013  0.7246168E+02  0.7816164E-02  0.1226708E+00
        -11   -1    0    0    0    0  0.00000000000E+00  0.00000000000E+00  0.45593999997E+02  0.45594000000E+02  0.51100000000E-03 0.  1.
         11   -1    0    0    0    0 -0.00000000000E+00 -0.00000000000E+00 -0.45593999997E+02  0.45594000000E+02  0.51100000000E-03 0. -1.
    9900012    2    1    2    0    0 -0.13446030826E+02  0.12973264586E+02  0.12545491353E+01  0.72461675413E+02  0.70000136937E+02 0.  0.
        -12    1    1    2    0    0  0.13446030826E+02 -0.12973264586E+02 -0.12545491353E+01  0.18726324587E+02  0.00000000000E+00 0.  1.
         11    1    3    3    0    0  0.11512976920E+02  0.49951550179E+01 -0.13841703924E+02  0.18684030052E+02  0.51100000000E-03 0. -1.
        -11    1    3    3    0    0  0.78986728450E+01 -0.74928778934E+01 -0.53169353143E+01  0.12116189716E+02  0.51100000000E-03 0.  1.
        -12    1    3    3    0    0 -0.32857680591E+02  0.15470987461E+02  0.20413188374E+02  0.41661455645E+02  0.00000000000E+00 0.  1.
</event>
<event>
 7    1  0.2700104E-013  0.7246157E+02  0.7816164E-02  0.1226708E+00
        -11   -1    0    0    0    0  0.00000000000E+00  0.00000000000E+00  0.45593999997E+02  0.45594000000E+02  0.51100000000E-03 0.  1.
         11   -1    0    0    0    0 -0.00000000000E+00 -0.00000000000E+00 -0.45593999997E+02  0.45594000000E+02  0.51100000000E-03 0. -1.
    9900012    2    1    2    0    0  0.79866749569E+00  0.13659016104E+02 -0.12785633389E+02  0.72461574504E+02  0.70000005484E+02 0.  0.
        -12    1    1    2    0    0 -0.79866749569E+00 -0.13659016104E+02  0.12785633389E+02  0.18726425496E+02  0.00000000000E+00 0.  1.
         11    1    3    3    0    0 -0.19962968329E+02  0.14474907629E+01 -0.12610883552E+02  0.23656916922E+02  0.51100000000E-03 0. -1.
        -11    1    3    3    0    0  0.19161603992E+02 -0.54800907716E-02 -0.18557312348E+02  0.26674724730E+02  0.51100000000E-03 0.  1.
        -12    1    3    3    0    0  0.16000318321E+01  0.12217005432E+02  0.18382562511E+02  0.22129932853E+02  0.00000000000E+00 0.  1.
</event>
<event>
 7    1  0.2700104E-013  0.7246158E+02  0.7816164E-02  0.1226708E+00
        -11   -1    0    0    0    0  0.00000000000E+00  0.00000000000E+00  0.45593999997E+02  0.45594000000E+02  0.51100000000E-03 0.  1.
         11   -1    0    0    0    0 -0.00000000000E+00 -0.00000000000E+00 -0.45593999997E+02  0.45594000000E+02  0.51100000000E-03 0. -1.
    9900012    2    1    2    0    0 -0.32254623674E+01  0.15427838747E+02 -0.10112227796E+02  0.72461575704E+02  0.70000007048E+02 0.  0.
        -12    1    1    2    0    0  0.32254623674E+01 -0.15427838747E+02  0.10112227796E+02  0.18726424296E+02  0.00000000000E+00 0.  1.
         11    1    3    3    0    0  0.21650798305E+01  0.41143169833E+00 -0.63471340467E+00  0.22934053462E+01  0.51100000000E-03 0. -1.
        -11    1    3    3    0    0  0.24624264917E+02  0.56300702600E+01  0.15822649805E+02  0.29806179912E+02  0.51100000000E-03 0.  1.
         12    1    3    3    0    0 -0.30014807114E+02  0.93863367889E+01 -0.25300164197E+02  0.40361990447E+02  0.00000000000E+00 0. -1.
</event>
<event>
 7    1  0.2700104E-013  0.7246159E+02  0.7816164E-02  0.1226708E+00
        -11   -1    0    0    0    0  0.00000000000E+00  0.00000000000E+00  0.45593999997E+02  0.45594000000E+02  0.51100000000E-03 0.  1.
         11   -1    0    0    0    0 -0.00000000000E+00 -0.00000000000E+00 -0.45593999997E+02  0.45594000000E+02  0.51100000000E-03 0. -1.
    9900012    2    1    2    0    0 -0.44526175951E+01  0.17920270515E+02 -0.31171466087E+01  0.72461588123E+02  0.70000023226E+02 0.  0.
        -12    1    1    2    0    0  0.44526175951E+01 -0.17920270515E+02  0.31171466087E+01  0.18726411877E+02  0.00000000000E+00 0.  1.
         11    1    3    3    0    0 -0.19523526819E+02  0.54804230294E+01 -0.52485667616E+01  0.20946374134E+02  0.51100000000E-03 0. -1.
        -11    1    3    3    0    0 -0.12972729095E+02  0.12835955325E+02  0.11933658333E+02  0.21805174862E+02  0.51100000000E-03 0.  1.
         12    1    3    3    0    0  0.28043638320E+02 -0.39610783945E+00 -0.98022381798E+01  0.29710039127E+02  0.00000000000E+00 0. -1.
</event>
<event>
 7    1  0.2700104E-013  0.7246147E+02  0.7816164E-02  0.1226708E+00
        -11   -1    0    0    0    0  0.00000000000E+00  0.00000000000E+00  0.45593999997E+02  0.45594000000E+02  0.51100000000E-03 0.  1.
         11   -1    0    0    0    0 -0.00000000000E+00 -0.00000000000E+00 -0.45593999997E+02  0.45594000000E+02  0.51100000000E-03 0. -1.
    9900012    2    1    2    0    0 -0.71290269386E+01 -0.11743592811E+02 -0.12725869488E+02  0.72461474657E+02  0.69999875415E+02 0.  0.
        -12    1    1    2    0    0  0.71290269386E+01  0.11743592811E+02  0.12725869488E+02  0.18726525343E+02  0.00000000000E+00 0.  1.
         11    1    3    3    0    0  0.12791974392E+02 -0.17665010391E+02  0.44246062111E+01  0.22254535298E+02  0.51100000000E-03 0. -1.
        -11    1    3    3    0    0  0.11662308261E+02 -0.46989119923E+01  0.33262715913E+00  0.12577752143E+02  0.51100000000E-03 0.  1.
        -12    1    3    3    0    0 -0.31583309591E+02  0.10620329573E+02 -0.17483102858E+02  0.37629187215E+02  0.00000000000E+00 0.  1.
</event>
<event>
 7    1  0.2700104E-013  0.7246148E+02  0.7816164E-02  0.1226708E+00
        -11   -1    0    0    0    0  0.00000000000E+00  0.00000000000E+00  0.45593999997E+02  0.45594000000E+02  0.51100000000E-03 0. -1.
         11   -1    0    0    0    0 -0.00000000000E+00 -0.00000000000E+00 -0.45593999997E+02  0.45594000000E+02  0.51100000000E-03 0.  1.
    9900012    2    1    2    0    0 -0.22678686581E+01  0.18021775112E+02 -0.45557476620E+01  0.72461482887E+02  0.69999886135E+02 0.  0.
        -12    1    1    2    0    0  0.22678686581E+01 -0.18021775112E+02  0.45557476620E+01  0.18726517113E+02  0.00000000000E+00 0.  1.
         11    1    3    3    0    0 -0.43758521758E+01  0.11829847568E+02 -0.64628205786E+00  0.12629768664E+02  0.51100000000E-03 0. -1.
        -11    1    3    3    0    0  0.29022222212E+02 -0.51338656192E+01  0.35716902865E+01  0.29688430913E+02  0.51100000000E-03 0.  1.
         12    1    3    3    0    0 -0.26914238694E+02  0.11325793163E+02 -0.74811558906E+01  0.30143283310E+02  0.00000000000E+00 0. -1.
</event>
<event>
 7    1  0.2700104E-013  0.7246156E+02  0.7816164E-02  0.1226708E+00
        -11   -1    0    0    0    0  0.00000000000E+00  0.00000000000E+00  0.45593999997E+02  0.45594000000E+02  0.51100000000E-03 0.  1.
         11   -1    0    0    0    0 -0.00000000000E+00 -0.00000000000E+00 -0.45593999997E+02  0.45594000000E+02  0.51100000000E-03 0. -1.
    9900012    2    1    2    0    0  0.17508577072E+02  0.57448514112E+00  0.66181078063E+01  0.72461557327E+02  0.69999983107E+02 0.  0.
        -12    1    1    2    0    0 -0.17508577072E+02 -0.57448514112E+00 -0.66181078063E+01  0.18726442673E+02  0.00000000000E+00 0.  1.
         11    1    3    3    0    0 -0.68347897112E+00 -0.10733475725E+01 -0.14254812832E+02  0.14311495647E+02  0.51100000000E-03 0. -1.
        -11    1    3    3    0    0  0.26685466143E+02  0.73151483088E+01 -0.69358790189E+01  0.28525986680E+02  0.51100000000E-03 0.  1.
         12    1    3    3    0    0 -0.84934101000E+01 -0.56673155952E+01  0.27808799657E+02  0.29624074999E+02  0.00000000000E+00 0. -1.
</event>
<event>
 7    1  0.2700104E-013  0.7246159E+02  0.7816164E-02  0.1226708E+00
        -11   -1    0    0    0    0  0.00000000000E+00  0.00000000000E+00  0.45593999997E+02  0.45594000000E+02  0.51100000000E-03 0. -1.
         11   -1    0    0    0    0 -0.00000000000E+00 -0.00000000000E+00 -0.45593999997E+02  0.45594000000E+02  0.51100000000E-03 0.  1.
    9900012    2    1    2    0    0  0.30099511135E+01 -0.16489923885E+02  0.83487136447E+01  0.72461590441E+02  0.70000026245E+02 0.  0.
        -12    1    1    2    0    0 -0.30099511135E+01  0.16489923885E+02 -0.83487136447E+01  0.18726409559E+02  0.00000000000E+00 0.  1.
         11    1    3    3    0    0  0.95595752946E+01  0.19134234648E+02 -0.83326106023E+01  0.22955104336E+02  0.51100000000E-03 0. -1.
        -11    1    3    3    0    0 -0.17340829647E+01 -0.44020136894E+01 -0.80828733673E+01  0.93657680082E+01  0.51100000000E-03 0.  1.
         12    1    3    3    0    0 -0.48155412165E+01 -0.31222144844E+02  0.24764197614E+02  0.40140718097E+02  0.00000000000E+00 0. -1.
</event>
<event>
 7    1  0.2700104E-013  0.7246156E+02  0.7816164E-02  0.1226708E+00
        -11   -1    0    0    0    0  0.00000000000E+00  0.00000000000E+00  0.45593999997E+02  0.45594000000E+02  0.51100000000E-03 0.  1.
         11   -1    0    0    0    0 -0.00000000000E+00 -0.00000000000E+00 -0.45593999997E+02  0.45594000000E+02  0.51100000000E-03 0. -1.
    9900012    2    1    2    0    0  0.74772366068E+01  0.10071737720E+02 -0.13904334684E+02  0.72461561711E+02  0.69999988819E+02 0.  0.
        -12    1    1    2    0    0 -0.74772366068E+01 -0.10071737720E+02  0.13904334684E+02  0.18726438289E+02  0.00000000000E+00 0.  1.
         11    1    3    3    0    0  0.31445289005E+02  0.83820975788E+01 -0.80686908143E+01  0.33528637493E+02  0.51100000000E-03 0.  1.
        -11    1    3    3    0    0  0.91321886608E+00 -0.14969549518E+01 -0.12784133816E+02  0.12903833559E+02  0.51100000000E-03 0. -1.
        -12    1    3    3    0    0 -0.24881271264E+02  0.31865950928E+01  0.69484899460E+01  0.26029090659E+02  0.00000000000E+00 0.  1.
</event>
<event>
 7    1  0.2700104E-013  0.7246159E+02  0.7816164E-02  0.1226708E+00
        -11   -1    0    0    0    0  0.00000000000E+00  0.00000000000E+00  0.45593999997E+02  0.45594000000E+02  0.51100000000E-03 0. -1.
         11   -1    0    0    0    0 -0.00000000000E+00 -0.00000000000E+00 -0.45593999997E+02  0.45594000000E+02  0.51100000000E-03 0.  1.
    9900012    2    1    2    0    0  0.12367711839E+02  0.25394195692E+01  0.13830018188E+02  0.72461592150E+02  0.70000028471E+02 0.  0.
        -12    1    1    2    0    0 -0.12367711839E+02 -0.25394195692E+01 -0.13830018188E+02  0.18726407850E+02  0.00000000000E+00 0.  1.
         11    1    3    3    0    0  0.51705225967E+01 -0.83098821501E+01  0.44315792342E+01  0.10743711651E+02  0.51100000000E-03 0. -1.
        -11    1    3    3    0    0  0.20785185427E+02 -0.19025399248E+02  0.42075389988E+01  0.28490228754E+02  0.51100000000E-03 0.  1.
        -12    1    3    3    0    0 -0.13587996185E+02  0.29874700967E+02  0.51908999550E+01  0.33227651745E+02  0.00000000000E+00 0.  1.
</event>
<event>
 7    1  0.2700104E-013  0.7246154E+02  0.7816164E-02  0.1226708E+00
        -11   -1    0    0    0    0  0.00000000000E+00  0.00000000000E+00  0.45593999997E+02  0.45594000000E+02  0.51100000000E-03 0. -1.
         11   -1    0    0    0    0 -0.00000000000E+00 -0.00000000000E+00 -0.45593999997E+02  0.45594000000E+02  0.51100000000E-03 0.  1.
    9900012    2    1    2    0    0 -0.12925635922E+02  0.13537088275E+02  0.59610581114E+00  0.72461543712E+02  0.69999965372E+02 0.  0.
        -12    1    1    2    0    0  0.12925635922E+02 -0.13537088275E+02 -0.59610581114E+00  0.18726456288E+02  0.00000000000E+00 0.  1.
         11    1    3    3    0    0 -0.17532130146E+02  0.49145507594E+01 -0.17271237050E+02  0.25096295067E+02  0.51100000000E-03 0. -1.
        -11    1    3    3    0    0  0.55395808932E+00  0.63828159883E+01 -0.13877219269E+02  0.15284777538E+02  0.51100000000E-03 0.  1.
        -12    1    3    3    0    0  0.40525361353E+01  0.22397215277E+01  0.31744562129E+02  0.32080471107E+02  0.00000000000E+00 0.  1.
</event>
<event>
 7    1  0.2700104E-013  0.7246156E+02  0.7816164E-02  0.1226708E+00
        -11   -1    0    0    0    0  0.00000000000E+00  0.00000000000E+00  0.45593999997E+02  0.45594000000E+02  0.51100000000E-03 0.  1.
         11   -1    0    0    0    0 -0.00000000000E+00 -0.00000000000E+00 -0.45593999997E+02  0.45594000000E+02  0.51100000000E-03 0. -1.
    9900012    2    1    2    0    0  0.31313400111E+01  0.17249632345E+02  0.65821181457E+01  0.72461564525E+02  0.69999992485E+02 0.  0.
        -12    1    1    2    0    0 -0.31313400111E+01 -0.17249632345E+02 -0.65821181457E+01  0.18726435475E+02  0.00000000000E+00 0.  1.
         11    1    3    3    0    0  0.82631663635E+01  0.23548966437E+02 -0.15082544791E+02  0.29160193694E+02  0.51100000000E-03 0. -1.
        -11    1    3    3    0    0  0.59510621070E+01  0.12991359821E+02  0.38472846567E+01  0.14798384023E+02  0.51100000000E-03 0.  1.
        -12    1    3    3    0    0 -0.11082888459E+02 -0.19290693914E+02  0.17817378280E+02  0.28502986809E+02  0.00000000000E+00 0.  1.
</event>
<event>
 7    1  0.2700104E-013  0.7246158E+02  0.7816164E-02  0.1226708E+00
        -11   -1    0    0    0    0  0.00000000000E+00  0.00000000000E+00  0.45593999997E+02  0.45594000000E+02  0.51100000000E-03 0.  1.
         11   -1    0    0    0    0 -0.00000000000E+00 -0.00000000000E+00 -0.45593999997E+02  0.45594000000E+02  0.51100000000E-03 0. -1.
    9900012    2    1    2    0    0 -0.61408776458E+01  0.13627888540E+02 -0.11280475378E+02  0.72461578850E+02  0.70000011146E+02 0.  0.
        -12    1    1    2    0    0  0.61408776458E+01 -0.13627888540E+02  0.11280475378E+02  0.18726421150E+02  0.00000000000E+00 0.  1.
         11    1    3    3    0    0 -0.96349736636E+00  0.27689791940E+02 -0.56074123733E+01  0.28268285740E+02  0.51100000000E-03 0. -1.
        -11    1    3    3    0    0  0.10356414870E+02  0.93879140550E+01  0.38468558280E+01  0.14497812224E+02  0.51100000000E-03 0.  1.
         12    1    3    3    0    0 -0.15533795150E+02 -0.23449817456E+02 -0.95199188331E+01  0.29695480886E+02  0.00000000000E+00 0. -1.
</event>
<event>
 7    1  0.2700104E-013  0.7246156E+02  0.7816164E-02  0.1226708E+00
        -11   -1    0    0    0    0  0.00000000000E+00  0.00000000000E+00  0.45593999997E+02  0.45594000000E+02  0.51100000000E-03 0.  1.
         11   -1    0    0    0    0 -0.00000000000E+00 -0.00000000000E+00 -0.45593999997E+02  0.45594000000E+02  0.51100000000E-03 0. -1.
    9900012    2    1    2    0    0 -0.99445378726E+00  0.38911341323E+01 -0.18290695230E+02  0.72461564269E+02  0.69999992151E+02 0.  0.
        -12    1    1    2    0    0  0.99445378726E+00 -0.38911341323E+01  0.18290695230E+02  0.18726435731E+02  0.00000000000E+00 0.  1.
         11    1    3    3    0    0 -0.83576103655E+01 -0.96931443511E-01  0.85729383476E+01  0.11973066395E+02  0.51100000000E-03 0. -1.
        -11    1    3    3    0    0 -0.14399547438E+02  0.43887197653E+01  0.97202881220E+01  0.17919035382E+02  0.51100000000E-03 0.  1.
         12    1    3    3    0    0  0.21762704016E+02 -0.40065418949E+00 -0.36583921700E+02  0.42569462492E+02  0.00000000000E+00 0. -1.
</event>
<event>
 7    1  0.2700104E-013  0.7246156E+02  0.7816164E-02  0.1226708E+00
        -11   -1    0    0    0    0  0.00000000000E+00  0.00000000000E+00  0.45593999997E+02  0.45594000000E+02  0.51100000000E-03 0.  1.
         11   -1    0    0    0    0 -0.00000000000E+00 -0.00000000000E+00 -0.45593999997E+02  0.45594000000E+02  0.51100000000E-03 0. -1.
    9900012    2    1    2    0    0  0.57909435566E+01  0.71658413671E+01 -0.16303223552E+02  0.72461563928E+02  0.69999991706E+02 0.  0.
        -12    1    1    2    0    0 -0.57909435566E+01 -0.71658413671E+01  0.16303223552E+02  0.18726436072E+02  0.00000000000E+00 0.  1.
         11    1    3    3    0    0  0.12157306334E+02  0.45681265823E+01  0.74293802462E+01  0.14962071009E+02  0.51100000000E-03 0. -1.
        -11    1    3    3    0    0  0.15128252424E+02  0.19576103683E+02 -0.14022672703E+02  0.28438059126E+02  0.51100000000E-03 0.  1.
         12    1    3    3    0    0 -0.21494615202E+02 -0.16978388898E+02 -0.97099310951E+01  0.29061433793E+02  0.00000000000E+00 0. -1.
</event>
<event>
 7    1  0.2700104E-013  0.7246157E+02  0.7816164E-02  0.1226708E+00
        -11   -1    0    0    0    0  0.00000000000E+00  0.00000000000E+00  0.45593999997E+02  0.45594000000E+02  0.51100000000E-03 0. -1.
         11   -1    0    0    0    0 -0.00000000000E+00 -0.00000000000E+00 -0.45593999997E+02  0.45594000000E+02  0.51100000000E-03 0.  1.
    9900012    2    1    2    0    0 -0.42854775147E+01 -0.34506461144E+01  0.17899914524E+02  0.72461569050E+02  0.69999998379E+02 0.  0.
        -12    1    1    2    0    0  0.42854775147E+01  0.34506461144E+01 -0.17899914524E+02  0.18726430950E+02  0.00000000000E+00 0.  1.
         11    1    3    3    0    0 -0.29598868505E+01  0.23630757306E+02  0.31780122003E+02  0.39713345060E+02  0.51100000000E-03 0. -1.
        -11    1    3    3    0    0  0.80078155346E+00 -0.14838235315E+02 -0.10655907586E+01  0.14897985175E+02  0.51100000000E-03 0.  1.
        -12    1    3    3    0    0 -0.21263722177E+01 -0.12243168106E+02 -0.12814616720E+02  0.17850238816E+02  0.00000000000E+00 0.  1.
</event>
<event>
 7    1  0.2700104E-013  0.7246160E+02  0.7816164E-02  0.1226708E+00
        -11   -1    0    0    0    0  0.00000000000E+00  0.00000000000E+00  0.45593999997E+02  0.45594000000E+02  0.51100000000E-03 0.  1.
         11   -1    0    0    0    0 -0.00000000000E+00 -0.00000000000E+00 -0.45593999997E+02  0.45594000000E+02  0.51100000000E-03 0. -1.
    9900012    2    1    2    0    0  0.11904614028E+01  0.18334035343E+02  0.36226933210E+01  0.72461602663E+02  0.70000042166E+02 0.  0.
        -12    1    1    2    0    0 -0.11904614028E+01 -0.18334035343E+02 -0.36226933210E+01  0.18726397337E+02  0.00000000000E+00 0.  1.
         11    1    3    3    0    0 -0.86294232089E+01 -0.19439682759E+02 -0.12943895389E+02  0.24898044879E+02  0.51100000000E-03 0. -1.
        -11    1    3    3    0    0 -0.67324715253E+01  0.76103667066E+01  0.43443137256E+01  0.11050652300E+02  0.51100000000E-03 0.  1.
        -12    1    3    3    0    0  0.16552356137E+02  0.30163351396E+02  0.12222274984E+02  0.36512905484E+02  0.00000000000E+00 0.  1.
</event>
<event>
 7    1  0.2700104E-013  0.7246157E+02  0.7816164E-02  0.1226708E+00
        -11   -1    0    0    0    0  0.00000000000E+00  0.00000000000E+00  0.45593999997E+02  0.45594000000E+02  0.51100000000E-03 0.  1.
         11   -1    0    0    0    0 -0.00000000000E+00 -0.00000000000E+00 -0.45593999997E+02  0.45594000000E+02  0.51100000000E-03 0. -1.
    9900012    2    1    2    0    0  0.15503516671E+02  0.98734967093E+00 -0.10456834760E+02  0.72461567298E+02  0.69999996097E+02 0.  0.
        -12    1    1    2    0    0 -0.15503516671E+02 -0.98734967093E+00  0.10456834760E+02  0.18726432702E+02  0.00000000000E+00 0.  1.
         11    1    3    3    0    0  0.88605129830E+01  0.11204272414E+01  0.68295622249E+01  0.11243085340E+02  0.51100000000E-03 0. -1.
        -11    1    3    3    0    0  0.61132937879E+01  0.27707203867E+02  0.13209396665E+00  0.28373913303E+02  0.51100000000E-03 0.  1.
         12    1    3    3    0    0  0.52970990020E+00 -0.27840281437E+02 -0.17418490952E+02  0.32844568655E+02  0.00000000000E+00 0. -1.
</event>
<event>
 7    1  0.2732713E-013  0.7246166E+02  0.7816164E-02  0.1226708E+00
        -11   -1    0    0    0    0  0.00000000000E+00  0.00000000000E+00  0.45593999997E+02  0.45594000000E+02  0.51100000000E-03 0. -1.
         11   -1    0    0    0    0 -0.00000000000E+00 -0.00000000000E+00 -0.45593999997E+02  0.45594000000E+02  0.51100000000E-03 0.  1.
    9900012    2    1    2    0    0 -0.66851937259E+01 -0.50206140450E+00  0.17485189249E+02  0.72461662294E+02  0.70000119846E+02 0.  0.
        -12    1    1    2    0    0  0.66851937259E+01  0.50206140450E+00 -0.17485189249E+02  0.18726337706E+02  0.00000000000E+00 0.  1.
         11    1    3    3    0    0  0.47032205341E+01  0.14921024672E+02  0.14068708294E+02  0.21040100142E+02  0.51100000000E-03 0. -1.
        -11    1    3    3    0    0 -0.22456165595E+02  0.48798917615E+01  0.12986363482E+02  0.26395801818E+02  0.51100000000E-03 0.  1.
        -12    1    3    3    0    0  0.11067751335E+02 -0.20302977838E+02 -0.95698825270E+01  0.25025760334E+02  0.00000000000E+00 0.  1.
</event>
<event>
 7    1  0.2700104E-013  0.7246155E+02  0.7816164E-02  0.1226708E+00
        -11   -1    0    0    0    0  0.00000000000E+00  0.00000000000E+00  0.45593999997E+02  0.45594000000E+02  0.51100000000E-03 0.  1.
         11   -1    0    0    0    0 -0.00000000000E+00 -0.00000000000E+00 -0.45593999997E+02  0.45594000000E+02  0.51100000000E-03 0. -1.
    9900012    2    1    2    0    0 -0.14601741411E+02 -0.96430696894E+01 -0.66693571688E+01  0.72461548913E+02  0.69999972147E+02 0.  0.
        -12    1    1    2    0    0  0.14601741411E+02  0.96430696894E+01  0.66693571688E+01  0.18726451087E+02  0.00000000000E+00 0.  1.
         11    1    3    3    0    0 -0.96595824250E+01 -0.12591111285E+02  0.11057115114E+02  0.19341753047E+02  0.51100000000E-03 0. -1.
        -11    1    3    3    0    0  0.90142332882E+01 -0.16425157987E+02  0.57863465702E+01  0.19609284116E+02  0.51100000000E-03 0.  1.
         12    1    3    3    0    0 -0.13956392274E+02  0.19373199582E+02 -0.23512818853E+02  0.33510511750E+02  0.00000000000E+00 0. -1.
</event>
<event>
 7    1  0.2700104E-013  0.7246152E+02  0.7816164E-02  0.1226708E+00
        -11   -1    0    0    0    0  0.00000000000E+00  0.00000000000E+00  0.45593999997E+02  0.45594000000E+02  0.51100000000E-03 0. -1.
         11   -1    0    0    0    0 -0.00000000000E+00 -0.00000000000E+00 -0.45593999997E+02  0.45594000000E+02  0.51100000000E-03 0.  1.
    9900012    2    1    2    0    0 -0.17394053232E+02  0.71808355190E+00  0.69001596025E+01  0.72461523173E+02  0.69999938615E+02 0.  0.
        -12    1    1    2    0    0  0.17394053232E+02 -0.71808355190E+00 -0.69001596025E+01  0.18726476827E+02  0.00000000000E+00 0.  1.
         11    1    3    3    0    0 -0.31502837788E+01  0.18053832172E+02 -0.60003225756E+01  0.19283905601E+02  0.51100000000E-03 0. -1.
        -11    1    3    3    0    0 -0.90974542524E+01 -0.18879406342E+01 -0.16861961977E+02  0.19252370132E+02  0.51100000000E-03 0.  1.
        -12    1    3    3    0    0 -0.51463152009E+01 -0.15447807986E+02  0.29762444156E+02  0.33925247439E+02  0.00000000000E+00 0.  1.
</event>
<event>
 7    1  0.2700104E-013  0.7246157E+02  0.7816164E-02  0.1226708E+00
        -11   -1    0    0    0    0  0.00000000000E+00  0.00000000000E+00  0.45593999997E+02  0.45594000000E+02  0.51100000000E-03 0.  1.
         11   -1    0    0    0    0 -0.00000000000E+00 -0.00000000000E+00 -0.45593999997E+02  0.45594000000E+02  0.51100000000E-03 0. -1.
    9900012    2    1    2    0    0 -0.55277563042E+00 -0.17579799823E+02 -0.64284001348E+01  0.72461568119E+02  0.69999997166E+02 0.  0.
        -12    1    1    2    0    0  0.55277563042E+00  0.17579799823E+02  0.64284001348E+01  0.18726431881E+02  0.00000000000E+00 0.  1.
         11    1    3    3    0    0  0.15462606528E+02 -0.24520211326E+02 -0.99967134255E+01  0.30663777387E+02  0.51100000000E-03 0. -1.
        -11    1    3    3    0    0  0.82553894402E+01 -0.64698072323E+01  0.86641557513E+01  0.13604317534E+02  0.51100000000E-03 0.  1.
        -12    1    3    3    0    0 -0.24270771599E+02  0.13410218735E+02 -0.50958424606E+01  0.28193473197E+02  0.00000000000E+00 0.  1.
</event>
<event>
 7    1  0.2700104E-013  0.7246157E+02  0.7816164E-02  0.1226708E+00
        -11   -1    0    0    0    0  0.00000000000E+00  0.00000000000E+00  0.45593999997E+02  0.45594000000E+02  0.51100000000E-03 0.  1.
         11   -1    0    0    0    0 -0.00000000000E+00 -0.00000000000E+00 -0.45593999997E+02  0.45594000000E+02  0.51100000000E-03 0. -1.
    9900012    2    1    2    0    0 -0.17466248214E+02 -0.20674426128E+01 -0.64292382882E+01  0.72461568129E+02  0.69999997180E+02 0.  0.
        -12    1    1    2    0    0  0.17466248214E+02  0.20674426128E+01  0.64292382882E+01  0.18726431871E+02  0.00000000000E+00 0.  1.
         11    1    3    3    0    0  0.62949526305E+00  0.84120367793E+01 -0.26885214027E+02  0.28177532905E+02  0.51100000000E-03 0. -1.
        -11    1    3    3    0    0  0.56657996578E+01 -0.13104787693E+02  0.27612673495E+01  0.14541710486E+02  0.51100000000E-03 0.  1.
        -12    1    3    3    0    0 -0.23761543135E+02  0.26253083005E+01  0.17694708390E+02  0.29742324738E+02  0.00000000000E+00 0.  1.
</event>
<event>
 7    1  0.2700104E-013  0.7246157E+02  0.7816164E-02  0.1226708E+00
        -11   -1    0    0    0    0  0.00000000000E+00  0.00000000000E+00  0.45593999997E+02  0.45594000000E+02  0.51100000000E-03 0. -1.
         11   -1    0    0    0    0 -0.00000000000E+00 -0.00000000000E+00 -0.45593999997E+02  0.45594000000E+02  0.51100000000E-03 0.  1.
    9900012    2    1    2    0    0  0.52444649336E+01  0.51394304713E+01  0.17226758033E+02  0.72461565466E+02  0.69999993710E+02 0.  0.
        -12    1    1    2    0    0 -0.52444649336E+01 -0.51394304713E+01 -0.17226758033E+02  0.18726434534E+02  0.00000000000E+00 0.  1.
         11    1    3    3    0    0  0.40250785549E+01 -0.22811549270E+01  0.82103221617E+01  0.94241347313E+01  0.51100000000E-03 0. -1.
        -11    1    3    3    0    0 -0.33101433802E+01  0.32240879326E+02  0.16968625693E+02  0.36583679518E+02  0.51100000000E-03 0.  1.
         12    1    3    3    0    0  0.45295297589E+01 -0.24820293927E+02 -0.79521898217E+01  0.26453751217E+02  0.00000000000E+00 0. -1.
</event>
<event>
 7    1  0.2700104E-013  0.7246160E+02  0.7816164E-02  0.1226708E+00
        -11   -1    0    0    0    0  0.00000000000E+00  0.00000000000E+00  0.45593999997E+02  0.45594000000E+02  0.51100000000E-03 0.  1.
         11   -1    0    0    0    0 -0.00000000000E+00 -0.00000000000E+00 -0.45593999997E+02  0.45594000000E+02  0.51100000000E-03 0. -1.
    9900012    2    1    2    0    0 -0.12125060540E+02  0.15965316376E+01 -0.14181402729E+02  0.72461596455E+02  0.70000034079E+02 0.  0.
        -12    1    1    2    0    0  0.12125060540E+02 -0.15965316376E+01  0.14181402729E+02  0.18726403545E+02  0.00000000000E+00 0.  1.
         11    1    3    3    0    0  0.19001419249E+01 -0.45708638180E+01 -0.32592906383E+00  0.49608028981E+01  0.51100000000E-03 0. -1.
        -11    1    3    3    0    0 -0.39422935241E+02  0.26552741254E+01 -0.28989837397E+01  0.39618460478E+02  0.51100000000E-03 0.  1.
         12    1    3    3    0    0  0.25397732776E+02  0.35121213301E+01 -0.10956489926E+02  0.27882333078E+02  0.00000000000E+00 0. -1.
</event>
<event>
 7    1  0.2700104E-013  0.7246159E+02  0.7816164E-02  0.1226708E+00
        -11   -1    0    0    0    0  0.00000000000E+00  0.00000000000E+00  0.45593999997E+02  0.45594000000E+02  0.51100000000E-03 0.  1.
         11   -1    0    0    0    0 -0.00000000000E+00 -0.00000000000E+00 -0.45593999997E+02  0.45594000000E+02  0.51100000000E-03 0. -1.
    9900012    2    1    2    0    0  0.16588054877E+02 -0.64838812552E+01 -0.57856813197E+01  0.72461591132E+02  0.70000027145E+02 0.  0.
        -12    1    1    2    0    0 -0.16588054877E+02  0.64838812552E+01  0.57856813197E+01  0.18726408868E+02  0.00000000000E+00 0.  1.
         11    1    3    3    0    0 -0.68769516424E-01  0.29820978106E-01  0.80863297901E+01  0.80866772083E+01  0.51100000000E-03 0. -1.
        -11    1    3    3    0    0  0.13842721550E+02 -0.54425257768E+01  0.22994344223E+02  0.27385797290E+02  0.51100000000E-03 0.  1.
         12    1    3    3    0    0  0.28141028442E+01 -0.10711764565E+01 -0.36866355333E+02  0.36989116633E+02  0.00000000000E+00 0. -1.
</event>
<event>
 7    1  0.2700104E-013  0.7246094E+02  0.7816164E-02  0.1226710E+00
        -11   -1    0    0    0    0  0.00000000000E+00  0.00000000000E+00  0.45593999997E+02  0.45594000000E+02  0.51100000000E-03 0.  1.
         11   -1    0    0    0    0 -0.00000000000E+00 -0.00000000000E+00 -0.45593999997E+02  0.45594000000E+02  0.51100000000E-03 0. -1.
    9900012    2    1    2    0    0 -0.52750442153E+01  0.14240012495E+02 -0.10958959058E+02  0.72460938539E+02  0.69999177017E+02 0.  0.
        -12    1    1    2    0    0  0.52750442153E+01 -0.14240012495E+02  0.10958959058E+02  0.18727061461E+02  0.00000000000E+00 0.  1.
         11    1    3    3    0    0  0.22892585522E+02 -0.57602583887E+01 -0.71108762511E+01  0.24653916726E+02  0.51100000000E-03 0. -1.
        -11    1    3    3    0    0  0.68931024725E+01  0.38464173457E+01 -0.47141338360E+01  0.91941745785E+01  0.51100000000E-03 0.  1.
        -12    1    3    3    0    0 -0.35060732210E+02  0.16153853538E+02  0.86605102913E+00  0.38612847235E+02  0.00000000000E+00 0.  1.
</event>
<event>
 7    1  0.2700104E-013  0.7246150E+02  0.7816164E-02  0.1226708E+00
        -11   -1    0    0    0    0  0.00000000000E+00  0.00000000000E+00  0.45593999997E+02  0.45594000000E+02  0.51100000000E-03 0.  1.
         11   -1    0    0    0    0 -0.00000000000E+00 -0.00000000000E+00 -0.45593999997E+02  0.45594000000E+02  0.51100000000E-03 0. -1.
    9900012    2    1    2    0    0  0.11830534117E+02 -0.90757913529E+01 -0.11329179063E+02  0.72461499408E+02  0.69999907657E+02 0.  0.
        -12    1    1    2    0    0 -0.11830534117E+02  0.90757913529E+01  0.11329179063E+02  0.18726500592E+02  0.00000000000E+00 0.  1.
         11    1    3    3    0    0  0.16519281972E+02 -0.95717739068E+01 -0.26407662627E+01  0.19273795146E+02  0.51100000000E-03 0. -1.
        -11    1    3    3    0    0 -0.12731374626E+02  0.20200759135E+02  0.89960118111E+01  0.25516402534E+02  0.51100000000E-03 0.  1.
         12    1    3    3    0    0  0.80426267708E+01 -0.19704776581E+02 -0.17684424612E+02  0.27671301728E+02  0.00000000000E+00 0. -1.
</event>
<event>
 7    1  0.2700104E-013  0.7246159E+02  0.7816164E-02  0.1226708E+00
        -11   -1    0    0    0    0  0.00000000000E+00  0.00000000000E+00  0.45593999997E+02  0.45594000000E+02  0.51100000000E-03 0.  1.
         11   -1    0    0    0    0 -0.00000000000E+00 -0.00000000000E+00 -0.45593999997E+02  0.45594000000E+02  0.51100000000E-03 0. -1.
    9900012    2    1    2    0    0  0.12910308078E+02 -0.83284908682E+01 -0.10706950162E+02  0.72461585592E+02  0.70000019928E+02 0.  0.
        -12    1    1    2    0    0 -0.12910308078E+02  0.83284908682E+01  0.10706950162E+02  0.18726414408E+02  0.00000000000E+00 0.  1.
         11    1    3    3    0    0 -0.79120791881E+01  0.39964475341E+01 -0.15172091922E+02  0.17571709180E+02  0.51100000000E-03 0. -1.
        -11    1    3    3    0    0  0.24412347851E+01 -0.10669427217E+02 -0.20857870673E+02  0.23555192075E+02  0.51100000000E-03 0.  1.
        -12    1    3    3    0    0  0.18381152481E+02 -0.16555111857E+01  0.25323012433E+02  0.31334684337E+02  0.00000000000E+00 0.  1.
</event>
<event>
 7    1  0.2700104E-013  0.7246145E+02  0.7816164E-02  0.1226708E+00
        -11   -1    0    0    0    0  0.00000000000E+00  0.00000000000E+00  0.45593999997E+02  0.45594000000E+02  0.51100000000E-03 0.  1.
         11   -1    0    0    0    0 -0.00000000000E+00 -0.00000000000E+00 -0.45593999997E+02  0.45594000000E+02  0.51100000000E-03 0. -1.
    9900012    2    1    2    0    0 -0.11820240434E+01  0.57707899238E+01 -0.17775952158E+02  0.72461450069E+02  0.69999843384E+02 0.  0.
        -12    1    1    2    0    0  0.11820240434E+01 -0.57707899238E+01  0.17775952158E+02  0.18726549931E+02  0.00000000000E+00 0.  1.
         11    1    3    3    0    0 -0.20479534168E+00  0.52587163058E+01 -0.44172696862E+01  0.68708303762E+01  0.51100000000E-03 0. -1.
        -11    1    3    3    0    0 -0.30705991357E+02  0.61087767923E+01  0.25502361157E+01  0.31411443195E+02  0.51100000000E-03 0.  1.
         12    1    3    3    0    0  0.29728762655E+02 -0.55967031742E+01 -0.15908918588E+02  0.34179176498E+02  0.00000000000E+00 0. -1.
</event>
<event>
 7    1  0.2700104E-013  0.7246160E+02  0.7816164E-02  0.1226708E+00
        -11   -1    0    0    0    0  0.00000000000E+00  0.00000000000E+00  0.45593999997E+02  0.45594000000E+02  0.51100000000E-03 0.  1.
         11   -1    0    0    0    0 -0.00000000000E+00 -0.00000000000E+00 -0.45593999997E+02  0.45594000000E+02  0.51100000000E-03 0. -1.
    9900012    2    1    2    0    0  0.92935942734E+01  0.98359258512E+01 -0.12944566133E+02  0.72461598203E+02  0.70000036357E+02 0.  0.
        -12    1    1    2    0    0 -0.92935942734E+01 -0.98359258512E+01  0.12944566133E+02  0.18726401797E+02  0.00000000000E+00 0.  1.
         11    1    3    3    0    0 -0.93802001117E+01  0.68452171074E+00 -0.77701917029E+01  0.12199696860E+02  0.51100000000E-03 0. -1.
        -11    1    3    3    0    0  0.14631260733E+01 -0.10133524880E+02  0.21070053632E+02  0.23425973293E+02  0.51100000000E-03 0.  1.
         12    1    3    3    0    0  0.17210668312E+02  0.19284929020E+02 -0.26244428062E+02  0.36835928051E+02  0.00000000000E+00 0. -1.
</event>
<event>
 7    1  0.2700104E-013  0.7246156E+02  0.7816164E-02  0.1226708E+00
        -11   -1    0    0    0    0  0.00000000000E+00  0.00000000000E+00  0.45593999997E+02  0.45594000000E+02  0.51100000000E-03 0. -1.
         11   -1    0    0    0    0 -0.00000000000E+00 -0.00000000000E+00 -0.45593999997E+02  0.45594000000E+02  0.51100000000E-03 0.  1.
    9900012    2    1    2    0    0  0.30596674546E+01  0.11884171275E+02  0.14145125963E+02  0.72461556656E+02  0.69999982233E+02 0.  0.
        -12    1    1    2    0    0 -0.30596674546E+01 -0.11884171275E+02 -0.14145125963E+02  0.18726443344E+02  0.00000000000E+00 0.  1.
         11    1    3    3    0    0  0.16923076111E+02  0.40785156978E+00  0.19297507441E+02  0.25670033924E+02  0.51100000000E-03 0. -1.
        -11    1    3    3    0    0 -0.35695250947E+01 -0.16366742169E+02 -0.30977536657E+01  0.17035487567E+02  0.51100000000E-03 0.  1.
        -12    1    3    3    0    0 -0.10293883561E+02  0.27843061874E+02 -0.20546278120E+01  0.29756035165E+02  0.00000000000E+00 0.  1.
</event>
<event>
 7    1  0.2700104E-013  0.7246176E+02  0.7816164E-02  0.1226708E+00
        -11   -1    0    0    0    0  0.00000000000E+00  0.00000000000E+00  0.45593999997E+02  0.45594000000E+02  0.51100000000E-03 0. -1.
         11   -1    0    0    0    0 -0.00000000000E+00 -0.00000000000E+00 -0.45593999997E+02  0.45594000000E+02  0.51100000000E-03 0.  1.
    9900012    2    1    2    0    0 -0.12930105995E+01 -0.18329700597E+02  0.36086316097E+01  0.72461761123E+02  0.70000248589E+02 0.  0.
        -12    1    1    2    0    0  0.12930105995E+01  0.18329700597E+02 -0.36086316097E+01  0.18726238877E+02  0.00000000000E+00 0.  1.
         11    1    3    3    0    0  0.38024455361E+01 -0.23317382764E+02  0.27177210635E+02  0.36010549970E+02  0.51100000000E-03 0. -1.
        -11    1    3    3    0    0 -0.32697782421E+01  0.39799404128E+01  0.53680264835E+01  0.74395620859E+01  0.51100000000E-03 0.  1.
        -12    1    3    3    0    0 -0.18256778936E+01  0.10077417539E+01 -0.28936605508E+02  0.29011649067E+02  0.00000000000E+00 0.  1.
</event>
<event>
 7    1  0.2700104E-013  0.7246159E+02  0.7816164E-02  0.1226708E+00
        -11   -1    0    0    0    0  0.00000000000E+00  0.00000000000E+00  0.45593999997E+02  0.45594000000E+02  0.51100000000E-03 0.  1.
         11   -1    0    0    0    0 -0.00000000000E+00 -0.00000000000E+00 -0.45593999997E+02  0.45594000000E+02  0.51100000000E-03 0. -1.
    9900012    2    1    2    0    0  0.17712870086E+02  0.60465007704E+01  0.61034603580E+00  0.72461589224E+02  0.70000024660E+02 0.  0.
        -12    1    1    2    0    0 -0.17712870086E+02 -0.60465007704E+01 -0.61034603580E+00  0.18726410776E+02  0.00000000000E+00 0.  1.
         11    1    3    3    0    0  0.55494618461E+01  0.31496374568E+02 -0.84728698872E+01  0.33084855479E+02  0.51100000000E-03 0. -1.
        -11    1    3    3    0    0 -0.33732998129E+01 -0.22903928067E+01 -0.63172650856E+01  0.75188356319E+01  0.51100000000E-03 0.  1.
        -12    1    3    3    0    0  0.15536708053E+02 -0.23159480991E+02  0.15400481009E+02  0.31857898113E+02  0.00000000000E+00 0.  1.
</event>
<event>
 7    1  0.2700104E-013  0.7246158E+02  0.7816164E-02  0.1226708E+00
        -11   -1    0    0    0    0  0.00000000000E+00  0.00000000000E+00  0.45593999997E+02  0.45594000000E+02  0.51100000000E-03 0.  1.
         11   -1    0    0    0    0 -0.00000000000E+00 -0.00000000000E+00 -0.45593999997E+02  0.45594000000E+02  0.51100000000E-03 0. -1.
    9900012    2    1    2    0    0  0.48542557631E+01  0.25229843703E+01 -0.17909479828E+02  0.72461582381E+02  0.70000015745E+02 0.  0.
        -12    1    1    2    0    0 -0.48542557631E+01 -0.25229843703E+01  0.17909479828E+02  0.18726417619E+02  0.00000000000E+00 0.  1.
         11    1    3    3    0    0  0.54268712183E+01 -0.18165667508E+01  0.75044358564E+01  0.94375528483E+01  0.51100000000E-03 0. -1.
        -11    1    3    3    0    0  0.15869822477E+02  0.22669730143E+02 -0.49028932325E-01  0.27672555616E+02  0.51100000000E-03 0.  1.
         12    1    3    3    0    0 -0.16442437932E+02 -0.18330179022E+02 -0.25364886752E+02  0.35351473917E+02  0.00000000000E+00 0. -1.
</event>
<event>
 7    1  0.2700104E-013  0.7246148E+02  0.7816164E-02  0.1226708E+00
        -11   -1    0    0    0    0  0.00000000000E+00  0.00000000000E+00  0.45593999997E+02  0.45594000000E+02  0.51100000000E-03 0. -1.
         11   -1    0    0    0    0 -0.00000000000E+00 -0.00000000000E+00 -0.45593999997E+02  0.45594000000E+02  0.51100000000E-03 0.  1.
    9900012    2    1    2    0    0  0.33148262758E+01  0.82362024311E+01  0.16488161774E+02  0.72461479169E+02  0.69999881293E+02 0.  0.
        -12    1    1    2    0    0 -0.33148262758E+01 -0.82362024311E+01 -0.16488161774E+02  0.18726520831E+02  0.00000000000E+00 0.  1.
         11    1    3    3    0    0 -0.34461074878E+01  0.48093030670E+01  0.60791187790E+00  0.59476558340E+01  0.51100000000E-03 0. -1.
        -11    1    3    3    0    0 -0.25993273787E+02  0.96561624031E+01 -0.35003380718E+01  0.27948955641E+02  0.51100000000E-03 0.  1.
         12    1    3    3    0    0  0.32754207551E+02 -0.62292630390E+01  0.19380587968E+02  0.38564867694E+02  0.00000000000E+00 0. -1.
</event>
<event>
 7    1  0.2700104E-013  0.7246155E+02  0.7816164E-02  0.1226708E+00
        -11   -1    0    0    0    0  0.00000000000E+00  0.00000000000E+00  0.45593999997E+02  0.45594000000E+02  0.51100000000E-03 0.  1.
         11   -1    0    0    0    0 -0.00000000000E+00 -0.00000000000E+00 -0.45593999997E+02  0.45594000000E+02  0.51100000000E-03 0. -1.
    9900012    2    1    2    0    0  0.16092038156E+02  0.76791715401E+01 -0.57233299853E+01  0.72461551494E+02  0.69999975509E+02 0.  0.
        -12    1    1    2    0    0 -0.16092038156E+02 -0.76791715401E+01  0.57233299853E+01  0.18726448506E+02  0.00000000000E+00 0.  1.
         11    1    3    3    0    0  0.29882657191E+02  0.55059862799E+01 -0.23954472924E+02  0.38692452223E+02  0.51100000000E-03 0.  1.
        -11    1    3    3    0    0 -0.15602237638E+02  0.11769016464E+01  0.22860779536E+00  0.15648232442E+02  0.51100000000E-03 0. -1.
        -12    1    3    3    0    0  0.18116186022E+01  0.99628361384E+00  0.18002535144E+02  0.18120866828E+02  0.00000000000E+00 0.  1.
</event>
<event>
 7    1  0.2700104E-013  0.7246156E+02  0.7816164E-02  0.1226708E+00
        -11   -1    0    0    0    0  0.00000000000E+00  0.00000000000E+00  0.45593999997E+02  0.45594000000E+02  0.51100000000E-03 0.  1.
         11   -1    0    0    0    0 -0.00000000000E+00 -0.00000000000E+00 -0.45593999997E+02  0.45594000000E+02  0.51100000000E-03 0. -1.
    9900012    2    1    2    0    0  0.55121805532E+00  0.18561083061E+02 -0.24211352612E+01  0.72461560357E+02  0.69999987054E+02 0.  0.
        -12    1    1    2    0    0 -0.55121805532E+00 -0.18561083061E+02  0.24211352612E+01  0.18726439643E+02  0.00000000000E+00 0.  1.
         11    1    3    3    0    0  0.29451294024E+02  0.25583086790E+01 -0.87502269458E+00  0.29575147134E+02  0.51100000000E-03 0. -1.
        -11    1    3    3    0    0 -0.35740745509E+01  0.62434935336E+01 -0.11843578564E+02  0.13857329247E+02  0.51100000000E-03 0.  1.
        -12    1    3    3    0    0 -0.25326001418E+02  0.97592808488E+01  0.10297465997E+02  0.29029083976E+02  0.00000000000E+00 0.  1.
</event>
<event>
 7    1  0.2700104E-013  0.7246159E+02  0.7816164E-02  0.1226708E+00
        -11   -1    0    0    0    0  0.00000000000E+00  0.00000000000E+00  0.45593999997E+02  0.45594000000E+02  0.51100000000E-03 0.  1.
         11   -1    0    0    0    0 -0.00000000000E+00 -0.00000000000E+00 -0.45593999997E+02  0.45594000000E+02  0.51100000000E-03 0. -1.
    9900012    2    1    2    0    0  0.12386722522E+02  0.99328363166E+01 -0.99290574465E+01  0.72461593139E+02  0.70000029760E+02 0.  0.
        -12    1    1    2    0    0 -0.12386722522E+02 -0.99328363166E+01  0.99290574465E+01  0.18726406861E+02  0.00000000000E+00 0.  1.
         11    1    3    3    0    0  0.29725545336E+00  0.27046198371E+02 -0.19466641300E+02  0.33324695511E+02  0.51100000000E-03 0. -1.
        -11    1    3    3    0    0 -0.63245308290E+01 -0.93143277548E+01 -0.69396254212E+01  0.13225535641E+02  0.51100000000E-03 0.  1.
        -12    1    3    3    0    0  0.18413997898E+02 -0.77990342998E+01  0.16477209275E+02  0.25911361988E+02  0.00000000000E+00 0.  1.
</event>
<event>
 7    1  0.2700104E-013  0.7246149E+02  0.7816164E-02  0.1226708E+00
        -11   -1    0    0    0    0  0.00000000000E+00  0.00000000000E+00  0.45593999997E+02  0.45594000000E+02  0.51100000000E-03 0. -1.
         11   -1    0    0    0    0 -0.00000000000E+00 -0.00000000000E+00 -0.45593999997E+02  0.45594000000E+02  0.51100000000E-03 0.  1.
    9900012    2    1    2    0    0  0.89869757433E+01  0.14125747258E+02  0.83892555239E+01  0.72461492668E+02  0.69999898877E+02 0.  0.
        -12    1    1    2    0    0 -0.89869757433E+01 -0.14125747258E+02 -0.83892555239E+01  0.18726507332E+02  0.00000000000E+00 0.  1.
         11    1    3    3    0    0  0.11236874679E+02  0.16154901057E+01  0.35966797780E+01  0.11908537548E+02  0.51100000000E-03 0. -1.
        -11    1    3    3    0    0  0.24182012410E+02 -0.26699238584E+01  0.14793176528E+02  0.28473431294E+02  0.51100000000E-03 0.  1.
         12    1    3    3    0    0 -0.26431911346E+02  0.15180181011E+02 -0.10000600782E+02  0.32079523826E+02  0.00000000000E+00 0. -1.
</event>
<event>
 7    1  0.2700104E-013  0.7246154E+02  0.7816164E-02  0.1226708E+00
        -11   -1    0    0    0    0  0.00000000000E+00  0.00000000000E+00  0.45593999997E+02  0.45594000000E+02  0.51100000000E-03 0.  1.
         11   -1    0    0    0    0 -0.00000000000E+00 -0.00000000000E+00 -0.45593999997E+02  0.45594000000E+02  0.51100000000E-03 0. -1.
    9900012    2    1    2    0    0  0.15772673538E+02 -0.21327592228E+01 -0.98668335731E+01  0.72461540185E+02  0.69999960777E+02 0.  0.
        -12    1    1    2    0    0 -0.15772673538E+02  0.21327592228E+01  0.98668335731E+01  0.18726459815E+02  0.00000000000E+00 0.  1.
         11    1    3    3    0    0  0.46681392700E+01  0.13989024907E+02 -0.24443556370E+02  0.28547710772E+02  0.51100000000E-03 0. -1.
        -11    1    3    3    0    0 -0.74363479309E+01  0.69196227357E+01  0.94970904167E+01  0.13905940313E+02  0.51100000000E-03 0.  1.
        -12    1    3    3    0    0  0.18540882199E+02 -0.23041406865E+02  0.50796323799E+01  0.30007889099E+02  0.00000000000E+00 0.  1.
</event>
<event>
 7    1  0.2700104E-013  0.7246158E+02  0.7816164E-02  0.1226708E+00
        -11   -1    0    0    0    0  0.00000000000E+00  0.00000000000E+00  0.45593999997E+02  0.45594000000E+02  0.51100000000E-03 0.  1.
         11   -1    0    0    0    0 -0.00000000000E+00 -0.00000000000E+00 -0.45593999997E+02  0.45594000000E+02  0.51100000000E-03 0. -1.
    9900012    2    1    2    0    0 -0.38553935966E+01  0.17858882723E+02 -0.41079267060E+01  0.72461579795E+02  0.70000012376E+02 0.  0.
        -12    1    1    2    0    0  0.38553935966E+01 -0.17858882723E+02  0.41079267060E+01  0.18726420205E+02  0.00000000000E+00 0.  1.
         11    1    3    3    0    0 -0.25059530651E+01  0.47120391501E+01  0.62973544558E+01  0.82546827389E+01  0.51100000000E-03 0. -1.
        -11    1    3    3    0    0 -0.10346694295E+02 -0.84218735923E+01  0.21109869237E+02  0.24972156837E+02  0.51100000000E-03 0.  1.
         12    1    3    3    0    0  0.89972537634E+01  0.21568717165E+02 -0.31515150398E+02  0.39234740219E+02  0.00000000000E+00 0. -1.
</event>
<event>
 7    1  0.2700104E-013  0.7246157E+02  0.7816164E-02  0.1226708E+00
        -11   -1    0    0    0    0  0.00000000000E+00  0.00000000000E+00  0.45593999997E+02  0.45594000000E+02  0.51100000000E-03 0. -1.
         11   -1    0    0    0    0 -0.00000000000E+00 -0.00000000000E+00 -0.45593999997E+02  0.45594000000E+02  0.51100000000E-03 0.  1.
    9900012    2    1    2    0    0  0.98445175064E+01  0.79726562306E+01  0.13791358740E+02  0.72461565524E+02  0.69999993785E+02 0.  0.
        -12    1    1    2    0    0 -0.98445175064E+01 -0.79726562306E+01 -0.13791358740E+02  0.18726434476E+02  0.00000000000E+00 0.  1.
         11    1    3    3    0    0 -0.84668143179E+01 -0.65727057558E+00  0.12303373504E+01  0.85809486398E+01  0.51100000000E-03 0. -1.
        -11    1    3    3    0    0  0.28431237470E+02 -0.13283252492E+02  0.21610983437E+02  0.38102685813E+02  0.51100000000E-03 0.  1.
         12    1    3    3    0    0 -0.10119905645E+02  0.21913179298E+02 -0.90499620477E+01  0.25777931070E+02  0.00000000000E+00 0. -1.
</event>
<event>
 7    1  0.2700104E-013  0.7246160E+02  0.7816164E-02  0.1226708E+00
        -11   -1    0    0    0    0  0.00000000000E+00  0.00000000000E+00  0.45593999997E+02  0.45594000000E+02  0.51100000000E-03 0.  1.
         11   -1    0    0    0    0 -0.00000000000E+00 -0.00000000000E+00 -0.45593999997E+02  0.45594000000E+02  0.51100000000E-03 0. -1.
    9900012    2    1    2    0    0 -0.16494051913E+02 -0.70574172279E+01 -0.53681754914E+01  0.72461596326E+02  0.70000033912E+02 0.  0.
        -12    1    1    2    0    0  0.16494051913E+02  0.70574172279E+01  0.53681754914E+01  0.18726403674E+02  0.00000000000E+00 0.  1.
         11    1    3    3    0    0 -0.55506090171E+01 -0.78060092934E+01 -0.21405445484E+02  0.23450717221E+02  0.51100000000E-03 0. -1.
        -11    1    3    3    0    0  0.97551621055E+01 -0.16446710627E+02  0.93369192346E+01  0.21279932782E+02  0.51100000000E-03 0.  1.
        -12    1    3    3    0    0 -0.20698605002E+02  0.17195302693E+02  0.67003507581E+01  0.27730946323E+02  0.00000000000E+00 0.  1.
</event>
<event>
 7    1  0.2700104E-013  0.7246166E+02  0.7816164E-02  0.1226708E+00
        -11   -1    0    0    0    0  0.00000000000E+00  0.00000000000E+00  0.45593999997E+02  0.45594000000E+02  0.51100000000E-03 0. -1.
         11   -1    0    0    0    0 -0.00000000000E+00 -0.00000000000E+00 -0.45593999997E+02  0.45594000000E+02  0.51100000000E-03 0.  1.
    9900012    2    1    2    0    0  0.33908587187E+01  0.13477534564E+02  0.12551253377E+02  0.72461659671E+02  0.70000116430E+02 0.  0.
        -12    1    1    2    0    0 -0.33908587187E+01 -0.13477534564E+02 -0.12551253377E+02  0.18726340329E+02  0.00000000000E+00 0.  1.
         11    1    3    3    0    0  0.13405220348E+02  0.71824104181E+01  0.21042396338E+02  0.25962846452E+02  0.51100000000E-03 0. -1.
        -11    1    3    3    0    0  0.10543499106E+02  0.15267618961E+01  0.12710272755E+02  0.16584553327E+02  0.51100000000E-03 0.  1.
        -12    1    3    3    0    0 -0.20557860735E+02  0.47683622499E+01 -0.21201415716E+02  0.29914259892E+02  0.00000000000E+00 0.  1.
</event>
<event>
 7    1  0.2700104E-013  0.7246150E+02  0.7816164E-02  0.1226708E+00
        -11   -1    0    0    0    0  0.00000000000E+00  0.00000000000E+00  0.45593999997E+02  0.45594000000E+02  0.51100000000E-03 0.  1.
         11   -1    0    0    0    0 -0.00000000000E+00 -0.00000000000E+00 -0.45593999997E+02  0.45594000000E+02  0.51100000000E-03 0. -1.
    9900012    2    1    2    0    0  0.11334149897E+02 -0.13574549836E+02  0.61603875970E+01  0.72461501863E+02  0.69999910855E+02 0.  0.
        -12    1    1    2    0    0 -0.11334149897E+02  0.13574549836E+02 -0.61603875970E+01  0.18726498137E+02  0.00000000000E+00 0.  1.
         11    1    3    3    0    0 -0.52260224760E+01  0.22235092247E+01  0.12964993207E+02  0.14154375766E+02  0.51100000000E-03 0. -1.
        -11    1    3    3    0    0  0.93027208317E+01 -0.16797457596E+02  0.21642082914E+02  0.28932247573E+02  0.51100000000E-03 0.  1.
         12    1    3    3    0    0  0.72574515412E+01  0.99939853501E+00 -0.28446688524E+02  0.29374878524E+02  0.00000000000E+00 0. -1.
</event>
<event>
 7    1  0.2700104E-013  0.7246123E+02  0.7816164E-02  0.1226709E+00
        -11   -1    0    0    0    0  0.00000000000E+00  0.00000000000E+00  0.45593999997E+02  0.45594000000E+02  0.51100000000E-03 0. -1.
         11   -1    0    0    0    0 -0.00000000000E+00 -0.00000000000E+00 -0.45593999997E+02  0.45594000000E+02  0.51100000000E-03 0.  1.
    9900012    2    1    2    0    0  0.14092988011E+02 -0.31726558261E+01  0.11916959837E+02  0.72461228046E+02  0.69999554156E+02 0.  0.
        -12    1    1    2    0    0 -0.14092988011E+02  0.31726558261E+01 -0.11916959837E+02  0.18726771954E+02  0.00000000000E+00 0.  1.
         11    1    3    3    0    0  0.15452171758E+02  0.98424744454E+00 -0.67696817992E+01  0.16898726194E+02  0.51100000000E-03 0. -1.
        -11    1    3    3    0    0 -0.43469799732E+01 -0.85584830209E+01 -0.16977745958E+02  0.19503531080E+02  0.51100000000E-03 0.  1.
         12    1    3    3    0    0  0.29877962262E+01  0.44015797503E+01  0.35664387594E+02  0.36058970771E+02  0.00000000000E+00 0. -1.
</event>
<event>
 7    1  0.2700104E-013  0.7246156E+02  0.7816164E-02  0.1226708E+00
        -11   -1    0    0    0    0  0.00000000000E+00  0.00000000000E+00  0.45593999997E+02  0.45594000000E+02  0.51100000000E-03 0. -1.
         11   -1    0    0    0    0 -0.00000000000E+00 -0.00000000000E+00 -0.45593999997E+02  0.45594000000E+02  0.51100000000E-03 0.  1.
    9900012    2    1    2    0    0  0.97550995553E-01  0.15891355197E+02  0.99062983930E+01  0.72461563232E+02  0.69999990799E+02 0.  0.
        -12    1    1    2    0    0 -0.97550995553E-01 -0.15891355197E+02 -0.99062983930E+01  0.18726436768E+02  0.00000000000E+00 0.  1.
         11    1    3    3    0    0  0.13427242090E+02  0.22854989678E+02  0.15291918340E+02  0.30602028529E+02  0.51100000000E-03 0. -1.
        -11    1    3    3    0    0  0.12219717979E+02  0.50796346399E+01 -0.94649343909E+00  0.13267254639E+02  0.51100000000E-03 0.  1.
        -12    1    3    3    0    0 -0.25549409073E+02 -0.12043269121E+02 -0.44391265079E+01  0.28592280064E+02  0.00000000000E+00 0.  1.
</event>
<event>
 7    1  0.3298020E-013  0.7246163E+02  0.7816164E-02  0.1226708E+00
        -11   -1    0    0    0    0  0.00000000000E+00  0.00000000000E+00  0.45593999997E+02  0.45594000000E+02  0.51100000000E-03 0. -1.
         11   -1    0    0    0    0 -0.00000000000E+00 -0.00000000000E+00 -0.45593999997E+02  0.45594000000E+02  0.51100000000E-03 0.  1.
    9900012    2    1    2    0    0  0.11426580748E+02  0.98056512804E+01  0.11133712439E+02  0.72461625623E+02  0.70000072076E+02 0.  0.
        -12    1    1    2    0    0 -0.11426580748E+02 -0.98056512804E+01 -0.11133712439E+02  0.18726374377E+02  0.00000000000E+00 0.  1.
         11    1    3    3    0    0 -0.96870618807E+01  0.76157340380E+01  0.21273653849E+02  0.24584688755E+02  0.51100000000E-03 0. -1.
        -11    1    3    3    0    0 -0.84137337173E+01 -0.71558892415E+01  0.64005004687E+01  0.12765738224E+02  0.51100000000E-03 0.  1.
        -12    1    3    3    0    0  0.29527376346E+02  0.93458064839E+01 -0.16540441878E+02  0.35111198644E+02  0.00000000000E+00 0.  1.
</event>
<event>
 7    1  0.2700104E-013  0.7246175E+02  0.7816164E-02  0.1226708E+00
        -11   -1    0    0    0    0  0.00000000000E+00  0.00000000000E+00  0.45593999997E+02  0.45594000000E+02  0.51100000000E-03 0. -1.
         11   -1    0    0    0    0 -0.00000000000E+00 -0.00000000000E+00 -0.45593999997E+02  0.45594000000E+02  0.51100000000E-03 0.  1.
    9900012    2    1    2    0    0  0.11634206681E+02 -0.32845098860E+01  0.14301382104E+02  0.72461753703E+02  0.70000238923E+02 0.  0.
        -12    1    1    2    0    0 -0.11634206681E+02  0.32845098860E+01 -0.14301382104E+02  0.18726246297E+02  0.00000000000E+00 0.  1.
         11    1    3    3    0    0  0.36071518522E+00  0.10196348876E+02  0.66489129802E+01  0.12178000243E+02  0.51100000000E-03 0. -1.
        -11    1    3    3    0    0 -0.49287615953E+01  0.46998422095E+01 -0.21351801603E+02  0.22411618407E+02  0.51100000000E-03 0.  1.
         12    1    3    3    0    0  0.16202253091E+02 -0.18180700971E+02  0.29004270727E+02  0.37872135053E+02  0.00000000000E+00 0. -1.
</event>
<event>
 7    1  0.2700104E-013  0.7246121E+02  0.7816164E-02  0.1226709E+00
        -11   -1    0    0    0    0  0.00000000000E+00  0.00000000000E+00  0.45593999997E+02  0.45594000000E+02  0.51100000000E-03 0.  1.
         11   -1    0    0    0    0 -0.00000000000E+00 -0.00000000000E+00 -0.45593999997E+02  0.45594000000E+02  0.51100000000E-03 0. -1.
    9900012    2    1    2    0    0 -0.82524681368E+01 -0.11492340993E+02 -0.12268476730E+02  0.72461210283E+02  0.69999531016E+02 0.  0.
        -12    1    1    2    0    0  0.82524681368E+01  0.11492340993E+02  0.12268476730E+02  0.18726789717E+02  0.00000000000E+00 0.  1.
         11    1    3    3    0    0 -0.11173727667E+02 -0.28824488182E+02 -0.15290333972E+02  0.34489094250E+02  0.51100000000E-03 0. -1.
        -11    1    3    3    0    0 -0.32107294888E+01 -0.58537730727E+01  0.10853594859E+02  0.12742682789E+02  0.51100000000E-03 0.  1.
        -12    1    3    3    0    0  0.61319890192E+01  0.23185920262E+02 -0.78317376164E+01  0.25229433244E+02  0.00000000000E+00 0.  1.
</event>
<event>
 7    1  0.2700104E-013  0.7246158E+02  0.7816164E-02  0.1226708E+00
        -11   -1    0    0    0    0  0.00000000000E+00  0.00000000000E+00  0.45593999997E+02  0.45594000000E+02  0.51100000000E-03 0.  1.
         11   -1    0    0    0    0 -0.00000000000E+00 -0.00000000000E+00 -0.45593999997E+02  0.45594000000E+02  0.51100000000E-03 0. -1.
    9900012    2    1    2    0    0  0.33760651785E+01 -0.18275842463E+02 -0.22966369716E+01  0.72461580822E+02  0.70000013715E+02 0.  0.
        -12    1    1    2    0    0 -0.33760651785E+01  0.18275842463E+02  0.22966369716E+01  0.18726419178E+02  0.00000000000E+00 0.  1.
         11    1    3    3    0    0  0.10659019034E+02  0.11459301774E+02 -0.18580578136E+02  0.24293377041E+02  0.51100000000E-03 0. -1.
        -11    1    3    3    0    0 -0.55632231795E+01  0.67701421210E+01  0.25383085354E+01  0.91228990440E+01  0.51100000000E-03 0.  1.
        -12    1    3    3    0    0 -0.17197306756E+01 -0.36505286358E+02  0.13745632629E+02  0.39045304738E+02  0.00000000000E+00 0.  1.
</event>
<event>
 7    1  0.2700104E-013  0.7246157E+02  0.7816164E-02  0.1226708E+00
        -11   -1    0    0    0    0  0.00000000000E+00  0.00000000000E+00  0.45593999997E+02  0.45594000000E+02  0.51100000000E-03 0. -1.
         11   -1    0    0    0    0 -0.00000000000E+00 -0.00000000000E+00 -0.45593999997E+02  0.45594000000E+02  0.51100000000E-03 0.  1.
    9900012    2    1    2    0    0 -0.71366646145E+01  0.17109812022E+02  0.26460330145E+01  0.72461571083E+02  0.70000001028E+02 0.  0.
        -12    1    1    2    0    0  0.71366646145E+01 -0.17109812022E+02 -0.26460330145E+01  0.18726428917E+02  0.00000000000E+00 0.  1.
         11    1    3    3    0    0  0.10091370715E+02  0.17230840382E+02 -0.31375808421E+01  0.20213412304E+02  0.51100000000E-03 0. -1.
        -11    1    3    3    0    0 -0.12023937916E+02  0.23743878828E+02 -0.17908000476E+01  0.26674966352E+02  0.51100000000E-03 0.  1.
         12    1    3    3    0    0 -0.52040974131E+01 -0.23864907187E+02  0.75744139041E+01  0.25573192428E+02  0.00000000000E+00 0. -1.
</event>
<event>
 7    1  0.2700104E-013  0.7246154E+02  0.7816164E-02  0.1226708E+00
        -11   -1    0    0    0    0  0.00000000000E+00  0.00000000000E+00  0.45593999997E+02  0.45594000000E+02  0.51100000000E-03 0. -1.
         11   -1    0    0    0    0 -0.00000000000E+00 -0.00000000000E+00 -0.45593999997E+02  0.45594000000E+02  0.51100000000E-03 0.  1.
    9900012    2    1    2    0    0  0.36643828835E+01 -0.13788278762E+01  0.18312598513E+02  0.72461544582E+02  0.69999966504E+02 0.  0.
        -12    1    1    2    0    0 -0.36643828835E+01  0.13788278762E+01 -0.18312598513E+02  0.18726455418E+02  0.00000000000E+00 0.  1.
         11    1    3    3    0    0 -0.14654519884E+02 -0.13902682294E+02  0.37993286621E+01  0.20554182702E+02  0.51100000000E-03 0. -1.
        -11    1    3    3    0    0 -0.85798552158E+00 -0.15393114687E+02  0.81750885950E+01  0.17450392337E+02  0.51100000000E-03 0.  1.
        -12    1    3    3    0    0  0.19176888289E+02  0.27916969105E+02  0.63381812561E+01  0.34456969543E+02  0.00000000000E+00 0.  1.
</event>
<event>
 7    1  0.2700104E-013  0.7246162E+02  0.7816164E-02  0.1226708E+00
        -11   -1    0    0    0    0  0.00000000000E+00  0.00000000000E+00  0.45593999997E+02  0.45594000000E+02  0.51100000000E-03 0.  1.
         11   -1    0    0    0    0 -0.00000000000E+00 -0.00000000000E+00 -0.45593999997E+02  0.45594000000E+02  0.51100000000E-03 0. -1.
    9900012    2    1    2    0    0  0.96300670588E+01  0.73513890054E+01 -0.14279224408E+02  0.72461618568E+02  0.70000062885E+02 0.  0.
        -12    1    1    2    0    0 -0.96300670588E+01 -0.73513890054E+01  0.14279224408E+02  0.18726381432E+02  0.00000000000E+00 0.  1.
         11    1    3    3    0    0  0.19979543883E+02 -0.10990772979E+02 -0.59275430205E+01  0.23560879249E+02  0.51100000000E-03 0. -1.
        -11    1    3    3    0    0  0.16472512882E+02  0.11372078105E+02 -0.21404987947E+00  0.20017833516E+02  0.51100000000E-03 0.  1.
         12    1    3    3    0    0 -0.26821989706E+02  0.69700838795E+01 -0.81376315076E+01  0.28882905803E+02  0.00000000000E+00 0. -1.
</event>
<event>
 7    1  0.2700104E-013  0.7246150E+02  0.7816164E-02  0.1226708E+00
        -11   -1    0    0    0    0  0.00000000000E+00  0.00000000000E+00  0.45593999997E+02  0.45594000000E+02  0.51100000000E-03 0.  1.
         11   -1    0    0    0    0 -0.00000000000E+00 -0.00000000000E+00 -0.45593999997E+02  0.45594000000E+02  0.51100000000E-03 0. -1.
    9900012    2    1    2    0    0 -0.15221312488E+02  0.30703110771E+01 -0.10467407439E+02  0.72461500529E+02  0.69999909117E+02 0.  0.
        -12    1    1    2    0    0  0.15221312488E+02 -0.30703110771E+01  0.10467407439E+02  0.18726499471E+02  0.00000000000E+00 0.  1.
         11    1    3    3    0    0 -0.25792794957E+02 -0.80698066135E+01 -0.85513031811E+00  0.27039254771E+02  0.51100000000E-03 0. -1.
        -11    1    3    3    0    0 -0.14533730567E+02 -0.48987538855E+00  0.32652545552E+01  0.14904066213E+02  0.51100000000E-03 0.  1.
         12    1    3    3    0    0  0.25105213037E+02  0.11629993079E+02 -0.12877531676E+02  0.30518179545E+02  0.00000000000E+00 0. -1.
</event>
<event>
 7    1  0.2700104E-013  0.7246158E+02  0.7816164E-02  0.1226708E+00
        -11   -1    0    0    0    0  0.00000000000E+00  0.00000000000E+00  0.45593999997E+02  0.45594000000E+02  0.51100000000E-03 0. -1.
         11   -1    0    0    0    0 -0.00000000000E+00 -0.00000000000E+00 -0.45593999997E+02  0.45594000000E+02  0.51100000000E-03 0.  1.
    9900012    2    1    2    0    0  0.16167304443E+02  0.49723564643E+01  0.80357214811E+01  0.72461577985E+02  0.70000010019E+02 0.  0.
        -12    1    1    2    0    0 -0.16167304443E+02 -0.49723564643E+01 -0.80357214811E+01  0.18726422015E+02  0.00000000000E+00 0.  1.
         11    1    3    3    0    0 -0.14250582968E+02 -0.80771119575E+01 -0.10616483927E+02  0.19519953476E+02  0.51100000000E-03 0. -1.
        -11    1    3    3    0    0 -0.48501981419E+01  0.12164552971E+02  0.10367152841E+02  0.16702653361E+02  0.51100000000E-03 0.  1.
         12    1    3    3    0    0  0.35268085552E+02  0.88491545069E+00  0.82850525670E+01  0.36238971148E+02  0.00000000000E+00 0. -1.
</event>
<event>
 7    1  0.2700104E-013  0.7246156E+02  0.7816164E-02  0.1226708E+00
        -11   -1    0    0    0    0  0.00000000000E+00  0.00000000000E+00  0.45593999997E+02  0.45594000000E+02  0.51100000000E-03 0.  1.
         11   -1    0    0    0    0 -0.00000000000E+00 -0.00000000000E+00 -0.45593999997E+02  0.45594000000E+02  0.51100000000E-03 0. -1.
    9900012    2    1    2    0    0  0.62146923947E+01 -0.43942826169E+00 -0.17659669793E+02  0.72461563180E+02  0.69999990733E+02 0.  0.
        -12    1    1    2    0    0 -0.62146923947E+01  0.43942826169E+00  0.17659669793E+02  0.18726436820E+02  0.00000000000E+00 0.  1.
         11    1    3    3    0    0  0.10051791617E+02 -0.64769649416E+01 -0.56613013826E+01  0.13230265424E+02  0.51100000000E-03 0. -1.
        -11    1    3    3    0    0 -0.27178430472E+02  0.32337786671E+01  0.78393768003E+01  0.28470690829E+02  0.51100000000E-03 0.  1.
         12    1    3    3    0    0  0.23341331250E+02  0.28037580128E+01 -0.19837745211E+02  0.30760606928E+02  0.00000000000E+00 0. -1.
</event>
<event>
 7    1  0.2700104E-013  0.7246161E+02  0.7816164E-02  0.1226708E+00
        -11   -1    0    0    0    0  0.00000000000E+00  0.00000000000E+00  0.45593999997E+02  0.45594000000E+02  0.51100000000E-03 0. -1.
         11   -1    0    0    0    0 -0.00000000000E+00 -0.00000000000E+00 -0.45593999997E+02  0.45594000000E+02  0.51100000000E-03 0.  1.
    9900012    2    1    2    0    0  0.78881433573E+01  0.13973394210E+02 -0.96539645569E+01  0.72461612654E+02  0.70000055181E+02 0.  0.
        -12    1    1    2    0    0 -0.78881433573E+01 -0.13973394210E+02  0.96539645569E+01  0.18726387346E+02  0.00000000000E+00 0.  1.
         11    1    3    3    0    0  0.15744491909E+02  0.61906709424E+01  0.86486887307E+01  0.19000348660E+02  0.51100000000E-03 0. -1.
        -11    1    3    3    0    0 -0.17701611999E+02  0.14038610494E+02  0.85720710946E+01  0.24164230902E+02  0.51100000000E-03 0.  1.
        -12    1    3    3    0    0  0.98452634480E+01 -0.62558872272E+01 -0.26874724382E+02  0.29297033092E+02  0.00000000000E+00 0.  1.
</event>
<event>
 7    1  0.2700104E-013  0.7246155E+02  0.7816164E-02  0.1226708E+00
        -11   -1    0    0    0    0  0.00000000000E+00  0.00000000000E+00  0.45593999997E+02  0.45594000000E+02  0.51100000000E-03 0. -1.
         11   -1    0    0    0    0 -0.00000000000E+00 -0.00000000000E+00 -0.45593999997E+02  0.45594000000E+02  0.51100000000E-03 0.  1.
    9900012    2    1    2    0    0 -0.51773978151E+00  0.11879352417E+02  0.14466962671E+02  0.72461546058E+02  0.69999968428E+02 0.  0.
        -12    1    1    2    0    0  0.51773978151E+00 -0.11879352417E+02 -0.14466962671E+02  0.18726453942E+02  0.00000000000E+00 0.  1.
         11    1    3    3    0    0  0.27026148079E+01 -0.13321502048E+02  0.33924238257E+01  0.14009820959E+02  0.51100000000E-03 0. -1.
        -11    1    3    3    0    0 -0.25728316083E+02  0.59711801380E+01  0.11590451964E+02  0.28843366962E+02  0.51100000000E-03 0.  1.
        -12    1    3    3    0    0  0.22507961493E+02  0.19229674327E+02 -0.51591311952E+00  0.29608358138E+02  0.00000000000E+00 0.  1.
</event>
<event>
 7    1  0.2700104E-013  0.7246183E+02  0.7816164E-02  0.1226707E+00
        -11   -1    0    0    0    0  0.00000000000E+00  0.00000000000E+00  0.45593999997E+02  0.45594000000E+02  0.51100000000E-03 0.  1.
         11   -1    0    0    0    0 -0.00000000000E+00 -0.00000000000E+00 -0.45593999997E+02  0.45594000000E+02  0.51100000000E-03 0. -1.
    9900012    2    1    2    0    0 -0.90884817474E+01 -0.11183617212E+01 -0.16334574166E+02  0.72461827231E+02  0.70000334706E+02 0.  0.
        -12    1    1    2    0    0  0.90884817474E+01  0.11183617212E+01  0.16334574166E+02  0.18726172769E+02  0.00000000000E+00 0.  1.
         11    1    3    3    0    0 -0.23333564798E+02 -0.21953770328E+01 -0.35358622648E+02  0.42420597855E+02  0.51100000000E-03 0. -1.
        -11    1    3    3    0    0  0.77785107948E+01  0.97156294776E+01  0.10695414972E+02  0.16410075808E+02  0.51100000000E-03 0.  1.
        -12    1    3    3    0    0  0.64665722560E+01 -0.86386141660E+01  0.83286335104E+01  0.13631153568E+02  0.00000000000E+00 0.  1.
</event>
<event>
 7    1  0.2700104E-013  0.7246193E+02  0.7816164E-02  0.1226707E+00
        -11   -1    0    0    0    0  0.00000000000E+00  0.00000000000E+00  0.45593999997E+02  0.45594000000E+02  0.51100000000E-03 0.  1.
         11   -1    0    0    0    0 -0.00000000000E+00 -0.00000000000E+00 -0.45593999997E+02  0.45594000000E+02  0.51100000000E-03 0. -1.
    9900012    2    1    2    0    0  0.17382568962E+02 -0.62735988237E+01 -0.30255603301E+01  0.72461928303E+02  0.70000466371E+02 0.  0.
        -12    1    1    2    0    0 -0.17382568962E+02  0.62735988237E+01  0.30255603301E+01  0.18726071697E+02  0.00000000000E+00 0.  1.
         11    1    3    3    0    0 -0.24392231705E+01  0.19777960251E+02  0.98222231804E+01  0.22216966261E+02  0.51100000000E-03 0. -1.
        -11    1    3    3    0    0  0.36982327461E+00  0.46696852910E+01  0.73005834333E+01  0.86741713552E+01  0.51100000000E-03 0.  1.
        -12    1    3    3    0    0  0.19451968857E+02 -0.30721244366E+02 -0.20148366944E+02  0.41570790687E+02  0.00000000000E+00 0.  1.
</event>
<event>
 7    1  0.2700104E-013  0.7246137E+02  0.7816164E-02  0.1226709E+00
        -11   -1    0    0    0    0  0.00000000000E+00  0.00000000000E+00  0.45593999997E+02  0.45594000000E+02  0.51100000000E-03 0.  1.
         11   -1    0    0    0    0 -0.00000000000E+00 -0.00000000000E+00 -0.45593999997E+02  0.45594000000E+02  0.51100000000E-03 0. -1.
    9900012    2    1    2    0    0  0.18531418878E+02 -0.69732034209E+00  0.26051556536E+01  0.72461372507E+02  0.69999742344E+02 0.  0.
        -12    1    1    2    0    0 -0.18531418878E+02  0.69732034209E+00 -0.26051556536E+01  0.18726627493E+02  0.00000000000E+00 0.  1.
         11    1    3    3    0    0  0.11693372815E+02  0.74541156530E+00  0.98038625888E+01  0.15277641445E+02  0.51100000000E-03 0. -1.
        -11    1    3    3    0    0  0.30032764934E+02 -0.27000659010E+01 -0.13614941392E+02  0.33085101705E+02  0.51100000000E-03 0.  1.
         12    1    3    3    0    0 -0.23194718871E+02  0.12573339936E+01  0.64162344567E+01  0.24098629357E+02  0.00000000000E+00 0. -1.
</event>
<event>
 7    1  0.3453411E-013  0.7246162E+02  0.7816164E-02  0.1226708E+00
        -11   -1    0    0    0    0  0.00000000000E+00  0.00000000000E+00  0.45593999997E+02  0.45594000000E+02  0.51100000000E-03 0. -1.
         11   -1    0    0    0    0 -0.00000000000E+00 -0.00000000000E+00 -0.45593999997E+02  0.45594000000E+02  0.51100000000E-03 0.  1.
    9900012    2    1    2    0    0 -0.10479951063E+02  0.13268479568E+02  0.80495529863E+01  0.72461622144E+02  0.70000067544E+02 0.  0.
        -12    1    1    2    0    0  0.10479951063E+02 -0.13268479568E+02 -0.80495529863E+01  0.18726377856E+02  0.00000000000E+00 0.  1.
         11    1    3    3    0    0 -0.24538043486E+02  0.19045703039E+02  0.30693203781E+01  0.31213380307E+02  0.51100000000E-03 0. -1.
        -11    1    3    3    0    0  0.53507230938E+01  0.13385298652E+02 -0.80329484661E+01  0.16502264055E+02  0.51100000000E-03 0.  1.
        -12    1    3    3    0    0  0.87073693291E+01 -0.19162522123E+02  0.13013181074E+02  0.24745977783E+02  0.00000000000E+00 0.  1.
</event>
<event>
 7    1  0.2700104E-013  0.7246157E+02  0.7816164E-02  0.1226708E+00
        -11   -1    0    0    0    0  0.00000000000E+00  0.00000000000E+00  0.45593999997E+02  0.45594000000E+02  0.51100000000E-03 0. -1.
         11   -1    0    0    0    0 -0.00000000000E+00 -0.00000000000E+00 -0.45593999997E+02  0.45594000000E+02  0.51100000000E-03 0.  1.
    9900012    2    1    2    0    0  0.61603496233E+00 -0.16318385931E+02  0.91656929188E+01  0.72461570946E+02  0.70000000848E+02 0.  0.
        -12    1    1    2    0    0 -0.61603496233E+00  0.16318385931E+02 -0.91656929188E+01  0.18726429054E+02  0.00000000000E+00 0.  1.
         11    1    3    3    0    0 -0.14253205849E+01 -0.25471447908E+02  0.25281489020E+02  0.35916289962E+02  0.51100000000E-03 0. -1.
        -11    1    3    3    0    0 -0.14006585917E+02 -0.55769031279E+00 -0.61882391986E+01  0.15322851307E+02  0.51100000000E-03 0.  1.
        -12    1    3    3    0    0  0.16047941465E+02  0.97107522905E+01 -0.99275569025E+01  0.21222429676E+02  0.00000000000E+00 0.  1.
</event>
<event>
 7    1  0.2700104E-013  0.7246156E+02  0.7816164E-02  0.1226708E+00
        -11   -1    0    0    0    0  0.00000000000E+00  0.00000000000E+00  0.45593999997E+02  0.45594000000E+02  0.51100000000E-03 0. -1.
         11   -1    0    0    0    0 -0.00000000000E+00 -0.00000000000E+00 -0.45593999997E+02  0.45594000000E+02  0.51100000000E-03 0.  1.
    9900012    2    1    2    0    0  0.37694090964E+01 -0.16647918137E+02 -0.77018142304E+01  0.72461559717E+02  0.69999986221E+02 0.  0.
        -12    1    1    2    0    0 -0.37694090964E+01  0.16647918137E+02  0.77018142304E+01  0.18726440283E+02  0.00000000000E+00 0.  1.
         11    1    3    3    0    0 -0.99594728685E+01 -0.25709450228E+02  0.10883141248E+02  0.29641351092E+02  0.51100000000E-03 0. -1.
        -11    1    3    3    0    0 -0.89247156082E+00 -0.51060017582E+01  0.78788709786E+01  0.94310321598E+01  0.51100000000E-03 0.  1.
        -12    1    3    3    0    0  0.14621353526E+02  0.14167533849E+02 -0.26463826457E+02  0.33389176465E+02  0.00000000000E+00 0.  1.
</event>
<event>
 7    1  0.2700104E-013  0.7246158E+02  0.7816164E-02  0.1226708E+00
        -11   -1    0    0    0    0  0.00000000000E+00  0.00000000000E+00  0.45593999997E+02  0.45594000000E+02  0.51100000000E-03 0.  1.
         11   -1    0    0    0    0 -0.00000000000E+00 -0.00000000000E+00 -0.45593999997E+02  0.45594000000E+02  0.51100000000E-03 0. -1.
    9900012    2    1    2    0    0  0.21965071761E+01  0.17095947658E+02 -0.73200270270E+01  0.72461578404E+02  0.70000010565E+02 0.  0.
        -12    1    1    2    0    0 -0.21965071761E+01 -0.17095947658E+02  0.73200270270E+01  0.18726421596E+02  0.00000000000E+00 0.  1.
         11    1    3    3    0    0 -0.76724369352E+01  0.83663248684E+01 -0.78714621765E+01  0.13813819073E+02  0.51100000000E-03 0. -1.
        -11    1    3    3    0    0 -0.11360988488E+02  0.24104614891E+02  0.12976544108E+02  0.29639419963E+02  0.51100000000E-03 0.  1.
        -12    1    3    3    0    0  0.21229932599E+02 -0.15374992102E+02 -0.12425108959E+02  0.29008339369E+02  0.00000000000E+00 0.  1.
</event>
<event>
 7    1  0.2700104E-013  0.7246160E+02  0.7816164E-02  0.1226708E+00
        -11   -1    0    0    0    0  0.00000000000E+00  0.00000000000E+00  0.45593999997E+02  0.45594000000E+02  0.51100000000E-03 0. -1.
         11   -1    0    0    0    0 -0.00000000000E+00 -0.00000000000E+00 -0.45593999997E+02  0.45594000000E+02  0.51100000000E-03 0.  1.
    9900012    2    1    2    0    0 -0.72147694807E+01  0.15592665696E+02 -0.74494184568E+01  0.72461602656E+02  0.70000042157E+02 0.  0.
        -12    1    1    2    0    0  0.72147694807E+01 -0.15592665696E+02  0.74494184568E+01  0.18726397344E+02  0.00000000000E+00 0.  1.
         11    1    3    3    0    0 -0.14493656101E+02  0.69810664945E+01 -0.11560163177E+02  0.19810066369E+02  0.51100000000E-03 0. -1.
        -11    1    3    3    0    0 -0.15501938278E+02 -0.13633215198E+02  0.20257997526E+01  0.20743155785E+02  0.51100000000E-03 0.  1.
         12    1    3    3    0    0  0.22780824899E+02  0.22244814399E+02  0.20849449679E+01  0.31908380502E+02  0.00000000000E+00 0. -1.
</event>
<event>
 7    1  0.2700104E-013  0.7246154E+02  0.7816164E-02  0.1226708E+00
        -11   -1    0    0    0    0  0.00000000000E+00  0.00000000000E+00  0.45593999997E+02  0.45594000000E+02  0.51100000000E-03 0. -1.
         11   -1    0    0    0    0 -0.00000000000E+00 -0.00000000000E+00 -0.45593999997E+02  0.45594000000E+02  0.51100000000E-03 0.  1.
    9900012    2    1    2    0    0 -0.40623379085E+01 -0.92386686210E+01  0.15774173061E+02  0.72461544838E+02  0.69999966838E+02 0.  0.
        -12    1    1    2    0    0  0.40623379085E+01  0.92386686210E+01 -0.15774173061E+02  0.18726455162E+02  0.00000000000E+00 0.  1.
         11    1    3    3    0    0  0.50339886776E+01  0.11202845492E+02 -0.27819266826E+01  0.12593010183E+02  0.51100000000E-03 0. -1.
        -11    1    3    3    0    0 -0.11942809420E+02  0.10625360662E+02 -0.89125335859E+01  0.18301973698E+02  0.51100000000E-03 0.  1.
         12    1    3    3    0    0  0.28464828340E+01 -0.31066874775E+02  0.27468633330E+02  0.41566560958E+02  0.00000000000E+00 0. -1.
</event>
<event>
 7    1  0.2700104E-013  0.7246158E+02  0.7816164E-02  0.1226708E+00
        -11   -1    0    0    0    0  0.00000000000E+00  0.00000000000E+00  0.45593999997E+02  0.45594000000E+02  0.51100000000E-03 0. -1.
         11   -1    0    0    0    0 -0.00000000000E+00 -0.00000000000E+00 -0.45593999997E+02  0.45594000000E+02  0.51100000000E-03 0.  1.
    9900012    2    1    2    0    0 -0.14625995352E+02 -0.86800183097E+01  0.78368506162E+01  0.72461583218E+02  0.70000016836E+02 0.  0.
        -12    1    1    2    0    0  0.14625995352E+02  0.86800183097E+01 -0.78368506162E+01  0.18726416782E+02  0.00000000000E+00 0.  1.
         11    1    3    3    0    0 -0.64280351251E+01 -0.82478476315E+01 -0.14751504244E+02  0.18081855653E+02  0.51100000000E-03 0. -1.
        -11    1    3    3    0    0 -0.18575472259E+02  0.58929763491E+00 -0.93342189566E+01  0.20797189357E+02  0.51100000000E-03 0.  1.
         12    1    3    3    0    0  0.10377512032E+02 -0.10214683131E+01  0.31922573817E+02  0.33582538209E+02  0.00000000000E+00 0. -1.
</event>
<event>
 7    1  0.2700104E-013  0.7246174E+02  0.7816164E-02  0.1226708E+00
        -11   -1    0    0    0    0  0.00000000000E+00  0.00000000000E+00  0.45593999997E+02  0.45594000000E+02  0.51100000000E-03 0.  1.
         11   -1    0    0    0    0 -0.00000000000E+00 -0.00000000000E+00 -0.45593999997E+02  0.45594000000E+02  0.51100000000E-03 0. -1.
    9900012    2    1    2    0    0  0.13584687583E+02  0.12667714839E+02 -0.23786866425E+01  0.72461738064E+02  0.70000218551E+02 0.  0.
        -12    1    1    2    0    0 -0.13584687583E+02 -0.12667714839E+02  0.23786866425E+01  0.18726261936E+02  0.00000000000E+00 0.  1.
         11    1    3    3    0    0 -0.35335278150E+00 -0.18204821876E+01 -0.80422320474E+01  0.82532726932E+01  0.51100000000E-03 0. -1.
        -11    1    3    3    0    0  0.76775046325E+01 -0.23211456720E+02  0.85092064338E+01  0.25886722366E+02  0.51100000000E-03 0.  1.
         12    1    3    3    0    0  0.62605357316E+01  0.37699653746E+02 -0.28456610289E+01  0.38321743005E+02  0.00000000000E+00 0. -1.
</event>
<event>
 7    1  0.2700104E-013  0.7246153E+02  0.7816164E-02  0.1226708E+00
        -11   -1    0    0    0    0  0.00000000000E+00  0.00000000000E+00  0.45593999997E+02  0.45594000000E+02  0.51100000000E-03 0. -1.
         11   -1    0    0    0    0 -0.00000000000E+00 -0.00000000000E+00 -0.45593999997E+02  0.45594000000E+02  0.51100000000E-03 0.  1.
    9900012    2    1    2    0    0 -0.10453565369E+02 -0.71743905284E+00  0.15520593853E+02  0.72461532601E+02  0.69999950897E+02 0.  0.
        -12    1    1    2    0    0  0.10453565369E+02  0.71743905284E+00 -0.15520593853E+02  0.18726467399E+02  0.00000000000E+00 0.  1.
         11    1    3    3    0    0 -0.17780492231E+02  0.17895143204E+02  0.41243711876E+00  0.25229985313E+02  0.51100000000E-03 0. -1.
        -11    1    3    3    0    0  0.48822083300E+01 -0.17390465412E+02 -0.10889006637E+02  0.21091105026E+02  0.51100000000E-03 0.  1.
         12    1    3    3    0    0  0.24447185327E+01 -0.12221168443E+01  0.25997163371E+02  0.26140442261E+02  0.00000000000E+00 0. -1.
</event>
<event>
 7    1  0.2700104E-013  0.7246153E+02  0.7816164E-02  0.1226708E+00
        -11   -1    0    0    0    0  0.00000000000E+00  0.00000000000E+00  0.45593999997E+02  0.45594000000E+02  0.51100000000E-03 0. -1.
         11   -1    0    0    0    0 -0.00000000000E+00 -0.00000000000E+00 -0.45593999997E+02  0.45594000000E+02  0.51100000000E-03 0.  1.
    9900012    2    1    2    0    0 -0.40049664470E+01 -0.48078326160E+01  0.17650094314E+02  0.72461525692E+02  0.69999941897E+02 0.  0.
        -12    1    1    2    0    0  0.40049664470E+01  0.48078326160E+01 -0.17650094314E+02  0.18726474308E+02  0.00000000000E+00 0.  1.
         11    1    3    3    0    0  0.12476789931E+02  0.46507777054E+01  0.65374804386E+01  0.14833700516E+02  0.51100000000E-03 0. -1.
        -11    1    3    3    0    0  0.22786369907E+00 -0.20836380259E+02  0.25414381788E+02  0.32864836316E+02  0.51100000000E-03 0.  1.
         12    1    3    3    0    0 -0.16709620077E+02  0.11377769938E+02 -0.14301767912E+02  0.24762988860E+02  0.00000000000E+00 0. -1.
</event>
<event>
 7    1  0.2700104E-013  0.7246162E+02  0.7816164E-02  0.1226708E+00
        -11   -1    0    0    0    0  0.00000000000E+00  0.00000000000E+00  0.45593999997E+02  0.45594000000E+02  0.51100000000E-03 0.  1.
         11   -1    0    0    0    0 -0.00000000000E+00 -0.00000000000E+00 -0.45593999997E+02  0.45594000000E+02  0.51100000000E-03 0. -1.
    9900012    2    1    2    0    0 -0.12485283461E+02  0.10780960329E+02 -0.88637396408E+01  0.72461620501E+02  0.70000065404E+02 0.  0.
        -12    1    1    2    0    0  0.12485283461E+02 -0.10780960329E+02  0.88637396408E+01  0.18726379499E+02  0.00000000000E+00 0.  1.
         11    1    3    3    0    0 -0.18714246171E+02 -0.59251849450E+01 -0.12391631258E+01  0.19668918422E+02  0.51100000000E-03 0. -1.
        -11    1    3    3    0    0  0.45536248043E+01 -0.14598889795E+02  0.85455671713E+01  0.17518270481E+02  0.51100000000E-03 0.  1.
        -12    1    3    3    0    0  0.16753379051E+01  0.31305035069E+02 -0.16170143686E+02  0.35274431598E+02  0.00000000000E+00 0.  1.
</event>
<event>
 7    1  0.2700104E-013  0.7246176E+02  0.7816164E-02  0.1226708E+00
        -11   -1    0    0    0    0  0.00000000000E+00  0.00000000000E+00  0.45593999997E+02  0.45594000000E+02  0.51100000000E-03 0.  1.
         11   -1    0    0    0    0 -0.00000000000E+00 -0.00000000000E+00 -0.45593999997E+02  0.45594000000E+02  0.51100000000E-03 0. -1.
    9900012    2    1    2    0    0  0.13209404395E+02  0.94832687288E+01  0.92871585673E+01  0.72461760001E+02  0.70000247128E+02 0.  0.
        -12    1    1    2    0    0 -0.13209404395E+02 -0.94832687288E+01 -0.92871585673E+01  0.18726239999E+02  0.00000000000E+00 0.  1.
         11    1    3    3    0    0  0.27000501553E+01  0.10158449618E+02 -0.89707901212E+01  0.13818807660E+02  0.51100000000E-03 0. -1.
        -11    1    3    3    0    0 -0.47650324763E+00 -0.28583112327E+01 -0.19266152154E+02  0.19482854450E+02  0.51100000000E-03 0.  1.
        -12    1    3    3    0    0  0.10985857487E+02  0.21831303439E+01  0.37524100842E+02  0.39160097891E+02  0.00000000000E+00 0.  1.
</event>
<event>
 7    1  0.2700104E-013  0.7246169E+02  0.7816164E-02  0.1226708E+00
        -11   -1    0    0    0    0  0.00000000000E+00  0.00000000000E+00  0.45593999997E+02  0.45594000000E+02  0.51100000000E-03 0.  1.
         11   -1    0    0    0    0 -0.00000000000E+00 -0.00000000000E+00 -0.45593999997E+02  0.45594000000E+02  0.51100000000E-03 0. -1.
    9900012    2    1    2    0    0 -0.17645412096E+02  0.59916836635E+01  0.18476255985E+01  0.72461693329E+02  0.70000160276E+02 0.  0.
        -12    1    1    2    0    0  0.17645412096E+02 -0.59916836635E+01 -0.18476255985E+01  0.18726306671E+02  0.00000000000E+00 0.  1.
         11    1    3    3    0    0  0.48127696843E+01  0.83511599052E+00  0.75936858934E+01  0.90290772762E+01  0.51100000000E-03 0. -1.
        -11    1    3    3    0    0 -0.55086524155E+00  0.17062358446E+02  0.20869685261E+02  0.26962405149E+02  0.51100000000E-03 0.  1.
         12    1    3    3    0    0 -0.21907316539E+02 -0.11905790773E+02 -0.26615745556E+02  0.36470210904E+02  0.00000000000E+00 0. -1.
</event>
<event>
 7    1  0.2700104E-013  0.7246159E+02  0.7816164E-02  0.1226708E+00
        -11   -1    0    0    0    0  0.00000000000E+00  0.00000000000E+00  0.45593999997E+02  0.45594000000E+02  0.51100000000E-03 0.  1.
         11   -1    0    0    0    0 -0.00000000000E+00 -0.00000000000E+00 -0.45593999997E+02  0.45594000000E+02  0.51100000000E-03 0. -1.
    9900012    2    1    2    0    0  0.14602950707E+02 -0.87889450723E+01  0.77580205803E+01  0.72461585283E+02  0.70000019525E+02 0.  0.
        -12    1    1    2    0    0 -0.14602950707E+02  0.87889450723E+01 -0.77580205803E+01  0.18726414717E+02  0.00000000000E+00 0.  1.
         11    1    3    3    0    0  0.23170943705E+01 -0.19047590560E+02  0.34107757316E+01  0.19488792261E+02  0.51100000000E-03 0. -1.
        -11    1    3    3    0    0 -0.12728433962E+02 -0.11148925335E+02 -0.67664388802E+01  0.18223508516E+02  0.51100000000E-03 0.  1.
         12    1    3    3    0    0  0.25014290298E+02  0.21407570822E+02  0.11113683729E+02  0.34749284506E+02  0.00000000000E+00 0. -1.
</event>
<event>
 7    1  0.2700104E-013  0.7246151E+02  0.7816164E-02  0.1226708E+00
        -11   -1    0    0    0    0  0.00000000000E+00  0.00000000000E+00  0.45593999997E+02  0.45594000000E+02  0.51100000000E-03 0.  1.
         11   -1    0    0    0    0 -0.00000000000E+00 -0.00000000000E+00 -0.45593999997E+02  0.45594000000E+02  0.51100000000E-03 0. -1.
    9900012    2    1    2    0    0 -0.27839605337E+01  0.13509347062E+02  0.12666037237E+02  0.72461510911E+02  0.69999922643E+02 0.  0.
        -12    1    1    2    0    0  0.27839605337E+01 -0.13509347062E+02 -0.12666037237E+02  0.18726489089E+02  0.00000000000E+00 0.  1.
         11    1    3    3    0    0  0.74669802035E+01  0.87475610117E+01 -0.19605206476E+01  0.11667015835E+02  0.51100000000E-03 0. -1.
        -11    1    3    3    0    0 -0.10368334637E+02 -0.16820568446E+02 -0.14524495572E+02  0.24523353317E+02  0.51100000000E-03 0.  1.
         12    1    3    3    0    0  0.11739390001E+00  0.21582354496E+02  0.29151053457E+02  0.36271141760E+02  0.00000000000E+00 0. -1.
</event>
<event>
 7    1  0.2700104E-013  0.7246157E+02  0.7816164E-02  0.1226708E+00
        -11   -1    0    0    0    0  0.00000000000E+00  0.00000000000E+00  0.45593999997E+02  0.45594000000E+02  0.51100000000E-03 0.  1.
         11   -1    0    0    0    0 -0.00000000000E+00 -0.00000000000E+00 -0.45593999997E+02  0.45594000000E+02  0.51100000000E-03 0. -1.
    9900012    2    1    2    0    0  0.16180463742E+02 -0.41338618485E+01 -0.84724896636E+01  0.72461566763E+02  0.69999995399E+02 0.  0.
        -12    1    1    2    0    0 -0.16180463742E+02  0.41338618485E+01  0.84724896636E+01  0.18726433237E+02  0.00000000000E+00 0.  1.
         11    1    3    3    0    0  0.10972058754E+02 -0.33075826331E+02 -0.18595104738E+02  0.39499041523E+02  0.51100000000E-03 0. -1.
        -11    1    3    3    0    0 -0.18331439850E+01  0.27938424733E+01 -0.12823764738E+01  0.35791706186E+01  0.51100000000E-03 0.  1.
        -12    1    3    3    0    0  0.70415489728E+01  0.26148122009E+02  0.11404991549E+02  0.29383354621E+02  0.00000000000E+00 0.  1.
</event>
<event>
 7    1  0.2700104E-013  0.7246160E+02  0.7816164E-02  0.1226708E+00
        -11   -1    0    0    0    0  0.00000000000E+00  0.00000000000E+00  0.45593999997E+02  0.45594000000E+02  0.51100000000E-03 0.  1.
         11   -1    0    0    0    0 -0.00000000000E+00 -0.00000000000E+00 -0.45593999997E+02  0.45594000000E+02  0.51100000000E-03 0. -1.
    9900012    2    1    2    0    0  0.23833078420E+01 -0.16370784021E+02 -0.87746878348E+01  0.72461604930E+02  0.70000045119E+02 0.  0.
        -12    1    1    2    0    0 -0.23833078420E+01  0.16370784021E+02  0.87746878348E+01  0.18726395070E+02  0.00000000000E+00 0.  1.
         11    1    3    3    0    0 -0.21673924888E+02 -0.12177244695E+02 -0.15307799179E+02  0.29195428142E+02  0.51100000000E-03 0. -1.
        -11    1    3    3    0    0 -0.78138077213E+00 -0.25886209363E+01  0.16303954076E+02  0.16526658254E+02  0.51100000000E-03 0.  1.
        -12    1    3    3    0    0  0.24838613502E+02 -0.16049183894E+01 -0.97708427317E+01  0.26739518534E+02  0.00000000000E+00 0.  1.
</event>
<event>
 7    1  0.2700104E-013  0.7246161E+02  0.7816164E-02  0.1226708E+00
        -11   -1    0    0    0    0  0.00000000000E+00  0.00000000000E+00  0.45593999997E+02  0.45594000000E+02  0.51100000000E-03 0. -1.
         11   -1    0    0    0    0 -0.00000000000E+00 -0.00000000000E+00 -0.45593999997E+02  0.45594000000E+02  0.51100000000E-03 0.  1.
    9900012    2    1    2    0    0  0.41037666803E+01  0.18190601307E+02 -0.17142651617E+01  0.72461612683E+02  0.70000055220E+02 0.  0.
        -12    1    1    2    0    0 -0.41037666803E+01 -0.18190601307E+02  0.17142651617E+01  0.18726387317E+02  0.00000000000E+00 0.  1.
         11    1    3    3    0    0  0.14975784481E+02 -0.12687263336E+02 -0.31259930396E+01  0.19874924013E+02  0.51100000000E-03 0. -1.
        -11    1    3    3    0    0  0.11998841953E+02  0.20992763029E+00  0.70471533120E+01  0.13916847627E+02  0.51100000000E-03 0.  1.
        -12    1    3    3    0    0 -0.22870859754E+02  0.30667937013E+02 -0.56354254340E+01  0.38669841043E+02  0.00000000000E+00 0.  1.
</event>
<event>
 7    1  0.2700104E-013  0.7246158E+02  0.7816164E-02  0.1226708E+00
        -11   -1    0    0    0    0  0.00000000000E+00  0.00000000000E+00  0.45593999997E+02  0.45594000000E+02  0.51100000000E-03 0. -1.
         11   -1    0    0    0    0 -0.00000000000E+00 -0.00000000000E+00 -0.45593999997E+02  0.45594000000E+02  0.51100000000E-03 0.  1.
    9900012    2    1    2    0    0 -0.18090869384E+02 -0.23418989580E+01  0.42325824143E+01  0.72461580169E+02  0.70000012863E+02 0.  0.
        -12    1    1    2    0    0  0.18090869384E+02  0.23418989580E+01 -0.42325824143E+01  0.18726419831E+02  0.00000000000E+00 0.  1.
         11    1    3    3    0    0 -0.12408002771E+02  0.48270695552E+01 -0.73338560778E+01  0.15200150607E+02  0.51100000000E-03 0. -1.
        -11    1    3    3    0    0 -0.23164394952E+02  0.15174926354E+02  0.49725843946E+01  0.28135283528E+02  0.51100000000E-03 0.  1.
         12    1    3    3    0    0  0.17481528339E+02 -0.22343894868E+02  0.65938540975E+01  0.29126146034E+02  0.00000000000E+00 0. -1.
</event>
<event>
 7    1  0.2700104E-013  0.7246156E+02  0.7816164E-02  0.1226708E+00
        -11   -1    0    0    0    0  0.00000000000E+00  0.00000000000E+00  0.45593999997E+02  0.45594000000E+02  0.51100000000E-03 0.  1.
         11   -1    0    0    0    0 -0.00000000000E+00 -0.00000000000E+00 -0.45593999997E+02  0.45594000000E+02  0.51100000000E-03 0. -1.
    9900012    2    1    2    0    0  0.68872793875E+01  0.16546251374E+02 -0.54283103394E+01  0.72461558666E+02  0.69999984852E+02 0.  0.
        -12    1    1    2    0    0 -0.68872793875E+01 -0.16546251374E+02  0.54283103394E+01  0.18726441334E+02  0.00000000000E+00 0.  1.
         11    1    3    3    0    0 -0.99870406430E+01 -0.87689642453E+01 -0.32067435580E+01  0.13671829404E+02  0.51100000000E-03 0. -1.
        -11    1    3    3    0    0  0.92361038037E+01 -0.73564977170E+01  0.16559615641E+02  0.20338253184E+02  0.51100000000E-03 0.  1.
         12    1    3    3    0    0  0.76382162267E+01  0.32671713336E+02 -0.18781182423E+02  0.38451476079E+02  0.00000000000E+00 0. -1.
</event>
<event>
 7    1  0.2700104E-013  0.7246145E+02  0.7816164E-02  0.1226708E+00
        -11   -1    0    0    0    0  0.00000000000E+00  0.00000000000E+00  0.45593999997E+02  0.45594000000E+02  0.51100000000E-03 0. -1.
         11   -1    0    0    0    0 -0.00000000000E+00 -0.00000000000E+00 -0.45593999997E+02  0.45594000000E+02  0.51100000000E-03 0.  1.
    9900012    2    1    2    0    0  0.12531033970E+01 -0.85818134320E+01  0.16597165581E+02  0.72461449457E+02  0.69999842587E+02 0.  0.
        -12    1    1    2    0    0 -0.12531033970E+01  0.85818134320E+01 -0.16597165581E+02  0.18726550543E+02  0.00000000000E+00 0.  1.
         11    1    3    3    0    0 -0.80482404502E+00 -0.33540077238E+02  0.30443704511E+01  0.33687575077E+02  0.51100000000E-03 0. -1.
        -11    1    3    3    0    0 -0.59775284924E+01  0.40202729778E+01  0.14644489463E+02  0.16320371123E+02  0.51100000000E-03 0.  1.
        -12    1    3    3    0    0  0.80354559345E+01  0.20937990828E+02 -0.10916943331E+01  0.22453503257E+02  0.00000000000E+00 0.  1.
</event>
<event>
 7    1  0.2700104E-013  0.7246151E+02  0.7816164E-02  0.1226708E+00
        -11   -1    0    0    0    0  0.00000000000E+00  0.00000000000E+00  0.45593999997E+02  0.45594000000E+02  0.51100000000E-03 0. -1.
         11   -1    0    0    0    0 -0.00000000000E+00 -0.00000000000E+00 -0.45593999997E+02  0.45594000000E+02  0.51100000000E-03 0.  1.
    9900012    2    1    2    0    0 -0.11234601655E+02  0.22359113125E+01  0.14814376216E+02  0.72461512972E+02  0.69999925327E+02 0.  0.
        -12    1    1    2    0    0  0.11234601655E+02 -0.22359113125E+01 -0.14814376216E+02  0.18726487028E+02  0.00000000000E+00 0.  1.
         11    1    3    3    0    0 -0.29910128704E+02  0.18686620560E+02  0.19679334593E+02  0.40386653704E+02  0.51100000000E-03 0. -1.
        -11    1    3    3    0    0  0.17675126612E+01  0.41806143338E+01 -0.27717448740E+01  0.53182898683E+01  0.51100000000E-03 0.  1.
        -12    1    3    3    0    0  0.16908014389E+02 -0.20631323582E+02 -0.20932135033E+01  0.26756569400E+02  0.00000000000E+00 0.  1.
</event>
<event>
 7    1  0.2700104E-013  0.7246155E+02  0.7816164E-02  0.1226708E+00
        -11   -1    0    0    0    0  0.00000000000E+00  0.00000000000E+00  0.45593999997E+02  0.45594000000E+02  0.51100000000E-03 0.  1.
         11   -1    0    0    0    0 -0.00000000000E+00 -0.00000000000E+00 -0.45593999997E+02  0.45594000000E+02  0.51100000000E-03 0. -1.
    9900012    2    1    2    0    0  0.14052947244E+02  0.40457913535E+01 -0.11697270033E+02  0.72461551321E+02  0.69999975283E+02 0.  0.
        -12    1    1    2    0    0 -0.14052947244E+02 -0.40457913535E+01  0.11697270033E+02  0.18726448679E+02  0.00000000000E+00 0.  1.
         11    1    3    3    0    0  0.24140759521E+02 -0.10127305950E+02 -0.83293755715E+01  0.27472114839E+02  0.51100000000E-03 0. -1.
        -11    1    3    3    0    0  0.97623295023E+01 -0.84259038811E+01  0.48993844760E+01  0.13795031788E+02  0.51100000000E-03 0.  1.
        -12    1    3    3    0    0 -0.19850141779E+02  0.22599001184E+02 -0.82672789377E+01  0.31194404694E+02  0.00000000000E+00 0.  1.
</event>
<event>
 7    1  0.2700104E-013  0.7246154E+02  0.7816164E-02  0.1226708E+00
        -11   -1    0    0    0    0  0.00000000000E+00  0.00000000000E+00  0.45593999997E+02  0.45594000000E+02  0.51100000000E-03 0.  1.
         11   -1    0    0    0    0 -0.00000000000E+00 -0.00000000000E+00 -0.45593999997E+02  0.45594000000E+02  0.51100000000E-03 0. -1.
    9900012    2    1    2    0    0 -0.18540057712E+02  0.21531575441E+01 -0.15200299651E+01  0.72461539617E+02  0.69999960037E+02 0.  0.
        -12    1    1    2    0    0  0.18540057712E+02 -0.21531575441E+01  0.15200299651E+01  0.18726460383E+02  0.00000000000E+00 0.  1.
         11    1    3    3    0    0 -0.26772719722E+02  0.95527050153E+01  0.82176682219E+01  0.29589909863E+02  0.51100000000E-03 0. -1.
        -11    1    3    3    0    0 -0.28174810835E+01 -0.18242291495E+02 -0.17603293177E+02  0.25506770270E+02  0.51100000000E-03 0.  1.
        -12    1    3    3    0    0  0.11050143093E+02  0.10842744024E+02  0.78655949904E+01  0.17364859484E+02  0.00000000000E+00 0.  1.
</event>
<event>
 7    1  0.2700104E-013  0.7246155E+02  0.7816164E-02  0.1226708E+00
        -11   -1    0    0    0    0  0.00000000000E+00  0.00000000000E+00  0.45593999997E+02  0.45594000000E+02  0.51100000000E-03 0.  1.
         11   -1    0    0    0    0 -0.00000000000E+00 -0.00000000000E+00 -0.45593999997E+02  0.45594000000E+02  0.51100000000E-03 0. -1.
    9900012    2    1    2    0    0 -0.77144372712E+00  0.37171546076E+01 -0.18337604201E+02  0.72461545673E+02  0.69999967927E+02 0.  0.
        -12    1    1    2    0    0  0.77144372712E+00 -0.37171546076E+01  0.18337604201E+02  0.18726454327E+02  0.00000000000E+00 0.  1.
         11    1    3    3    0    0 -0.16451411627E+02  0.11338660498E+02 -0.29460531608E+01  0.20196370860E+02  0.51100000000E-03 0.  1.
        -11    1    3    3    0    0  0.21599191402E+01  0.14471004294E+02  0.85901008825E+01  0.16966586263E+02  0.51100000000E-03 0. -1.
         12    1    3    3    0    0  0.13520048760E+02 -0.22092510185E+02 -0.23981651923E+02  0.35298588551E+02  0.00000000000E+00 0. -1.
</event>
<event>
 7    1  0.2700104E-013  0.7246155E+02  0.7816164E-02  0.1226708E+00
        -11   -1    0    0    0    0  0.00000000000E+00  0.00000000000E+00  0.45593999997E+02  0.45594000000E+02  0.51100000000E-03 0. -1.
         11   -1    0    0    0    0 -0.00000000000E+00 -0.00000000000E+00 -0.45593999997E+02  0.45594000000E+02  0.51100000000E-03 0.  1.
    9900012    2    1    2    0    0 -0.17948341522E+02 -0.23516157348E+01 -0.47965299379E+01  0.72461554544E+02  0.69999979483E+02 0.  0.
        -12    1    1    2    0    0  0.17948341522E+02  0.23516157348E+01  0.47965299379E+01  0.18726445456E+02  0.00000000000E+00 0.  1.
         11    1    3    3    0    0 -0.13076702142E+01 -0.92698416212E+01  0.28370549287E+02  0.29875207651E+02  0.51100000000E-03 0. -1.
        -11    1    3    3    0    0 -0.38319380760E+01 -0.29510562477E+01  0.86018020795E+00  0.49124731701E+01  0.51100000000E-03 0.  1.
        -12    1    3    3    0    0 -0.12808733232E+02  0.98692821341E+01 -0.34027259433E+02  0.37673873724E+02  0.00000000000E+00 0.  1.
</event>
<event>
 7    1  0.2700104E-013  0.7246155E+02  0.7816164E-02  0.1226708E+00
        -11   -1    0    0    0    0  0.00000000000E+00  0.00000000000E+00  0.45593999997E+02  0.45594000000E+02  0.51100000000E-03 0.  1.
         11   -1    0    0    0    0 -0.00000000000E+00 -0.00000000000E+00 -0.45593999997E+02  0.45594000000E+02  0.51100000000E-03 0. -1.
    9900012    2    1    2    0    0  0.11184578387E+02  0.54735469663E+01 -0.13986616584E+02  0.72461549360E+02  0.69999972729E+02 0.  0.
        -12    1    1    2    0    0 -0.11184578387E+02 -0.54735469663E+01  0.13986616584E+02  0.18726450640E+02  0.00000000000E+00 0.  1.
         11    1    3    3    0    0 -0.90427036651E+01 -0.17839129276E+02 -0.22224386139E+01  0.20123226793E+02  0.51100000000E-03 0. -1.
        -11    1    3    3    0    0  0.15071603229E+01  0.33424598163E+01  0.14166633102E+02  0.14633422825E+02  0.51100000000E-03 0.  1.
        -12    1    3    3    0    0  0.18720121730E+02  0.19970216426E+02 -0.25930811073E+02  0.37704899742E+02  0.00000000000E+00 0.  1.
</event>
<event>
 7    1  0.2700104E-013  0.7246159E+02  0.7816164E-02  0.1226708E+00
        -11   -1    0    0    0    0  0.00000000000E+00  0.00000000000E+00  0.45593999997E+02  0.45594000000E+02  0.51100000000E-03 0.  1.
         11   -1    0    0    0    0 -0.00000000000E+00 -0.00000000000E+00 -0.45593999997E+02  0.45594000000E+02  0.51100000000E-03 0. -1.
    9900012    2    1    2    0    0 -0.11588634164E+01  0.17501114778E+02 -0.65609855304E+01  0.72461587796E+02  0.70000022799E+02 0.  0.
        -12    1    1    2    0    0  0.11588634164E+01 -0.17501114778E+02  0.65609855304E+01  0.18726412204E+02  0.00000000000E+00 0.  1.
         11    1    3    3    0    0  0.44104384790E+00  0.13354977114E+02 -0.31980531002E+02  0.34659836942E+02  0.51100000000E-03 0. -1.
        -11    1    3    3    0    0 -0.14315413006E+02 -0.79381895256E+00  0.12971023772E+02  0.19334131892E+02  0.51100000000E-03 0.  1.
        -12    1    3    3    0    0  0.12715505741E+02  0.49399566162E+01  0.12448521699E+02  0.18467618962E+02  0.00000000000E+00 0.  1.
</event>
<event>
 7    1  0.2700104E-013  0.7246157E+02  0.7816164E-02  0.1226708E+00
        -11   -1    0    0    0    0  0.00000000000E+00  0.00000000000E+00  0.45593999997E+02  0.45594000000E+02  0.51100000000E-03 0.  1.
         11   -1    0    0    0    0 -0.00000000000E+00 -0.00000000000E+00 -0.45593999997E+02  0.45594000000E+02  0.51100000000E-03 0. -1.
    9900012    2    1    2    0    0 -0.11248545024E+02  0.96683352475E+01 -0.11431221337E+02  0.72461567001E+02  0.69999995710E+02 0.  0.
        -12    1    1    2    0    0  0.11248545024E+02 -0.96683352475E+01  0.11431221337E+02  0.18726432999E+02  0.00000000000E+00 0.  1.
         11    1    3    3    0    0 -0.27078978484E+01 -0.14293274665E+02 -0.16724312633E+02  0.22166033581E+02  0.51100000000E-03 0. -1.
        -11    1    3    3    0    0  0.87280702790E+01  0.22045557928E+01 -0.13880015803E+02  0.16543703213E+02  0.51100000000E-03 0.  1.
         12    1    3    3    0    0 -0.17268717454E+02  0.21757054119E+02  0.19173107100E+02  0.33751830207E+02  0.00000000000E+00 0. -1.
</event>
<event>
 7    1  0.2700104E-013  0.7246151E+02  0.7816164E-02  0.1226708E+00
        -11   -1    0    0    0    0  0.00000000000E+00  0.00000000000E+00  0.45593999997E+02  0.45594000000E+02  0.51100000000E-03 0.  1.
         11   -1    0    0    0    0 -0.00000000000E+00 -0.00000000000E+00 -0.45593999997E+02  0.45594000000E+02  0.51100000000E-03 0. -1.
    9900012    2    1    2    0    0  0.56238860826E+00  0.17960717947E+02 -0.52704664068E+01  0.72461508436E+02  0.69999919419E+02 0.  0.
        -12    1    1    2    0    0 -0.56238860826E+00 -0.17960717947E+02  0.52704664068E+01  0.18726491564E+02  0.00000000000E+00 0.  1.
         11    1    3    3    0    0  0.11696210812E+01 -0.80768154100E+01 -0.28872979874E+02  0.30004198501E+02  0.51100000000E-03 0. -1.
        -11    1    3    3    0    0 -0.49145828705E+01 -0.11966580212E+01  0.11068343368E+02  0.12169360722E+02  0.51100000000E-03 0.  1.
        -12    1    3    3    0    0  0.43073503976E+01  0.27234191379E+02  0.12534170099E+02  0.30287949213E+02  0.00000000000E+00 0.  1.
</event>
<event>
 7    1  0.2700104E-013  0.7246154E+02  0.7816164E-02  0.1226708E+00
        -11   -1    0    0    0    0  0.00000000000E+00  0.00000000000E+00  0.45593999997E+02  0.45594000000E+02  0.51100000000E-03 0. -1.
         11   -1    0    0    0    0 -0.00000000000E+00 -0.00000000000E+00 -0.45593999997E+02  0.45594000000E+02  0.51100000000E-03 0.  1.
    9900012    2    1    2    0    0  0.13883504639E+02  0.58000497255E+01 -0.11148455160E+02  0.72461539300E+02  0.69999959625E+02 0.  0.
        -12    1    1    2    0    0 -0.13883504639E+02 -0.58000497255E+01  0.11148455160E+02  0.18726460700E+02  0.00000000000E+00 0.  1.
         11    1    3    3    0    0  0.34082333513E+01  0.31466456959E+02 -0.16346608884E+02  0.35622543289E+02  0.51100000000E-03 0. -1.
        -11    1    3    3    0    0  0.37849878678E+01 -0.40706395563E+00 -0.70257482467E+01  0.79908055233E+01  0.51100000000E-03 0.  1.
        -12    1    3    3    0    0  0.66902834195E+01 -0.25259343278E+02  0.12223901970E+02  0.28848190488E+02  0.00000000000E+00 0.  1.
</event>
<event>
 7    1  0.2700104E-013  0.7246158E+02  0.7816164E-02  0.1226708E+00
        -11   -1    0    0    0    0  0.00000000000E+00  0.00000000000E+00  0.45593999997E+02  0.45594000000E+02  0.51100000000E-03 0.  1.
         11   -1    0    0    0    0 -0.00000000000E+00 -0.00000000000E+00 -0.45593999997E+02  0.45594000000E+02  0.51100000000E-03 0. -1.
    9900012    2    1    2    0    0 -0.15283075156E+02  0.76187932562E+01  0.76850810518E+01  0.72461578353E+02  0.70000010498E+02 0.  0.
        -12    1    1    2    0    0  0.15283075156E+02 -0.76187932562E+01 -0.76850810518E+01  0.18726421647E+02  0.00000000000E+00 0.  1.
         11    1    3    3    0    0 -0.47652571472E+01  0.11772103998E+02  0.11906549207E+02  0.17408504315E+02  0.51100000000E-03 0. -1.
        -11    1    3    3    0    0  0.11483307125E+02  0.69715722692E+01  0.17591744013E+02  0.22134557147E+02  0.51100000000E-03 0.  1.
        -12    1    3    3    0    0 -0.22001125134E+02 -0.11124883011E+02 -0.21813212168E+02  0.32918516890E+02  0.00000000000E+00 0.  1.
</event>
<event>
 7    1  0.2700104E-013  0.7246159E+02  0.7816164E-02  0.1226708E+00
        -11   -1    0    0    0    0  0.00000000000E+00  0.00000000000E+00  0.45593999997E+02  0.45594000000E+02  0.51100000000E-03 0.  1.
         11   -1    0    0    0    0 -0.00000000000E+00 -0.00000000000E+00 -0.45593999997E+02  0.45594000000E+02  0.51100000000E-03 0. -1.
    9900012    2    1    2    0    0 -0.35231005529E+01 -0.11143564027E+02 -0.14631714227E+02  0.72461593031E+02  0.70000029619E+02 0.  0.
        -12    1    1    2    0    0  0.35231005529E+01  0.11143564027E+02  0.14631714227E+02  0.18726406969E+02  0.00000000000E+00 0.  1.
         11    1    3    3    0    0  0.19063515585E+02 -0.12651036097E+02 -0.23761062534E+02  0.32985670128E+02  0.51100000000E-03 0. -1.
        -11    1    3    3    0    0  0.28538210659E+00 -0.11885184308E+02  0.23604395306E+01  0.12120673415E+02  0.51100000000E-03 0.  1.
         12    1    3    3    0    0 -0.22871998244E+02  0.13392656378E+02  0.67689087765E+01  0.27355249489E+02  0.00000000000E+00 0. -1.
</event>
<event>
 7    1  0.2700104E-013  0.7246155E+02  0.7816164E-02  0.1226708E+00
        -11   -1    0    0    0    0  0.00000000000E+00  0.00000000000E+00  0.45593999997E+02  0.45594000000E+02  0.51100000000E-03 0. -1.
         11   -1    0    0    0    0 -0.00000000000E+00 -0.00000000000E+00 -0.45593999997E+02  0.45594000000E+02  0.51100000000E-03 0.  1.
    9900012    2    1    2    0    0 -0.72296170714E+01 -0.60640605913E+01  0.16175283547E+02  0.72461548342E+02  0.69999971403E+02 0.  0.
        -12    1    1    2    0    0  0.72296170714E+01  0.60640605913E+01 -0.16175283547E+02  0.18726451658E+02  0.00000000000E+00 0.  1.
         11    1    3    3    0    0 -0.19115988650E+02 -0.55497964087E+01 -0.34877873929E+01  0.20208560647E+02  0.51100000000E-03 0. -1.
        -11    1    3    3    0    0  0.22983738873E+02 -0.31430238792E+01 -0.61788618417E+01  0.24006440503E+02  0.51100000000E-03 0.  1.
         12    1    3    3    0    0 -0.11097367295E+02  0.26287596966E+01  0.25841932782E+02  0.28246547193E+02  0.00000000000E+00 0. -1.
</event>
<event>
 7    1  0.2700104E-013  0.7246158E+02  0.7816164E-02  0.1226708E+00
        -11   -1    0    0    0    0  0.00000000000E+00  0.00000000000E+00  0.45593999997E+02  0.45594000000E+02  0.51100000000E-03 0. -1.
         11   -1    0    0    0    0 -0.00000000000E+00 -0.00000000000E+00 -0.45593999997E+02  0.45594000000E+02  0.51100000000E-03 0.  1.
    9900012    2    1    2    0    0  0.11953803557E+02  0.96625087724E+01 -0.10696794739E+02  0.72461577145E+02  0.70000008924E+02 0.  0.
        -12    1    1    2    0    0 -0.11953803557E+02 -0.96625087724E+01  0.10696794739E+02  0.18726422855E+02  0.00000000000E+00 0.  1.
         11    1    3    3    0    0  0.67977188947E+01 -0.41692691405E+01 -0.10332321316E+02  0.13051768132E+02  0.51100000000E-03 0. -1.
        -11    1    3    3    0    0  0.19288831593E+02  0.30882239181E+02  0.46389479401E+01  0.36705470428E+02  0.51100000000E-03 0.  1.
         12    1    3    3    0    0 -0.14132746931E+02 -0.17050461268E+02 -0.50034213634E+01  0.22704338585E+02  0.00000000000E+00 0. -1.
</event>
<event>
 7    1  0.2700104E-013  0.7246196E+02  0.7816164E-02  0.1226707E+00
        -11   -1    0    0    0    0  0.00000000000E+00  0.00000000000E+00  0.45593999997E+02  0.45594000000E+02  0.51100000000E-03 0. -1.
         11   -1    0    0    0    0 -0.00000000000E+00 -0.00000000000E+00 -0.45593999997E+02  0.45594000000E+02  0.51100000000E-03 0.  1.
    9900012    2    1    2    0    0 -0.71600869827E+00  0.16815423380E+02  0.82093520556E+01  0.72461959493E+02  0.70000507001E+02 0.  0.
        -12    1    1    2    0    0  0.71600869827E+00 -0.16815423380E+02 -0.82093520556E+01  0.18726040507E+02  0.00000000000E+00 0.  1.
         11    1    3    3    0    0  0.73954455624E+01  0.56691400601E+01 -0.48461516180E+00  0.93309493731E+01  0.51100000000E-03 0. -1.
        -11    1    3    3    0    0 -0.28870216145E+02  0.24412096206E+02  0.36429654106E+01  0.37983035932E+02  0.51100000000E-03 0.  1.
         12    1    3    3    0    0  0.20758761884E+02 -0.13265812886E+02  0.50510018067E+01  0.25147974187E+02  0.00000000000E+00 0. -1.
</event>
<event>
 7    1  0.4519541E-013  0.7246162E+02  0.7816164E-02  0.1226708E+00
        -11   -1    0    0    0    0  0.00000000000E+00  0.00000000000E+00  0.45593999997E+02  0.45594000000E+02  0.51100000000E-03 0. -1.
         11   -1    0    0    0    0 -0.00000000000E+00 -0.00000000000E+00 -0.45593999997E+02  0.45594000000E+02  0.51100000000E-03 0.  1.
    9900012    2    1    2    0    0 -0.47717048468E+01  0.67611267420E+01  0.16798666616E+02  0.72461622827E+02  0.70000068433E+02 0.  0.
        -12    1    1    2    0    0  0.47717048468E+01 -0.67611267420E+01 -0.16798666616E+02  0.18726377173E+02  0.00000000000E+00 0.  1.
         11    1    3    3    0    0 -0.10868463683E+02 -0.11503196821E+02  0.34512366605E+02  0.37967755910E+02  0.51100000000E-03 0. -1.
        -11    1    3    3    0    0 -0.40420064663E+01  0.12355253807E+02  0.29050731025E+00  0.13002865364E+02  0.51100000000E-03 0.  1.
        -12    1    3    3    0    0  0.10138765303E+02  0.59090697564E+01 -0.18004207299E+02  0.21491001553E+02  0.00000000000E+00 0.  1.
</event>
<event>
 7    1  0.2700104E-013  0.7246157E+02  0.7816164E-02  0.1226708E+00
        -11   -1    0    0    0    0  0.00000000000E+00  0.00000000000E+00  0.45593999997E+02  0.45594000000E+02  0.51100000000E-03 0.  1.
         11   -1    0    0    0    0 -0.00000000000E+00 -0.00000000000E+00 -0.45593999997E+02  0.45594000000E+02  0.51100000000E-03 0. -1.
    9900012    2    1    2    0    0  0.10154015979E+02  0.15328766330E+02 -0.35502170385E+01  0.72461570583E+02  0.70000000376E+02 0.  0.
        -12    1    1    2    0    0 -0.10154015979E+02 -0.15328766330E+02  0.35502170385E+01  0.18726429417E+02  0.00000000000E+00 0.  1.
         11    1    3    3    0    0  0.17501150633E+02  0.13123520307E+02 -0.13081645132E+02  0.25488163887E+02  0.51100000000E-03 0. -1.
        -11    1    3    3    0    0  0.74152482659E+01 -0.57736591224E+01  0.23391586256E+02  0.25208874515E+02  0.51100000000E-03 0.  1.
         12    1    3    3    0    0 -0.14762382920E+02  0.79789051453E+01 -0.13860158162E+02  0.21764532181E+02  0.00000000000E+00 0. -1.
</event>
<event>
 7    1  0.2700104E-013  0.7246157E+02  0.7816164E-02  0.1226708E+00
        -11   -1    0    0    0    0  0.00000000000E+00  0.00000000000E+00  0.45593999997E+02  0.45594000000E+02  0.51100000000E-03 0.  1.
         11   -1    0    0    0    0 -0.00000000000E+00 -0.00000000000E+00 -0.45593999997E+02  0.45594000000E+02  0.51100000000E-03 0. -1.
    9900012    2    1    2    0    0  0.14889560075E+02 -0.95983056604E+01 -0.60706453225E+01  0.72461569336E+02  0.69999998751E+02 0.  0.
        -12    1    1    2    0    0 -0.14889560075E+02  0.95983056604E+01  0.60706453225E+01  0.18726430664E+02  0.00000000000E+00 0.  1.
         11    1    3    3    0    0  0.42738357941E+01 -0.61565539525E+01 -0.34639374733E+02  0.35440867810E+02  0.51100000000E-03 0. -1.
        -11    1    3    3    0    0  0.35272986597E+00 -0.35995800796E+01 -0.24363054378E+01  0.43608461972E+01  0.51100000000E-03 0.  1.
        -12    1    3    3    0    0  0.10262994415E+02  0.15782837167E+00  0.31005034848E+02  0.32659855329E+02  0.00000000000E+00 0.  1.
</event>
<event>
 7    1  0.2700104E-013  0.7246162E+02  0.7816164E-02  0.1226708E+00
        -11   -1    0    0    0    0  0.00000000000E+00  0.00000000000E+00  0.45593999997E+02  0.45594000000E+02  0.51100000000E-03 0. -1.
         11   -1    0    0    0    0 -0.00000000000E+00 -0.00000000000E+00 -0.45593999997E+02  0.45594000000E+02  0.51100000000E-03 0.  1.
    9900012    2    1    2    0    0 -0.27933685313E+01  0.11119364684E+02  0.14806559493E+02  0.72461618002E+02  0.70000062147E+02 0.  0.
        -12    1    1    2    0    0  0.27933685313E+01 -0.11119364684E+02 -0.14806559493E+02  0.18726381998E+02  0.00000000000E+00 0.  1.
         11    1    3    3    0    0 -0.70501113949E+01  0.80153429523E+01  0.17685263250E+02  0.20657161708E+02  0.51100000000E-03 0. -1.
        -11    1    3    3    0    0 -0.23473321407E+02 -0.55908055982E-01  0.16438619827E+01  0.23530878141E+02  0.51100000000E-03 0.  1.
        -12    1    3    3    0    0  0.27730064271E+02  0.31599297880E+01 -0.45225657401E+01  0.28273578153E+02  0.00000000000E+00 0.  1.
</event>
<event>
 7    1  0.2700104E-013  0.7246159E+02  0.7816164E-02  0.1226708E+00
        -11   -1    0    0    0    0  0.00000000000E+00  0.00000000000E+00  0.45593999997E+02  0.45594000000E+02  0.51100000000E-03 0. -1.
         11   -1    0    0    0    0 -0.00000000000E+00 -0.00000000000E+00 -0.45593999997E+02  0.45594000000E+02  0.51100000000E-03 0.  1.
    9900012    2    1    2    0    0 -0.12913831717E+02 -0.93005471970E+01  0.98697049149E+01  0.72461593434E+02  0.70000030144E+02 0.  0.
        -12    1    1    2    0    0  0.12913831717E+02  0.93005471970E+01 -0.98697049149E+01  0.18726406566E+02  0.00000000000E+00 0.  1.
         11    1    3    3    0    0 -0.40484970376E+01  0.58301175821E+01  0.70767072661E+01  0.10022992830E+02  0.51100000000E-03 0. -1.
        -11    1    3    3    0    0 -0.13667225105E+02  0.10556819240E+02  0.23453376844E+02  0.29125596306E+02  0.51100000000E-03 0.  1.
        -12    1    3    3    0    0  0.48018904261E+01 -0.25687484019E+02 -0.20660379195E+02  0.33313004298E+02  0.00000000000E+00 0.  1.
</event>
<event>
 7    1  0.2700104E-013  0.7246158E+02  0.7816164E-02  0.1226708E+00
        -11   -1    0    0    0    0  0.00000000000E+00  0.00000000000E+00  0.45593999997E+02  0.45594000000E+02  0.51100000000E-03 0. -1.
         11   -1    0    0    0    0 -0.00000000000E+00 -0.00000000000E+00 -0.45593999997E+02  0.45594000000E+02  0.51100000000E-03 0.  1.
    9900012    2    1    2    0    0 -0.47544782802E+01  0.17251265814E+02  0.55197510340E+01  0.72461577828E+02  0.70000009813E+02 0.  0.
        -12    1    1    2    0    0  0.47544782802E+01 -0.17251265814E+02 -0.55197510340E+01  0.18726422172E+02  0.00000000000E+00 0.  1.
         11    1    3    3    0    0 -0.15431665766E+02  0.39200415773E+02  0.14343443546E+02  0.44503295137E+02  0.51100000000E-03 0. -1.
        -11    1    3    3    0    0 -0.17891116669E+01 -0.29539059648E+01 -0.28179719663E+01  0.44572914724E+01  0.51100000000E-03 0.  1.
        -12    1    3    3    0    0  0.12466299152E+02 -0.18995243994E+02 -0.60057205457E+01  0.23500991218E+02  0.00000000000E+00 0.  1.
</event>
<event>
 7    1  0.2700104E-013  0.7246154E+02  0.7816164E-02  0.1226708E+00
        -11   -1    0    0    0    0  0.00000000000E+00  0.00000000000E+00  0.45593999997E+02  0.45594000000E+02  0.51100000000E-03 0.  1.
         11   -1    0    0    0    0 -0.00000000000E+00 -0.00000000000E+00 -0.45593999997E+02  0.45594000000E+02  0.51100000000E-03 0. -1.
    9900012    2    1    2    0    0  0.47024058467E+01 -0.11222527461E+02 -0.14234551711E+02  0.72461542627E+02  0.69999963958E+02 0.  0.
        -12    1    1    2    0    0 -0.47024058467E+01  0.11222527461E+02  0.14234551711E+02  0.18726457373E+02  0.00000000000E+00 0.  1.
         11    1    3    3    0    0  0.19065503856E+02  0.61388879804E+01 -0.28314113899E+02  0.34682393647E+02  0.51100000000E-03 0. -1.
        -11    1    3    3    0    0  0.55569226156E+01  0.23692880402E+01 -0.70560069834E+00  0.60820052104E+01  0.51100000000E-03 0.  1.
        -12    1    3    3    0    0 -0.19920020625E+02 -0.19730703481E+02  0.14785162887E+02  0.31697143770E+02  0.00000000000E+00 0.  1.
</event>
<event>
 7    1  0.2700104E-013  0.7246156E+02  0.7816164E-02  0.1226708E+00
        -11   -1    0    0    0    0  0.00000000000E+00  0.00000000000E+00  0.45593999997E+02  0.45594000000E+02  0.51100000000E-03 0. -1.
         11   -1    0    0    0    0 -0.00000000000E+00 -0.00000000000E+00 -0.45593999997E+02  0.45594000000E+02  0.51100000000E-03 0.  1.
    9900012    2    1    2    0    0 -0.90791901416E+01  0.22880372385E+01  0.16217670212E+02  0.72461557862E+02  0.69999983805E+02 0.  0.
        -12    1    1    2    0    0  0.90791901416E+01 -0.22880372385E+01 -0.16217670212E+02  0.18726442138E+02  0.00000000000E+00 0.  1.
         11    1    3    3    0    0 -0.54526814114E+01  0.14733078634E+01  0.98475286342E+01  0.11352365000E+02  0.51100000000E-03 0. -1.
        -11    1    3    3    0    0  0.12907949951E+02 -0.99022771616E+01  0.27666835484E+02  0.32095545654E+02  0.51100000000E-03 0.  1.
         12    1    3    3    0    0 -0.16534458681E+02  0.10717006537E+02 -0.21296693905E+02  0.29013647207E+02  0.00000000000E+00 0. -1.
</event>
<event>
 7    1  0.2700104E-013  0.7246156E+02  0.7816164E-02  0.1226708E+00
        -11   -1    0    0    0    0  0.00000000000E+00  0.00000000000E+00  0.45593999997E+02  0.45594000000E+02  0.51100000000E-03 0. -1.
         11   -1    0    0    0    0 -0.00000000000E+00 -0.00000000000E+00 -0.45593999997E+02  0.45594000000E+02  0.51100000000E-03 0.  1.
    9900012    2    1    2    0    0 -0.18599004059E+02 -0.21624295416E+01  0.28349075934E+00  0.72461563592E+02  0.69999991269E+02 0.  0.
        -12    1    1    2    0    0  0.18599004059E+02  0.21624295416E+01 -0.28349075934E+00  0.18726436408E+02  0.00000000000E+00 0.  1.
         11    1    3    3    0    0 -0.30778686938E+01  0.68351804505E+01 -0.14586900529E+01  0.76368019758E+01  0.51100000000E-03 0. -1.
        -11    1    3    3    0    0 -0.27613992722E+02 -0.29315956355E+02 -0.40626276433E+01  0.40477930218E+02  0.51100000000E-03 0.  1.
         12    1    3    3    0    0  0.12092857357E+02  0.20318346363E+02  0.58048084555E+01  0.24346831399E+02  0.00000000000E+00 0. -1.
</event>
<event>
 7    1  0.2700104E-013  0.7246156E+02  0.7816164E-02  0.1226708E+00
        -11   -1    0    0    0    0  0.00000000000E+00  0.00000000000E+00  0.45593999997E+02  0.45594000000E+02  0.51100000000E-03 0.  1.
         11   -1    0    0    0    0 -0.00000000000E+00 -0.00000000000E+00 -0.45593999997E+02  0.45594000000E+02  0.51100000000E-03 0. -1.
    9900012    2    1    2    0    0  0.43888242110E+01  0.15159760907E+02 -0.10079658892E+02  0.72461557410E+02  0.69999983215E+02 0.  0.
        -12    1    1    2    0    0 -0.43888242110E+01 -0.15159760907E+02  0.10079658892E+02  0.18726442590E+02  0.00000000000E+00 0.  1.
         11    1    3    3    0    0  0.68877208148E+01  0.26184256471E+01 -0.15999618433E+02  0.17614898273E+02  0.51100000000E-03 0. -1.
        -11    1    3    3    0    0 -0.20673721956E+02 -0.17531976021E+01 -0.13413556805E+02  0.24706274259E+02  0.51100000000E-03 0.  1.
        -12    1    3    3    0    0  0.18174825352E+02  0.14294532862E+02  0.19333516346E+02  0.30140384878E+02  0.00000000000E+00 0.  1.
</event>
<event>
 7    1  0.2700104E-013  0.7246157E+02  0.7816164E-02  0.1226708E+00
        -11   -1    0    0    0    0  0.00000000000E+00  0.00000000000E+00  0.45593999997E+02  0.45594000000E+02  0.51100000000E-03 0.  1.
         11   -1    0    0    0    0 -0.00000000000E+00 -0.00000000000E+00 -0.45593999997E+02  0.45594000000E+02  0.51100000000E-03 0. -1.
    9900012    2    1    2    0    0 -0.16630913940E+02 -0.67066108719E+01 -0.53956848431E+01  0.72461565668E+02  0.69999993973E+02 0.  0.
        -12    1    1    2    0    0  0.16630913940E+02  0.67066108719E+01  0.53956848431E+01  0.18726434332E+02  0.00000000000E+00 0.  1.
         11    1    3    3    0    0  0.91596060968E+01 -0.22950538421E+02 -0.24255074733E+01  0.24829592917E+02  0.51100000000E-03 0. -1.
        -11    1    3    3    0    0 -0.13663660281E+02 -0.86334495299E+01  0.77850756979E+01  0.17939884808E+02  0.51100000000E-03 0.  1.
        -12    1    3    3    0    0 -0.12126859756E+02  0.24877377079E+02 -0.10755253068E+02  0.29692087943E+02  0.00000000000E+00 0.  1.
</event>
<event>
 7    1  0.2700104E-013  0.7246157E+02  0.7816164E-02  0.1226708E+00
        -11   -1    0    0    0    0  0.00000000000E+00  0.00000000000E+00  0.45593999997E+02  0.45594000000E+02  0.51100000000E-03 0. -1.
         11   -1    0    0    0    0 -0.00000000000E+00 -0.00000000000E+00 -0.45593999997E+02  0.45594000000E+02  0.51100000000E-03 0.  1.
    9900012    2    1    2    0    0  0.16588997647E+02 -0.84942785044E+01  0.18252408166E+01  0.72461571769E+02  0.70000001921E+02 0.  0.
        -12    1    1    2    0    0 -0.16588997647E+02  0.84942785044E+01 -0.18252408166E+01  0.18726428231E+02  0.00000000000E+00 0.  1.
         11    1    3    3    0    0  0.37073632845E+01 -0.16165631360E+02  0.16862325742E+02  0.23651854250E+02  0.51100000000E-03 0. -1.
        -11    1    3    3    0    0  0.12464215895E+02 -0.13946172146E+02 -0.19184911725E+02  0.26793902918E+02  0.51100000000E-03 0.  1.
        -12    1    3    3    0    0  0.41741846778E+00  0.21617525002E+02  0.41478268002E+01  0.22015814601E+02  0.00000000000E+00 0.  1.
</event>
<event>
 7    1  0.2700104E-013  0.7246160E+02  0.7816164E-02  0.1226708E+00
        -11   -1    0    0    0    0  0.00000000000E+00  0.00000000000E+00  0.45593999997E+02  0.45594000000E+02  0.51100000000E-03 0. -1.
         11   -1    0    0    0    0 -0.00000000000E+00 -0.00000000000E+00 -0.45593999997E+02  0.45594000000E+02  0.51100000000E-03 0.  1.
    9900012    2    1    2    0    0  0.20804949140E+01 -0.64249418783E+00  0.18599373116E+02  0.72461603172E+02  0.70000042829E+02 0.  0.
        -12    1    1    2    0    0 -0.20804949140E+01  0.64249418783E+00 -0.18599373116E+02  0.18726396828E+02  0.00000000000E+00 0.  1.
         11    1    3    3    0    0  0.93969106434E+01  0.23869939003E+02  0.19038609361E+02  0.31945963193E+02  0.51100000000E-03 0. -1.
        -11    1    3    3    0    0  0.89512542466E+00  0.25616642742E+01 -0.10225110987E+02  0.10579048555E+02  0.51100000000E-03 0.  1.
         12    1    3    3    0    0 -0.82115411541E+01 -0.27074097465E+02  0.97858747412E+01  0.29936591424E+02  0.00000000000E+00 0. -1.
</event>
<event>
 7    1  0.2700104E-013  0.7246165E+02  0.7816164E-02  0.1226708E+00
        -11   -1    0    0    0    0  0.00000000000E+00  0.00000000000E+00  0.45593999997E+02  0.45594000000E+02  0.51100000000E-03 0.  1.
         11   -1    0    0    0    0 -0.00000000000E+00 -0.00000000000E+00 -0.45593999997E+02  0.45594000000E+02  0.51100000000E-03 0. -1.
    9900012    2    1    2    0    0 -0.75030089115E+01  0.66424428868E+01 -0.15819580886E+02  0.72461646120E+02  0.70000098777E+02 0.  0.
        -12    1    1    2    0    0  0.75030089115E+01 -0.66424428868E+01  0.15819580886E+02  0.18726353880E+02  0.00000000000E+00 0.  1.
         11    1    3    3    0    0 -0.21318151295E+02  0.14939198764E+02 -0.32692085231E+02  0.41790138446E+02  0.51100000000E-03 0. -1.
        -11    1    3    3    0    0 -0.30596302111E+01  0.37636971458E+01  0.37012815967E+01  0.61013309165E+01  0.51100000000E-03 0.  1.
        -12    1    3    3    0    0  0.16874772595E+02 -0.12060453023E+02  0.13171222748E+02  0.24570176758E+02  0.00000000000E+00 0.  1.
</event>
<event>
 7    1  0.2700104E-013  0.7246157E+02  0.7816164E-02  0.1226708E+00
        -11   -1    0    0    0    0  0.00000000000E+00  0.00000000000E+00  0.45593999997E+02  0.45594000000E+02  0.51100000000E-03 0.  1.
         11   -1    0    0    0    0 -0.00000000000E+00 -0.00000000000E+00 -0.45593999997E+02  0.45594000000E+02  0.51100000000E-03 0. -1.
    9900012    2    1    2    0    0  0.66187576701E+01  0.16498741875E+01 -0.17439875285E+02  0.72461567134E+02  0.69999995883E+02 0.  0.
        -12    1    1    2    0    0 -0.66187576701E+01 -0.16498741875E+01  0.17439875285E+02  0.18726432866E+02  0.00000000000E+00 0.  1.
         11    1    3    3    0    0 -0.22834287729E+01  0.60490835122E+01 -0.10548627706E+01  0.65511979076E+01  0.51100000000E-03 0. -1.
        -11    1    3    3    0    0 -0.18514715971E+02  0.74909913309E+01  0.13134772556E+02  0.23904641996E+02  0.51100000000E-03 0.  1.
        -12    1    3    3    0    0  0.27416902414E+02 -0.11890200656E+02 -0.29519785070E+02  0.42005727231E+02  0.00000000000E+00 0.  1.
</event>
<event>
 7    1  0.2700104E-013  0.7246155E+02  0.7816164E-02  0.1226708E+00
        -11   -1    0    0    0    0  0.00000000000E+00  0.00000000000E+00  0.45593999997E+02  0.45594000000E+02  0.51100000000E-03 0.  1.
         11   -1    0    0    0    0 -0.00000000000E+00 -0.00000000000E+00 -0.45593999997E+02  0.45594000000E+02  0.51100000000E-03 0. -1.
    9900012    2    1    2    0    0 -0.12287152091E+02 -0.13284711886E+02 -0.48189466697E+01  0.72461550165E+02  0.69999973778E+02 0.  0.
        -12    1    1    2    0    0  0.12287152091E+02  0.13284711886E+02  0.48189466697E+01  0.18726449835E+02  0.00000000000E+00 0.  1.
         11    1    3    3    0    0 -0.96237313260E+01  0.21034174963E+02  0.75201076496E+01  0.24322926229E+02  0.51100000000E-03 0. -1.
        -11    1    3    3    0    0  0.28342516519E+00 -0.62396906792E+01 -0.18253310194E+02  0.19292418275E+02  0.51100000000E-03 0.  1.
        -12    1    3    3    0    0 -0.29468459303E+01 -0.28079196170E+02  0.59142558750E+01  0.28846205661E+02  0.00000000000E+00 0.  1.
</event>
<event>
 7    1  0.2700104E-013  0.7246146E+02  0.7816164E-02  0.1226708E+00
        -11   -1    0    0    0    0  0.00000000000E+00  0.00000000000E+00  0.45593999997E+02  0.45594000000E+02  0.51100000000E-03 0. -1.
         11   -1    0    0    0    0 -0.00000000000E+00 -0.00000000000E+00 -0.45593999997E+02  0.45594000000E+02  0.51100000000E-03 0.  1.
    9900012    2    1    2    0    0  0.11970883895E+02 -0.54435934912E+01  0.13332229627E+02  0.72461464866E+02  0.69999862660E+02 0.  0.
        -12    1    1    2    0    0 -0.11970883895E+02  0.54435934912E+01 -0.13332229627E+02  0.18726535134E+02  0.00000000000E+00 0.  1.
         11    1    3    3    0    0  0.25573518483E+02  0.11645972069E+02  0.54967212907E-01  0.28100472144E+02  0.51100000000E-03 0. -1.
        -11    1    3    3    0    0 -0.44905848097E+00  0.96612674338E+01  0.10725425379E+02  0.14442177529E+02  0.51100000000E-03 0.  1.
        -12    1    3    3    0    0 -0.13153576108E+02 -0.26750832994E+02  0.25518370344E+01  0.29918815193E+02  0.00000000000E+00 0.  1.
</event>
<event>
 7    1  0.2700104E-013  0.7246146E+02  0.7816164E-02  0.1226708E+00
        -11   -1    0    0    0    0  0.00000000000E+00  0.00000000000E+00  0.45593999997E+02  0.45594000000E+02  0.51100000000E-03 0.  1.
         11   -1    0    0    0    0 -0.00000000000E+00 -0.00000000000E+00 -0.45593999997E+02  0.45594000000E+02  0.51100000000E-03 0. -1.
    9900012    2    1    2    0    0  0.58161238898E+01 -0.16165454567E+02 -0.74521265152E+01  0.72461457125E+02  0.69999852576E+02 0.  0.
        -12    1    1    2    0    0 -0.58161238898E+01  0.16165454567E+02  0.74521265152E+01  0.18726542875E+02  0.00000000000E+00 0.  1.
         11    1    3    3    0    0  0.13582076900E+02 -0.21936062554E+02 -0.24140800969E+02  0.35333297680E+02  0.51100000000E-03 0. -1.
        -11    1    3    3    0    0 -0.15563904438E+02  0.55229667150E+01 -0.22292805222E+01  0.16664572440E+02  0.51100000000E-03 0.  1.
        -12    1    3    3    0    0  0.77979514278E+01  0.24764127186E+00  0.18917954976E+02  0.20463587005E+02  0.00000000000E+00 0.  1.
</event>
<event>
 7    1  0.2700104E-013  0.7246162E+02  0.7816164E-02  0.1226708E+00
        -11   -1    0    0    0    0  0.00000000000E+00  0.00000000000E+00  0.45593999997E+02  0.45594000000E+02  0.51100000000E-03 0.  1.
         11   -1    0    0    0    0 -0.00000000000E+00 -0.00000000000E+00 -0.45593999997E+02  0.45594000000E+02  0.51100000000E-03 0. -1.
    9900012    2    1    2    0    0 -0.99034054844E+01 -0.15893386987E+02  0.16302561335E-01  0.72461616049E+02  0.70000059604E+02 0.  0.
        -12    1    1    2    0    0  0.99034054844E+01  0.15893386987E+02 -0.16302561335E-01  0.18726383951E+02  0.00000000000E+00 0.  1.
         11    1    3    3    0    0 -0.16247125058E+02 -0.36772514155E+01  0.28599565030E+01  0.16901792866E+02  0.51100000000E-03 0. -1.
        -11    1    3    3    0    0 -0.49625415164E+01 -0.94520242296E+01  0.24018673119E+02  0.26284296434E+02  0.51100000000E-03 0.  1.
         12    1    3    3    0    0  0.11306261090E+02 -0.27641113419E+01 -0.26862327061E+02  0.29275526750E+02  0.00000000000E+00 0. -1.
</event>
<event>
 7    1  0.2700104E-013  0.7246148E+02  0.7816164E-02  0.1226708E+00
        -11   -1    0    0    0    0  0.00000000000E+00  0.00000000000E+00  0.45593999997E+02  0.45594000000E+02  0.51100000000E-03 0. -1.
         11   -1    0    0    0    0 -0.00000000000E+00 -0.00000000000E+00 -0.45593999997E+02  0.45594000000E+02  0.51100000000E-03 0.  1.
    9900012    2    1    2    0    0  0.40582469748E+01  0.14934195959E+02  0.10544332281E+02  0.72461480818E+02  0.69999883440E+02 0.  0.
        -12    1    1    2    0    0 -0.40582469748E+01 -0.14934195959E+02 -0.10544332281E+02  0.18726519182E+02  0.00000000000E+00 0.  1.
         11    1    3    3    0    0 -0.12753766409E+02 -0.48452650188E+00 -0.24265483485E+01  0.12991591923E+02  0.51100000000E-03 0. -1.
        -11    1    3    3    0    0  0.67089512085E+01  0.79209070001E+01 -0.20901093216E+02  0.23336805520E+02  0.51100000000E-03 0.  1.
         12    1    3    3    0    0  0.10103062175E+02  0.74978154605E+01  0.33871973845E+02  0.36133083374E+02  0.00000000000E+00 0. -1.
</event>
<event>
 7    1  0.2700104E-013  0.7246200E+02  0.7816164E-02  0.1226707E+00
        -11   -1    0    0    0    0  0.00000000000E+00  0.00000000000E+00  0.45593999997E+02  0.45594000000E+02  0.51100000000E-03 0.  1.
         11   -1    0    0    0    0 -0.00000000000E+00 -0.00000000000E+00 -0.45593999997E+02  0.45594000000E+02  0.51100000000E-03 0. -1.
    9900012    2    1    2    0    0 -0.97363740692E+01  0.96444656401E+01 -0.12761291670E+02  0.72461995018E+02  0.70000553279E+02 0.  0.
        -12    1    1    2    0    0  0.97363740692E+01 -0.96444656401E+01  0.12761291670E+02  0.18726004982E+02  0.00000000000E+00 0.  1.
         11    1    3    3    0    0 -0.15433591041E+02  0.86021379198E+01 -0.17866747424E+02  0.25127936107E+02  0.51100000000E-03 0. -1.
        -11    1    3    3    0    0 -0.11698976639E+02 -0.17599657820E+02  0.54839814600E+01  0.21833187186E+02  0.51100000000E-03 0.  1.
        -12    1    3    3    0    0  0.17396193611E+02  0.18641985540E+02 -0.37852570627E+00  0.25500871725E+02  0.00000000000E+00 0.  1.
</event>
<event>
 7    1  0.2700104E-013  0.7246157E+02  0.7816164E-02  0.1226708E+00
        -11   -1    0    0    0    0  0.00000000000E+00  0.00000000000E+00  0.45593999997E+02  0.45594000000E+02  0.51100000000E-03 0.  1.
         11   -1    0    0    0    0 -0.00000000000E+00 -0.00000000000E+00 -0.45593999997E+02  0.45594000000E+02  0.51100000000E-03 0. -1.
    9900012    2    1    2    0    0  0.91694746098E+01 -0.63113372799E+01 -0.15058782216E+02  0.72461570423E+02  0.70000000167E+02 0.  0.
        -12    1    1    2    0    0 -0.91694746098E+01  0.63113372799E+01  0.15058782216E+02  0.18726429577E+02  0.00000000000E+00 0.  1.
         11    1    3    3    0    0  0.29232767632E+00 -0.62636984124E+01  0.17758001377E+02  0.18832577796E+02  0.51100000000E-03 0. -1.
        -11    1    3    3    0    0  0.20175903999E+01 -0.19590856923E+02 -0.78799945098E+01  0.21212417583E+02  0.51100000000E-03 0.  1.
         12    1    3    3    0    0  0.68595565336E+01  0.19543218055E+02 -0.24936789083E+02  0.32416575044E+02  0.00000000000E+00 0. -1.
</event>
<event>
 7    1  0.2700104E-013  0.7246150E+02  0.7816164E-02  0.1226708E+00
        -11   -1    0    0    0    0  0.00000000000E+00  0.00000000000E+00  0.45593999997E+02  0.45594000000E+02  0.51100000000E-03 0.  1.
         11   -1    0    0    0    0 -0.00000000000E+00 -0.00000000000E+00 -0.45593999997E+02  0.45594000000E+02  0.51100000000E-03 0. -1.
    9900012    2    1    2    0    0 -0.89894801396E+00  0.88764127295E+01 -0.16464595121E+02  0.72461502651E+02  0.69999911882E+02 0.  0.
        -12    1    1    2    0    0  0.89894801396E+00 -0.88764127295E+01  0.16464595121E+02  0.18726497349E+02  0.00000000000E+00 0.  1.
         11    1    3    3    0    0 -0.28701019430E+02  0.95164555686E+00 -0.22118206321E+01  0.28801845364E+02  0.51100000000E-03 0. -1.
        -11    1    3    3    0    0 -0.47584455131E+01 -0.31363773932E+01  0.14126175908E+01  0.58715547833E+01  0.51100000000E-03 0.  1.
        -12    1    3    3    0    0  0.32560516930E+02  0.11061144566E+02 -0.15665392079E+02  0.37788102504E+02  0.00000000000E+00 0.  1.
</event>
<event>
 7    1  0.2700104E-013  0.7246158E+02  0.7816164E-02  0.1226708E+00
        -11   -1    0    0    0    0  0.00000000000E+00  0.00000000000E+00  0.45593999997E+02  0.45594000000E+02  0.51100000000E-03 0.  1.
         11   -1    0    0    0    0 -0.00000000000E+00 -0.00000000000E+00 -0.45593999997E+02  0.45594000000E+02  0.51100000000E-03 0. -1.
    9900012    2    1    2    0    0 -0.18654664000E+02 -0.72582635092E+00 -0.14681891958E+01  0.72461577695E+02  0.70000009640E+02 0.  0.
        -12    1    1    2    0    0  0.18654664000E+02  0.72582635092E+00  0.14681891958E+01  0.18726422305E+02  0.00000000000E+00 0.  1.
         11    1    3    3    0    0 -0.15162837791E+02  0.10379466627E+01  0.16683105141E+02  0.22568007900E+02  0.51100000000E-03 0. -1.
        -11    1    3    3    0    0 -0.78783132592E+01 -0.13478084609E+02  0.10375333794E+02  0.18744976290E+02  0.51100000000E-03 0.  1.
         12    1    3    3    0    0  0.43864870506E+01  0.11714311595E+02 -0.28526628131E+02  0.31148593504E+02  0.00000000000E+00 0. -1.
</event>
<event>
 7    1  0.2700104E-013  0.7246160E+02  0.7816164E-02  0.1226708E+00
        -11   -1    0    0    0    0  0.00000000000E+00  0.00000000000E+00  0.45593999997E+02  0.45594000000E+02  0.51100000000E-03 0. -1.
         11   -1    0    0    0    0 -0.00000000000E+00 -0.00000000000E+00 -0.45593999997E+02  0.45594000000E+02  0.51100000000E-03 0.  1.
    9900012    2    1    2    0    0  0.19992379123E+01  0.15586758161E+02  0.10184995673E+02  0.72461598342E+02  0.70000036538E+02 0.  0.
        -12    1    1    2    0    0 -0.19992379123E+01 -0.15586758161E+02 -0.10184995673E+02  0.18726401658E+02  0.00000000000E+00 0.  1.
         11    1    3    3    0    0 -0.57203996579E+01  0.86197151516E+01 -0.94144666005E+01  0.13987660390E+02  0.51100000000E-03 0. -1.
        -11    1    3    3    0    0  0.42765839550E+01 -0.23047088656E+02  0.20364395733E+01  0.23528802610E+02  0.51100000000E-03 0.  1.
         12    1    3    3    0    0  0.34430536152E+01  0.30014131665E+02  0.17563022700E+02  0.34945135343E+02  0.00000000000E+00 0. -1.
</event>
<event>
 7    1  0.2700104E-013  0.7246156E+02  0.7816164E-02  0.1226708E+00
        -11   -1    0    0    0    0  0.00000000000E+00  0.00000000000E+00  0.45593999997E+02  0.45594000000E+02  0.51100000000E-03 0.  1.
         11   -1    0    0    0    0 -0.00000000000E+00 -0.00000000000E+00 -0.45593999997E+02  0.45594000000E+02  0.51100000000E-03 0. -1.
    9900012    2    1    2    0    0 -0.35907720962E+01  0.11434016797E+02 -0.14389199984E+02  0.72461562524E+02  0.69999989878E+02 0.  0.
        -12    1    1    2    0    0  0.35907720962E+01 -0.11434016797E+02  0.14389199984E+02  0.18726437476E+02  0.00000000000E+00 0.  1.
         11    1    3    3    0    0 -0.38246105768E+00 -0.31941357915E+01 -0.18339329626E+02  0.18619339174E+02  0.51100000000E-03 0.  1.
        -11    1    3    3    0    0 -0.10048595016E+02  0.20360533370E+02 -0.18752780363E+02  0.29448129864E+02  0.51100000000E-03 0. -1.
        -12    1    3    3    0    0  0.68402839777E+01 -0.57323807819E+01  0.22702910004E+02  0.24394093485E+02  0.00000000000E+00 0.  1.
</event>
<event>
 7    1  0.2700104E-013  0.7246158E+02  0.7816164E-02  0.1226708E+00
        -11   -1    0    0    0    0  0.00000000000E+00  0.00000000000E+00  0.45593999997E+02  0.45594000000E+02  0.51100000000E-03 0. -1.
         11   -1    0    0    0    0 -0.00000000000E+00 -0.00000000000E+00 -0.45593999997E+02  0.45594000000E+02  0.51100000000E-03 0.  1.
    9900012    2    1    2    0    0 -0.45740865711E+01  0.17059159492E+02  0.62242616946E+01  0.72461584855E+02  0.70000018968E+02 0.  0.
        -12    1    1    2    0    0  0.45740865711E+01 -0.17059159492E+02 -0.62242616946E+01  0.18726415145E+02  0.00000000000E+00 0.  1.
         11    1    3    3    0    0 -0.55642788302E+01 -0.64953346596E+01 -0.46247399772E+01  0.97231060551E+01  0.51100000000E-03 0. -1.
        -11    1    3    3    0    0 -0.14187205035E+02 -0.84570274425E+01 -0.12146799989E+02  0.20502264512E+02  0.51100000000E-03 0.  1.
        -12    1    3    3    0    0  0.15177397295E+02  0.32011521594E+02  0.22995801660E+02  0.42236214288E+02  0.00000000000E+00 0.  1.
</event>
<event>
 7    1  0.2700104E-013  0.7246158E+02  0.7816164E-02  0.1226708E+00
        -11   -1    0    0    0    0  0.00000000000E+00  0.00000000000E+00  0.45593999997E+02  0.45594000000E+02  0.51100000000E-03 0. -1.
         11   -1    0    0    0    0 -0.00000000000E+00 -0.00000000000E+00 -0.45593999997E+02  0.45594000000E+02  0.51100000000E-03 0.  1.
    9900012    2    1    2    0    0  0.26882716429E+01  0.74944511975E+01  0.16949491558E+02  0.72461578365E+02  0.70000010514E+02 0.  0.
        -12    1    1    2    0    0 -0.26882716429E+01 -0.74944511975E+01 -0.16949491558E+02  0.18726421635E+02  0.00000000000E+00 0.  1.
         11    1    3    3    0    0 -0.11190795540E+02 -0.25116797497E+02  0.15584346703E+02  0.31606317150E+02  0.51100000000E-03 0. -1.
        -11    1    3    3    0    0  0.16431947562E+02  0.17810131544E+02  0.63136579560E+01  0.25041404980E+02  0.51100000000E-03 0.  1.
        -12    1    3    3    0    0 -0.25528803786E+01  0.14801117150E+02 -0.49485131017E+01  0.15813856236E+02  0.00000000000E+00 0.  1.
</event>
<event>
 7    1  0.2700104E-013  0.7246168E+02  0.7816164E-02  0.1226708E+00
        -11   -1    0    0    0    0  0.00000000000E+00  0.00000000000E+00  0.45593999997E+02  0.45594000000E+02  0.51100000000E-03 0.  1.
         11   -1    0    0    0    0 -0.00000000000E+00 -0.00000000000E+00 -0.45593999997E+02  0.45594000000E+02  0.51100000000E-03 0. -1.
    9900012    2    1    2    0    0  0.99793438275E+01 -0.15830597479E+02  0.69277628086E+00  0.72461680054E+02  0.70000142982E+02 0.  0.
        -12    1    1    2    0    0 -0.99793438275E+01  0.15830597479E+02 -0.69277628086E+00  0.18726319946E+02  0.00000000000E+00 0.  1.
         11    1    3    3    0    0 -0.18446722520E+02 -0.16595733015E+02  0.17742110858E+02  0.30503809991E+02  0.51100000000E-03 0. -1.
        -11    1    3    3    0    0 -0.21250187948E+01  0.16639844186E+01 -0.10312605430E+02  0.10659942779E+02  0.51100000000E-03 0.  1.
        -12    1    3    3    0    0  0.30551085142E+02 -0.89884888277E+00 -0.67367291469E+01  0.31297927284E+02  0.00000000000E+00 0.  1.
</event>
<event>
 7    1  0.2700104E-013  0.7246159E+02  0.7816164E-02  0.1226708E+00
        -11   -1    0    0    0    0  0.00000000000E+00  0.00000000000E+00  0.45593999997E+02  0.45594000000E+02  0.51100000000E-03 0.  1.
         11   -1    0    0    0    0 -0.00000000000E+00 -0.00000000000E+00 -0.45593999997E+02  0.45594000000E+02  0.51100000000E-03 0. -1.
    9900012    2    1    2    0    0 -0.90813896957E+01 -0.84195890080E+01  0.14046963315E+02  0.72461593611E+02  0.70000030374E+02 0.  0.
        -12    1    1    2    0    0  0.90813896957E+01  0.84195890080E+01 -0.14046963315E+02  0.18726406389E+02  0.00000000000E+00 0.  1.
         11    1    3    3    0    0 -0.21447843313E+01  0.12892110920E+02  0.85279519119E+01  0.15605530683E+02  0.51100000000E-03 0. -1.
        -11    1    3    3    0    0 -0.43705940388E+01  0.17241607228E+02 -0.25284405965E+00  0.17788733581E+02  0.51100000000E-03 0.  1.
         12    1    3    3    0    0 -0.25660113255E+01 -0.38553307156E+02  0.57718554631E+01  0.39067329347E+02  0.00000000000E+00 0. -1.
</event>
<event>
 7    1  0.2700104E-013  0.7246158E+02  0.7816164E-02  0.1226708E+00
        -11   -1    0    0    0    0  0.00000000000E+00  0.00000000000E+00  0.45593999997E+02  0.45594000000E+02  0.51100000000E-03 0. -1.
         11   -1    0    0    0    0 -0.00000000000E+00 -0.00000000000E+00 -0.45593999997E+02  0.45594000000E+02  0.51100000000E-03 0.  1.
    9900012    2    1    2    0    0 -0.14505587652E+02  0.10323206864E+02 -0.58049951861E+01  0.72461584374E+02  0.70000018341E+02 0.  0.
        -12    1    1    2    0    0  0.14505587652E+02 -0.10323206864E+02  0.58049951861E+01  0.18726415626E+02  0.00000000000E+00 0.  1.
         11    1    3    3    0    0  0.97812435517E+01 -0.13086983594E+02  0.31408423510E+01  0.16637510509E+02  0.51100000000E-03 0. -1.
        -11    1    3    3    0    0 -0.52904517977E+01  0.33168918420E+02 -0.75228563271E+01  0.34420334063E+02  0.51100000000E-03 0.  1.
         12    1    3    3    0    0 -0.18996379406E+02 -0.97587279622E+01 -0.14229812101E+01  0.21403739802E+02  0.00000000000E+00 0. -1.
</event>
<event>
 7    1  0.2700104E-013  0.7246154E+02  0.7816164E-02  0.1226708E+00
        -11   -1    0    0    0    0  0.00000000000E+00  0.00000000000E+00  0.45593999997E+02  0.45594000000E+02  0.51100000000E-03 0. -1.
         11   -1    0    0    0    0 -0.00000000000E+00 -0.00000000000E+00 -0.45593999997E+02  0.45594000000E+02  0.51100000000E-03 0.  1.
    9900012    2    1    2    0    0  0.53783221621E+01 -0.10537873523E+02 -0.14515751101E+02  0.72461543910E+02  0.69999965629E+02 0.  0.
        -12    1    1    2    0    0 -0.53783221621E+01  0.10537873523E+02  0.14515751101E+02  0.18726456090E+02  0.00000000000E+00 0.  1.
         11    1    3    3    0    0  0.10084522915E+02  0.19319145530E+02 -0.96929453598E+01  0.23851209119E+02  0.51100000000E-03 0. -1.
        -11    1    3    3    0    0 -0.43680406037E+01  0.84866869466E+01 -0.37353940560E+01  0.10249722097E+02  0.51100000000E-03 0.  1.
         12    1    3    3    0    0 -0.33816014960E+00 -0.38343706000E+02 -0.10874116852E+01  0.38360612694E+02  0.00000000000E+00 0. -1.
</event>
<event>
 7    1  0.2700104E-013  0.7246160E+02  0.7816164E-02  0.1226708E+00
        -11   -1    0    0    0    0  0.00000000000E+00  0.00000000000E+00  0.45593999997E+02  0.45594000000E+02  0.51100000000E-03 0.  1.
         11   -1    0    0    0    0 -0.00000000000E+00 -0.00000000000E+00 -0.45593999997E+02  0.45594000000E+02  0.51100000000E-03 0. -1.
    9900012    2    1    2    0    0  0.13982088426E+02 -0.11960780573E+02 -0.34812495275E+01  0.72461597063E+02  0.70000034872E+02 0.  0.
        -12    1    1    2    0    0 -0.13982088426E+02  0.11960780573E+02  0.34812495275E+01  0.18726402937E+02  0.00000000000E+00 0.  1.
         11    1    3    3    0    0  0.19138288777E+02 -0.13049888341E+02 -0.14955351050E+02  0.27572381259E+02  0.51100000000E-03 0. -1.
        -11    1    3    3    0    0  0.15394796323E+02 -0.38583151839E+01  0.16778660481E+02  0.23095666210E+02  0.51100000000E-03 0.  1.
         12    1    3    3    0    0 -0.20550996674E+02  0.49474229513E+01 -0.53045589592E+01  0.21793549594E+02  0.00000000000E+00 0. -1.
</event>
<event>
 7    1  0.2700104E-013  0.7246158E+02  0.7816164E-02  0.1226708E+00
        -11   -1    0    0    0    0  0.00000000000E+00  0.00000000000E+00  0.45593999997E+02  0.45594000000E+02  0.51100000000E-03 0.  1.
         11   -1    0    0    0    0 -0.00000000000E+00 -0.00000000000E+00 -0.45593999997E+02  0.45594000000E+02  0.51100000000E-03 0. -1.
    9900012    2    1    2    0    0  0.17931952092E+02  0.30087400127E+01 -0.44801244264E+01  0.72461576498E+02  0.70000008082E+02 0.  0.
        -12    1    1    2    0    0 -0.17931952092E+02 -0.30087400127E+01  0.44801244264E+01  0.18726423502E+02  0.00000000000E+00 0.  1.
         11    1    3    3    0    0  0.21916695565E+02 -0.99034951430E+00 -0.25773689332E+02  0.33846793034E+02  0.51100000000E-03 0. -1.
        -11    1    3    3    0    0  0.11480791854E+02  0.61658823242E+01  0.10871463471E+01  0.13077024657E+02  0.51100000000E-03 0.  1.
         12    1    3    3    0    0 -0.15465535326E+02 -0.21667927972E+01  0.20206418559E+02  0.25537758808E+02  0.00000000000E+00 0. -1.
</event>
<event>
 7    1  0.2700104E-013  0.7246174E+02  0.7816164E-02  0.1226708E+00
        -11   -1    0    0    0    0  0.00000000000E+00  0.00000000000E+00  0.45593999997E+02  0.45594000000E+02  0.51100000000E-03 0. -1.
         11   -1    0    0    0    0 -0.00000000000E+00 -0.00000000000E+00 -0.45593999997E+02  0.45594000000E+02  0.51100000000E-03 0.  1.
    9900012    2    1    2    0    0 -0.11310303642E+02  0.21027596870E+01 -0.14775940280E+02  0.72461735612E+02  0.70000215356E+02 0.  0.
        -12    1    1    2    0    0  0.11310303642E+02 -0.21027596870E+01  0.14775940280E+02  0.18726264388E+02  0.00000000000E+00 0.  1.
         11    1    3    3    0    0 -0.41028044902E+01  0.70203656611E+00  0.13930387420E+00  0.41647648019E+01  0.51100000000E-03 0. -1.
        -11    1    3    3    0    0 -0.12622483018E+02 -0.28981974567E+02 -0.19432493151E+02  0.37106653281E+02  0.51100000000E-03 0.  1.
         12    1    3    3    0    0  0.54149838659E+01  0.30382697688E+02  0.45172489967E+01  0.31190317529E+02  0.00000000000E+00 0. -1.
</event>
<event>
 7    1  0.2700104E-013  0.7246160E+02  0.7816164E-02  0.1226708E+00
        -11   -1    0    0    0    0  0.00000000000E+00  0.00000000000E+00  0.45593999997E+02  0.45594000000E+02  0.51100000000E-03 0.  1.
         11   -1    0    0    0    0 -0.00000000000E+00 -0.00000000000E+00 -0.45593999997E+02  0.45594000000E+02  0.51100000000E-03 0. -1.
    9900012    2    1    2    0    0 -0.81657556803E+00  0.18666149602E+02  0.12593710239E+01  0.72461602802E+02  0.70000042348E+02 0.  0.
        -12    1    1    2    0    0  0.81657556803E+00 -0.18666149602E+02 -0.12593710239E+01  0.18726397198E+02  0.00000000000E+00 0.  1.
         11    1    3    3    0    0 -0.10080001468E+02  0.12387773931E+02 -0.11421304792E+02  0.19634397775E+02  0.51100000000E-03 0. -1.
        -11    1    3    3    0    0 -0.12920727053E+02  0.12845891814E+02  0.21397540849E+02  0.28103680875E+02  0.51100000000E-03 0.  1.
         12    1    3    3    0    0  0.22184152953E+02 -0.65675161425E+01 -0.87168650334E+01  0.24723524153E+02  0.00000000000E+00 0. -1.
</event>
<event>
 7    1  0.2700104E-013  0.7246154E+02  0.7816164E-02  0.1226708E+00
        -11   -1    0    0    0    0  0.00000000000E+00  0.00000000000E+00  0.45593999997E+02  0.45594000000E+02  0.51100000000E-03 0. -1.
         11   -1    0    0    0    0 -0.00000000000E+00 -0.00000000000E+00 -0.45593999997E+02  0.45594000000E+02  0.51100000000E-03 0.  1.
    9900012    2    1    2    0    0  0.14902697015E+02  0.60057658068E+00  0.11323828858E+02  0.72461543567E+02  0.69999965182E+02 0.  0.
        -12    1    1    2    0    0 -0.14902697015E+02 -0.60057658068E+00 -0.11323828858E+02  0.18726456433E+02  0.00000000000E+00 0.  1.
         11    1    3    3    0    0  0.16894220941E+01 -0.10106800055E+02  0.24295588738E+02  0.26368109275E+02  0.51100000000E-03 0. -1.
        -11    1    3    3    0    0 -0.92367200308E+01 -0.95476964004E+01 -0.24321506366E+00  0.13286634537E+02  0.51100000000E-03 0.  1.
        -12    1    3    3    0    0  0.22449994952E+02  0.20255073036E+02 -0.12728544817E+02  0.32806799755E+02  0.00000000000E+00 0.  1.
</event>
<event>
 7    1  0.2700104E-013  0.7246156E+02  0.7816164E-02  0.1226708E+00
        -11   -1    0    0    0    0  0.00000000000E+00  0.00000000000E+00  0.45593999997E+02  0.45594000000E+02  0.51100000000E-03 0.  1.
         11   -1    0    0    0    0 -0.00000000000E+00 -0.00000000000E+00 -0.45593999997E+02  0.45594000000E+02  0.51100000000E-03 0. -1.
    9900012    2    1    2    0    0 -0.78457428096E+01  0.12537933825E+02  0.11485819769E+02  0.72461560921E+02  0.69999987789E+02 0.  0.
        -12    1    1    2    0    0  0.78457428096E+01 -0.12537933825E+02 -0.11485819769E+02  0.18726439079E+02  0.00000000000E+00 0.  1.
         11    1    3    3    0    0  0.20161634511E+02  0.13280641028E+01  0.78034406054E+01  0.21659846398E+02  0.51100000000E-03 0. -1.
        -11    1    3    3    0    0  0.91403871313E+01  0.96304822153E+00 -0.61166154201E+01  0.11040250144E+02  0.51100000000E-03 0.  1.
        -12    1    3    3    0    0 -0.37147764452E+02  0.10246821501E+02  0.97989945836E+01  0.39761464379E+02  0.00000000000E+00 0.  1.
</event>
<event>
 7    1  0.2700104E-013  0.7246159E+02  0.7816164E-02  0.1226708E+00
        -11   -1    0    0    0    0  0.00000000000E+00  0.00000000000E+00  0.45593999997E+02  0.45594000000E+02  0.51100000000E-03 0.  1.
         11   -1    0    0    0    0 -0.00000000000E+00 -0.00000000000E+00 -0.45593999997E+02  0.45594000000E+02  0.51100000000E-03 0. -1.
    9900012    2    1    2    0    0 -0.62045746637E+01  0.98699324822E+00  0.17641070070E+02  0.72461594695E+02  0.70000031786E+02 0.  0.
        -12    1    1    2    0    0  0.62045746637E+01 -0.98699324822E+00 -0.17641070070E+02  0.18726405305E+02  0.00000000000E+00 0.  1.
         11    1    3    3    0    0 -0.13396855272E+02  0.17260522435E+02 -0.17912152724E+02  0.28253257889E+02  0.51100000000E-03 0. -1.
        -11    1    3    3    0    0 -0.17315438953E+01  0.23592171783E+01 -0.18078288122E+00  0.29320355842E+01  0.51100000000E-03 0.  1.
        -12    1    3    3    0    0  0.89238245038E+01 -0.18632746365E+02  0.35734005676E+02  0.41276301221E+02  0.00000000000E+00 0.  1.
</event>
<event>
 7    1  0.2700104E-013  0.7246154E+02  0.7816164E-02  0.1226708E+00
        -11   -1    0    0    0    0  0.00000000000E+00  0.00000000000E+00  0.45593999997E+02  0.45594000000E+02  0.51100000000E-03 0.  1.
         11   -1    0    0    0    0 -0.00000000000E+00 -0.00000000000E+00 -0.45593999997E+02  0.45594000000E+02  0.51100000000E-03 0. -1.
    9900012    2    1    2    0    0  0.12843279276E+02  0.83875535295E+01 -0.10741479450E+02  0.72461541244E+02  0.69999962156E+02 0.  0.
        -12    1    1    2    0    0 -0.12843279276E+02 -0.83875535295E+01  0.10741479450E+02  0.18726458756E+02  0.00000000000E+00 0.  1.
         11    1    3    3    0    0  0.15843857128E+02 -0.26552329074E+02 -0.12688916397E+00  0.30920383068E+02  0.51100000000E-03 0. -1.
        -11    1    3    3    0    0  0.63468293926E+00 -0.17173444129E+01  0.18978819065E+01  0.26370533286E+01  0.51100000000E-03 0.  1.
        -12    1    3    3    0    0 -0.36352607916E+01  0.36657227016E+02 -0.12512472193E+02  0.38904104847E+02  0.00000000000E+00 0.  1.
</event>
<event>
 7    1  0.2700104E-013  0.7246080E+02  0.7816164E-02  0.1226710E+00
        -11   -1    0    0    0    0  0.00000000000E+00  0.00000000000E+00  0.45593999997E+02  0.45594000000E+02  0.51100000000E-03 0.  1.
         11   -1    0    0    0    0 -0.00000000000E+00 -0.00000000000E+00 -0.45593999997E+02  0.45594000000E+02  0.51100000000E-03 0. -1.
    9900012    2    1    2    0    0  0.15470042014E+02  0.10526609136E+02 -0.75928031611E+00  0.72460795018E+02  0.69998990052E+02 0.  0.
        -12    1    1    2    0    0 -0.15470042014E+02 -0.10526609136E+02  0.75928031611E+00  0.18727204982E+02  0.00000000000E+00 0.  1.
         11    1    3    3    0    0 -0.48702392512E+01  0.90789479998E+01 -0.48654479241E+01  0.11393818978E+02  0.51100000000E-03 0. -1.
        -11    1    3    3    0    0 -0.22020649243E+01  0.25318515068E+02  0.10707047086E+02  0.27577475460E+02  0.51100000000E-03 0.  1.
         12    1    3    3    0    0  0.22542346190E+02 -0.23870853932E+02 -0.66008794783E+01  0.33489500580E+02  0.00000000000E+00 0. -1.
</event>
<event>
 7    1  0.2700104E-013  0.7246162E+02  0.7816164E-02  0.1226708E+00
        -11   -1    0    0    0    0  0.00000000000E+00  0.00000000000E+00  0.45593999997E+02  0.45594000000E+02  0.51100000000E-03 0. -1.
         11   -1    0    0    0    0 -0.00000000000E+00 -0.00000000000E+00 -0.45593999997E+02  0.45594000000E+02  0.51100000000E-03 0.  1.
    9900012    2    1    2    0    0 -0.16263449683E+02  0.80438067094E+01  0.46340971389E+01  0.72461615451E+02  0.70000058825E+02 0.  0.
        -12    1    1    2    0    0  0.16263449683E+02 -0.80438067094E+01 -0.46340971389E+01  0.18726384549E+02  0.00000000000E+00 0.  1.
         11    1    3    3    0    0  0.45404540651E+00 -0.56917720844E+01  0.36575152053E+01  0.67808439320E+01  0.51100000000E-03 0. -1.
        -11    1    3    3    0    0 -0.27002518569E+02  0.77963558311E+01  0.25806751319E+02  0.38156357101E+02  0.51100000000E-03 0.  1.
         12    1    3    3    0    0  0.10285023479E+02  0.59392229626E+01 -0.24830169385E+02  0.27524414418E+02  0.00000000000E+00 0. -1.
</event>
<event>
 7    1  0.2700104E-013  0.7246159E+02  0.7816164E-02  0.1226708E+00
        -11   -1    0    0    0    0  0.00000000000E+00  0.00000000000E+00  0.45593999997E+02  0.45594000000E+02  0.51100000000E-03 0. -1.
         11   -1    0    0    0    0 -0.00000000000E+00 -0.00000000000E+00 -0.45593999997E+02  0.45594000000E+02  0.51100000000E-03 0.  1.
    9900012    2    1    2    0    0 -0.14746393148E+02 -0.64391588902E+00  0.11524220989E+02  0.72461590628E+02  0.70000026489E+02 0.  0.
        -12    1    1    2    0    0  0.14746393148E+02  0.64391588902E+00 -0.11524220989E+02  0.18726409372E+02  0.00000000000E+00 0.  1.
         11    1    3    3    0    0  0.11907634414E+02  0.57612991837E+01 -0.78519522826E+00  0.13251447371E+02  0.51100000000E-03 0. -1.
        -11    1    3    3    0    0 -0.31302435771E+01 -0.13025354405E+02 -0.16615999058E+02  0.21343610453E+02  0.51100000000E-03 0.  1.
         12    1    3    3    0    0 -0.23523783985E+02  0.66201393320E+01  0.28925415276E+02  0.37866532804E+02  0.00000000000E+00 0. -1.
</event>
<event>
 7    1  0.2700104E-013  0.7246157E+02  0.7816164E-02  0.1226708E+00
        -11   -1    0    0    0    0  0.00000000000E+00  0.00000000000E+00  0.45593999997E+02  0.45594000000E+02  0.51100000000E-03 0. -1.
         11   -1    0    0    0    0 -0.00000000000E+00 -0.00000000000E+00 -0.45593999997E+02  0.45594000000E+02  0.51100000000E-03 0.  1.
    9900012    2    1    2    0    0 -0.46530446591E+01  0.36832038777E+01  0.17761256033E+02  0.72461573986E+02  0.70000004809E+02 0.  0.
        -12    1    1    2    0    0  0.46530446591E+01 -0.36832038777E+01 -0.17761256033E+02  0.18726426014E+02  0.00000000000E+00 0.  1.
         11    1    3    3    0    0 -0.24127272448E+02  0.98630548461E+01 -0.26177313718E+00  0.26066715407E+02  0.51100000000E-03 0. -1.
        -11    1    3    3    0    0 -0.94439034566E+01 -0.72092779546E+01 -0.74574184485E+00  0.11904500506E+02  0.51100000000E-03 0.  1.
         12    1    3    3    0    0  0.28918131245E+02  0.10294269862E+01  0.18768771015E+02  0.34490358074E+02  0.00000000000E+00 0. -1.
</event>
<event>
 7    1  0.2700104E-013  0.7246161E+02  0.7816164E-02  0.1226708E+00
        -11   -1    0    0    0    0  0.00000000000E+00  0.00000000000E+00  0.45593999997E+02  0.45594000000E+02  0.51100000000E-03 0. -1.
         11   -1    0    0    0    0 -0.00000000000E+00 -0.00000000000E+00 -0.45593999997E+02  0.45594000000E+02  0.51100000000E-03 0.  1.
    9900012    2    1    2    0    0 -0.16751288149E+02  0.83501395817E+01 -0.58937396186E+00  0.72461605597E+02  0.70000045988E+02 0.  0.
        -12    1    1    2    0    0  0.16751288149E+02 -0.83501395817E+01  0.58937396186E+00  0.18726394403E+02  0.00000000000E+00 0.  1.
         11    1    3    3    0    0 -0.28996676442E+00  0.36691787754E+01  0.94913375677E+00  0.38010273295E+01  0.51100000000E-03 0. -1.
        -11    1    3    3    0    0  0.11214452012E+02  0.28044942312E+02 -0.93313457928E+01  0.31612604097E+02  0.51100000000E-03 0.  1.
         12    1    3    3    0    0 -0.27675773396E+02 -0.23363981506E+02  0.77928380742E+01  0.37047974171E+02  0.00000000000E+00 0. -1.
</event>
<event>
 7    1  0.2700104E-013  0.7246150E+02  0.7816164E-02  0.1226708E+00
        -11   -1    0    0    0    0  0.00000000000E+00  0.00000000000E+00  0.45593999997E+02  0.45594000000E+02  0.51100000000E-03 0.  1.
         11   -1    0    0    0    0 -0.00000000000E+00 -0.00000000000E+00 -0.45593999997E+02  0.45594000000E+02  0.51100000000E-03 0. -1.
    9900012    2    1    2    0    0  0.15537258870E+02 -0.86451853468E+01  0.58767523856E+01  0.72461498419E+02  0.69999906368E+02 0.  0.
        -12    1    1    2    0    0 -0.15537258870E+02  0.86451853468E+01 -0.58767523856E+01  0.18726501581E+02  0.00000000000E+00 0.  1.
         11    1    3    3    0    0  0.52601616140E+01  0.46382800431E+01 -0.69592033850E+01  0.98799521243E+01  0.51100000000E-03 0. -1.
        -11    1    3    3    0    0 -0.21337554814E+02  0.83128766857E+01  0.34185432882E+01  0.23153436088E+02  0.51100000000E-03 0.  1.
        -12    1    3    3    0    0  0.31614652070E+02 -0.21596342076E+02  0.94174124824E+01  0.39428110206E+02  0.00000000000E+00 0.  1.
</event>
<event>
 7    1  0.2700104E-013  0.7246152E+02  0.7816164E-02  0.1226708E+00
        -11   -1    0    0    0    0  0.00000000000E+00  0.00000000000E+00  0.45593999997E+02  0.45594000000E+02  0.51100000000E-03 0.  1.
         11   -1    0    0    0    0 -0.00000000000E+00 -0.00000000000E+00 -0.45593999997E+02  0.45594000000E+02  0.51100000000E-03 0. -1.
    9900012    2    1    2    0    0 -0.45043951907E+01 -0.52775876344E+01 -0.17393632815E+02  0.72461522227E+02  0.69999937383E+02 0.  0.
        -12    1    1    2    0    0  0.45043951907E+01  0.52775876344E+01  0.17393632815E+02  0.18726477773E+02  0.00000000000E+00 0.  1.
         11    1    3    3    0    0  0.56467525841E+01  0.30152354741E+01 -0.29027731718E+02  0.29725185763E+02  0.51100000000E-03 0. -1.
        -11    1    3    3    0    0  0.49038248994E+00 -0.99529581234E+00 -0.13996800059E+02  0.14040708703E+02  0.51100000000E-03 0.  1.
        -12    1    3    3    0    0 -0.10641530265E+02 -0.72975272961E+01  0.25630898961E+02  0.28695627761E+02  0.00000000000E+00 0.  1.
</event>
<event>
 7    1  0.2700104E-013  0.7246156E+02  0.7816164E-02  0.1226708E+00
        -11   -1    0    0    0    0  0.00000000000E+00  0.00000000000E+00  0.45593999997E+02  0.45594000000E+02  0.51100000000E-03 0.  1.
         11   -1    0    0    0    0 -0.00000000000E+00 -0.00000000000E+00 -0.45593999997E+02  0.45594000000E+02  0.51100000000E-03 0. -1.
    9900012    2    1    2    0    0  0.91369843608E+01 -0.13815555427E+02 -0.87364478645E+01  0.72461559435E+02  0.69999985853E+02 0.  0.
        -12    1    1    2    0    0 -0.91369843608E+01  0.13815555427E+02  0.87364478645E+01  0.18726440565E+02  0.00000000000E+00 0.  1.
         11    1    3    3    0    0  0.55259135487E+01  0.22412690206E+02  0.11172131557E+01  0.23110875542E+02  0.51100000000E-03 0. -1.
        -11    1    3    3    0    0  0.41072841758E+01  0.53022513320E+01 -0.25747424939E+01  0.71842154519E+01  0.51100000000E-03 0.  1.
        -12    1    3    3    0    0 -0.49621336365E+00 -0.41530496965E+02 -0.72789185263E+01  0.42166468441E+02  0.00000000000E+00 0.  1.
</event>
<event>
 7    1  0.2700104E-013  0.7246155E+02  0.7816164E-02  0.1226708E+00
        -11   -1    0    0    0    0  0.00000000000E+00  0.00000000000E+00  0.45593999997E+02  0.45594000000E+02  0.51100000000E-03 0.  1.
         11   -1    0    0    0    0 -0.00000000000E+00 -0.00000000000E+00 -0.45593999997E+02  0.45594000000E+02  0.51100000000E-03 0. -1.
    9900012    2    1    2    0    0  0.95182901916E+01 -0.95036755346E+01 -0.13029277647E+02  0.72461554185E+02  0.69999979015E+02 0.  0.
        -12    1    1    2    0    0 -0.95182901916E+01  0.95036755346E+01  0.13029277647E+02  0.18726445815E+02  0.00000000000E+00 0.  1.
         11    1    3    3    0    0  0.25821456317E+02  0.32410597676E+01 -0.28854020840E+02  0.38856229791E+02  0.51100000000E-03 0. -1.
        -11    1    3    3    0    0  0.22611708297E+01  0.37130124528E-02 -0.33405999752E+01  0.40339206441E+01  0.51100000000E-03 0.  1.
        -12    1    3    3    0    0 -0.18564336955E+02 -0.12748448315E+02  0.19165343168E+02  0.29571403750E+02  0.00000000000E+00 0.  1.
</event>
<event>
 7    1  0.2700104E-013  0.7246160E+02  0.7816164E-02  0.1226708E+00
        -11   -1    0    0    0    0  0.00000000000E+00  0.00000000000E+00  0.45593999997E+02  0.45594000000E+02  0.51100000000E-03 0.  1.
         11   -1    0    0    0    0 -0.00000000000E+00 -0.00000000000E+00 -0.45593999997E+02  0.45594000000E+02  0.51100000000E-03 0. -1.
    9900012    2    1    2    0    0  0.25849568761E+01  0.18453470740E+02  0.18615880106E+01  0.72461599003E+02  0.70000037398E+02 0.  0.
        -12    1    1    2    0    0 -0.25849568761E+01 -0.18453470740E+02 -0.18615880106E+01  0.18726400997E+02  0.00000000000E+00 0.  1.
         11    1    3    3    0    0  0.19516225953E+02  0.27701500872E+02  0.33642672488E+01  0.34052525904E+02  0.51100000000E-03 0. -1.
        -11    1    3    3    0    0  0.72066582623E+00 -0.41651296932E+01 -0.15019312070E+02  0.15602801028E+02  0.51100000000E-03 0.  1.
        -12    1    3    3    0    0 -0.17651934903E+02 -0.50829004396E+01  0.13516632832E+02  0.22806272072E+02  0.00000000000E+00 0.  1.
</event>
<event>
 7    1  0.2700104E-013  0.7246163E+02  0.7816164E-02  0.1226708E+00
        -11   -1    0    0    0    0  0.00000000000E+00  0.00000000000E+00  0.45593999997E+02  0.45594000000E+02  0.51100000000E-03 0. -1.
         11   -1    0    0    0    0 -0.00000000000E+00 -0.00000000000E+00 -0.45593999997E+02  0.45594000000E+02  0.51100000000E-03 0.  1.
    9900012    2    1    2    0    0  0.16568941319E+02  0.36085849463E+01  0.79451448199E+01  0.72461627475E+02  0.70000074488E+02 0.  0.
        -12    1    1    2    0    0 -0.16568941319E+02 -0.36085849463E+01 -0.79451448199E+01  0.18726372525E+02  0.00000000000E+00 0.  1.
         11    1    3    3    0    0 -0.72209665721E+01  0.22529483459E+02  0.77181566877E+00  0.23670988210E+02  0.51100000000E-03 0. -1.
        -11    1    3    3    0    0  0.10312991584E+02  0.10359394714E+02 -0.31339386776E+01  0.14949796860E+02  0.51100000000E-03 0.  1.
         12    1    3    3    0    0  0.13476916307E+02 -0.29280293226E+02  0.10307267829E+02  0.33840842405E+02  0.00000000000E+00 0. -1.
</event>
<event>
 7    1  0.2700104E-013  0.7246157E+02  0.7816164E-02  0.1226708E+00
        -11   -1    0    0    0    0  0.00000000000E+00  0.00000000000E+00  0.45593999997E+02  0.45594000000E+02  0.51100000000E-03 0. -1.
         11   -1    0    0    0    0 -0.00000000000E+00 -0.00000000000E+00 -0.45593999997E+02  0.45594000000E+02  0.51100000000E-03 0.  1.
    9900012    2    1    2    0    0 -0.57282292868E+01  0.15479280701E+02 -0.88463712717E+01  0.72461574114E+02  0.70000004976E+02 0.  0.
        -12    1    1    2    0    0  0.57282292868E+01 -0.15479280701E+02  0.88463712717E+01  0.18726425886E+02  0.00000000000E+00 0.  1.
         11    1    3    3    0    0 -0.18193059585E+02 -0.11101434085E+02  0.12998615973E+02  0.24963839313E+02  0.51100000000E-03 0. -1.
        -11    1    3    3    0    0 -0.47101631549E+01 -0.39675126226E+01  0.80265276599E-01  0.61589963576E+01  0.51100000000E-03 0.  1.
        -12    1    3    3    0    0  0.17174993453E+02  0.30548227409E+02 -0.21925252521E+02  0.41338738443E+02  0.00000000000E+00 0.  1.
</event>
<event>
 7    1  0.2700104E-013  0.7246157E+02  0.7816164E-02  0.1226708E+00
        -11   -1    0    0    0    0  0.00000000000E+00  0.00000000000E+00  0.45593999997E+02  0.45594000000E+02  0.51100000000E-03 0. -1.
         11   -1    0    0    0    0 -0.00000000000E+00 -0.00000000000E+00 -0.45593999997E+02  0.45594000000E+02  0.51100000000E-03 0.  1.
    9900012    2    1    2    0    0 -0.93200441409E+01 -0.12839643020E+02  0.99478438041E+01  0.72461568091E+02  0.69999997130E+02 0.  0.
        -12    1    1    2    0    0  0.93200441409E+01  0.12839643020E+02 -0.99478438041E+01  0.18726431909E+02  0.00000000000E+00 0.  1.
         11    1    3    3    0    0 -0.14473257547E+02  0.35945994976E-01  0.15338156336E+02  0.21088753311E+02  0.51100000000E-03 0. -1.
        -11    1    3    3    0    0 -0.12492834513E+02 -0.27092689502E+01  0.16893530440E+02  0.21184957479E+02  0.51100000000E-03 0.  1.
        -12    1    3    3    0    0  0.17646047920E+02 -0.10166320065E+02 -0.22283842972E+02  0.30187857301E+02  0.00000000000E+00 0.  1.
</event>
<event>
 7    1  0.2700104E-013  0.7246153E+02  0.7816164E-02  0.1226708E+00
        -11   -1    0    0    0    0  0.00000000000E+00  0.00000000000E+00  0.45593999997E+02  0.45594000000E+02  0.51100000000E-03 0.  1.
         11   -1    0    0    0    0 -0.00000000000E+00 -0.00000000000E+00 -0.45593999997E+02  0.45594000000E+02  0.51100000000E-03 0. -1.
    9900012    2    1    2    0    0  0.17300522884E+01 -0.13051534738E+02 -0.13317100160E+02  0.72461526851E+02  0.69999943407E+02 0.  0.
        -12    1    1    2    0    0 -0.17300522884E+01  0.13051534738E+02  0.13317100160E+02  0.18726473149E+02  0.00000000000E+00 0.  1.
         11    1    3    3    0    0  0.34601908306E+01 -0.13526566084E+02 -0.17960415060E+02  0.22749009209E+02  0.51100000000E-03 0. -1.
        -11    1    3    3    0    0  0.29742678986E+01 -0.81250256698E+01 -0.20756006780E+02  0.22487199234E+02  0.51100000000E-03 0.  1.
        -12    1    3    3    0    0 -0.47044064408E+01  0.86000570158E+01  0.25399321680E+02  0.27225318408E+02  0.00000000000E+00 0.  1.
</event>
<event>
 7    1  0.2700104E-013  0.7246158E+02  0.7816164E-02  0.1226708E+00
        -11   -1    0    0    0    0  0.00000000000E+00  0.00000000000E+00  0.45593999997E+02  0.45594000000E+02  0.51100000000E-03 0. -1.
         11   -1    0    0    0    0 -0.00000000000E+00 -0.00000000000E+00 -0.45593999997E+02  0.45594000000E+02  0.51100000000E-03 0.  1.
    9900012    2    1    2    0    0  0.15691039954E+01 -0.18659283538E+02  0.21877995179E+00  0.72461579782E+02  0.70000012360E+02 0.  0.
        -12    1    1    2    0    0 -0.15691039954E+01  0.18659283538E+02 -0.21877995179E+00  0.18726420218E+02  0.00000000000E+00 0.  1.
         11    1    3    3    0    0  0.16894212557E+02 -0.29471908598E+02 -0.47425399416E+01  0.34300138479E+02  0.51100000000E-03 0. -1.
        -11    1    3    3    0    0 -0.64256214835E+01  0.12816837822E+01 -0.13821474668E+02  0.15295897719E+02  0.51100000000E-03 0.  1.
        -12    1    3    3    0    0 -0.88994870784E+01  0.95309412772E+01  0.18782794561E+02  0.22865543584E+02  0.00000000000E+00 0.  1.
</event>
<event>
 7    1  0.2700104E-013  0.7246155E+02  0.7816164E-02  0.1226708E+00
        -11   -1    0    0    0    0  0.00000000000E+00  0.00000000000E+00  0.45593999997E+02  0.45594000000E+02  0.51100000000E-03 0. -1.
         11   -1    0    0    0    0 -0.00000000000E+00 -0.00000000000E+00 -0.45593999997E+02  0.45594000000E+02  0.51100000000E-03 0.  1.
    9900012    2    1    2    0    0  0.12309223114E+00  0.11133812000E+02  0.15056663005E+02  0.72461547528E+02  0.69999970343E+02 0.  0.
        -12    1    1    2    0    0 -0.12309223114E+00 -0.11133812000E+02 -0.15056663005E+02  0.18726452472E+02  0.00000000000E+00 0.  1.
         11    1    3    3    0    0 -0.18625565358E+02 -0.17319375446E+02  0.11355143858E+02  0.27853397334E+02  0.51100000000E-03 0. -1.
        -11    1    3    3    0    0 -0.73483228674E+01  0.36015529337E+01 -0.10839127369E+01  0.82549318337E+01  0.51100000000E-03 0.  1.
         12    1    3    3    0    0  0.26096980456E+02  0.24851634512E+02  0.47854318843E+01  0.36353218361E+02  0.00000000000E+00 0. -1.
</event>
<event>
 7    1  0.2700104E-013  0.7246156E+02  0.7816164E-02  0.1226708E+00
        -11   -1    0    0    0    0  0.00000000000E+00  0.00000000000E+00  0.45593999997E+02  0.45594000000E+02  0.51100000000E-03 0.  1.
         11   -1    0    0    0    0 -0.00000000000E+00 -0.00000000000E+00 -0.45593999997E+02  0.45594000000E+02  0.51100000000E-03 0. -1.
    9900012    2    1    2    0    0  0.11251846734E+02  0.12861192692E+01 -0.14913804355E+02  0.72461555648E+02  0.69999980921E+02 0.  0.
        -12    1    1    2    0    0 -0.11251846734E+02 -0.12861192692E+01  0.14913804355E+02  0.18726444352E+02  0.00000000000E+00 0.  1.
         11    1    3    3    0    0  0.45657984677E+00  0.11683395613E+02 -0.23722447050E+01  0.11930538270E+02  0.51100000000E-03 0. -1.
        -11    1    3    3    0    0  0.17957072766E+02 -0.18871065339E+01  0.19522712900E+02  0.26592366435E+02  0.51100000000E-03 0.  1.
         12    1    3    3    0    0 -0.71618058784E+01 -0.85101698103E+01 -0.32064272550E+02  0.33938650943E+02  0.00000000000E+00 0. -1.
</event>
<event>
 7    1  0.2700104E-013  0.7246154E+02  0.7816164E-02  0.1226708E+00
        -11   -1    0    0    0    0  0.00000000000E+00  0.00000000000E+00  0.45593999997E+02  0.45594000000E+02  0.51100000000E-03 0. -1.
         11   -1    0    0    0    0 -0.00000000000E+00 -0.00000000000E+00 -0.45593999997E+02  0.45594000000E+02  0.51100000000E-03 0.  1.
    9900012    2    1    2    0    0 -0.72957082395E+01  0.16171134280E+00  0.17246066279E+02  0.72461539806E+02  0.69999960284E+02 0.  0.
        -12    1    1    2    0    0  0.72957082395E+01 -0.16171134280E+00 -0.17246066279E+02  0.18726460194E+02  0.00000000000E+00 0.  1.
         11    1    3    3    0    0  0.26555465161E+01  0.23671960112E+02 -0.31969293274E+01  0.24034017147E+02  0.51100000000E-03 0. -1.
        -11    1    3    3    0    0 -0.37148610670E+01 -0.74467834332E+01 -0.10265371500E+02  0.13214863924E+02  0.51100000000E-03 0.  1.
        -12    1    3    3    0    0 -0.62363936885E+01 -0.16063465336E+02  0.30708367106E+02  0.35212658735E+02  0.00000000000E+00 0.  1.
</event>
<event>
 7    1  0.2700104E-013  0.7246159E+02  0.7816164E-02  0.1226708E+00
        -11   -1    0    0    0    0  0.00000000000E+00  0.00000000000E+00  0.45593999997E+02  0.45594000000E+02  0.51100000000E-03 0.  1.
         11   -1    0    0    0    0 -0.00000000000E+00 -0.00000000000E+00 -0.45593999997E+02  0.45594000000E+02  0.51100000000E-03 0. -1.
    9900012    2    1    2    0    0 -0.43889504563E+01 -0.17999033275E+02  0.27295115093E+01  0.72461593030E+02  0.70000029617E+02 0.  0.
        -12    1    1    2    0    0  0.43889504563E+01  0.17999033275E+02 -0.27295115093E+01  0.18726406970E+02  0.00000000000E+00 0.  1.
         11    1    3    3    0    0 -0.88506923809E+01 -0.24282897231E+02 -0.78317879714E+01  0.27006124428E+02  0.51100000000E-03 0. -1.
        -11    1    3    3    0    0  0.96664977367E+01 -0.15791031333E+02  0.13031648018E+02  0.22641150576E+02  0.51100000000E-03 0.  1.
         12    1    3    3    0    0 -0.52047558121E+01  0.22074895290E+02 -0.24703485371E+01  0.22814318026E+02  0.00000000000E+00 0. -1.
</event>
<event>
 7    1  0.2700104E-013  0.7246158E+02  0.7816164E-02  0.1226708E+00
        -11   -1    0    0    0    0  0.00000000000E+00  0.00000000000E+00  0.45593999997E+02  0.45594000000E+02  0.51100000000E-03 0. -1.
         11   -1    0    0    0    0 -0.00000000000E+00 -0.00000000000E+00 -0.45593999997E+02  0.45594000000E+02  0.51100000000E-03 0.  1.
    9900012    2    1    2    0    0 -0.13528687800E+01 -0.18516330120E+02  0.24483086197E+01  0.72461576152E+02  0.70000007631E+02 0.  0.
        -12    1    1    2    0    0  0.13528687800E+01  0.18516330120E+02 -0.24483086197E+01  0.18726423848E+02  0.00000000000E+00 0.  1.
         11    1    3    3    0    0  0.14696830723E+02 -0.45207269770E+01  0.78980029223E+01  0.17286186859E+02  0.51100000000E-03 0. -1.
        -11    1    3    3    0    0 -0.21569499451E+01 -0.23082973295E+01  0.22021612173E+02  0.22247068854E+02  0.51100000000E-03 0.  1.
        -12    1    3    3    0    0 -0.13892749558E+02 -0.11687305813E+02 -0.27471306476E+02  0.32928320439E+02  0.00000000000E+00 0.  1.
</event>
<event>
 7    1  0.2700104E-013  0.7246168E+02  0.7816164E-02  0.1226708E+00
        -11   -1    0    0    0    0  0.00000000000E+00  0.00000000000E+00  0.45593999997E+02  0.45594000000E+02  0.51100000000E-03 0. -1.
         11   -1    0    0    0    0 -0.00000000000E+00 -0.00000000000E+00 -0.45593999997E+02  0.45594000000E+02  0.51100000000E-03 0.  1.
    9900012    2    1    2    0    0  0.32711715945E+01 -0.13596947672E+02 -0.12453807782E+02  0.72461684883E+02  0.70000149273E+02 0.  0.
        -12    1    1    2    0    0 -0.32711715945E+01  0.13596947672E+02  0.12453807782E+02  0.18726315117E+02  0.00000000000E+00 0.  1.
         11    1    3    3    0    0  0.13076771455E+02  0.20411222998E+02 -0.13613339275E+02  0.27801852140E+02  0.51100000000E-03 0. -1.
        -11    1    3    3    0    0  0.20749845067E+01  0.24279228889E+01  0.52217537434E+01  0.61210360786E+01  0.51100000000E-03 0.  1.
        -12    1    3    3    0    0 -0.11880584367E+02 -0.36436093558E+02 -0.40622222513E+01  0.38538796664E+02  0.00000000000E+00 0.  1.
</event>
<event>
 7    1  0.2700104E-013  0.7246156E+02  0.7816164E-02  0.1226708E+00
        -11   -1    0    0    0    0  0.00000000000E+00  0.00000000000E+00  0.45593999997E+02  0.45594000000E+02  0.51100000000E-03 0.  1.
         11   -1    0    0    0    0 -0.00000000000E+00 -0.00000000000E+00 -0.45593999997E+02  0.45594000000E+02  0.51100000000E-03 0. -1.
    9900012    2    1    2    0    0 -0.98346955351E+00  0.17056509286E+02 -0.76673280569E+01  0.72461557708E+02  0.69999983604E+02 0.  0.
        -12    1    1    2    0    0  0.98346955351E+00 -0.17056509286E+02  0.76673280569E+01  0.18726442292E+02  0.00000000000E+00 0.  1.
         11    1    3    3    0    0 -0.31181442789E+01  0.13905267723E+02 -0.69499306531E+01  0.15854993867E+02  0.51100000000E-03 0. -1.
        -11    1    3    3    0    0  0.87867862762E+01  0.25062543077E+02  0.13357346149E+02  0.29728057033E+02  0.51100000000E-03 0.  1.
        -12    1    3    3    0    0 -0.66521115508E+01 -0.21911301514E+02 -0.14074743553E+02  0.26878506808E+02  0.00000000000E+00 0.  1.
</event>
<event>
 7    1  0.2700104E-013  0.7246156E+02  0.7816164E-02  0.1226708E+00
        -11   -1    0    0    0    0  0.00000000000E+00  0.00000000000E+00  0.45593999997E+02  0.45594000000E+02  0.51100000000E-03 0. -1.
         11   -1    0    0    0    0 -0.00000000000E+00 -0.00000000000E+00 -0.45593999997E+02  0.45594000000E+02  0.51100000000E-03 0.  1.
    9900012    2    1    2    0    0 -0.10043302580E+02  0.11112399909E+02  0.11239488820E+02  0.72461562341E+02  0.69999989640E+02 0.  0.
        -12    1    1    2    0    0  0.10043302580E+02 -0.11112399909E+02 -0.11239488820E+02  0.18726437659E+02  0.00000000000E+00 0.  1.
         11    1    3    3    0    0 -0.16036590110E+01  0.32428582650E+02  0.21621946502E+02  0.39008887009E+02  0.51100000000E-03 0. -1.
        -11    1    3    3    0    0 -0.11662525025E+02 -0.47600523277E+01  0.16915869914E+01  0.12709604830E+02  0.51100000000E-03 0.  1.
        -12    1    3    3    0    0  0.32228814553E+01 -0.16556130413E+02 -0.12074044673E+02  0.20743070503E+02  0.00000000000E+00 0.  1.
</event>
<event>
 7    1  0.2700104E-013  0.7246159E+02  0.7816164E-02  0.1226708E+00
        -11   -1    0    0    0    0  0.00000000000E+00  0.00000000000E+00  0.45593999997E+02  0.45594000000E+02  0.51100000000E-03 0.  1.
         11   -1    0    0    0    0 -0.00000000000E+00 -0.00000000000E+00 -0.45593999997E+02  0.45594000000E+02  0.51100000000E-03 0. -1.
    9900012    2    1    2    0    0  0.42784132755E+01  0.65580998025E+01 -0.17010726141E+02  0.72461593590E+02  0.70000030347E+02 0.  0.
        -12    1    1    2    0    0 -0.42784132755E+01 -0.65580998025E+01  0.17010726141E+02  0.18726406410E+02  0.00000000000E+00 0.  1.
         11    1    3    3    0    0  0.14811168575E+02  0.67301543330E+01 -0.90925040730E+01  0.18637041677E+02  0.51100000000E-03 0. -1.
        -11    1    3    3    0    0  0.15976779338E+02  0.73627066716E+01 -0.17337984894E+02  0.24699648742E+02  0.51100000000E-03 0.  1.
        -12    1    3    3    0    0 -0.26509534637E+02 -0.75347612021E+01  0.94197628259E+01  0.29124903171E+02  0.00000000000E+00 0.  1.
</event>
<event>
 7    1  0.2700104E-013  0.7246156E+02  0.7816164E-02  0.1226708E+00
        -11   -1    0    0    0    0  0.00000000000E+00  0.00000000000E+00  0.45593999997E+02  0.45594000000E+02  0.51100000000E-03 0.  1.
         11   -1    0    0    0    0 -0.00000000000E+00 -0.00000000000E+00 -0.45593999997E+02  0.45594000000E+02  0.51100000000E-03 0. -1.
    9900012    2    1    2    0    0 -0.10665412991E+01  0.16893493755E+02  0.80094954175E+01  0.72461557240E+02  0.69999982995E+02 0.  0.
        -12    1    1    2    0    0  0.10665412991E+01 -0.16893493755E+02 -0.80094954175E+01  0.18726442760E+02  0.00000000000E+00 0.  1.
         11    1    3    3    0    0 -0.67097166748E+01  0.10693108061E+02 -0.10973079278E+02  0.16726366221E+02  0.51100000000E-03 0. -1.
        -11    1    3    3    0    0  0.32609926279E+01 -0.96445685048E+01 -0.15020667311E+02  0.18145859618E+02  0.51100000000E-03 0.  1.
         12    1    3    3    0    0  0.23821827478E+01  0.15844954199E+02  0.34003242007E+02  0.37589331401E+02  0.00000000000E+00 0. -1.
</event>
<event>
 7    1  0.2700104E-013  0.7246159E+02  0.7816164E-02  0.1226708E+00
        -11   -1    0    0    0    0  0.00000000000E+00  0.00000000000E+00  0.45593999997E+02  0.45594000000E+02  0.51100000000E-03 0.  1.
         11   -1    0    0    0    0 -0.00000000000E+00 -0.00000000000E+00 -0.45593999997E+02  0.45594000000E+02  0.51100000000E-03 0. -1.
    9900012    2    1    2    0    0  0.80775611380E+01 -0.52201336208E+01 -0.16068037421E+02  0.72461585086E+02  0.70000019269E+02 0.  0.
        -12    1    1    2    0    0 -0.80775611380E+01  0.52201336208E+01  0.16068037421E+02  0.18726414914E+02  0.00000000000E+00 0.  1.
         11    1    3    3    0    0 -0.11658549728E+02 -0.24834004043E+01 -0.38385107176E+00  0.11926290338E+02  0.51100000000E-03 0. -1.
        -11    1    3    3    0    0 -0.18065742229E+02 -0.75523766668E+01 -0.71680812532E+00  0.19593959522E+02  0.51100000000E-03 0.  1.
         12    1    3    3    0    0  0.37801853095E+02  0.48156434503E+01 -0.14967378224E+02  0.40941335226E+02  0.00000000000E+00 0. -1.
</event>
<event>
 7    1  0.2700104E-013  0.7246170E+02  0.7816164E-02  0.1226708E+00
        -11   -1    0    0    0    0  0.00000000000E+00  0.00000000000E+00  0.45593999997E+02  0.45594000000E+02  0.51100000000E-03 0. -1.
         11   -1    0    0    0    0 -0.00000000000E+00 -0.00000000000E+00 -0.45593999997E+02  0.45594000000E+02  0.51100000000E-03 0.  1.
    9900012    2    1    2    0    0  0.13117674778E+02  0.12946805371E+02 -0.33137791171E+01  0.72461700501E+02  0.70000169618E+02 0.  0.
        -12    1    1    2    0    0 -0.13117674778E+02 -0.12946805371E+02  0.33137791171E+01  0.18726299499E+02  0.00000000000E+00 0.  1.
         11    1    3    3    0    0  0.30901269776E+01 -0.65773453473E-01 -0.15029614440E+02  0.15344136383E+02  0.51100000000E-03 0. -1.
        -11    1    3    3    0    0  0.74316327647E+00  0.56456645510E+01 -0.21295181352E+02  0.22043379254E+02  0.51100000000E-03 0.  1.
         12    1    3    3    0    0  0.92843845240E+01  0.73669142736E+01  0.33011016675E+02  0.35074184863E+02  0.00000000000E+00 0. -1.
</event>
<event>
 7    1  0.2700104E-013  0.7246157E+02  0.7816164E-02  0.1226708E+00
        -11   -1    0    0    0    0  0.00000000000E+00  0.00000000000E+00  0.45593999997E+02  0.45594000000E+02  0.51100000000E-03 0. -1.
         11   -1    0    0    0    0 -0.00000000000E+00 -0.00000000000E+00 -0.45593999997E+02  0.45594000000E+02  0.51100000000E-03 0.  1.
    9900012    2    1    2    0    0 -0.12362562700E+02  0.12239757921E+01  0.14012426865E+02  0.72461570017E+02  0.69999999639E+02 0.  0.
        -12    1    1    2    0    0  0.12362562700E+02 -0.12239757921E+01 -0.14012426865E+02  0.18726429983E+02  0.00000000000E+00 0.  1.
         11    1    3    3    0    0  0.15985935661E+02 -0.23904719426E+00 -0.82141139785E+00  0.16008810058E+02  0.51100000000E-03 0. -1.
        -11    1    3    3    0    0  0.11782468003E+02  0.85627248460E+00  0.10987459158E+02  0.16133319988E+02  0.51100000000E-03 0.  1.
         12    1    3    3    0    0 -0.40130966364E+02  0.60675050176E+00  0.38463791051E+01  0.40319439972E+02  0.00000000000E+00 0. -1.
</event>
<event>
 7    1  0.2700104E-013  0.7246166E+02  0.7816164E-02  0.1226708E+00
        -11   -1    0    0    0    0  0.00000000000E+00  0.00000000000E+00  0.45593999997E+02  0.45594000000E+02  0.51100000000E-03 0.  1.
         11   -1    0    0    0    0 -0.00000000000E+00 -0.00000000000E+00 -0.45593999997E+02  0.45594000000E+02  0.51100000000E-03 0. -1.
    9900012    2    1    2    0    0  0.48386672838E+01 -0.48887680563E+01 -0.17417319326E+02  0.72461661151E+02  0.70000118357E+02 0.  0.
        -12    1    1    2    0    0 -0.48386672838E+01  0.48887680563E+01  0.17417319326E+02  0.18726338849E+02  0.00000000000E+00 0.  1.
         11    1    3    3    0    0  0.27028249156E+02 -0.14970627573E+02 -0.50850056897E+00  0.30901529338E+02  0.51100000000E-03 0. -1.
        -11    1    3    3    0    0  0.64108449126E+01  0.21824172461E+01 -0.82045764640E+01  0.10638465714E+02  0.51100000000E-03 0.  1.
        -12    1    3    3    0    0 -0.28600426784E+02  0.78994422706E+01 -0.87042422931E+01  0.30921666099E+02  0.00000000000E+00 0.  1.
</event>
<event>
 7    1  0.2700104E-013  0.7246156E+02  0.7816164E-02  0.1226708E+00
        -11   -1    0    0    0    0  0.00000000000E+00  0.00000000000E+00  0.45593999997E+02  0.45594000000E+02  0.51100000000E-03 0.  1.
         11   -1    0    0    0    0 -0.00000000000E+00 -0.00000000000E+00 -0.45593999997E+02  0.45594000000E+02  0.51100000000E-03 0. -1.
    9900012    2    1    2    0    0 -0.15550938201E+02  0.55584834848E+01 -0.88289897264E+01  0.72461562080E+02  0.69999989300E+02 0.  0.
        -12    1    1    2    0    0  0.15550938201E+02 -0.55584834848E+01  0.88289897264E+01  0.18726437920E+02  0.00000000000E+00 0.  1.
         11    1    3    3    0    0 -0.54580645178E+01  0.41772369416E+01 -0.10780362931E+02  0.12784991276E+02  0.51100000000E-03 0. -1.
        -11    1    3    3    0    0  0.21154683082E+02 -0.98742865980E+01  0.10165641797E+02  0.25462961837E+02  0.51100000000E-03 0.  1.
         12    1    3    3    0    0 -0.31247556764E+02  0.11255533141E+02 -0.82142685921E+01  0.34213608967E+02  0.00000000000E+00 0. -1.
</event>
<event>
 7    1  0.2700104E-013  0.7246146E+02  0.7816164E-02  0.1226708E+00
        -11   -1    0    0    0    0  0.00000000000E+00  0.00000000000E+00  0.45593999997E+02  0.45594000000E+02  0.51100000000E-03 0.  1.
         11   -1    0    0    0    0 -0.00000000000E+00 -0.00000000000E+00 -0.45593999997E+02  0.45594000000E+02  0.51100000000E-03 0. -1.
    9900012    2    1    2    0    0 -0.11533687764E+02  0.46672734876E+01 -0.13995492086E+02  0.72461462841E+02  0.69999860021E+02 0.  0.
        -12    1    1    2    0    0  0.11533687764E+02 -0.46672734876E+01  0.13995492086E+02  0.18726537159E+02  0.00000000000E+00 0.  1.
         11    1    3    3    0    0 -0.81520451546E+01 -0.80571637659E+01 -0.10223112552E+02  0.15358572807E+02  0.51100000000E-03 0. -1.
        -11    1    3    3    0    0 -0.55026370771E+01 -0.99424376817E+01 -0.24060330964E+02  0.26608844549E+02  0.51100000000E-03 0.  1.
         12    1    3    3    0    0  0.21209944677E+01  0.22666874935E+02  0.20287951429E+02  0.30494045485E+02  0.00000000000E+00 0. -1.
</event>
<event>
 7    1  0.2700104E-013  0.7246153E+02  0.7816164E-02  0.1226708E+00
        -11   -1    0    0    0    0  0.00000000000E+00  0.00000000000E+00  0.45593999997E+02  0.45594000000E+02  0.51100000000E-03 0.  1.
         11   -1    0    0    0    0 -0.00000000000E+00 -0.00000000000E+00 -0.45593999997E+02  0.45594000000E+02  0.51100000000E-03 0. -1.
    9900012    2    1    2    0    0  0.11115358322E+02  0.79248837185E+01 -0.12818963041E+02  0.72461527133E+02  0.69999943775E+02 0.  0.
        -12    1    1    2    0    0 -0.11115358322E+02 -0.79248837185E+01  0.12818963041E+02  0.18726472867E+02  0.00000000000E+00 0.  1.
         11    1    3    3    0    0  0.12483692926E+01  0.27498169095E+01 -0.68212256072E+01  0.74598282803E+01  0.51100000000E-03 0. -1.
        -11    1    3    3    0    0 -0.20062332602E+02  0.82068755605E+01  0.16661872080E+02  0.27339860595E+02  0.51100000000E-03 0.  1.
         12    1    3    3    0    0  0.29929321631E+02 -0.30318087515E+01 -0.22659609514E+02  0.37661838258E+02  0.00000000000E+00 0. -1.
</event>
<event>
 7    1  0.2700104E-013  0.7246180E+02  0.7816164E-02  0.1226707E+00
        -11   -1    0    0    0    0  0.00000000000E+00  0.00000000000E+00  0.45593999997E+02  0.45594000000E+02  0.51100000000E-03 0.  1.
         11   -1    0    0    0    0 -0.00000000000E+00 -0.00000000000E+00 -0.45593999997E+02  0.45594000000E+02  0.51100000000E-03 0. -1.
    9900012    2    1    2    0    0 -0.15212458202E+02  0.86972764349E+01 -0.66037247794E+01  0.72461796891E+02  0.70000295183E+02 0.  0.
        -12    1    1    2    0    0  0.15212458202E+02 -0.86972764349E+01  0.66037247794E+01  0.18726203109E+02  0.00000000000E+00 0.  1.
         11    1    3    3    0    0  0.15516659607E+01  0.27836216807E+02  0.21710395519E+00  0.27880275604E+02  0.51100000000E-03 0. -1.
        -11    1    3    3    0    0 -0.43131499957E+01  0.10732092365E+02 -0.33032124895E+01  0.12028810516E+02  0.51100000000E-03 0.  1.
        -12    1    3    3    0    0 -0.12450974167E+02 -0.29871032737E+02 -0.35176162451E+01  0.32552710771E+02  0.00000000000E+00 0.  1.
</event>
<event>
 7    1  0.2700104E-013  0.7246152E+02  0.7816164E-02  0.1226708E+00
        -11   -1    0    0    0    0  0.00000000000E+00  0.00000000000E+00  0.45593999997E+02  0.45594000000E+02  0.51100000000E-03 0. -1.
         11   -1    0    0    0    0 -0.00000000000E+00 -0.00000000000E+00 -0.45593999997E+02  0.45594000000E+02  0.51100000000E-03 0.  1.
    9900012    2    1    2    0    0  0.11123272643E+02  0.92009011379E+01  0.11928842345E+02  0.72461519932E+02  0.69999934393E+02 0.  0.
        -12    1    1    2    0    0 -0.11123272643E+02 -0.92009011379E+01 -0.11928842345E+02  0.18726480068E+02  0.00000000000E+00 0.  1.
         11    1    3    3    0    0 -0.63834761950E+01 -0.12597873722E+02  0.26014222843E+02  0.29600590890E+02  0.51100000000E-03 0. -1.
        -11    1    3    3    0    0  0.52375024001E+01 -0.51354393235E+01 -0.10837118381E+02  0.13086149300E+02  0.51100000000E-03 0.  1.
         12    1    3    3    0    0  0.12269246438E+02  0.26934214184E+02 -0.32482621166E+01  0.29774779741E+02  0.00000000000E+00 0. -1.
</event>
<event>
 7    1  0.2700104E-013  0.7246169E+02  0.7816164E-02  0.1226708E+00
        -11   -1    0    0    0    0  0.00000000000E+00  0.00000000000E+00  0.45593999997E+02  0.45594000000E+02  0.51100000000E-03 0.  1.
         11   -1    0    0    0    0 -0.00000000000E+00 -0.00000000000E+00 -0.45593999997E+02  0.45594000000E+02  0.51100000000E-03 0. -1.
    9900012    2    1    2    0    0 -0.15830837290E+02 -0.31154227365E+01 -0.95054370620E+01  0.72461692252E+02  0.70000158873E+02 0.  0.
        -12    1    1    2    0    0  0.15830837290E+02  0.31154227365E+01  0.95054370620E+01  0.18726307748E+02  0.00000000000E+00 0.  1.
         11    1    3    3    0    0 -0.26393307412E+02 -0.16506113210E+02 -0.45390747575E+01  0.31458888241E+02  0.51100000000E-03 0. -1.
        -11    1    3    3    0    0 -0.11036192632E+02  0.59694902770E+01 -0.11738226421E+02  0.17181918454E+02  0.51100000000E-03 0.  1.
        -12    1    3    3    0    0  0.21598662755E+02  0.74212001962E+01  0.67718641165E+01  0.23820885558E+02  0.00000000000E+00 0.  1.
</event>
<event>
 7    1  0.2700104E-013  0.7246155E+02  0.7816164E-02  0.1226708E+00
        -11   -1    0    0    0    0  0.00000000000E+00  0.00000000000E+00  0.45593999997E+02  0.45594000000E+02  0.51100000000E-03 0.  1.
         11   -1    0    0    0    0 -0.00000000000E+00 -0.00000000000E+00 -0.45593999997E+02  0.45594000000E+02  0.51100000000E-03 0. -1.
    9900012    2    1    2    0    0  0.10789613226E+02 -0.48221730683E+01 -0.14526208984E+02  0.72461552015E+02  0.69999976188E+02 0.  0.
        -12    1    1    2    0    0 -0.10789613226E+02  0.48221730683E+01  0.14526208984E+02  0.18726447985E+02  0.00000000000E+00 0.  1.
         11    1    3    3    0    0 -0.66214767006E+00  0.30789973484E+00 -0.58080595710E-01  0.73254037459E+00  0.51100000000E-03 0. -1.
        -11    1    3    3    0    0  0.11522927059E+01 -0.35932719550E+02  0.52829323827E+00  0.35955072059E+02  0.51100000000E-03 0.  1.
         12    1    3    3    0    0  0.10299468191E+02  0.30802646747E+02 -0.14996421626E+02  0.35773939582E+02  0.00000000000E+00 0. -1.
</event>
<event>
 7    1  0.2700104E-013  0.7246160E+02  0.7816164E-02  0.1226708E+00
        -11   -1    0    0    0    0  0.00000000000E+00  0.00000000000E+00  0.45593999997E+02  0.45594000000E+02  0.51100000000E-03 0. -1.
         11   -1    0    0    0    0 -0.00000000000E+00 -0.00000000000E+00 -0.45593999997E+02  0.45594000000E+02  0.51100000000E-03 0.  1.
    9900012    2    1    2    0    0  0.13872517587E+02 -0.12133331084E+02  0.33186547769E+01  0.72461603205E+02  0.70000042873E+02 0.  0.
        -12    1    1    2    0    0 -0.13872517587E+02  0.12133331084E+02 -0.33186547769E+01  0.18726396795E+02  0.00000000000E+00 0.  1.
         11    1    3    3    0    0  0.80582331644E+01 -0.16317842710E+02  0.42041335074E+01  0.18678379246E+02  0.51100000000E-03 0. -1.
        -11    1    3    3    0    0  0.15371054411E+02 -0.20993790565E+02  0.42578928368E+01  0.26365473780E+02  0.51100000000E-03 0.  1.
        -12    1    3    3    0    0 -0.95567699883E+01  0.25178302191E+02 -0.51433715673E+01  0.27417750180E+02  0.00000000000E+00 0.  1.
</event>
<event>
 7    1  0.2700104E-013  0.7246214E+02  0.7816164E-02  0.1226706E+00
        -11   -1    0    0    0    0  0.00000000000E+00  0.00000000000E+00  0.45593999997E+02  0.45594000000E+02  0.51100000000E-03 0.  1.
         11   -1    0    0    0    0 -0.00000000000E+00 -0.00000000000E+00 -0.45593999997E+02  0.45594000000E+02  0.51100000000E-03 0. -1.
    9900012    2    1    2    0    0 -0.16193261411E+02  0.50787270983E+01 -0.79147079044E+01  0.72462141267E+02  0.70000743795E+02 0.  0.
        -12    1    1    2    0    0  0.16193261411E+02 -0.50787270983E+01  0.79147079044E+01  0.18725858733E+02  0.00000000000E+00 0.  1.
         11    1    3    3    0    0  0.37957864491E+01  0.14141969240E+02 -0.18327002600E+02  0.23458096967E+02  0.51100000000E-03 0. -1.
        -11    1    3    3    0    0  0.12152020461E+02 -0.33118532184E-01 -0.37811072340E+01  0.12726722685E+02  0.51100000000E-03 0.  1.
        -12    1    3    3    0    0 -0.32141068321E+02 -0.90301236099E+01  0.14193401929E+02  0.36277321615E+02  0.00000000000E+00 0.  1.
</event>
<event>
 7    1  0.2700104E-013  0.7246169E+02  0.7816164E-02  0.1226708E+00
        -11   -1    0    0    0    0  0.00000000000E+00  0.00000000000E+00  0.45593999997E+02  0.45594000000E+02  0.51100000000E-03 0.  1.
         11   -1    0    0    0    0 -0.00000000000E+00 -0.00000000000E+00 -0.45593999997E+02  0.45594000000E+02  0.51100000000E-03 0. -1.
    9900012    2    1    2    0    0 -0.10494741619E+02 -0.91198982906E+01 -0.12544420664E+02  0.72461691333E+02  0.70000157676E+02 0.  0.
        -12    1    1    2    0    0  0.10494741619E+02  0.91198982906E+01  0.12544420664E+02  0.18726308667E+02  0.00000000000E+00 0.  1.
         11    1    3    3    0    0 -0.23758419769E+02 -0.14780898549E+02 -0.18977692256E+02  0.33809618091E+02  0.51100000000E-03 0. -1.
        -11    1    3    3    0    0  0.16362656452E+01 -0.12718612202E+02  0.10441862637E+02  0.16537017784E+02  0.51100000000E-03 0.  1.
        -12    1    3    3    0    0  0.11627412505E+02  0.18379612460E+02 -0.40085910451E+01  0.22115055458E+02  0.00000000000E+00 0.  1.
</event>
<event>
 7    1  0.2700104E-013  0.7246155E+02  0.7816164E-02  0.1226708E+00
        -11   -1    0    0    0    0  0.00000000000E+00  0.00000000000E+00  0.45593999997E+02  0.45594000000E+02  0.51100000000E-03 0.  1.
         11   -1    0    0    0    0 -0.00000000000E+00 -0.00000000000E+00 -0.45593999997E+02  0.45594000000E+02  0.51100000000E-03 0. -1.
    9900012    2    1    2    0    0  0.45059245914E+01 -0.11498919775E+02 -0.14076628329E+02  0.72461548721E+02  0.69999971896E+02 0.  0.
        -12    1    1    2    0    0 -0.45059245914E+01  0.11498919775E+02  0.14076628329E+02  0.18726451279E+02  0.00000000000E+00 0.  1.
         11    1    3    3    0    0 -0.44384776644E+01  0.36625684442E+01  0.26642868302E+01  0.63413654808E+01  0.51100000000E-03 0. -1.
        -11    1    3    3    0    0  0.20537264618E+02 -0.17874969142E+02  0.15793349992E+02  0.31475763121E+02  0.51100000000E-03 0.  1.
         12    1    3    3    0    0 -0.11592862362E+02  0.27134809226E+01 -0.32534265151E+02  0.34644420119E+02  0.00000000000E+00 0. -1.
</event>
<event>
 7    1  0.2700104E-013  0.7246157E+02  0.7816164E-02  0.1226708E+00
        -11   -1    0    0    0    0  0.00000000000E+00  0.00000000000E+00  0.45593999997E+02  0.45594000000E+02  0.51100000000E-03 0.  1.
         11   -1    0    0    0    0 -0.00000000000E+00 -0.00000000000E+00 -0.45593999997E+02  0.45594000000E+02  0.51100000000E-03 0. -1.
    9900012    2    1    2    0    0 -0.27387532269E+01  0.80791751557E+00 -0.18507448315E+02  0.72461571001E+02  0.70000000920E+02 0.  0.
        -12    1    1    2    0    0  0.27387532269E+01 -0.80791751557E+00  0.18507448315E+02  0.18726428999E+02  0.00000000000E+00 0.  1.
         11    1    3    3    0    0  0.14027385700E+02  0.36358881507E+01 -0.26911415846E+01  0.14738706711E+02  0.51100000000E-03 0. -1.
        -11    1    3    3    0    0 -0.15274949780E+01 -0.26310150324E+02 -0.13560985541E+02  0.29638785064E+02  0.51100000000E-03 0.  1.
         12    1    3    3    0    0 -0.15238643949E+02  0.23482179689E+02 -0.22553211891E+01  0.28084079226E+02  0.00000000000E+00 0. -1.
</event>
<event>
 7    1  0.2700104E-013  0.7246165E+02  0.7816164E-02  0.1226708E+00
        -11   -1    0    0    0    0  0.00000000000E+00  0.00000000000E+00  0.45593999997E+02  0.45594000000E+02  0.51100000000E-03 0.  1.
         11   -1    0    0    0    0 -0.00000000000E+00 -0.00000000000E+00 -0.45593999997E+02  0.45594000000E+02  0.51100000000E-03 0. -1.
    9900012    2    1    2    0    0  0.17471299529E+02 -0.60981226190E+01  0.28709967624E+01  0.72461654144E+02  0.70000109229E+02 0.  0.
        -12    1    1    2    0    0 -0.17471299529E+02  0.60981226190E+01 -0.28709967624E+01  0.18726345856E+02  0.00000000000E+00 0.  1.
         11    1    3    3    0    0 -0.56727808311E+01  0.15447024145E+02 -0.15337084576E+02  0.22494825201E+02  0.51100000000E-03 0. -1.
        -11    1    3    3    0    0  0.45272977788E+01  0.38979412684E+01  0.17435525898E+02  0.18430624919E+02  0.51100000000E-03 0.  1.
         12    1    3    3    0    0  0.18616782582E+02 -0.25443088032E+02  0.77255544027E+00  0.31536204024E+02  0.00000000000E+00 0. -1.
</event>
<event>
 7    1  0.2700104E-013  0.7246156E+02  0.7816164E-02  0.1226708E+00
        -11   -1    0    0    0    0  0.00000000000E+00  0.00000000000E+00  0.45593999997E+02  0.45594000000E+02  0.51100000000E-03 0.  1.
         11   -1    0    0    0    0 -0.00000000000E+00 -0.00000000000E+00 -0.45593999997E+02  0.45594000000E+02  0.51100000000E-03 0. -1.
    9900012    2    1    2    0    0  0.22452065221E+01 -0.74323738156E+01 -0.17041081141E+02  0.72461559353E+02  0.69999985747E+02 0.  0.
        -12    1    1    2    0    0 -0.22452065221E+01  0.74323738156E+01  0.17041081141E+02  0.18726440647E+02  0.00000000000E+00 0.  1.
         11    1    3    3    0    0 -0.13157391176E+02 -0.89154695281E+01  0.21571288594E+01  0.16039194015E+02  0.51100000000E-03 0. -1.
        -11    1    3    3    0    0  0.19398480461E+02  0.20875240492E+02 -0.22551694671E+02  0.36340826113E+02  0.51100000000E-03 0.  1.
         12    1    3    3    0    0 -0.39958827630E+01 -0.19392144779E+02  0.33534846712E+01  0.20081539225E+02  0.00000000000E+00 0. -1.
</event>
<event>
 7    1  0.2700104E-013  0.7246166E+02  0.7816164E-02  0.1226708E+00
        -11   -1    0    0    0    0  0.00000000000E+00  0.00000000000E+00  0.45593999997E+02  0.45594000000E+02  0.51100000000E-03 0. -1.
         11   -1    0    0    0    0 -0.00000000000E+00 -0.00000000000E+00 -0.45593999997E+02  0.45594000000E+02  0.51100000000E-03 0.  1.
    9900012    2    1    2    0    0 -0.15446416122E+02  0.10405439004E+02  0.19521645658E+01  0.72461658169E+02  0.70000114473E+02 0.  0.
        -12    1    1    2    0    0  0.15446416122E+02 -0.10405439004E+02 -0.19521645658E+01  0.18726341831E+02  0.00000000000E+00 0.  1.
         11    1    3    3    0    0  0.86749130542E+01  0.61845831624E+01 -0.55975608243E+00  0.10668482203E+02  0.51100000000E-03 0. -1.
        -11    1    3    3    0    0  0.98602590597E+01  0.11424946548E+02 -0.16362710716E+02  0.22259658906E+02  0.51100000000E-03 0.  1.
         12    1    3    3    0    0 -0.33981588236E+02 -0.72040907066E+01  0.18874631365E+02  0.39533517059E+02  0.00000000000E+00 0. -1.
</event>
<event>
 7    1  0.2700104E-013  0.7246158E+02  0.7816164E-02  0.1226708E+00
        -11   -1    0    0    0    0  0.00000000000E+00  0.00000000000E+00  0.45593999997E+02  0.45594000000E+02  0.51100000000E-03 0.  1.
         11   -1    0    0    0    0 -0.00000000000E+00 -0.00000000000E+00 -0.45593999997E+02  0.45594000000E+02  0.51100000000E-03 0. -1.
    9900012    2    1    2    0    0  0.65685979423E+01  0.16986158659E+02  0.43592141933E+01  0.72461579805E+02  0.70000012390E+02 0.  0.
        -12    1    1    2    0    0 -0.65685979423E+01 -0.16986158659E+02 -0.43592141933E+01  0.18726420195E+02  0.00000000000E+00 0.  1.
         11    1    3    3    0    0  0.53827366283E+01 -0.10205770997E+02  0.13067050147E+02  0.17432137420E+02  0.51100000000E-03 0. -1.
        -11    1    3    3    0    0  0.22580601474E+02  0.13562313353E+02  0.40244534613E+01  0.26646127906E+02  0.51100000000E-03 0.  1.
         12    1    3    3    0    0 -0.21394740160E+02  0.13629616303E+02 -0.12732289415E+02  0.28383314479E+02  0.00000000000E+00 0. -1.
</event>
<event>
 7    1  0.2700104E-013  0.7246155E+02  0.7816164E-02  0.1226708E+00
        -11   -1    0    0    0    0  0.00000000000E+00  0.00000000000E+00  0.45593999997E+02  0.45594000000E+02  0.51100000000E-03 0.  1.
         11   -1    0    0    0    0 -0.00000000000E+00 -0.00000000000E+00 -0.45593999997E+02  0.45594000000E+02  0.51100000000E-03 0. -1.
    9900012    2    1    2    0    0  0.15034169241E+02 -0.39787810445E+01 -0.10431821883E+02  0.72461552094E+02  0.69999976291E+02 0.  0.
        -12    1    1    2    0    0 -0.15034169241E+02  0.39787810445E+01  0.10431821883E+02  0.18726447906E+02  0.00000000000E+00 0.  1.
         11    1    3    3    0    0  0.89418094648E+01 -0.10498883053E+02 -0.24743497738E+02  0.28327075078E+02  0.51100000000E-03 0. -1.
        -11    1    3    3    0    0  0.18312308481E+01  0.17300515575E+02 -0.78792508267E+01  0.19098267970E+02  0.51100000000E-03 0.  1.
        -12    1    3    3    0    0  0.42611289282E+01 -0.10780413567E+02  0.22190926683E+02  0.25036209047E+02  0.00000000000E+00 0.  1.
</event>
<event>
 7    1  0.2700104E-013  0.7246158E+02  0.7816164E-02  0.1226708E+00
        -11   -1    0    0    0    0  0.00000000000E+00  0.00000000000E+00  0.45593999997E+02  0.45594000000E+02  0.51100000000E-03 0.  1.
         11   -1    0    0    0    0 -0.00000000000E+00 -0.00000000000E+00 -0.45593999997E+02  0.45594000000E+02  0.51100000000E-03 0. -1.
    9900012    2    1    2    0    0 -0.79151715932E+01 -0.12722826908E+02 -0.11232034025E+02  0.72461578713E+02  0.70000010968E+02 0.  0.
        -12    1    1    2    0    0  0.79151715932E+01  0.12722826908E+02  0.11232034025E+02  0.18726421287E+02  0.00000000000E+00 0.  1.
         11    1    3    3    0    0  0.24329883867E+02 -0.13575719565E+02 -0.34743549812E+01  0.28076939888E+02  0.51100000000E-03 0. -1.
        -11    1    3    3    0    0 -0.10799833877E+02  0.41846766038E+01  0.10795038935E+02  0.15832902322E+02  0.51100000000E-03 0.  1.
        -12    1    3    3    0    0 -0.21445221583E+02 -0.33317839463E+01 -0.18552717978E+02  0.28551736504E+02  0.00000000000E+00 0.  1.
</event>
<event>
 7    1  0.2700104E-013  0.7246163E+02  0.7816164E-02  0.1226708E+00
        -11   -1    0    0    0    0  0.00000000000E+00  0.00000000000E+00  0.45593999997E+02  0.45594000000E+02  0.51100000000E-03 0.  1.
         11   -1    0    0    0    0 -0.00000000000E+00 -0.00000000000E+00 -0.45593999997E+02  0.45594000000E+02  0.51100000000E-03 0. -1.
    9900012    2    1    2    0    0  0.15208396454E+02  0.70115305488E+00 -0.10903676181E+02  0.72461625749E+02  0.70000072241E+02 0.  0.
        -12    1    1    2    0    0 -0.15208396454E+02 -0.70115305488E+00  0.10903676181E+02  0.18726374251E+02  0.00000000000E+00 0.  1.
         11    1    3    3    0    0 -0.35537927385E+01 -0.77187777399E+01 -0.35668517208E+02  0.36666770961E+02  0.51100000000E-03 0. -1.
        -11    1    3    3    0    0 -0.17427201736E+01  0.30266577225E+01  0.42964915974E+00  0.35188533976E+01  0.51100000000E-03 0.  1.
        -12    1    3    3    0    0  0.20504909366E+02  0.53932730723E+01  0.24335191867E+02  0.32276001391E+02  0.00000000000E+00 0.  1.
</event>
<event>
 7    1  0.2700104E-013  0.7246161E+02  0.7816164E-02  0.1226708E+00
        -11   -1    0    0    0    0  0.00000000000E+00  0.00000000000E+00  0.45593999997E+02  0.45594000000E+02  0.51100000000E-03 0.  1.
         11   -1    0    0    0    0 -0.00000000000E+00 -0.00000000000E+00 -0.45593999997E+02  0.45594000000E+02  0.51100000000E-03 0. -1.
    9900012    2    1    2    0    0  0.15273359032E+02 -0.66456607705E+01 -0.85578901638E+01  0.72461607201E+02  0.70000048078E+02 0.  0.
        -12    1    1    2    0    0 -0.15273359032E+02  0.66456607705E+01  0.85578901638E+01  0.18726392799E+02  0.00000000000E+00 0.  1.
         11    1    3    3    0    0  0.31903417026E+00 -0.26756128667E+01  0.43752713560E+01  0.51384517818E+01  0.51100000000E-03 0. -1.
        -11    1    3    3    0    0 -0.15585269186E+02 -0.23207053822E-01  0.17908403680E+02  0.23740515512E+02  0.51100000000E-03 0.  1.
         12    1    3    3    0    0  0.30539594048E+02 -0.39468408500E+01 -0.30841565199E+02  0.43582639907E+02  0.00000000000E+00 0. -1.
</event>
<event>
 7    1  0.2700104E-013  0.7246157E+02  0.7816164E-02  0.1226708E+00
        -11   -1    0    0    0    0  0.00000000000E+00  0.00000000000E+00  0.45593999997E+02  0.45594000000E+02  0.51100000000E-03 0. -1.
         11   -1    0    0    0    0 -0.00000000000E+00 -0.00000000000E+00 -0.45593999997E+02  0.45594000000E+02  0.51100000000E-03 0.  1.
    9900012    2    1    2    0    0  0.88316159694E+01  0.12111632632E+02  0.11224536572E+02  0.72461566626E+02  0.69999995222E+02 0.  0.
        -12    1    1    2    0    0 -0.88316159694E+01 -0.12111632632E+02 -0.11224536572E+02  0.18726433374E+02  0.00000000000E+00 0.  1.
         11    1    3    3    0    0  0.27374241704E+01  0.16560985082E+01  0.12244628819E+01  0.34257061998E+01  0.51100000000E-03 0. -1.
        -11    1    3    3    0    0 -0.40933856414E+00 -0.25172339932E+01 -0.28126019064E+02  0.28241405307E+02  0.51100000000E-03 0.  1.
         12    1    3    3    0    0  0.65035303631E+01  0.12972768117E+02  0.38126092754E+02  0.40794455120E+02  0.00000000000E+00 0. -1.
</event>
<event>
 7    1  0.2700104E-013  0.7246212E+02  0.7816164E-02  0.1226707E+00
        -11   -1    0    0    0    0  0.00000000000E+00  0.00000000000E+00  0.45593999997E+02  0.45594000000E+02  0.51100000000E-03 0. -1.
         11   -1    0    0    0    0 -0.00000000000E+00 -0.00000000000E+00 -0.45593999997E+02  0.45594000000E+02  0.51100000000E-03 0.  1.
    9900012    2    1    2    0    0  0.16086997559E+02 -0.15066406252E+01 -0.94655854132E+01  0.72462115144E+02  0.70000709764E+02 0.  0.
        -12    1    1    2    0    0 -0.16086997559E+02  0.15066406252E+01  0.94655854132E+01  0.18725884856E+02  0.00000000000E+00 0.  1.
         11    1    3    3    0    0 -0.34828368893E+00  0.10738085835E+02  0.24520526939E+02  0.26770954980E+02  0.51100000000E-03 0. -1.
        -11    1    3    3    0    0 -0.50932785767E+01 -0.50732616475E+01 -0.44873483478E+01  0.84744183199E+01  0.51100000000E-03 0.  1.
        -12    1    3    3    0    0  0.21528559825E+02 -0.71714648132E+01 -0.29498764004E+02  0.37216741844E+02  0.00000000000E+00 0.  1.
</event>
<event>
 7    1  0.2700104E-013  0.7246174E+02  0.7816164E-02  0.1226708E+00
        -11   -1    0    0    0    0  0.00000000000E+00  0.00000000000E+00  0.45593999997E+02  0.45594000000E+02  0.51100000000E-03 0.  1.
         11   -1    0    0    0    0 -0.00000000000E+00 -0.00000000000E+00 -0.45593999997E+02  0.45594000000E+02  0.51100000000E-03 0. -1.
    9900012    2    1    2    0    0  0.25363982845E+01  0.14118285732E+02 -0.12038002902E+02  0.72461739772E+02  0.70000220775E+02 0.  0.
        -12    1    1    2    0    0 -0.25363982845E+01 -0.14118285732E+02  0.12038002902E+02  0.18726260228E+02  0.00000000000E+00 0.  1.
         11    1    3    3    0    0 -0.18724242962E+01  0.77705890904E+01 -0.10789948052E+00  0.79937269228E+01  0.51100000000E-03 0. -1.
        -11    1    3    3    0    0 -0.24367252347E+02  0.19969610123E+02 -0.65719090886E+01  0.32182888384E+02  0.51100000000E-03 0.  1.
         12    1    3    3    0    0  0.28776074928E+02 -0.13621913482E+02 -0.53581943332E+01  0.32285124464E+02  0.00000000000E+00 0. -1.
</event>
<event>
 7    1  0.2700104E-013  0.7246157E+02  0.7816164E-02  0.1226708E+00
        -11   -1    0    0    0    0  0.00000000000E+00  0.00000000000E+00  0.45593999997E+02  0.45594000000E+02  0.51100000000E-03 0.  1.
         11   -1    0    0    0    0 -0.00000000000E+00 -0.00000000000E+00 -0.45593999997E+02  0.45594000000E+02  0.51100000000E-03 0. -1.
    9900012    2    1    2    0    0 -0.12594656812E+02  0.13816248096E+02 -0.10794296459E+01  0.72461567878E+02  0.69999996853E+02 0.  0.
        -12    1    1    2    0    0  0.12594656812E+02 -0.13816248096E+02  0.10794296459E+01  0.18726432122E+02  0.00000000000E+00 0.  1.
         11    1    3    3    0    0  0.66976291953E+01 -0.12653412228E+02  0.15031531991E+02  0.20758468925E+02  0.51100000000E-03 0. -1.
        -11    1    3    3    0    0  0.10582770120E+01  0.34325640289E+01  0.10467901321E+02  0.11067041356E+02  0.51100000000E-03 0.  1.
         12    1    3    3    0    0 -0.20350563019E+02  0.23037096295E+02 -0.26578862958E+02  0.40636057597E+02  0.00000000000E+00 0. -1.
</event>
<event>
 7    1  0.2700104E-013  0.7246152E+02  0.7816164E-02  0.1226708E+00
        -11   -1    0    0    0    0  0.00000000000E+00  0.00000000000E+00  0.45593999997E+02  0.45594000000E+02  0.51100000000E-03 0. -1.
         11   -1    0    0    0    0 -0.00000000000E+00 -0.00000000000E+00 -0.45593999997E+02  0.45594000000E+02  0.51100000000E-03 0.  1.
    9900012    2    1    2    0    0  0.10389852711E+02 -0.90043356798E+01  0.12714326014E+02  0.72461516444E+02  0.69999929849E+02 0.  0.
        -12    1    1    2    0    0 -0.10389852711E+02  0.90043356798E+01 -0.12714326014E+02  0.18726483556E+02  0.00000000000E+00 0.  1.
         11    1    3    3    0    0 -0.12445908422E+02 -0.19193793319E+01  0.66545234628E+01  0.14243150503E+02  0.51100000000E-03 0.  1.
        -11    1    3    3    0    0  0.28980024649E+02  0.90940896221E+01 -0.12496946852E+02  0.32843842278E+02  0.51100000000E-03 0. -1.
         12    1    3    3    0    0 -0.61442635159E+01 -0.16179045970E+02  0.18556749404E+02  0.25374523662E+02  0.00000000000E+00 0. -1.
</event>
<event>
 7    1  0.2700104E-013  0.7246154E+02  0.7816164E-02  0.1226708E+00
        -11   -1    0    0    0    0  0.00000000000E+00  0.00000000000E+00  0.45593999997E+02  0.45594000000E+02  0.51100000000E-03 0.  1.
         11   -1    0    0    0    0 -0.00000000000E+00 -0.00000000000E+00 -0.45593999997E+02  0.45594000000E+02  0.51100000000E-03 0. -1.
    9900012    2    1    2    0    0  0.19131809031E+01  0.45307883652E+01 -0.18069092673E+02  0.72461537056E+02  0.69999956700E+02 0.  0.
        -12    1    1    2    0    0 -0.19131809031E+01 -0.45307883652E+01  0.18069092673E+02  0.18726462944E+02  0.00000000000E+00 0.  1.
         11    1    3    3    0    0  0.39584308959E+01 -0.33830724432E+01 -0.31698469474E+02  0.32123314299E+02  0.51100000000E-03 0. -1.
        -11    1    3    3    0    0 -0.43587502971E+01 -0.13881385305E+02  0.40266885917E-01  0.14549679853E+02  0.51100000000E-03 0.  1.
        -12    1    3    3    0    0  0.23135003043E+01  0.21795246113E+02  0.13589109915E+02  0.25788542903E+02  0.00000000000E+00 0.  1.
</event>
<event>
 7    1  0.2700104E-013  0.7246187E+02  0.7816164E-02  0.1226707E+00
        -11   -1    0    0    0    0  0.00000000000E+00  0.00000000000E+00  0.45593999997E+02  0.45594000000E+02  0.51100000000E-03 0.  1.
         11   -1    0    0    0    0 -0.00000000000E+00 -0.00000000000E+00 -0.45593999997E+02  0.45594000000E+02  0.51100000000E-03 0. -1.
    9900012    2    1    2    0    0 -0.10462952078E+02 -0.11142868052E+02 -0.10818085195E+02  0.72461872747E+02  0.70000394000E+02 0.  0.
        -12    1    1    2    0    0  0.10462952078E+02  0.11142868052E+02  0.10818085195E+02  0.18726127253E+02  0.00000000000E+00 0.  1.
         11    1    3    3    0    0 -0.49706937638E+01  0.68593624771E+01 -0.14932300943E+02  0.17167768108E+02  0.51100000000E-03 0. -1.
        -11    1    3    3    0    0 -0.27277538105E+02 -0.28180648873E+01 -0.35595106275E+01  0.27652770041E+02  0.51100000000E-03 0.  1.
        -12    1    3    3    0    0  0.21785279791E+02 -0.15184165642E+02  0.76737263761E+01  0.27641334597E+02  0.00000000000E+00 0.  1.
</event>
<event>
 7    1  0.2700104E-013  0.7246156E+02  0.7816164E-02  0.1226708E+00
        -11   -1    0    0    0    0  0.00000000000E+00  0.00000000000E+00  0.45593999997E+02  0.45594000000E+02  0.51100000000E-03 0.  1.
         11   -1    0    0    0    0 -0.00000000000E+00 -0.00000000000E+00 -0.45593999997E+02  0.45594000000E+02  0.51100000000E-03 0. -1.
    9900012    2    1    2    0    0  0.16000251629E+02  0.25924736321E+00 -0.97264789643E+01  0.72461557347E+02  0.69999983134E+02 0.  0.
        -12    1    1    2    0    0 -0.16000251629E+02 -0.25924736321E+00  0.97264789643E+01  0.18726442653E+02  0.00000000000E+00 0.  1.
         11    1    3    3    0    0 -0.13283346046E+02  0.98542807349E+01 -0.45467567833E+01  0.17153050122E+02  0.51100000000E-03 0. -1.
        -11    1    3    3    0    0  0.88717042220E+01  0.20062759107E+01  0.19332985852E+02  0.21365781546E+02  0.51100000000E-03 0.  1.
        -12    1    3    3    0    0  0.20411893453E+02 -0.11601309282E+02 -0.24512708033E+02  0.33942725679E+02  0.00000000000E+00 0.  1.
</event>
<event>
 7    1  0.2700104E-013  0.7246165E+02  0.7816164E-02  0.1226708E+00
        -11   -1    0    0    0    0  0.00000000000E+00  0.00000000000E+00  0.45593999997E+02  0.45594000000E+02  0.51100000000E-03 0. -1.
         11   -1    0    0    0    0 -0.00000000000E+00 -0.00000000000E+00 -0.45593999997E+02  0.45594000000E+02  0.51100000000E-03 0.  1.
    9900012    2    1    2    0    0  0.13393491535E+02  0.38020914196E+01  0.12523361326E+02  0.72461652424E+02  0.70000106989E+02 0.  0.
        -12    1    1    2    0    0 -0.13393491535E+02 -0.38020914196E+01 -0.12523361326E+02  0.18726347576E+02  0.00000000000E+00 0.  1.
         11    1    3    3    0    0 -0.15707591957E+01  0.87464400441E+01 -0.41165317184E+01  0.97935351914E+01  0.51100000000E-03 0. -1.
        -11    1    3    3    0    0  0.18074254977E+02 -0.14235141396E+02 -0.16369041686E+02  0.28235854326E+02  0.51100000000E-03 0.  1.
         12    1    3    3    0    0 -0.31100042470E+01  0.92907927718E+01  0.33008934731E+02  0.34432262906E+02  0.00000000000E+00 0. -1.
</event>
<event>
 7    1  0.2700104E-013  0.7246156E+02  0.7816164E-02  0.1226708E+00
        -11   -1    0    0    0    0  0.00000000000E+00  0.00000000000E+00  0.45593999997E+02  0.45594000000E+02  0.51100000000E-03 0.  1.
         11   -1    0    0    0    0 -0.00000000000E+00 -0.00000000000E+00 -0.45593999997E+02  0.45594000000E+02  0.51100000000E-03 0. -1.
    9900012    2    1    2    0    0  0.10554731466E+02 -0.13827091551E+02 -0.69345947146E+01  0.72461563582E+02  0.69999991255E+02 0.  0.
        -12    1    1    2    0    0 -0.10554731466E+02  0.13827091551E+02  0.69345947146E+01  0.18726436418E+02  0.00000000000E+00 0.  1.
         11    1    3    3    0    0 -0.61687608373E+01 -0.13155163191E+02 -0.10063755824E+02  0.17674589398E+02  0.51100000000E-03 0. -1.
        -11    1    3    3    0    0 -0.93476770180E+01 -0.12913487088E+02  0.16578330377E+02  0.22999527229E+02  0.51100000000E-03 0.  1.
        -12    1    3    3    0    0  0.26071169321E+02  0.12241558728E+02 -0.13449169268E+02  0.31787446954E+02  0.00000000000E+00 0.  1.
</event>
<event>
 7    1  0.2700104E-013  0.7246154E+02  0.7816164E-02  0.1226708E+00
        -11   -1    0    0    0    0  0.00000000000E+00  0.00000000000E+00  0.45593999997E+02  0.45594000000E+02  0.51100000000E-03 0. -1.
         11   -1    0    0    0    0 -0.00000000000E+00 -0.00000000000E+00 -0.45593999997E+02  0.45594000000E+02  0.51100000000E-03 0.  1.
    9900012    2    1    2    0    0  0.14991569679E+02 -0.91086578876E+01  0.65547975931E+01  0.72461543276E+02  0.69999964804E+02 0.  0.
        -12    1    1    2    0    0 -0.14991569679E+02  0.91086578876E+01 -0.65547975931E+01  0.18726456724E+02  0.00000000000E+00 0.  1.
         11    1    3    3    0    0  0.30345609544E+01  0.93400789805E+01 -0.11176411967E+02  0.14878098678E+02  0.51100000000E-03 0. -1.
        -11    1    3    3    0    0 -0.79265544435E+01  0.14019557901E+02  0.14333706932E+01  0.16168884342E+02  0.51100000000E-03 0.  1.
         12    1    3    3    0    0  0.19883563168E+02 -0.32468294769E+02  0.16297838867E+02  0.41414560256E+02  0.00000000000E+00 0. -1.
</event>
<event>
 7    1  0.2700104E-013  0.7246148E+02  0.7816164E-02  0.1226708E+00
        -11   -1    0    0    0    0  0.00000000000E+00  0.00000000000E+00  0.45593999997E+02  0.45594000000E+02  0.51100000000E-03 0. -1.
         11   -1    0    0    0    0 -0.00000000000E+00 -0.00000000000E+00 -0.45593999997E+02  0.45594000000E+02  0.51100000000E-03 0.  1.
    9900012    2    1    2    0    0  0.15317661813E+02 -0.10704200534E+02  0.12132431198E+01  0.72461477862E+02  0.69999879590E+02 0.  0.
        -12    1    1    2    0    0 -0.15317661813E+02  0.10704200534E+02 -0.12132431198E+01  0.18726522138E+02  0.00000000000E+00 0.  1.
         11    1    3    3    0    0  0.24956366606E+01 -0.13822577960E+02 -0.20218103124E+02  0.24618358150E+02  0.51100000000E-03 0. -1.
        -11    1    3    3    0    0 -0.12344766009E+02 -0.50021895680E+01  0.16049240942E+02  0.20856492595E+02  0.51100000000E-03 0.  1.
         12    1    3    3    0    0  0.25166791162E+02  0.81205669942E+01  0.53821053018E+01  0.26986627117E+02  0.00000000000E+00 0. -1.
</event>
<event>
 7    1  0.2700104E-013  0.7246138E+02  0.7816164E-02  0.1226709E+00
        -11   -1    0    0    0    0  0.00000000000E+00  0.00000000000E+00  0.45593999997E+02  0.45594000000E+02  0.51100000000E-03 0. -1.
         11   -1    0    0    0    0 -0.00000000000E+00 -0.00000000000E+00 -0.45593999997E+02  0.45594000000E+02  0.51100000000E-03 0.  1.
    9900012    2    1    2    0    0  0.14637238810E+02 -0.97084651399E+01  0.64948522992E+01  0.72461383601E+02  0.69999756797E+02 0.  0.
        -12    1    1    2    0    0 -0.14637238810E+02  0.97084651399E+01 -0.64948522992E+01  0.18726616399E+02  0.00000000000E+00 0.  1.
         11    1    3    3    0    0 -0.57479858709E+01 -0.34908502995E+02  0.56170512851E+01  0.35821699964E+02  0.51100000000E-03 0. -1.
        -11    1    3    3    0    0  0.43731553255E+00  0.10475101046E+02 -0.42639570384E+01  0.11318141043E+02  0.51100000000E-03 0.  1.
        -12    1    3    3    0    0  0.19947909148E+02  0.14724936810E+02  0.51417580525E+01  0.25321542594E+02  0.00000000000E+00 0.  1.
</event>
<event>
 7    1  0.2700104E-013  0.7246154E+02  0.7816164E-02  0.1226708E+00
        -11   -1    0    0    0    0  0.00000000000E+00  0.00000000000E+00  0.45593999997E+02  0.45594000000E+02  0.51100000000E-03 0.  1.
         11   -1    0    0    0    0 -0.00000000000E+00 -0.00000000000E+00 -0.45593999997E+02  0.45594000000E+02  0.51100000000E-03 0. -1.
    9900012    2    1    2    0    0 -0.68805595359E+01  0.38391579995E+01 -0.16988198425E+02  0.72461544933E+02  0.69999966961E+02 0.  0.
        -12    1    1    2    0    0  0.68805595359E+01 -0.38391579995E+01  0.16988198425E+02  0.18726455067E+02  0.00000000000E+00 0.  1.
         11    1    3    3    0    0 -0.13774534351E+02 -0.38003467800E+01  0.15971294036E+02  0.21430414501E+02  0.51100000000E-03 0. -1.
        -11    1    3    3    0    0 -0.11371118962E+02 -0.74830142418E+01 -0.53240431869E+01  0.14616541476E+02  0.51100000000E-03 0.  1.
         12    1    3    3    0    0  0.18265093777E+02  0.15122519021E+02 -0.27635449274E+02  0.36414588956E+02  0.00000000000E+00 0. -1.
</event>
<event>
 7    1  0.2700104E-013  0.7246157E+02  0.7816164E-02  0.1226708E+00
        -11   -1    0    0    0    0  0.00000000000E+00  0.00000000000E+00  0.45593999997E+02  0.45594000000E+02  0.51100000000E-03 0.  1.
         11   -1    0    0    0    0 -0.00000000000E+00 -0.00000000000E+00 -0.45593999997E+02  0.45594000000E+02  0.51100000000E-03 0. -1.
    9900012    2    1    2    0    0  0.13940059527E+02 -0.52553349725E+01 -0.11346158208E+02  0.72461571847E+02  0.70000002023E+02 0.  0.
        -12    1    1    2    0    0 -0.13940059527E+02  0.52553349725E+01  0.11346158208E+02  0.18726428153E+02  0.00000000000E+00 0.  1.
         11    1    3    3    0    0 -0.26888734191E+01 -0.23016878220E+01 -0.12725844291E+01  0.37612868123E+01  0.51100000000E-03 0. -1.
        -11    1    3    3    0    0 -0.13504008460E+01 -0.26499742577E+02 -0.24169823678E+02  0.35892064805E+02  0.51100000000E-03 0.  1.
         12    1    3    3    0    0  0.17979333792E+02  0.23546095426E+02  0.14096249899E+02  0.32808220230E+02  0.00000000000E+00 0. -1.
</event>
<event>
 7    1  0.2700104E-013  0.7246162E+02  0.7816164E-02  0.1226708E+00
        -11   -1    0    0    0    0  0.00000000000E+00  0.00000000000E+00  0.45593999997E+02  0.45594000000E+02  0.51100000000E-03 0.  1.
         11   -1    0    0    0    0 -0.00000000000E+00 -0.00000000000E+00 -0.45593999997E+02  0.45594000000E+02  0.51100000000E-03 0. -1.
    9900012    2    1    2    0    0  0.44469863819E+01  0.39895779528E+01 -0.17747809109E+02  0.72461624262E+02  0.70000070302E+02 0.  0.
        -12    1    1    2    0    0 -0.44469863819E+01 -0.39895779528E+01  0.17747809109E+02  0.18726375738E+02  0.00000000000E+00 0.  1.
         11    1    3    3    0    0  0.84365748059E+01 -0.10507930344E+02 -0.23811961762E+01  0.13684388552E+02  0.51100000000E-03 0. -1.
        -11    1    3    3    0    0  0.12225730195E+02 -0.83010847557E+01  0.12451493401E+02  0.19323979277E+02  0.51100000000E-03 0.  1.
         12    1    3    3    0    0 -0.16215318619E+02  0.22798593052E+02 -0.27818106334E+02  0.39453256432E+02  0.00000000000E+00 0. -1.
</event>
<event>
 7    1  0.2700104E-013  0.7246158E+02  0.7816164E-02  0.1226708E+00
        -11   -1    0    0    0    0  0.00000000000E+00  0.00000000000E+00  0.45593999997E+02  0.45594000000E+02  0.51100000000E-03 0.  1.
         11   -1    0    0    0    0 -0.00000000000E+00 -0.00000000000E+00 -0.45593999997E+02  0.45594000000E+02  0.51100000000E-03 0. -1.
    9900012    2    1    2    0    0  0.18386034238E+02 -0.26452192169E+01  0.23739237629E+01  0.72461576056E+02  0.70000007505E+02 0.  0.
        -12    1    1    2    0    0 -0.18386034238E+02  0.26452192169E+01 -0.23739237629E+01  0.18726423944E+02  0.00000000000E+00 0.  1.
         11    1    3    3    0    0 -0.13336570324E+01  0.77633399727E+01  0.24286785364E+02  0.25532254742E+02  0.51100000000E-03 0. -1.
        -11    1    3    3    0    0  0.27097552804E+01  0.11308158640E+02  0.11370223152E+00  0.11628850071E+02  0.51100000000E-03 0.  1.
         12    1    3    3    0    0  0.17009935990E+02 -0.21716717830E+02 -0.22026563833E+02  0.35300471243E+02  0.00000000000E+00 0. -1.
</event>
<event>
 7    1  0.2700104E-013  0.7246153E+02  0.7816164E-02  0.1226708E+00
        -11   -1    0    0    0    0  0.00000000000E+00  0.00000000000E+00  0.45593999997E+02  0.45594000000E+02  0.51100000000E-03 0.  1.
         11   -1    0    0    0    0 -0.00000000000E+00 -0.00000000000E+00 -0.45593999997E+02  0.45594000000E+02  0.51100000000E-03 0. -1.
    9900012    2    1    2    0    0 -0.18606831666E+02 -0.33723280755E+00  0.20863518687E+01  0.72461527435E+02  0.69999944168E+02 0.  0.
        -12    1    1    2    0    0  0.18606831666E+02  0.33723280755E+00 -0.20863518687E+01  0.18726472565E+02  0.00000000000E+00 0.  1.
         11    1    3    3    0    0  0.14537325723E+02 -0.11365936384E+02 -0.65295619298E+01  0.19574307864E+02  0.51100000000E-03 0. -1.
        -11    1    3    3    0    0 -0.18046769287E+01  0.75327682435E+01 -0.12663862047E+02  0.14844960708E+02  0.51100000000E-03 0.  1.
         12    1    3    3    0    0 -0.31339480460E+02  0.34959353334E+01  0.21279775845E+02  0.38042258863E+02  0.00000000000E+00 0. -1.
</event>
<event>
 7    1  0.2700104E-013  0.7246160E+02  0.7816164E-02  0.1226708E+00
        -11   -1    0    0    0    0  0.00000000000E+00  0.00000000000E+00  0.45593999997E+02  0.45594000000E+02  0.51100000000E-03 0.  1.
         11   -1    0    0    0    0 -0.00000000000E+00 -0.00000000000E+00 -0.45593999997E+02  0.45594000000E+02  0.51100000000E-03 0. -1.
    9900012    2    1    2    0    0 -0.19487774257E+01 -0.11751030120E+02 -0.14449686162E+02  0.72461604925E+02  0.70000045113E+02 0.  0.
        -12    1    1    2    0    0  0.19487774257E+01  0.11751030120E+02  0.14449686162E+02  0.18726395075E+02  0.00000000000E+00 0.  1.
         11    1    3    3    0    0  0.11199984289E+02  0.23551177863E+02 -0.20292039784E+02  0.33043373098E+02  0.51100000000E-03 0.  1.
        -11    1    3    3    0    0  0.93754984993E+00 -0.25454731819E+01 -0.13701028534E+01  0.30390155529E+01  0.51100000000E-03 0. -1.
        -12    1    3    3    0    0 -0.14086311565E+02 -0.32756734801E+02  0.72124564749E+01  0.36379216274E+02  0.00000000000E+00 0.  1.
</event>
<event>
 7    1  0.2700104E-013  0.7246162E+02  0.7816164E-02  0.1226708E+00
        -11   -1    0    0    0    0  0.00000000000E+00  0.00000000000E+00  0.45593999997E+02  0.45594000000E+02  0.51100000000E-03 0.  1.
         11   -1    0    0    0    0 -0.00000000000E+00 -0.00000000000E+00 -0.45593999997E+02  0.45594000000E+02  0.51100000000E-03 0. -1.
    9900012    2    1    2    0    0 -0.96462031223E+01 -0.17951329393E+01 -0.15950098886E+02  0.72461617770E+02  0.70000061846E+02 0.  0.
        -12    1    1    2    0    0  0.96462031223E+01  0.17951329393E+01  0.15950098886E+02  0.18726382230E+02  0.00000000000E+00 0.  1.
         11    1    3    3    0    0 -0.64776949893E+01 -0.53708747240E+01 -0.27189375488E+02  0.28461710549E+02  0.51100000000E-03 0. -1.
        -11    1    3    3    0    0 -0.51507340966E+00  0.22367842276E+02  0.90935135594E+00  0.22392243944E+02  0.51100000000E-03 0.  1.
        -12    1    3    3    0    0 -0.26534347233E+01 -0.18792100491E+02  0.10329925246E+02  0.21607663277E+02  0.00000000000E+00 0.  1.
</event>
<event>
 7    1  0.2700104E-013  0.7246150E+02  0.7816164E-02  0.1226708E+00
        -11   -1    0    0    0    0  0.00000000000E+00  0.00000000000E+00  0.45593999997E+02  0.45594000000E+02  0.51100000000E-03 0. -1.
         11   -1    0    0    0    0 -0.00000000000E+00 -0.00000000000E+00 -0.45593999997E+02  0.45594000000E+02  0.51100000000E-03 0.  1.
    9900012    2    1    2    0    0  0.61372880813E+01  0.12462327133E+02  0.12558102540E+02  0.72461498939E+02  0.69999907047E+02 0.  0.
        -12    1    1    2    0    0 -0.61372880813E+01 -0.12462327133E+02 -0.12558102540E+02  0.18726501061E+02  0.00000000000E+00 0.  1.
         11    1    3    3    0    0  0.89714713265E+01 -0.39612000514E+00 -0.33992612677E+01  0.96020407335E+01  0.51100000000E-03 0. -1.
        -11    1    3    3    0    0  0.14793827987E+02  0.71948789274E+01  0.33520195846E+02  0.37339351348E+02  0.51100000000E-03 0.  1.
         12    1    3    3    0    0 -0.17628011232E+02  0.56635682105E+01 -0.17562832037E+02  0.25520106858E+02  0.00000000000E+00 0. -1.
</event>
<event>
 7    1  0.2700104E-013  0.7246171E+02  0.7816164E-02  0.1226708E+00
        -11   -1    0    0    0    0  0.00000000000E+00  0.00000000000E+00  0.45593999997E+02  0.45594000000E+02  0.51100000000E-03 0.  1.
         11   -1    0    0    0    0 -0.00000000000E+00 -0.00000000000E+00 -0.45593999997E+02  0.45594000000E+02  0.51100000000E-03 0. -1.
    9900012    2    1    2    0    0  0.17342229733E+01 -0.15081410276E+02  0.10964376991E+02  0.72461707574E+02  0.70000178832E+02 0.  0.
        -12    1    1    2    0    0 -0.17342229733E+01  0.15081410276E+02 -0.10964376991E+02  0.18726292426E+02  0.00000000000E+00 0.  1.
         11    1    3    3    0    0 -0.78215442377E+00 -0.17249416378E+02 -0.25982806689E+01  0.17461534687E+02  0.51100000000E-03 0. -1.
        -11    1    3    3    0    0  0.25529089857E+02  0.11810846452E+02  0.96842510258E+01  0.29749205721E+02  0.51100000000E-03 0.  1.
         12    1    3    3    0    0 -0.23012712460E+02 -0.96428403498E+01  0.38784066337E+01  0.25250967166E+02  0.00000000000E+00 0. -1.
</event>
<event>
 7    1  0.2700104E-013  0.7246151E+02  0.7816164E-02  0.1226708E+00
        -11   -1    0    0    0    0  0.00000000000E+00  0.00000000000E+00  0.45593999997E+02  0.45594000000E+02  0.51100000000E-03 0.  1.
         11   -1    0    0    0    0 -0.00000000000E+00 -0.00000000000E+00 -0.45593999997E+02  0.45594000000E+02  0.51100000000E-03 0. -1.
    9900012    2    1    2    0    0 -0.16071399825E+02  0.94930336426E+01 -0.15079593081E+01  0.72461507500E+02  0.69999918199E+02 0.  0.
        -12    1    1    2    0    0  0.16071399825E+02 -0.94930336426E+01  0.15079593081E+01  0.18726492500E+02  0.00000000000E+00 0.  1.
         11    1    3    3    0    0 -0.79222512198E+00 -0.21451119898E+02 -0.18108638602E+02  0.28083820214E+02  0.51100000000E-03 0. -1.
        -11    1    3    3    0    0 -0.50756324471E+01  0.14683041842E+01 -0.43154452792E+01  0.68220986605E+01  0.51100000000E-03 0.  1.
        -12    1    3    3    0    0 -0.10203542256E+02  0.29475849357E+02  0.20916124573E+02  0.37555588626E+02  0.00000000000E+00 0.  1.
</event>
<event>
 7    1  0.2700104E-013  0.7246159E+02  0.7816164E-02  0.1226708E+00
        -11   -1    0    0    0    0  0.00000000000E+00  0.00000000000E+00  0.45593999997E+02  0.45594000000E+02  0.51100000000E-03 0.  1.
         11   -1    0    0    0    0 -0.00000000000E+00 -0.00000000000E+00 -0.45593999997E+02  0.45594000000E+02  0.51100000000E-03 0. -1.
    9900012    2    1    2    0    0 -0.24564587713E+01  0.17814790954E+02 -0.52227951217E+01  0.72461586694E+02  0.70000021364E+02 0.  0.
        -12    1    1    2    0    0  0.24564587713E+01 -0.17814790954E+02  0.52227951217E+01  0.18726413306E+02  0.00000000000E+00 0.  1.
         11    1    3    3    0    0  0.35511879634E+00 -0.87539822814E+01 -0.16848610626E+01  0.89217191283E+01  0.51100000000E-03 0. -1.
        -11    1    3    3    0    0 -0.65424237764E+01 -0.17170807480E+02  0.44848185590E+01  0.18914373797E+02  0.51100000000E-03 0.  1.
         12    1    3    3    0    0  0.37308462088E+01  0.43739580715E+02 -0.80227526181E+01  0.44625493769E+02  0.00000000000E+00 0. -1.
</event>
<event>
 7    1  0.2700104E-013  0.7246159E+02  0.7816164E-02  0.1226708E+00
        -11   -1    0    0    0    0  0.00000000000E+00  0.00000000000E+00  0.45593999997E+02  0.45594000000E+02  0.51100000000E-03 0.  1.
         11   -1    0    0    0    0 -0.00000000000E+00 -0.00000000000E+00 -0.45593999997E+02  0.45594000000E+02  0.51100000000E-03 0. -1.
    9900012    2    1    2    0    0  0.32648983566E+01 -0.18038030455E+02  0.38273155276E+01  0.72461589555E+02  0.70000025091E+02 0.  0.
        -12    1    1    2    0    0 -0.32648983566E+01  0.18038030455E+02 -0.38273155276E+01  0.18726410445E+02  0.00000000000E+00 0.  1.
         11    1    3    3    0    0 -0.30770155289E+02 -0.49670006312E+01 -0.30804897792E+01  0.31320328371E+02  0.51100000000E-03 0. -1.
        -11    1    3    3    0    0  0.51859244391E+01  0.42720700114E+01  0.26058592284E+01  0.72065870598E+01  0.51100000000E-03 0.  1.
        -12    1    3    3    0    0  0.28849129206E+02 -0.17343099836E+02  0.43019460784E+01  0.33934674124E+02  0.00000000000E+00 0.  1.
</event>
<event>
 7    1  0.2700104E-013  0.7246159E+02  0.7816164E-02  0.1226708E+00
        -11   -1    0    0    0    0  0.00000000000E+00  0.00000000000E+00  0.45593999997E+02  0.45594000000E+02  0.51100000000E-03 0. -1.
         11   -1    0    0    0    0 -0.00000000000E+00 -0.00000000000E+00 -0.45593999997E+02  0.45594000000E+02  0.51100000000E-03 0.  1.
    9900012    2    1    2    0    0 -0.14148998560E+01 -0.11237966423E+02  0.14912569722E+02  0.72461586391E+02  0.70000020969E+02 0.  0.
        -12    1    1    2    0    0  0.14148998560E+01  0.11237966423E+02 -0.14912569722E+02  0.18726413609E+02  0.00000000000E+00 0.  1.
         11    1    3    3    0    0  0.55339108372E+01 -0.50630113560E+00  0.91548720472E+01  0.10709444078E+02  0.51100000000E-03 0. -1.
        -11    1    3    3    0    0  0.10556262575E+02 -0.91878059501E+01 -0.23657875699E+02  0.27487188663E+02  0.51100000000E-03 0.  1.
         12    1    3    3    0    0 -0.17505073268E+02 -0.15438593369E+01  0.29415573374E+02  0.34264953651E+02  0.00000000000E+00 0. -1.
</event>
<event>
 7    1  0.2700104E-013  0.7246156E+02  0.7816164E-02  0.1226708E+00
        -11   -1    0    0    0    0  0.00000000000E+00  0.00000000000E+00  0.45593999997E+02  0.45594000000E+02  0.51100000000E-03 0. -1.
         11   -1    0    0    0    0 -0.00000000000E+00 -0.00000000000E+00 -0.45593999997E+02  0.45594000000E+02  0.51100000000E-03 0.  1.
    9900012    2    1    2    0    0 -0.30963312261E+01  0.29781291902E+01  0.18226984912E+02  0.72461561484E+02  0.69999988523E+02 0.  0.
        -12    1    1    2    0    0  0.30963312261E+01 -0.29781291902E+01 -0.18226984912E+02  0.18726438516E+02  0.00000000000E+00 0.  1.
         11    1    3    3    0    0 -0.51727958316E+01  0.56384580323E+01  0.71287729774E+01  0.10457984037E+02  0.51100000000E-03 0. -1.
        -11    1    3    3    0    0 -0.24845107113E+02  0.13548821304E+02  0.11575835404E+02  0.30575314745E+02  0.51100000000E-03 0.  1.
        -12    1    3    3    0    0  0.26921571719E+02 -0.16209150146E+02 -0.47762347016E+00  0.31428262702E+02  0.00000000000E+00 0.  1.
</event>
<event>
 7    1  0.2700104E-013  0.7246161E+02  0.7816164E-02  0.1226708E+00
        -11   -1    0    0    0    0  0.00000000000E+00  0.00000000000E+00  0.45593999997E+02  0.45594000000E+02  0.51100000000E-03 0.  1.
         11   -1    0    0    0    0 -0.00000000000E+00 -0.00000000000E+00 -0.45593999997E+02  0.45594000000E+02  0.51100000000E-03 0. -1.
    9900012    2    1    2    0    0 -0.17848195287E+02  0.53710234278E+01  0.18088081576E+01  0.72461608073E+02  0.70000049214E+02 0.  0.
        -12    1    1    2    0    0  0.17848195287E+02 -0.53710234278E+01 -0.18088081576E+01  0.18726391927E+02  0.00000000000E+00 0.  1.
         11    1    3    3    0    0 -0.77207640437E+01  0.12537277100E+02 -0.20451104244E+01  0.14865261229E+02  0.51100000000E-03 0. -1.
        -11    1    3    3    0    0 -0.20675728163E+01  0.34911501577E+01  0.28913591533E+02  0.29196896451E+02  0.51100000000E-03 0.  1.
        -12    1    3    3    0    0 -0.80598584266E+01 -0.10657403830E+02 -0.25059672951E+02  0.28399450393E+02  0.00000000000E+00 0.  1.
</event>
<event>
 7    1  0.2700104E-013  0.7246156E+02  0.7816164E-02  0.1226708E+00
        -11   -1    0    0    0    0  0.00000000000E+00  0.00000000000E+00  0.45593999997E+02  0.45594000000E+02  0.51100000000E-03 0.  1.
         11   -1    0    0    0    0 -0.00000000000E+00 -0.00000000000E+00 -0.45593999997E+02  0.45594000000E+02  0.51100000000E-03 0. -1.
    9900012    2    1    2    0    0 -0.92350349832E+01  0.11826791835E+02 -0.11203602902E+02  0.72461558955E+02  0.69999985228E+02 0.  0.
        -12    1    1    2    0    0  0.92350349832E+01 -0.11826791835E+02  0.11203602902E+02  0.18726441045E+02  0.00000000000E+00 0.  1.
         11    1    3    3    0    0  0.71393697762E+01  0.60783581520E+01  0.14826697060E+02  0.17542747350E+02  0.51100000000E-03 0. -1.
        -11    1    3    3    0    0 -0.13096423780E+02 -0.19010650940E+02 -0.15550062365E+02  0.27833893095E+02  0.51100000000E-03 0.  1.
        -12    1    3    3    0    0 -0.32779809791E+01  0.24759084622E+02 -0.10480237596E+02  0.27084918510E+02  0.00000000000E+00 0.  1.
</event>
<event>
 7    1  0.2700104E-013  0.7246156E+02  0.7816164E-02  0.1226708E+00
        -11   -1    0    0    0    0  0.00000000000E+00  0.00000000000E+00  0.45593999997E+02  0.45594000000E+02  0.51100000000E-03 0. -1.
         11   -1    0    0    0    0 -0.00000000000E+00 -0.00000000000E+00 -0.45593999997E+02  0.45594000000E+02  0.51100000000E-03 0.  1.
    9900012    2    1    2    0    0  0.82386070270E+01  0.14851744265E+02 -0.78886389577E+01  0.72461559386E+02  0.69999985790E+02 0.  0.
        -12    1    1    2    0    0 -0.82386070270E+01 -0.14851744265E+02  0.78886389577E+01  0.18726440614E+02  0.00000000000E+00 0.  1.
         11    1    3    3    0    0  0.17463199706E+02 -0.16743514534E+01  0.58025409080E+01  0.18477994426E+02  0.51100000000E-03 0. -1.
        -11    1    3    3    0    0  0.95662054236E+01  0.43896329211E+01  0.14549142485E+02  0.17957135370E+02  0.51100000000E-03 0.  1.
        -12    1    3    3    0    0 -0.18790798102E+02  0.12136462797E+02 -0.28240322351E+02  0.36026429590E+02  0.00000000000E+00 0.  1.
</event>
<event>
 7    1  0.2700104E-013  0.7246159E+02  0.7816164E-02  0.1226708E+00
        -11   -1    0    0    0    0  0.00000000000E+00  0.00000000000E+00  0.45593999997E+02  0.45594000000E+02  0.51100000000E-03 0.  1.
         11   -1    0    0    0    0 -0.00000000000E+00 -0.00000000000E+00 -0.45593999997E+02  0.45594000000E+02  0.51100000000E-03 0. -1.
    9900012    2    1    2    0    0 -0.53304143019E+00 -0.15815540770E+02  0.10013147557E+02  0.72461585847E+02  0.70000020261E+02 0.  0.
        -12    1    1    2    0    0  0.53304143019E+00  0.15815540770E+02 -0.10013147557E+02  0.18726414153E+02  0.00000000000E+00 0.  1.
         11    1    3    3    0    0 -0.23438061172E+02 -0.17008263625E+02  0.18719056094E+02  0.34482267970E+02  0.51100000000E-03 0. -1.
        -11    1    3    3    0    0  0.26935940889E+01 -0.64802965208E+01  0.80116858461E+01  0.10650671456E+02  0.51100000000E-03 0.  1.
        -12    1    3    3    0    0  0.20211425653E+02  0.76730193750E+01 -0.16717594383E+02  0.27328646421E+02  0.00000000000E+00 0.  1.
</event>
<event>
 7    1  0.2700104E-013  0.7246155E+02  0.7816164E-02  0.1226708E+00
        -11   -1    0    0    0    0  0.00000000000E+00  0.00000000000E+00  0.45593999997E+02  0.45594000000E+02  0.51100000000E-03 0.  1.
         11   -1    0    0    0    0 -0.00000000000E+00 -0.00000000000E+00 -0.45593999997E+02  0.45594000000E+02  0.51100000000E-03 0. -1.
    9900012    2    1    2    0    0  0.14078326426E+02 -0.50605782009E+01 -0.11263704710E+02  0.72461554248E+02  0.69999979097E+02 0.  0.
        -12    1    1    2    0    0 -0.14078326426E+02  0.50605782009E+01  0.11263704710E+02  0.18726445752E+02  0.00000000000E+00 0.  1.
         11    1    3    3    0    0  0.21266148890E+02 -0.81229198022E+00 -0.10997692370E+02  0.23955336453E+02  0.51100000000E-03 0. -1.
        -11    1    3    3    0    0  0.35334748927E+01 -0.24766435687E+02 -0.29935741735E+01  0.25195699396E+02  0.51100000000E-03 0.  1.
         12    1    3    3    0    0 -0.10721297356E+02  0.20518149466E+02  0.27275618332E+01  0.23310518400E+02  0.00000000000E+00 0. -1.
</event>
<event>
 7    1  0.2700104E-013  0.7246158E+02  0.7816164E-02  0.1226708E+00
        -11   -1    0    0    0    0  0.00000000000E+00  0.00000000000E+00  0.45593999997E+02  0.45594000000E+02  0.51100000000E-03 0.  1.
         11   -1    0    0    0    0 -0.00000000000E+00 -0.00000000000E+00 -0.45593999997E+02  0.45594000000E+02  0.51100000000E-03 0. -1.
    9900012    2    1    2    0    0 -0.17188094952E+02  0.64591020448E+01 -0.36780927171E+01  0.72461575532E+02  0.70000006823E+02 0.  0.
        -12    1    1    2    0    0  0.17188094952E+02 -0.64591020448E+01  0.36780927171E+01  0.18726424468E+02  0.00000000000E+00 0.  1.
         11    1    3    3    0    0 -0.83785797132E+01  0.17030658962E+02 -0.10457891857E+02  0.21670520184E+02  0.51100000000E-03 0. -1.
        -11    1    3    3    0    0 -0.24832071637E+02  0.62574631829E+01 -0.25847201805E+01  0.25738461608E+02  0.51100000000E-03 0.  1.
         12    1    3    3    0    0  0.16022556398E+02 -0.16829020100E+02  0.93645193208E+01  0.25052593741E+02  0.00000000000E+00 0. -1.
</event>
<event>
 7    1  0.2700104E-013  0.7246159E+02  0.7816164E-02  0.1226708E+00
        -11   -1    0    0    0    0  0.00000000000E+00  0.00000000000E+00  0.45593999997E+02  0.45594000000E+02  0.51100000000E-03 0.  1.
         11   -1    0    0    0    0 -0.00000000000E+00 -0.00000000000E+00 -0.45593999997E+02  0.45594000000E+02  0.51100000000E-03 0. -1.
    9900012    2    1    2    0    0 -0.44736060279E+01 -0.11993494348E+02  0.13668267634E+02  0.72461585563E+02  0.70000019890E+02 0.  0.
        -12    1    1    2    0    0  0.44736060279E+01  0.11993494348E+02 -0.13668267634E+02  0.18726414437E+02  0.00000000000E+00 0.  1.
         11    1    3    3    0    0 -0.83178412240E+01 -0.15720121013E+02  0.30337190153E+02  0.35166088693E+02  0.51100000000E-03 0.  1.
        -11    1    3    3    0    0 -0.13936490604E+02  0.25318010796E+01 -0.12730367513E+02  0.19044632954E+02  0.51100000000E-03 0. -1.
         12    1    3    3    0    0  0.17780725800E+02  0.11948255854E+01 -0.39385550060E+01  0.18250863916E+02  0.00000000000E+00 0. -1.
</event>
<event>
 7    1  0.2700104E-013  0.7246156E+02  0.7816164E-02  0.1226708E+00
        -11   -1    0    0    0    0  0.00000000000E+00  0.00000000000E+00  0.45593999997E+02  0.45594000000E+02  0.51100000000E-03 0. -1.
         11   -1    0    0    0    0 -0.00000000000E+00 -0.00000000000E+00 -0.45593999997E+02  0.45594000000E+02  0.51100000000E-03 0.  1.
    9900012    2    1    2    0    0 -0.11016239986E+02  0.11442404161E+02  0.99193487129E+01  0.72461557858E+02  0.69999983799E+02 0.  0.
        -12    1    1    2    0    0  0.11016239986E+02 -0.11442404161E+02 -0.99193487129E+01  0.18726442142E+02  0.00000000000E+00 0.  1.
         11    1    3    3    0    0 -0.18192959934E+02  0.28166703614E+02  0.85179000432E+01  0.34596265768E+02  0.51100000000E-03 0. -1.
        -11    1    3    3    0    0 -0.27821986105E+01  0.92405670571E+01  0.27152266847E+01  0.10025026925E+02  0.51100000000E-03 0.  1.
        -12    1    3    3    0    0  0.99589185583E+01 -0.25964866511E+02 -0.13137780151E+01  0.27840265165E+02  0.00000000000E+00 0.  1.
</event>
<event>
 7    1  0.2700104E-013  0.7246157E+02  0.7816164E-02  0.1226708E+00
        -11   -1    0    0    0    0  0.00000000000E+00  0.00000000000E+00  0.45593999997E+02  0.45594000000E+02  0.51100000000E-03 0.  1.
         11   -1    0    0    0    0 -0.00000000000E+00 -0.00000000000E+00 -0.45593999997E+02  0.45594000000E+02  0.51100000000E-03 0. -1.
    9900012    2    1    2    0    0 -0.92254706669E+01 -0.14633553017E+02  0.71714130781E+01  0.72461565516E+02  0.69999993776E+02 0.  0.
        -12    1    1    2    0    0  0.92254706669E+01  0.14633553017E+02 -0.71714130781E+01  0.18726434484E+02  0.00000000000E+00 0.  1.
         11    1    3    3    0    0 -0.12745141939E+01  0.80788907213E+01  0.48942095116E+01  0.95313246048E+01  0.51100000000E-03 0. -1.
        -11    1    3    3    0    0  0.15239650971E+02 -0.10287452821E+02  0.22995328873E+02  0.29442550798E+02  0.51100000000E-03 0.  1.
         12    1    3    3    0    0 -0.23190607444E+02 -0.12424990917E+02 -0.20718125307E+02  0.33487690113E+02  0.00000000000E+00 0. -1.
</event>
<event>
 7    1  0.2700104E-013  0.7246153E+02  0.7816164E-02  0.1226708E+00
        -11   -1    0    0    0    0  0.00000000000E+00  0.00000000000E+00  0.45593999997E+02  0.45594000000E+02  0.51100000000E-03 0.  1.
         11   -1    0    0    0    0 -0.00000000000E+00 -0.00000000000E+00 -0.45593999997E+02  0.45594000000E+02  0.51100000000E-03 0. -1.
    9900012    2    1    2    0    0 -0.13930556576E+02  0.45939722590E+01 -0.11641121521E+02  0.72461529487E+02  0.69999946841E+02 0.  0.
        -12    1    1    2    0    0  0.13930556576E+02 -0.45939722590E+01  0.11641121521E+02  0.18726470513E+02  0.00000000000E+00 0.  1.
         11    1    3    3    0    0  0.32835245103E+01 -0.14772888607E+00  0.63012976290E+01  0.71070182992E+01  0.51100000000E-03 0. -1.
        -11    1    3    3    0    0 -0.31896525300E+02  0.13752471634E+02  0.66130162097E+01  0.35358885530E+02  0.51100000000E-03 0.  1.
         12    1    3    3    0    0  0.14682444214E+02 -0.90107704891E+01 -0.24555435359E+02  0.29995625658E+02  0.00000000000E+00 0. -1.
</event>
<event>
 7    1  0.2700104E-013  0.7246154E+02  0.7816164E-02  0.1226708E+00
        -11   -1    0    0    0    0  0.00000000000E+00  0.00000000000E+00  0.45593999997E+02  0.45594000000E+02  0.51100000000E-03 0.  1.
         11   -1    0    0    0    0 -0.00000000000E+00 -0.00000000000E+00 -0.45593999997E+02  0.45594000000E+02  0.51100000000E-03 0. -1.
    9900012    2    1    2    0    0 -0.12480330545E+02  0.39322705566E+01 -0.13396230384E+02  0.72461537688E+02  0.69999957524E+02 0.  0.
        -12    1    1    2    0    0  0.12480330545E+02 -0.39322705566E+01  0.13396230384E+02  0.18726462312E+02  0.00000000000E+00 0.  1.
         11    1    3    3    0    0  0.13836609044E+02 -0.19017502942E+02 -0.22421118889E+01  0.23625076381E+02  0.51100000000E-03 0. -1.
        -11    1    3    3    0    0 -0.24452920227E+00 -0.73585952997E+01 -0.34089627070E+01  0.81135532484E+01  0.51100000000E-03 0.  1.
        -12    1    3    3    0    0 -0.26072410387E+02  0.30308368798E+02 -0.77451557877E+01  0.40722908059E+02  0.00000000000E+00 0.  1.
</event>
<event>
 7    1  0.2700104E-013  0.7246151E+02  0.7816164E-02  0.1226708E+00
        -11   -1    0    0    0    0  0.00000000000E+00  0.00000000000E+00  0.45593999997E+02  0.45594000000E+02  0.51100000000E-03 0. -1.
         11   -1    0    0    0    0 -0.00000000000E+00 -0.00000000000E+00 -0.45593999997E+02  0.45594000000E+02  0.51100000000E-03 0.  1.
    9900012    2    1    2    0    0  0.11120194049E+02  0.23970647101E+01 -0.14875380348E+02  0.72461506057E+02  0.69999916319E+02 0.  0.
        -12    1    1    2    0    0 -0.11120194049E+02 -0.23970647101E+01  0.14875380348E+02  0.18726493943E+02  0.00000000000E+00 0.  1.
         11    1    3    3    0    0  0.18275632014E+02 -0.28911833652E+02 -0.16368410917E+02  0.37918567046E+02  0.51100000000E-03 0. -1.
        -11    1    3    3    0    0  0.39989883278E+00  0.15726012385E+02  0.56816776264E+01  0.16725694171E+02  0.51100000000E-03 0.  1.
        -12    1    3    3    0    0 -0.75553367981E+01  0.15582885977E+02 -0.41886470572E+01  0.17817244840E+02  0.00000000000E+00 0.  1.
</event>
<event>
 7    1  0.2700104E-013  0.7246161E+02  0.7816164E-02  0.1226708E+00
        -11   -1    0    0    0    0  0.00000000000E+00  0.00000000000E+00  0.45593999997E+02  0.45594000000E+02  0.51100000000E-03 0.  1.
         11   -1    0    0    0    0 -0.00000000000E+00 -0.00000000000E+00 -0.45593999997E+02  0.45594000000E+02  0.51100000000E-03 0. -1.
    9900012    2    1    2    0    0 -0.23205143547E+00  0.52279771527E+01 -0.17980328080E+02  0.72461607105E+02  0.70000047953E+02 0.  0.
        -12    1    1    2    0    0  0.23205143547E+00 -0.52279771527E+01  0.17980328080E+02  0.18726392895E+02  0.00000000000E+00 0.  1.
         11    1    3    3    0    0 -0.17286156826E+02 -0.11940339090E+02 -0.31428739991E+02  0.37804081963E+02  0.51100000000E-03 0. -1.
        -11    1    3    3    0    0 -0.54148800444E+00  0.14064025110E+02  0.58801540797E+01  0.15253400401E+02  0.51100000000E-03 0.  1.
        -12    1    3    3    0    0  0.17595593395E+02  0.31042911335E+01  0.75682578307E+01  0.19404124741E+02  0.00000000000E+00 0.  1.
</event>
<event>
 7    1  0.2700104E-013  0.7246159E+02  0.7816164E-02  0.1226708E+00
        -11   -1    0    0    0    0  0.00000000000E+00  0.00000000000E+00  0.45593999997E+02  0.45594000000E+02  0.51100000000E-03 0.  1.
         11   -1    0    0    0    0 -0.00000000000E+00 -0.00000000000E+00 -0.45593999997E+02  0.45594000000E+02  0.51100000000E-03 0. -1.
    9900012    2    1    2    0    0 -0.10040722766E+02 -0.28818307568E+01 -0.15542117962E+02  0.72461588360E+02  0.70000023534E+02 0.  0.
        -12    1    1    2    0    0  0.10040722766E+02  0.28818307568E+01  0.15542117962E+02  0.18726411640E+02  0.00000000000E+00 0.  1.
         11    1    3    3    0    0  0.44759624270E+01  0.71263759276E+01 -0.59756893004E+01  0.10321256531E+02  0.51100000000E-03 0. -1.
        -11    1    3    3    0    0  0.31513974564E+01 -0.24496302175E+02  0.14754810391E+02  0.28769854990E+02  0.51100000000E-03 0.  1.
         12    1    3    3    0    0 -0.17668082649E+02  0.14488095491E+02 -0.24321239053E+02  0.33370476839E+02  0.00000000000E+00 0. -1.
</event>
<event>
 7    1  0.2700104E-013  0.7246181E+02  0.7816164E-02  0.1226707E+00
        -11   -1    0    0    0    0  0.00000000000E+00  0.00000000000E+00  0.45593999997E+02  0.45594000000E+02  0.51100000000E-03 0.  1.
         11   -1    0    0    0    0 -0.00000000000E+00 -0.00000000000E+00 -0.45593999997E+02  0.45594000000E+02  0.51100000000E-03 0. -1.
    9900012    2    1    2    0    0  0.48334433395E+01 -0.18497438879E+01 -0.17996850584E+02  0.72461805568E+02  0.70000306487E+02 0.  0.
        -12    1    1    2    0    0 -0.48334433395E+01  0.18497438879E+01  0.17996850584E+02  0.18726194432E+02  0.00000000000E+00 0.  1.
         11    1    3    3    0    0 -0.52849371008E+01 -0.35633570986E+01 -0.81026093443E+01  0.10309236267E+02  0.51100000000E-03 0. -1.
        -11    1    3    3    0    0  0.81124889653E+01 -0.27266346965E+02 -0.15753454201E+02  0.32518263692E+02  0.51100000000E-03 0.  1.
         12    1    3    3    0    0  0.20058914751E+01  0.28979960175E+02  0.58592129621E+01  0.29634305609E+02  0.00000000000E+00 0. -1.
</event>
<event>
 7    1  0.2700104E-013  0.7246167E+02  0.7816164E-02  0.1226708E+00
        -11   -1    0    0    0    0  0.00000000000E+00  0.00000000000E+00  0.45593999997E+02  0.45594000000E+02  0.51100000000E-03 0. -1.
         11   -1    0    0    0    0 -0.00000000000E+00 -0.00000000000E+00 -0.45593999997E+02  0.45594000000E+02  0.51100000000E-03 0.  1.
    9900012    2    1    2    0    0 -0.11777316243E+02  0.79585765235E+01 -0.12191443553E+02  0.72461670566E+02  0.70000130622E+02 0.  0.
        -12    1    1    2    0    0  0.11777316243E+02 -0.79585765235E+01  0.12191443553E+02  0.18726329434E+02  0.00000000000E+00 0.  1.
         11    1    3    3    0    0 -0.19559677330E+02  0.17187825510E+02  0.94497957043E+01  0.27700197871E+02  0.51100000000E-03 0. -1.
        -11    1    3    3    0    0  0.59073980428E+01  0.13008896705E+02 -0.93471540533E+00  0.14317906211E+02  0.51100000000E-03 0.  1.
        -12    1    3    3    0    0  0.18749630442E+01 -0.22238145691E+02 -0.20706523852E+02  0.30443566484E+02  0.00000000000E+00 0.  1.
</event>
<event>
 7    1  0.2700104E-013  0.7246159E+02  0.7816164E-02  0.1226708E+00
        -11   -1    0    0    0    0  0.00000000000E+00  0.00000000000E+00  0.45593999997E+02  0.45594000000E+02  0.51100000000E-03 0. -1.
         11   -1    0    0    0    0 -0.00000000000E+00 -0.00000000000E+00 -0.45593999997E+02  0.45594000000E+02  0.51100000000E-03 0.  1.
    9900012    2    1    2    0    0  0.87221452510E+01  0.10914319576E+02  0.12469177059E+02  0.72461586405E+02  0.70000020988E+02 0.  0.
        -12    1    1    2    0    0 -0.87221452510E+01 -0.10914319576E+02 -0.12469177059E+02  0.18726413595E+02  0.00000000000E+00 0.  1.
         11    1    3    3    0    0  0.22195153618E+02  0.24828955767E+01  0.13195934448E+02  0.25940745957E+02  0.51100000000E-03 0. -1.
        -11    1    3    3    0    0  0.21293752919E+01  0.21815469749E+02 -0.98502368959E+01  0.24030732961E+02  0.51100000000E-03 0.  1.
         12    1    3    3    0    0 -0.15602383659E+02 -0.13384045750E+02  0.91234795075E+01  0.22490107488E+02  0.00000000000E+00 0. -1.
</event>
<event>
 7    1  0.2700104E-013  0.7246128E+02  0.7816164E-02  0.1226709E+00
        -11   -1    0    0    0    0  0.00000000000E+00  0.00000000000E+00  0.45593999997E+02  0.45594000000E+02  0.51100000000E-03 0.  1.
         11   -1    0    0    0    0 -0.00000000000E+00 -0.00000000000E+00 -0.45593999997E+02  0.45594000000E+02  0.51100000000E-03 0. -1.
    9900012    2    1    2    0    0  0.15708999278E+02 -0.29101249581E+01  0.97697823151E+01  0.72461277594E+02  0.69999618703E+02 0.  0.
        -12    1    1    2    0    0 -0.15708999278E+02  0.29101249581E+01 -0.97697823151E+01  0.18726722406E+02  0.00000000000E+00 0.  1.
         11    1    3    3    0    0  0.32321786461E+01 -0.76423732775E+01  0.21236272137E+00  0.83004786789E+01  0.51100000000E-03 0. -1.
        -11    1    3    3    0    0 -0.43427697610E+01 -0.15208345876E+02  0.28037870806E+02  0.32191235345E+02  0.51100000000E-03 0.  1.
         12    1    3    3    0    0  0.16819590393E+02  0.19940594195E+02 -0.18480451212E+02  0.31969563570E+02  0.00000000000E+00 0. -1.
</event>
<event>
 7    1  0.2700104E-013  0.7246155E+02  0.7816164E-02  0.1226708E+00
        -11   -1    0    0    0    0  0.00000000000E+00  0.00000000000E+00  0.45593999997E+02  0.45594000000E+02  0.51100000000E-03 0. -1.
         11   -1    0    0    0    0 -0.00000000000E+00 -0.00000000000E+00 -0.45593999997E+02  0.45594000000E+02  0.51100000000E-03 0.  1.
    9900012    2    1    2    0    0 -0.92592362835E+01  0.36171610572E+01  0.15870178053E+02  0.72461551802E+02  0.69999975910E+02 0.  0.
        -12    1    1    2    0    0  0.92592362835E+01 -0.36171610572E+01 -0.15870178053E+02  0.18726448198E+02  0.00000000000E+00 0.  1.
         11    1    3    3    0    0 -0.22857201639E-01  0.10846742666E+01 -0.60406972384E+01  0.61373499251E+01  0.51100000000E-03 0. -1.
        -11    1    3    3    0    0  0.25476704581E+01 -0.12138706388E+02 -0.18196565918E+02  0.22021667262E+02  0.51100000000E-03 0.  1.
         12    1    3    3    0    0 -0.11784049540E+02  0.14671193179E+02  0.40107441210E+02  0.44302534614E+02  0.00000000000E+00 0. -1.
</event>
<event>
 7    1  0.2700104E-013  0.7246157E+02  0.7816164E-02  0.1226708E+00
        -11   -1    0    0    0    0  0.00000000000E+00  0.00000000000E+00  0.45593999997E+02  0.45594000000E+02  0.51100000000E-03 0.  1.
         11   -1    0    0    0    0 -0.00000000000E+00 -0.00000000000E+00 -0.45593999997E+02  0.45594000000E+02  0.51100000000E-03 0. -1.
    9900012    2    1    2    0    0 -0.46579490553E+01 -0.17902917276E+01  0.18049304694E+02  0.72461573917E+02  0.70000004720E+02 0.  0.
        -12    1    1    2    0    0  0.46579490553E+01  0.17902917276E+01 -0.18049304694E+02  0.18726426083E+02  0.00000000000E+00 0.  1.
         11    1    3    3    0    0 -0.11780650589E+02 -0.94024437508E+01  0.65892778547E+01  0.16450175066E+02  0.51100000000E-03 0. -1.
        -11    1    3    3    0    0 -0.23361521381E+02  0.46780778135E+01  0.17748392448E+01  0.23891319509E+02  0.51100000000E-03 0.  1.
         12    1    3    3    0    0  0.30484222915E+02  0.29340742096E+01  0.96851875949E+01  0.32120079342E+02  0.00000000000E+00 0. -1.
</event>
<event>
 7    1  0.2700104E-013  0.7246153E+02  0.7816164E-02  0.1226708E+00
        -11   -1    0    0    0    0  0.00000000000E+00  0.00000000000E+00  0.45593999997E+02  0.45594000000E+02  0.51100000000E-03 0.  1.
         11   -1    0    0    0    0 -0.00000000000E+00 -0.00000000000E+00 -0.45593999997E+02  0.45594000000E+02  0.51100000000E-03 0. -1.
    9900012    2    1    2    0    0 -0.15461773887E+02 -0.21231602082E+01  0.10349224613E+02  0.72461529134E+02  0.69999946381E+02 0.  0.
        -12    1    1    2    0    0  0.15461773887E+02  0.21231602082E+01 -0.10349224613E+02  0.18726470866E+02  0.00000000000E+00 0.  1.
         11    1    3    3    0    0 -0.40506871330E+01 -0.19427566564E+02  0.48704413148E+01  0.20434275316E+02  0.51100000000E-03 0. -1.
        -11    1    3    3    0    0 -0.11655009388E+02 -0.63521950923E+01  0.20194357037E+02  0.24166126763E+02  0.51100000000E-03 0.  1.
         12    1    3    3    0    0  0.24392263408E+00  0.23656601448E+02 -0.14715573739E+02  0.27861127055E+02  0.00000000000E+00 0. -1.
</event>
<event>
 7    1  0.2700104E-013  0.7246155E+02  0.7816164E-02  0.1226708E+00
        -11   -1    0    0    0    0  0.00000000000E+00  0.00000000000E+00  0.45593999997E+02  0.45594000000E+02  0.51100000000E-03 0. -1.
         11   -1    0    0    0    0 -0.00000000000E+00 -0.00000000000E+00 -0.45593999997E+02  0.45594000000E+02  0.51100000000E-03 0.  1.
    9900012    2    1    2    0    0  0.77775157037E+00  0.57013703905E+01  0.17820478900E+02  0.72461548386E+02  0.69999971460E+02 0.  0.
        -12    1    1    2    0    0 -0.77775157037E+00 -0.57013703905E+01 -0.17820478900E+02  0.18726451614E+02  0.00000000000E+00 0.  1.
         11    1    3    3    0    0  0.13949806403E+01 -0.55800368809E+01 -0.36204069638E+01  0.67963320565E+01  0.51100000000E-03 0. -1.
        -11    1    3    3    0    0 -0.85132926422E+01  0.93973713711E+01 -0.19866195198E+02  0.23568038786E+02  0.51100000000E-03 0.  1.
         12    1    3    3    0    0  0.78960635723E+01  0.18840359002E+01  0.41307081062E+02  0.42097177543E+02  0.00000000000E+00 0. -1.
</event>
<event>
 7    1  0.2700104E-013  0.7246153E+02  0.7816164E-02  0.1226708E+00
        -11   -1    0    0    0    0  0.00000000000E+00  0.00000000000E+00  0.45593999997E+02  0.45594000000E+02  0.51100000000E-03 0. -1.
         11   -1    0    0    0    0 -0.00000000000E+00 -0.00000000000E+00 -0.45593999997E+02  0.45594000000E+02  0.51100000000E-03 0.  1.
    9900012    2    1    2    0    0  0.76752431455E+01 -0.16864656673E+02  0.27119255929E+01  0.72461533637E+02  0.69999952247E+02 0.  0.
        -12    1    1    2    0    0 -0.76752431455E+01  0.16864656673E+02 -0.27119255929E+01  0.18726466363E+02  0.00000000000E+00 0.  1.
         11    1    3    3    0    0  0.20165953806E+02 -0.41861717306E+01  0.25286633643E+01  0.20750514821E+02  0.51100000000E-03 0. -1.
        -11    1    3    3    0    0 -0.16646651301E+01  0.75439178192E+01 -0.19822391429E+02  0.21274609475E+02  0.51100000000E-03 0.  1.
         12    1    3    3    0    0 -0.10826045531E+02 -0.20222402761E+02  0.20005653658E+02  0.30436409341E+02  0.00000000000E+00 0. -1.
</event>
<event>
 7    1  0.2700104E-013  0.7246159E+02  0.7816164E-02  0.1226708E+00
        -11   -1    0    0    0    0  0.00000000000E+00  0.00000000000E+00  0.45593999997E+02  0.45594000000E+02  0.51100000000E-03 0. -1.
         11   -1    0    0    0    0 -0.00000000000E+00 -0.00000000000E+00 -0.45593999997E+02  0.45594000000E+02  0.51100000000E-03 0.  1.
    9900012    2    1    2    0    0 -0.97844663784E+01 -0.13135018353E+02 -0.90782209291E+01  0.72461585910E+02  0.70000020342E+02 0.  0.
        -12    1    1    2    0    0  0.97844663784E+01  0.13135018353E+02  0.90782209291E+01  0.18726414090E+02  0.00000000000E+00 0.  1.
         11    1    3    3    0    0  0.18427038568E+01  0.93586041374E-01  0.11151264336E+02  0.11302876289E+02  0.51100000000E-03 0. -1.
        -11    1    3    3    0    0  0.11143916818E+02  0.47825329043E+01 -0.28498182435E+02  0.30971049472E+02  0.51100000000E-03 0.  1.
         12    1    3    3    0    0 -0.22771087054E+02 -0.18011137299E+02  0.82686971701E+01  0.30187660149E+02  0.00000000000E+00 0. -1.
</event>
<event>
 7    1  0.2700104E-013  0.7246192E+02  0.7816164E-02  0.1226707E+00
        -11   -1    0    0    0    0  0.00000000000E+00  0.00000000000E+00  0.45593999997E+02  0.45594000000E+02  0.51100000000E-03 0. -1.
         11   -1    0    0    0    0 -0.00000000000E+00 -0.00000000000E+00 -0.45593999997E+02  0.45594000000E+02  0.51100000000E-03 0.  1.
    9900012    2    1    2    0    0 -0.15261776394E+02  0.10399051630E+02 -0.30990280002E+01  0.72461920110E+02  0.70000455699E+02 0.  0.
        -12    1    1    2    0    0  0.15261776394E+02 -0.10399051630E+02  0.30990280002E+01  0.18726079890E+02  0.00000000000E+00 0.  1.
         11    1    3    3    0    0 -0.17962404974E+02 -0.50449782075E+01  0.14043968962E+02  0.23352363093E+02  0.51100000000E-03 0. -1.
        -11    1    3    3    0    0 -0.11039279090E+02  0.92797524630E+00 -0.25224556104E+02  0.27550046312E+02  0.51100000000E-03 0.  1.
         12    1    3    3    0    0  0.13739907670E+02  0.14516054591E+02  0.80815591418E+01  0.21559510705E+02  0.00000000000E+00 0. -1.
</event>
<event>
 7    1  0.2700104E-013  0.7246166E+02  0.7816164E-02  0.1226708E+00
        -11   -1    0    0    0    0  0.00000000000E+00  0.00000000000E+00  0.45593999997E+02  0.45594000000E+02  0.51100000000E-03 0.  1.
         11   -1    0    0    0    0 -0.00000000000E+00 -0.00000000000E+00 -0.45593999997E+02  0.45594000000E+02  0.51100000000E-03 0. -1.
    9900012    2    1    2    0    0  0.12796615011E+02  0.10186874797E+02 -0.91186542476E+01  0.72461664824E+02  0.70000123142E+02 0.  0.
        -12    1    1    2    0    0 -0.12796615011E+02 -0.10186874797E+02  0.91186542476E+01  0.18726335176E+02  0.00000000000E+00 0.  1.
         11    1    3    3    0    0  0.12897720149E+02  0.10704462835E+02 -0.90011637782E+00  0.16785318566E+02  0.51100000000E-03 0. -1.
        -11    1    3    3    0    0 -0.67172553082E+01  0.24144262097E+02  0.69109502494E+01  0.25996694880E+02  0.51100000000E-03 0.  1.
         12    1    3    3    0    0  0.66161501696E+01 -0.24661850135E+02 -0.15129488119E+02  0.29679651377E+02  0.00000000000E+00 0. -1.
</event>
<event>
 7    1  0.2700104E-013  0.7246159E+02  0.7816164E-02  0.1226708E+00
        -11   -1    0    0    0    0  0.00000000000E+00  0.00000000000E+00  0.45593999997E+02  0.45594000000E+02  0.51100000000E-03 0.  1.
         11   -1    0    0    0    0 -0.00000000000E+00 -0.00000000000E+00 -0.45593999997E+02  0.45594000000E+02  0.51100000000E-03 0. -1.
    9900012    2    1    2    0    0  0.11555860224E+02  0.26929173880E+00 -0.14733226184E+02  0.72461591445E+02  0.70000027553E+02 0.  0.
        -12    1    1    2    0    0 -0.11555860224E+02 -0.26929173880E+00  0.14733226184E+02  0.18726408555E+02  0.00000000000E+00 0.  1.
         11    1    3    3    0    0 -0.39143839584E+01  0.15010358725E+02  0.12660490499E+02  0.20023019023E+02  0.51100000000E-03 0. -1.
        -11    1    3    3    0    0 -0.73025374602E+01  0.72700522924E+01 -0.15489048477E+02  0.18603530221E+02  0.51100000000E-03 0.  1.
         12    1    3    3    0    0  0.22772781643E+02 -0.22011119279E+02 -0.11904668206E+02  0.33835042201E+02  0.00000000000E+00 0. -1.
</event>
<event>
 7    1  0.2700104E-013  0.7246158E+02  0.7816164E-02  0.1226708E+00
        -11   -1    0    0    0    0  0.00000000000E+00  0.00000000000E+00  0.45593999997E+02  0.45594000000E+02  0.51100000000E-03 0. -1.
         11   -1    0    0    0    0 -0.00000000000E+00 -0.00000000000E+00 -0.45593999997E+02  0.45594000000E+02  0.51100000000E-03 0.  1.
    9900012    2    1    2    0    0 -0.17369482013E+02  0.69288756293E+01  0.98519760546E+00  0.72461579167E+02  0.70000011559E+02 0.  0.
        -12    1    1    2    0    0  0.17369482013E+02 -0.69288756293E+01 -0.98519760546E+00  0.18726420833E+02  0.00000000000E+00 0.  1.
         11    1    3    3    0    0 -0.38821044516E+02 -0.14603554553E+01  0.10952788521E+02  0.40362974519E+02  0.51100000000E-03 0. -1.
        -11    1    3    3    0    0  0.17388935471E+02 -0.80910695900E+00  0.72200032748E+00  0.17422715506E+02  0.51100000000E-03 0.  1.
        -12    1    3    3    0    0  0.40626270328E+01  0.91983380436E+01 -0.10689591243E+02  0.14675889142E+02  0.00000000000E+00 0.  1.
</event>
<event>
 7    1  0.2700104E-013  0.7246156E+02  0.7816164E-02  0.1226708E+00
        -11   -1    0    0    0    0  0.00000000000E+00  0.00000000000E+00  0.45593999997E+02  0.45594000000E+02  0.51100000000E-03 0.  1.
         11   -1    0    0    0    0 -0.00000000000E+00 -0.00000000000E+00 -0.45593999997E+02  0.45594000000E+02  0.51100000000E-03 0. -1.
    9900012    2    1    2    0    0 -0.11207763679E+02 -0.63069274753E+01 -0.13612066837E+02  0.72461557080E+02  0.69999982786E+02 0.  0.
        -12    1    1    2    0    0  0.11207763679E+02  0.63069274753E+01  0.13612066837E+02  0.18726442920E+02  0.00000000000E+00 0.  1.
         11    1    3    3    0    0 -0.23091516205E+01 -0.31170638739E+01  0.22967654054E+01  0.45081481773E+01  0.51100000000E-03 0. -1.
        -11    1    3    3    0    0  0.22833469686E+02 -0.99540568398E+01  0.95863094149E+01  0.26689846645E+02  0.51100000000E-03 0.  1.
         12    1    3    3    0    0 -0.31732081745E+02  0.67641932383E+01 -0.25495141657E+02  0.41263562257E+02  0.00000000000E+00 0. -1.
</event>
<event>
 7    1  0.2700104E-013  0.7246155E+02  0.7816164E-02  0.1226708E+00
        -11   -1    0    0    0    0  0.00000000000E+00  0.00000000000E+00  0.45593999997E+02  0.45594000000E+02  0.51100000000E-03 0. -1.
         11   -1    0    0    0    0 -0.00000000000E+00 -0.00000000000E+00 -0.45593999997E+02  0.45594000000E+02  0.51100000000E-03 0.  1.
    9900012    2    1    2    0    0  0.49987721117E+01  0.15827581181E+01  0.17977408699E+02  0.72461546267E+02  0.69999968700E+02 0.  0.
        -12    1    1    2    0    0 -0.49987721117E+01 -0.15827581181E+01 -0.17977408699E+02  0.18726453733E+02  0.00000000000E+00 0.  1.
         11    1    3    3    0    0  0.26769907848E+02 -0.49549295118E+01  0.84399677565E+01  0.28502848079E+02  0.51100000000E-03 0. -1.
        -11    1    3    3    0    0 -0.55736607844E+01 -0.84759387723E+01  0.17710046111E+02  0.20409629250E+02  0.51100000000E-03 0.  1.
        -12    1    3    3    0    0 -0.16197474952E+02  0.15013626402E+02 -0.81726051684E+01  0.23549068937E+02  0.00000000000E+00 0.  1.
</event>
<event>
 7    1  0.2700104E-013  0.7246155E+02  0.7816164E-02  0.1226708E+00
        -11   -1    0    0    0    0  0.00000000000E+00  0.00000000000E+00  0.45593999997E+02  0.45594000000E+02  0.51100000000E-03 0.  1.
         11   -1    0    0    0    0 -0.00000000000E+00 -0.00000000000E+00 -0.45593999997E+02  0.45594000000E+02  0.51100000000E-03 0. -1.
    9900012    2    1    2    0    0 -0.14990027746E+02  0.35546871315E+01 -0.10646273207E+02  0.72461551708E+02  0.69999975788E+02 0.  0.
        -12    1    1    2    0    0  0.14990027746E+02 -0.35546871315E+01  0.10646273207E+02  0.18726448292E+02  0.00000000000E+00 0.  1.
         11    1    3    3    0    0  0.10369983010E+02  0.46552596916E+01 -0.52690837016E+01  0.12528816135E+02  0.51100000000E-03 0. -1.
        -11    1    3    3    0    0 -0.18481363632E+02 -0.86450515267E+00  0.23691769062E+02  0.30060074724E+02  0.51100000000E-03 0.  1.
         12    1    3    3    0    0 -0.68786471242E+01 -0.23606740748E+00 -0.29068958567E+02  0.29872660850E+02  0.00000000000E+00 0. -1.
</event>
<event>
 7    1  0.2700104E-013  0.7246156E+02  0.7816164E-02  0.1226708E+00
        -11   -1    0    0    0    0  0.00000000000E+00  0.00000000000E+00  0.45593999997E+02  0.45594000000E+02  0.51100000000E-03 0.  1.
         11   -1    0    0    0    0 -0.00000000000E+00 -0.00000000000E+00 -0.45593999997E+02  0.45594000000E+02  0.51100000000E-03 0. -1.
    9900012    2    1    2    0    0 -0.15630769922E+02  0.58668394844E+01  0.84816665023E+01  0.72461563058E+02  0.69999990573E+02 0.  0.
        -12    1    1    2    0    0  0.15630769922E+02 -0.58668394844E+01 -0.84816665023E+01  0.18726436942E+02  0.00000000000E+00 0.  1.
         11    1    3    3    0    0 -0.14166272325E+02 -0.11717442828E+02  0.96832539414E+00  0.18409763506E+02  0.51100000000E-03 0. -1.
        -11    1    3    3    0    0 -0.11372560243E+02 -0.38113776877E+01  0.22932130235E+02  0.25879418922E+02  0.51100000000E-03 0.  1.
         12    1    3    3    0    0  0.99080626459E+01  0.21395660000E+02 -0.15418789127E+02  0.28172380630E+02  0.00000000000E+00 0. -1.
</event>
<event>
 7    1  0.2700104E-013  0.7246157E+02  0.7816164E-02  0.1226708E+00
        -11   -1    0    0    0    0  0.00000000000E+00  0.00000000000E+00  0.45593999997E+02  0.45594000000E+02  0.51100000000E-03 0. -1.
         11   -1    0    0    0    0 -0.00000000000E+00 -0.00000000000E+00 -0.45593999997E+02  0.45594000000E+02  0.51100000000E-03 0.  1.
    9900012    2    1    2    0    0 -0.60679685551E+01 -0.86798232618E+01  0.15444083269E+02  0.72461567284E+02  0.69999996079E+02 0.  0.
        -12    1    1    2    0    0  0.60679685551E+01  0.86798232618E+01 -0.15444083269E+02  0.18726432716E+02  0.00000000000E+00 0.  1.
         11    1    3    3    0    0 -0.17823654539E+02  0.14040621259E+02 -0.12429284577E+02  0.25871003494E+02  0.51100000000E-03 0. -1.
        -11    1    3    3    0    0 -0.58076131199E+01  0.22266917697E+01  0.18472984651E+01  0.64883771675E+01  0.51100000000E-03 0.  1.
        -12    1    3    3    0    0  0.17563299103E+02 -0.24947136290E+02  0.26026069381E+02  0.40102186622E+02  0.00000000000E+00 0.  1.
</event>
<event>
 7    1  0.2700104E-013  0.7246152E+02  0.7816164E-02  0.1226708E+00
        -11   -1    0    0    0    0  0.00000000000E+00  0.00000000000E+00  0.45593999997E+02  0.45594000000E+02  0.51100000000E-03 0. -1.
         11   -1    0    0    0    0 -0.00000000000E+00 -0.00000000000E+00 -0.45593999997E+02  0.45594000000E+02  0.51100000000E-03 0.  1.
    9900012    2    1    2    0    0 -0.26033849710E+01  0.17849891763E+02  0.50284083323E+01  0.72461517693E+02  0.69999931477E+02 0.  0.
        -12    1    1    2    0    0  0.26033849710E+01 -0.17849891763E+02 -0.50284083323E+01  0.18726482307E+02  0.00000000000E+00 0.  1.
         11    1    3    3    0    0 -0.34628715640E+01  0.12249434849E+02  0.93413115322E+01  0.15789244282E+02  0.51100000000E-03 0. -1.
        -11    1    3    3    0    0  0.10619182936E+02  0.28730712580E+02 -0.70115832956E+01  0.31422654124E+02  0.51100000000E-03 0.  1.
         12    1    3    3    0    0 -0.97596963426E+01 -0.23130255667E+02  0.26986800957E+01  0.25249619287E+02  0.00000000000E+00 0. -1.
</event>
<event>
 7    1  0.2700104E-013  0.7246158E+02  0.7816164E-02  0.1226708E+00
        -11   -1    0    0    0    0  0.00000000000E+00  0.00000000000E+00  0.45593999997E+02  0.45594000000E+02  0.51100000000E-03 0.  1.
         11   -1    0    0    0    0 -0.00000000000E+00 -0.00000000000E+00 -0.45593999997E+02  0.45594000000E+02  0.51100000000E-03 0. -1.
    9900012    2    1    2    0    0  0.14040685449E+00  0.92238794253E+01  0.16296604152E+02  0.72461575551E+02  0.70000006848E+02 0.  0.
        -12    1    1    2    0    0 -0.14040685449E+00 -0.92238794253E+01 -0.16296604152E+02  0.18726424449E+02  0.00000000000E+00 0.  1.
         11    1    3    3    0    0 -0.21965234345E+01 -0.47056876252E+01  0.96647587799E+01  0.10971589391E+02  0.51100000000E-03 0. -1.
        -11    1    3    3    0    0 -0.12867659298E+02 -0.55204537973E+01 -0.20488412356E+02  0.24815864020E+02  0.51100000000E-03 0.  1.
         12    1    3    3    0    0  0.15204589588E+02  0.19450020848E+02  0.27120257728E+02  0.36674122140E+02  0.00000000000E+00 0. -1.
</event>
<event>
 7    1  0.2700104E-013  0.7246151E+02  0.7816164E-02  0.1226708E+00
        -11   -1    0    0    0    0  0.00000000000E+00  0.00000000000E+00  0.45593999997E+02  0.45594000000E+02  0.51100000000E-03 0.  1.
         11   -1    0    0    0    0 -0.00000000000E+00 -0.00000000000E+00 -0.45593999997E+02  0.45594000000E+02  0.51100000000E-03 0. -1.
    9900012    2    1    2    0    0 -0.96513617341E+00 -0.40915334166E+00 -0.18697124719E+02  0.72461511620E+02  0.69999923566E+02 0.  0.
        -12    1    1    2    0    0  0.96513617341E+00  0.40915334166E+00  0.18697124719E+02  0.18726488380E+02  0.00000000000E+00 0.  1.
         11    1    3    3    0    0 -0.12238248123E+02  0.18775953148E+02  0.15930508462E+02  0.27497131375E+02  0.51100000000E-03 0. -1.
        -11    1    3    3    0    0  0.52534901287E+01  0.22675076054E+01 -0.11528805467E+02  0.12870668399E+02  0.51100000000E-03 0.  1.
        -12    1    3    3    0    0  0.60196218204E+01 -0.21452614095E+02 -0.23098827714E+02  0.32093711847E+02  0.00000000000E+00 0.  1.
</event>
<event>
 7    1  0.2700104E-013  0.7246113E+02  0.7816164E-02  0.1226709E+00
        -11   -1    0    0    0    0  0.00000000000E+00  0.00000000000E+00  0.45593999997E+02  0.45594000000E+02  0.51100000000E-03 0.  1.
         11   -1    0    0    0    0 -0.00000000000E+00 -0.00000000000E+00 -0.45593999997E+02  0.45594000000E+02  0.51100000000E-03 0. -1.
    9900012    2    1    2    0    0  0.13470955280E+02  0.12670549790E+02 -0.29472363825E+01  0.72461129721E+02  0.69999426070E+02 0.  0.
        -12    1    1    2    0    0 -0.13470955280E+02 -0.12670549790E+02  0.29472363825E+01  0.18726870279E+02  0.00000000000E+00 0.  1.
         11    1    3    3    0    0 -0.38188706693E+01  0.12628541717E+01  0.21006155597E+01  0.45377483225E+01  0.51100000000E-03 0. -1.
        -11    1    3    3    0    0  0.25893749922E+02  0.10448689809E+02  0.24491504338E+02  0.37141556090E+02  0.51100000000E-03 0.  1.
         12    1    3    3    0    0 -0.86039239728E+01  0.95900580906E+00 -0.29539356281E+02  0.30781825309E+02  0.00000000000E+00 0. -1.
</event>
<event>
 7    1  0.2700104E-013  0.7246161E+02  0.7816164E-02  0.1226708E+00
        -11   -1    0    0    0    0  0.00000000000E+00  0.00000000000E+00  0.45593999997E+02  0.45594000000E+02  0.51100000000E-03 0. -1.
         11   -1    0    0    0    0 -0.00000000000E+00 -0.00000000000E+00 -0.45593999997E+02  0.45594000000E+02  0.51100000000E-03 0.  1.
    9900012    2    1    2    0    0 -0.10284520373E+02  0.15343748582E+02  0.30782787484E+01  0.72461607397E+02  0.70000048333E+02 0.  0.
        -12    1    1    2    0    0  0.10284520373E+02 -0.15343748582E+02 -0.30782787484E+01  0.18726392603E+02  0.00000000000E+00 0.  1.
         11    1    3    3    0    0 -0.22942846507E+02  0.65667706570E+01  0.24974617796E+02  0.34543135600E+02  0.51100000000E-03 0. -1.
        -11    1    3    3    0    0 -0.12910186729E+01  0.14705475422E+02 -0.59441697497E+01  0.15913858453E+02  0.51100000000E-03 0.  1.
        -12    1    3    3    0    0  0.13949344807E+02 -0.59284974964E+01 -0.15952169298E+02  0.22004613344E+02  0.00000000000E+00 0.  1.
</event>
<event>
 7    1  0.2700104E-013  0.7246162E+02  0.7816164E-02  0.1226708E+00
        -11   -1    0    0    0    0  0.00000000000E+00  0.00000000000E+00  0.45593999997E+02  0.45594000000E+02  0.51100000000E-03 0.  1.
         11   -1    0    0    0    0 -0.00000000000E+00 -0.00000000000E+00 -0.45593999997E+02  0.45594000000E+02  0.51100000000E-03 0. -1.
    9900012    2    1    2    0    0  0.21682915416E+01  0.62892162469E+01 -0.17504899377E+02  0.72461622042E+02  0.70000067411E+02 0.  0.
        -12    1    1    2    0    0 -0.21682915416E+01 -0.62892162469E+01  0.17504899377E+02  0.18726377958E+02  0.00000000000E+00 0.  1.
         11    1    3    3    0    0  0.21040962012E+02 -0.11452902683E+02 -0.20451876311E+02  0.31498735009E+02  0.51100000000E-03 0. -1.
        -11    1    3    3    0    0  0.15465790803E+01 -0.36721983773E+01  0.98098998047E+01  0.10588252085E+02  0.51100000000E-03 0.  1.
        -12    1    3    3    0    0 -0.20419249550E+02  0.21414317307E+02 -0.68629228709E+01  0.30374634949E+02  0.00000000000E+00 0.  1.
</event>
<event>
 7    1  0.2700104E-013  0.7246158E+02  0.7816164E-02  0.1226708E+00
        -11   -1    0    0    0    0  0.00000000000E+00  0.00000000000E+00  0.45593999997E+02  0.45594000000E+02  0.51100000000E-03 0.  1.
         11   -1    0    0    0    0 -0.00000000000E+00 -0.00000000000E+00 -0.45593999997E+02  0.45594000000E+02  0.51100000000E-03 0. -1.
    9900012    2    1    2    0    0 -0.63119453255E+01 -0.54716857369E+01 -0.16760033146E+02  0.72461582573E+02  0.70000015996E+02 0.  0.
        -12    1    1    2    0    0  0.63119453255E+01  0.54716857369E+01  0.16760033146E+02  0.18726417427E+02  0.00000000000E+00 0.  1.
         11    1    3    3    0    0  0.77051057226E+01 -0.85153893427E+01 -0.36990981307E+02  0.38732585870E+02  0.51100000000E-03 0. -1.
        -11    1    3    3    0    0 -0.18564085989E+01 -0.71296417020E+00 -0.50486260556E+01  0.54261585035E+01  0.51100000000E-03 0.  1.
        -12    1    3    3    0    0 -0.12160642449E+02  0.37566677760E+01  0.25279574217E+02  0.28302838200E+02  0.00000000000E+00 0.  1.
</event>
<event>
 7    1  0.2700104E-013  0.7246157E+02  0.7816164E-02  0.1226708E+00
        -11   -1    0    0    0    0  0.00000000000E+00  0.00000000000E+00  0.45593999997E+02  0.45594000000E+02  0.51100000000E-03 0. -1.
         11   -1    0    0    0    0 -0.00000000000E+00 -0.00000000000E+00 -0.45593999997E+02  0.45594000000E+02  0.51100000000E-03 0.  1.
    9900012    2    1    2    0    0 -0.80152964244E+01 -0.16902036860E+02  0.86909674393E+00  0.72461570657E+02  0.70000000472E+02 0.  0.
        -12    1    1    2    0    0  0.80152964244E+01  0.16902036860E+02 -0.86909674393E+00  0.18726429343E+02  0.00000000000E+00 0.  1.
         11    1    3    3    0    0 -0.51614402431E+01 -0.47211470494E+01  0.88008928560E+01  0.11242126586E+02  0.51100000000E-03 0. -1.
        -11    1    3    3    0    0  0.53133135163E+01  0.21246061474E+02  0.79792574304E+01  0.23308688897E+02  0.51100000000E-03 0.  1.
         12    1    3    3    0    0 -0.81671696976E+01 -0.33426951285E+02 -0.15911053542E+02  0.37910755174E+02  0.00000000000E+00 0. -1.
</event>
<event>
 7    1  0.2700104E-013  0.7246154E+02  0.7816164E-02  0.1226708E+00
        -11   -1    0    0    0    0  0.00000000000E+00  0.00000000000E+00  0.45593999997E+02  0.45594000000E+02  0.51100000000E-03 0.  1.
         11   -1    0    0    0    0 -0.00000000000E+00 -0.00000000000E+00 -0.45593999997E+02  0.45594000000E+02  0.51100000000E-03 0. -1.
    9900012    2    1    2    0    0 -0.28573127658E+01 -0.10070467947E+02 -0.15527445525E+02  0.72461544771E+02  0.69999966751E+02 0.  0.
        -12    1    1    2    0    0  0.28573127658E+01  0.10070467947E+02  0.15527445525E+02  0.18726455229E+02  0.00000000000E+00 0.  1.
         11    1    3    3    0    0  0.89838153022E+01  0.50619211571E+01  0.48803873165E+01  0.11408337469E+02  0.51100000000E-03 0.  1.
        -11    1    3    3    0    0  0.92631045908E+01  0.69044893538E+01  0.11919820192E+02  0.16599975710E+02  0.51100000000E-03 0. -1.
         12    1    3    3    0    0 -0.21104232659E+02 -0.22036878458E+02 -0.32327653034E+02  0.44453231592E+02  0.00000000000E+00 0. -1.
</event>
<event>
 7    1  0.2700104E-013  0.7246156E+02  0.7816164E-02  0.1226708E+00
        -11   -1    0    0    0    0  0.00000000000E+00  0.00000000000E+00  0.45593999997E+02  0.45594000000E+02  0.51100000000E-03 0.  1.
         11   -1    0    0    0    0 -0.00000000000E+00 -0.00000000000E+00 -0.45593999997E+02  0.45594000000E+02  0.51100000000E-03 0. -1.
    9900012    2    1    2    0    0 -0.47752937467E+01  0.13277537739E+02 -0.12311903058E+02  0.72461564255E+02  0.69999992133E+02 0.  0.
        -12    1    1    2    0    0  0.47752937467E+01 -0.13277537739E+02  0.12311903058E+02  0.18726435745E+02  0.00000000000E+00 0.  1.
         11    1    3    3    0    0  0.41237683090E+01  0.32867905443E+01  0.14688642489E+01  0.54741227234E+01  0.51100000000E-03 0. -1.
        -11    1    3    3    0    0  0.19082890679E+02  0.26601595956E+02 -0.38444932691E+01  0.32963339528E+02  0.51100000000E-03 0.  1.
         12    1    3    3    0    0 -0.27981952735E+02 -0.16610848761E+02 -0.99362740378E+01  0.34024102004E+02  0.00000000000E+00 0. -1.
</event>
<event>
 7    1  0.2700104E-013  0.7246158E+02  0.7816164E-02  0.1226708E+00
        -11   -1    0    0    0    0  0.00000000000E+00  0.00000000000E+00  0.45593999997E+02  0.45594000000E+02  0.51100000000E-03 0. -1.
         11   -1    0    0    0    0 -0.00000000000E+00 -0.00000000000E+00 -0.45593999997E+02  0.45594000000E+02  0.51100000000E-03 0.  1.
    9900012    2    1    2    0    0 -0.17802757865E+02 -0.57775892091E+01  0.60001319928E+00  0.72461581749E+02  0.70000014922E+02 0.  0.
        -12    1    1    2    0    0  0.17802757865E+02  0.57775892091E+01 -0.60001319928E+00  0.18726418251E+02  0.00000000000E+00 0.  1.
         11    1    3    3    0    0 -0.18660737937E+02  0.64319241246E+01  0.87818223814E+01  0.21603545841E+02  0.51100000000E-03 0. -1.
        -11    1    3    3    0    0 -0.16073117780E+01  0.11630274532E+02  0.13951596910E+02  0.18234412341E+02  0.51100000000E-03 0.  1.
        -12    1    3    3    0    0  0.24652918496E+01 -0.23839787865E+02 -0.22133406092E+02  0.32623623567E+02  0.00000000000E+00 0.  1.
</event>
<event>
 7    1  0.2700104E-013  0.7246110E+02  0.7816164E-02  0.1226709E+00
        -11   -1    0    0    0    0  0.00000000000E+00  0.00000000000E+00  0.45593999997E+02  0.45594000000E+02  0.51100000000E-03 0. -1.
         11   -1    0    0    0    0 -0.00000000000E+00 -0.00000000000E+00 -0.45593999997E+02  0.45594000000E+02  0.51100000000E-03 0.  1.
    9900012    2    1    2    0    0  0.13300203716E+02 -0.19042477505E-01  0.13183357025E+02  0.72461102661E+02  0.69999390818E+02 0.  0.
        -12    1    1    2    0    0 -0.13300203716E+02  0.19042477505E-01 -0.13183357025E+02  0.18726897339E+02  0.00000000000E+00 0.  1.
         11    1    3    3    0    0  0.15982975654E+02  0.19179041711E+02 -0.10102049538E+02  0.26932184405E+02  0.51100000000E-03 0. -1.
        -11    1    3    3    0    0 -0.80639837468E+01 -0.22114518012E+01 -0.66554179983E+01  0.10687045519E+02  0.51100000000E-03 0.  1.
         12    1    3    3    0    0  0.53812118096E+01 -0.16986632387E+02  0.29940824561E+02  0.34841872737E+02  0.00000000000E+00 0. -1.
</event>
<event>
 7    1  0.2700104E-013  0.7246143E+02  0.7816164E-02  0.1226708E+00
        -11   -1    0    0    0    0  0.00000000000E+00  0.00000000000E+00  0.45593999997E+02  0.45594000000E+02  0.51100000000E-03 0.  1.
         11   -1    0    0    0    0 -0.00000000000E+00 -0.00000000000E+00 -0.45593999997E+02  0.45594000000E+02  0.51100000000E-03 0. -1.
    9900012    2    1    2    0    0 -0.59971523582E+01 -0.40765324709E+01 -0.17265587500E+02  0.72461428901E+02  0.69999815809E+02 0.  0.
        -12    1    1    2    0    0  0.59971523582E+01  0.40765324709E+01  0.17265587500E+02  0.18726571099E+02  0.00000000000E+00 0.  1.
         11    1    3    3    0    0  0.11954847806E+02 -0.77131201621E+01  0.13904337146E+02  0.19893245095E+02  0.51100000000E-03 0. -1.
        -11    1    3    3    0    0 -0.15472030227E+02  0.85683333078E+01  0.30142447604E+01  0.17941174063E+02  0.51100000000E-03 0.  1.
         12    1    3    3    0    0 -0.24799699367E+01 -0.49317456165E+01 -0.34184169406E+02  0.34627009743E+02  0.00000000000E+00 0. -1.
</event>
<event>
 7    1  0.2700104E-013  0.7246173E+02  0.7816164E-02  0.1226708E+00
        -11   -1    0    0    0    0  0.00000000000E+00  0.00000000000E+00  0.45593999997E+02  0.45594000000E+02  0.51100000000E-03 0.  1.
         11   -1    0    0    0    0 -0.00000000000E+00 -0.00000000000E+00 -0.45593999997E+02  0.45594000000E+02  0.51100000000E-03 0. -1.
    9900012    2    1    2    0    0 -0.12018479139E+02  0.14353551825E+02  0.45263671603E+00  0.72461730462E+02  0.70000208648E+02 0.  0.
        -12    1    1    2    0    0  0.12018479139E+02 -0.14353551825E+02 -0.45263671603E+00  0.18726269538E+02  0.00000000000E+00 0.  1.
         11    1    3    3    0    0  0.96149274001E+01 -0.68009465566E+01 -0.75246279785E+01  0.13975683506E+02  0.51100000000E-03 0. -1.
        -11    1    3    3    0    0  0.67840731474E+01  0.10224104221E+02 -0.15692940210E+02  0.19920450002E+02  0.51100000000E-03 0.  1.
        -12    1    3    3    0    0 -0.28417479686E+02  0.10930394161E+02  0.23670204905E+02  0.38565596955E+02  0.00000000000E+00 0.  1.
</event>
<event>
 7    1  0.2700104E-013  0.7246154E+02  0.7816164E-02  0.1226708E+00
        -11   -1    0    0    0    0  0.00000000000E+00  0.00000000000E+00  0.45593999997E+02  0.45594000000E+02  0.51100000000E-03 0.  1.
         11   -1    0    0    0    0 -0.00000000000E+00 -0.00000000000E+00 -0.45593999997E+02  0.45594000000E+02  0.51100000000E-03 0. -1.
    9900012    2    1    2    0    0 -0.35456865885E+00  0.12605860036E+02 -0.13843663296E+02  0.72461536382E+02  0.69999955822E+02 0.  0.
        -12    1    1    2    0    0  0.35456865885E+00 -0.12605860036E+02  0.13843663296E+02  0.18726463618E+02  0.00000000000E+00 0.  1.
         11    1    3    3    0    0 -0.25802132692E+01  0.69491716824E+01 -0.92878839121E+01  0.11883319209E+02  0.51100000000E-03 0. -1.
        -11    1    3    3    0    0  0.30584250094E+02  0.71940234277E+00 -0.79086100875E+01  0.31598417797E+02  0.51100000000E-03 0.  1.
         12    1    3    3    0    0 -0.28358605483E+02  0.49372860113E+01  0.33528307033E+01  0.28979799376E+02  0.00000000000E+00 0. -1.
</event>
<event>
 7    1  0.2700104E-013  0.7246155E+02  0.7816164E-02  0.1226708E+00
        -11   -1    0    0    0    0  0.00000000000E+00  0.00000000000E+00  0.45593999997E+02  0.45594000000E+02  0.51100000000E-03 0.  1.
         11   -1    0    0    0    0 -0.00000000000E+00 -0.00000000000E+00 -0.45593999997E+02  0.45594000000E+02  0.51100000000E-03 0. -1.
    9900012    2    1    2    0    0 -0.73537185512E+01 -0.75973558511E+01 -0.15455838395E+02  0.72461549911E+02  0.69999973447E+02 0.  0.
        -12    1    1    2    0    0  0.73537185512E+01  0.75973558511E+01  0.15455838395E+02  0.18726450089E+02  0.00000000000E+00 0.  1.
         11    1    3    3    0    0 -0.69369135646E-01 -0.41034858069E+01 -0.42905379941E+01  0.59373499463E+01  0.51100000000E-03 0. -1.
        -11    1    3    3    0    0  0.10037700963E+02  0.27645978921E+02 -0.83553820950E+00  0.29423693097E+02  0.51100000000E-03 0.  1.
         12    1    3    3    0    0 -0.17322050379E+02 -0.31139848965E+02 -0.10329762191E+02  0.37100506867E+02  0.00000000000E+00 0. -1.
</event>
<event>
 7    1  0.2700104E-013  0.7246141E+02  0.7816164E-02  0.1226708E+00
        -11   -1    0    0    0    0  0.00000000000E+00  0.00000000000E+00  0.45593999997E+02  0.45594000000E+02  0.51100000000E-03 0.  1.
         11   -1    0    0    0    0 -0.00000000000E+00 -0.00000000000E+00 -0.45593999997E+02  0.45594000000E+02  0.51100000000E-03 0. -1.
    9900012    2    1    2    0    0 -0.90123135737E+01 -0.14036165060E+02 -0.85117233244E+01  0.72461410361E+02  0.69999791657E+02 0.  0.
        -12    1    1    2    0    0  0.90123135737E+01  0.14036165060E+02  0.85117233244E+01  0.18726589639E+02  0.00000000000E+00 0.  1.
         11    1    3    3    0    0 -0.11909028787E+02 -0.34660580252E+01 -0.16520250586E+02  0.20658102637E+02  0.51100000000E-03 0. -1.
        -11    1    3    3    0    0 -0.17539742236E+02  0.24017400985E+01  0.18334975453E+02  0.25486903270E+02  0.51100000000E-03 0.  1.
         12    1    3    3    0    0  0.20436457449E+02 -0.12971847134E+02 -0.10326448191E+02  0.26316404454E+02  0.00000000000E+00 0. -1.
</event>
<event>
 7    1  0.2700104E-013  0.7246157E+02  0.7816164E-02  0.1226708E+00
        -11   -1    0    0    0    0  0.00000000000E+00  0.00000000000E+00  0.45593999997E+02  0.45594000000E+02  0.51100000000E-03 0.  1.
         11   -1    0    0    0    0 -0.00000000000E+00 -0.00000000000E+00 -0.45593999997E+02  0.45594000000E+02  0.51100000000E-03 0. -1.
    9900012    2    1    2    0    0  0.24377514926E+01 -0.10369171020E+02 -0.15401848999E+02  0.72461567009E+02  0.69999995720E+02 0.  0.
        -12    1    1    2    0    0 -0.24377514926E+01  0.10369171020E+02  0.15401848999E+02  0.18726432991E+02  0.00000000000E+00 0.  1.
         11    1    3    3    0    0  0.38218791945E+01 -0.13435700394E+02 -0.71920558302E+01  0.15711475837E+02  0.51100000000E-03 0. -1.
        -11    1    3    3    0    0  0.13159295284E+02  0.13751191178E+02 -0.25458195498E+02  0.31786507035E+02  0.51100000000E-03 0.  1.
         12    1    3    3    0    0 -0.14543422986E+02 -0.10684661804E+02  0.17248402329E+02  0.24963584136E+02  0.00000000000E+00 0. -1.
</event>
<event>
 7    1  0.2700104E-013  0.7246156E+02  0.7816164E-02  0.1226708E+00
        -11   -1    0    0    0    0  0.00000000000E+00  0.00000000000E+00  0.45593999997E+02  0.45594000000E+02  0.51100000000E-03 0. -1.
         11   -1    0    0    0    0 -0.00000000000E+00 -0.00000000000E+00 -0.45593999997E+02  0.45594000000E+02  0.51100000000E-03 0.  1.
    9900012    2    1    2    0    0 -0.12950622763E+02 -0.13176215890E+02  0.30575001776E+01  0.72461558735E+02  0.69999984942E+02 0.  0.
        -12    1    1    2    0    0  0.12950622763E+02  0.13176215890E+02 -0.30575001776E+01  0.18726441265E+02  0.00000000000E+00 0.  1.
         11    1    3    3    0    0  0.81197945131E+01 -0.73532092866E+01 -0.21021999917E+02  0.23704962150E+02  0.51100000000E-03 0. -1.
        -11    1    3    3    0    0  0.96138112274E+01  0.30602883400E+01  0.31615738566E+01  0.10572903128E+02  0.51100000000E-03 0.  1.
        -12    1    3    3    0    0 -0.30684228504E+02 -0.88832949431E+01  0.20917926238E+02  0.38183693457E+02  0.00000000000E+00 0.  1.
</event>
<event>
 7    1  0.2800499E-013  0.7246160E+02  0.7816164E-02  0.1226708E+00
        -11   -1    0    0    0    0  0.00000000000E+00  0.00000000000E+00  0.45593999997E+02  0.45594000000E+02  0.51100000000E-03 0. -1.
         11   -1    0    0    0    0 -0.00000000000E+00 -0.00000000000E+00 -0.45593999997E+02  0.45594000000E+02  0.51100000000E-03 0.  1.
    9900012    2    1    2    0    0 -0.10480177141E+02  0.13299233159E+02  0.79983988266E+01  0.72461598869E+02  0.70000037224E+02 0.  0.
        -12    1    1    2    0    0  0.10480177141E+02 -0.13299233159E+02 -0.79983988266E+01  0.18726401131E+02  0.00000000000E+00 0.  1.
         11    1    3    3    0    0 -0.39230127191E+01  0.30354565490E+02 -0.50953281766E-01  0.30607062442E+02  0.51100000000E-03 0. -1.
        -11    1    3    3    0    0 -0.80111251712E+01 -0.11879622303E+02 -0.13474829393E+02  0.19669127586E+02  0.51100000000E-03 0.  1.
        -12    1    3    3    0    0  0.14539607494E+01 -0.51757100280E+01  0.21524181501E+02  0.22185408841E+02  0.00000000000E+00 0.  1.
</event>
<event>
 7    1  0.2700104E-013  0.7246154E+02  0.7816164E-02  0.1226708E+00
        -11   -1    0    0    0    0  0.00000000000E+00  0.00000000000E+00  0.45593999997E+02  0.45594000000E+02  0.51100000000E-03 0.  1.
         11   -1    0    0    0    0 -0.00000000000E+00 -0.00000000000E+00 -0.45593999997E+02  0.45594000000E+02  0.51100000000E-03 0. -1.
    9900012    2    1    2    0    0 -0.14880956619E+02  0.23775225562E+01 -0.11116870275E+02  0.72461540428E+02  0.69999961093E+02 0.  0.
        -12    1    1    2    0    0  0.14880956619E+02 -0.23775225562E+01  0.11116870275E+02  0.18726459572E+02  0.00000000000E+00 0.  1.
         11    1    3    3    0    0 -0.10005063504E+02  0.29532179538E+02 -0.10387503520E+02  0.32865653099E+02  0.51100000000E-03 0. -1.
        -11    1    3    3    0    0  0.12877824897E+01 -0.21819618652E+01 -0.11451557271E+02  0.11728491186E+02  0.51100000000E-03 0.  1.
        -12    1    3    3    0    0 -0.61636756051E+01 -0.24972695116E+02  0.10722190516E+02  0.27867396143E+02  0.00000000000E+00 0.  1.
</event>
<event>
 7    1  0.2700104E-013  0.7246155E+02  0.7816164E-02  0.1226708E+00
        -11   -1    0    0    0    0  0.00000000000E+00  0.00000000000E+00  0.45593999997E+02  0.45594000000E+02  0.51100000000E-03 0.  1.
         11   -1    0    0    0    0 -0.00000000000E+00 -0.00000000000E+00 -0.45593999997E+02  0.45594000000E+02  0.51100000000E-03 0. -1.
    9900012    2    1    2    0    0  0.14767304081E+02 -0.10406346474E+02 -0.49309695062E+01  0.72461554074E+02  0.69999978870E+02 0.  0.
        -12    1    1    2    0    0 -0.14767304081E+02  0.10406346474E+02  0.49309695062E+01  0.18726445926E+02  0.00000000000E+00 0.  1.
         11    1    3    3    0    0  0.17093220071E+02  0.67865044040E+01 -0.17251657624E+02  0.25216155644E+02  0.51100000000E-03 0. -1.
        -11    1    3    3    0    0 -0.42669429062E+00  0.13095266424E+02 -0.27099425674E+01  0.13379531372E+02  0.51100000000E-03 0.  1.
        -12    1    3    3    0    0 -0.18992216995E+01 -0.30288117302E+02  0.15030630685E+02  0.33865867058E+02  0.00000000000E+00 0.  1.
</event>
<event>
 7    1  0.2700104E-013  0.7246160E+02  0.7816164E-02  0.1226708E+00
        -11   -1    0    0    0    0  0.00000000000E+00  0.00000000000E+00  0.45593999997E+02  0.45594000000E+02  0.51100000000E-03 0. -1.
         11   -1    0    0    0    0 -0.00000000000E+00 -0.00000000000E+00 -0.45593999997E+02  0.45594000000E+02  0.51100000000E-03 0.  1.
    9900012    2    1    2    0    0  0.58533105820E+01  0.77852171092E+00  0.17771060168E+02  0.72461603649E+02  0.70000043450E+02 0.  0.
        -12    1    1    2    0    0 -0.58533105820E+01 -0.77852171092E+00 -0.17771060168E+02  0.18726396351E+02  0.00000000000E+00 0.  1.
         11    1    3    3    0    0  0.20068516279E+02 -0.64458185086E+00  0.92595485557E+01  0.22111084802E+02  0.51100000000E-03 0. -1.
        -11    1    3    3    0    0 -0.16518942963E+01 -0.14232371707E+02 -0.14108538677E+02  0.20108207852E+02  0.51100000000E-03 0.  1.
        -12    1    3    3    0    0 -0.12563311400E+02  0.15655475269E+02  0.22620050289E+02  0.30242310995E+02  0.00000000000E+00 0.  1.
</event>
<event>
 7    1  0.2700104E-013  0.7246146E+02  0.7816164E-02  0.1226708E+00
        -11   -1    0    0    0    0  0.00000000000E+00  0.00000000000E+00  0.45593999997E+02  0.45594000000E+02  0.51100000000E-03 0. -1.
         11   -1    0    0    0    0 -0.00000000000E+00 -0.00000000000E+00 -0.45593999997E+02  0.45594000000E+02  0.51100000000E-03 0.  1.
    9900012    2    1    2    0    0 -0.15003161486E+02  0.59482106586E+01  0.94977462329E+01  0.72461461395E+02  0.69999858138E+02 0.  0.
        -12    1    1    2    0    0  0.15003161486E+02 -0.59482106586E+01 -0.94977462329E+01  0.18726538605E+02  0.00000000000E+00 0.  1.
         11    1    3    3    0    0 -0.10676463945E+02  0.85000032273E+01  0.17224228461E+02  0.21975235689E+02  0.51100000000E-03 0. -1.
        -11    1    3    3    0    0 -0.23317797726E+02 -0.11975632441E+02 -0.12048174110E+02  0.28849505417E+02  0.51100000000E-03 0.  1.
         12    1    3    3    0    0  0.18991100185E+02  0.94238398726E+01  0.43216918820E+01  0.21636720290E+02  0.00000000000E+00 0. -1.
</event>
<event>
 7    1  0.2700104E-013  0.7246157E+02  0.7816164E-02  0.1226708E+00
        -11   -1    0    0    0    0  0.00000000000E+00  0.00000000000E+00  0.45593999997E+02  0.45594000000E+02  0.51100000000E-03 0. -1.
         11   -1    0    0    0    0 -0.00000000000E+00 -0.00000000000E+00 -0.45593999997E+02  0.45594000000E+02  0.51100000000E-03 0.  1.
    9900012    2    1    2    0    0  0.14297945594E+02 -0.10060385800E+02 -0.67109258966E+01  0.72461571162E+02  0.70000001130E+02 0.  0.
        -12    1    1    2    0    0 -0.14297945594E+02  0.10060385800E+02  0.67109258966E+01  0.18726428838E+02  0.00000000000E+00 0.  1.
         11    1    3    3    0    0  0.31073345051E+02 -0.57083543745E+01  0.66563739707E+01  0.32286923003E+02  0.51100000000E-03 0. -1.
        -11    1    3    3    0    0  0.50598259450E+01 -0.84983161036E+01  0.52359881048E+01  0.11191013667E+02  0.51100000000E-03 0.  1.
        -12    1    3    3    0    0 -0.21835225402E+02  0.41462846785E+01 -0.18603287972E+02  0.28983634492E+02  0.00000000000E+00 0.  1.
</event>
<event>
 7    1  0.2700104E-013  0.7246153E+02  0.7816164E-02  0.1226708E+00
        -11   -1    0    0    0    0  0.00000000000E+00  0.00000000000E+00  0.45593999997E+02  0.45594000000E+02  0.51100000000E-03 0. -1.
         11   -1    0    0    0    0 -0.00000000000E+00 -0.00000000000E+00 -0.45593999997E+02  0.45594000000E+02  0.51100000000E-03 0.  1.
    9900012    2    1    2    0    0  0.69448485270E+01  0.10877984232E+02  0.13569049003E+02  0.72461533359E+02  0.69999951884E+02 0.  0.
        -12    1    1    2    0    0 -0.69448485270E+01 -0.10877984232E+02 -0.13569049003E+02  0.18726466641E+02  0.00000000000E+00 0.  1.
         11    1    3    3    0    0  0.13266637214E+01 -0.21418840805E+02  0.20330227954E+02  0.29560868509E+02  0.51100000000E-03 0. -1.
        -11    1    3    3    0    0 -0.15620425513E+01 -0.92051387419E+00  0.62522071289E+01  0.65097939267E+01  0.51100000000E-03 0.  1.
        -12    1    3    3    0    0  0.71802273569E+01  0.33217338912E+02 -0.13013386080E+02  0.36390870923E+02  0.00000000000E+00 0.  1.
</event>
<event>
 7    1  0.2700104E-013  0.7246144E+02  0.7816164E-02  0.1226708E+00
        -11   -1    0    0    0    0  0.00000000000E+00  0.00000000000E+00  0.45593999997E+02  0.45594000000E+02  0.51100000000E-03 0.  1.
         11   -1    0    0    0    0 -0.00000000000E+00 -0.00000000000E+00 -0.45593999997E+02  0.45594000000E+02  0.51100000000E-03 0. -1.
    9900012    2    1    2    0    0 -0.61236297604E+01  0.36029795017E+01 -0.17326386740E+02  0.72461441848E+02  0.69999832675E+02 0.  0.
        -12    1    1    2    0    0  0.61236297604E+01 -0.36029795017E+01  0.17326386740E+02  0.18726558152E+02  0.00000000000E+00 0.  1.
         11    1    3    3    0    0 -0.39496960212E+01  0.64184019847E+01 -0.29821909829E+02  0.30759426015E+02  0.51100000000E-03 0. -1.
        -11    1    3    3    0    0 -0.21965723011E+01  0.12733018648E+02 -0.85809970496E+01  0.15510905982E+02  0.51100000000E-03 0.  1.
        -12    1    3    3    0    0  0.22638561891E-01 -0.15548441131E+02  0.21076520138E+02  0.26191109851E+02  0.00000000000E+00 0.  1.
</event>
<event>
 7    1  0.2700104E-013  0.7246162E+02  0.7816164E-02  0.1226708E+00
        -11   -1    0    0    0    0  0.00000000000E+00  0.00000000000E+00  0.45593999997E+02  0.45594000000E+02  0.51100000000E-03 0.  1.
         11   -1    0    0    0    0 -0.00000000000E+00 -0.00000000000E+00 -0.45593999997E+02  0.45594000000E+02  0.51100000000E-03 0. -1.
    9900012    2    1    2    0    0 -0.23965968129E+01  0.80085077386E+01  0.16757012486E+02  0.72461619145E+02  0.70000063637E+02 0.  0.
        -12    1    1    2    0    0  0.23965968129E+01 -0.80085077386E+01 -0.16757012486E+02  0.18726380855E+02  0.00000000000E+00 0.  1.
         11    1    3    3    0    0 -0.37803699906E+01 -0.21586197826E+01  0.47761261418E+01  0.64623693654E+01  0.51100000000E-03 0. -1.
        -11    1    3    3    0    0 -0.13923216237E+02 -0.11039808746E+02  0.29557755054E+02  0.34487595040E+02  0.51100000000E-03 0.  1.
         12    1    3    3    0    0  0.15306989415E+02  0.21206936267E+02 -0.17576868710E+02  0.31511654739E+02  0.00000000000E+00 0. -1.
</event>
<event>
 7    1  0.2700104E-013  0.7246158E+02  0.7816164E-02  0.1226708E+00
        -11   -1    0    0    0    0  0.00000000000E+00  0.00000000000E+00  0.45593999997E+02  0.45594000000E+02  0.51100000000E-03 0.  1.
         11   -1    0    0    0    0 -0.00000000000E+00 -0.00000000000E+00 -0.45593999997E+02  0.45594000000E+02  0.51100000000E-03 0. -1.
    9900012    2    1    2    0    0 -0.80007549653E-01 -0.15060306524E+02 -0.11129217212E+02  0.72461582575E+02  0.70000015998E+02 0.  0.
        -12    1    1    2    0    0  0.80007549653E-01  0.15060306524E+02  0.11129217212E+02  0.18726417425E+02  0.00000000000E+00 0.  1.
         11    1    3    3    0    0  0.18310042974E+02 -0.21180247745E+02 -0.19966682260E+02  0.34387918939E+02  0.51100000000E-03 0. -1.
        -11    1    3    3    0    0  0.49873315244E+01 -0.57435179090E+01 -0.43135607130E+01  0.87446143420E+01  0.51100000000E-03 0.  1.
        -12    1    3    3    0    0 -0.23377382048E+02  0.11863459130E+02  0.13151025760E+02  0.29329049294E+02  0.00000000000E+00 0.  1.
</event>
<event>
 7    1  0.2700104E-013  0.7246157E+02  0.7816164E-02  0.1226708E+00
        -11   -1    0    0    0    0  0.00000000000E+00  0.00000000000E+00  0.45593999997E+02  0.45594000000E+02  0.51100000000E-03 0. -1.
         11   -1    0    0    0    0 -0.00000000000E+00 -0.00000000000E+00 -0.45593999997E+02  0.45594000000E+02  0.51100000000E-03 0.  1.
    9900012    2    1    2    0    0 -0.14223724229E+02  0.35609160525E+01  0.11648377826E+02  0.72461570547E+02  0.70000000329E+02 0.  0.
        -12    1    1    2    0    0  0.14223724229E+02 -0.35609160525E+01 -0.11648377826E+02  0.18726429453E+02  0.00000000000E+00 0.  1.
         11    1    3    3    0    0 -0.14259473734E+01 -0.83994920119E+00  0.56148433334E+01  0.58536575311E+01  0.51100000000E-03 0. -1.
        -11    1    3    3    0    0 -0.12793532020E+02 -0.29035287744E+02  0.91633720062E+01  0.33025592844E+02  0.51100000000E-03 0.  1.
         12    1    3    3    0    0 -0.42448362838E-02  0.33436152997E+02 -0.31298375136E+01  0.33582320172E+02  0.00000000000E+00 0. -1.
</event>
<event>
 7    1  0.2700104E-013  0.7246159E+02  0.7816164E-02  0.1226708E+00
        -11   -1    0    0    0    0  0.00000000000E+00  0.00000000000E+00  0.45593999997E+02  0.45594000000E+02  0.51100000000E-03 0.  1.
         11   -1    0    0    0    0 -0.00000000000E+00 -0.00000000000E+00 -0.45593999997E+02  0.45594000000E+02  0.51100000000E-03 0. -1.
    9900012    2    1    2    0    0  0.97421751699E+01  0.11678732353E+02 -0.10925910834E+02  0.72461593672E+02  0.70000030453E+02 0.  0.
        -12    1    1    2    0    0 -0.97421751699E+01 -0.11678732353E+02  0.10925910834E+02  0.18726406328E+02  0.00000000000E+00 0.  1.
         11    1    3    3    0    0 -0.16013756568E+02 -0.87246249443E+01 -0.11505287980E+02  0.21562261746E+02  0.51100000000E-03 0. -1.
        -11    1    3    3    0    0  0.28129607189E+02  0.62214168152E+01 -0.12553266469E+02  0.31425552136E+02  0.51100000000E-03 0.  1.
         12    1    3    3    0    0 -0.23736754509E+01  0.14181940482E+02  0.13132643614E+02  0.19473779790E+02  0.00000000000E+00 0. -1.
</event>
<event>
 7    1  0.2700104E-013  0.7246159E+02  0.7816164E-02  0.1226708E+00
        -11   -1    0    0    0    0  0.00000000000E+00  0.00000000000E+00  0.45593999997E+02  0.45594000000E+02  0.51100000000E-03 0.  1.
         11   -1    0    0    0    0 -0.00000000000E+00 -0.00000000000E+00 -0.45593999997E+02  0.45594000000E+02  0.51100000000E-03 0. -1.
    9900012    2    1    2    0    0 -0.10378466664E+02 -0.15405367463E+02 -0.23749637224E+01  0.72461591651E+02  0.70000027821E+02 0.  0.
        -12    1    1    2    0    0  0.10378466664E+02  0.15405367463E+02  0.23749637224E+01  0.18726408349E+02  0.00000000000E+00 0.  1.
         11    1    3    3    0    0 -0.20923210798E+01  0.68466099135E+01 -0.11882429278E+02  0.13872490786E+02  0.51100000000E-03 0. -1.
        -11    1    3    3    0    0 -0.21463140313E+02  0.94720332666E+01  0.39714476302E+01  0.23794079155E+02  0.51100000000E-03 0.  1.
        -12    1    3    3    0    0  0.13176994729E+02 -0.31724010643E+02  0.55360179251E+01  0.34795021710E+02  0.00000000000E+00 0.  1.
</event>
<event>
 7    1  0.2700104E-013  0.7246155E+02  0.7816164E-02  0.1226708E+00
        -11   -1    0    0    0    0  0.00000000000E+00  0.00000000000E+00  0.45593999997E+02  0.45594000000E+02  0.51100000000E-03 0. -1.
         11   -1    0    0    0    0 -0.00000000000E+00 -0.00000000000E+00 -0.45593999997E+02  0.45594000000E+02  0.51100000000E-03 0.  1.
    9900012    2    1    2    0    0  0.14909815254E+02  0.91426532362E+00  0.11293426949E+02  0.72461549075E+02  0.69999972358E+02 0.  0.
        -12    1    1    2    0    0 -0.14909815254E+02 -0.91426532362E+00 -0.11293426949E+02  0.18726450925E+02  0.00000000000E+00 0.  1.
         11    1    3    3    0    0  0.13188922403E+01 -0.24331104743E+01  0.23388981136E+01  0.36235270068E+01  0.51100000000E-03 0. -1.
        -11    1    3    3    0    0  0.29477696284E+02  0.19627698411E+02 -0.12513300408E+02  0.37560135922E+02  0.51100000000E-03 0.  1.
         12    1    3    3    0    0 -0.15886773271E+02 -0.16280322613E+02  0.21467829244E+02  0.31277886146E+02  0.00000000000E+00 0. -1.
</event>
<event>
 7    1  0.2700104E-013  0.7246152E+02  0.7816164E-02  0.1226708E+00
        -11   -1    0    0    0    0  0.00000000000E+00  0.00000000000E+00  0.45593999997E+02  0.45594000000E+02  0.51100000000E-03 0.  1.
         11   -1    0    0    0    0 -0.00000000000E+00 -0.00000000000E+00 -0.45593999997E+02  0.45594000000E+02  0.51100000000E-03 0. -1.
    9900012    2    1    2    0    0 -0.98364563803E+00 -0.17615513583E+02 -0.62775065013E+01  0.72461522344E+02  0.69999937536E+02 0.  0.
        -12    1    1    2    0    0  0.98364563803E+00  0.17615513583E+02  0.62775065013E+01  0.18726477656E+02  0.00000000000E+00 0.  1.
         11    1    3    3    0    0 -0.14129681553E+02 -0.29898926018E+02 -0.14565420647E+02  0.36135095914E+02  0.51100000000E-03 0. -1.
        -11    1    3    3    0    0 -0.88140302844E+01  0.24359478955E+01 -0.31605983480E+01  0.96752443991E+01  0.51100000000E-03 0.  1.
        -12    1    3    3    0    0  0.21960066199E+02  0.98474645392E+01  0.11448512494E+02  0.26651182031E+02  0.00000000000E+00 0.  1.
</event>
<event>
 7    1  0.2700104E-013  0.7246149E+02  0.7816164E-02  0.1226708E+00
        -11   -1    0    0    0    0  0.00000000000E+00  0.00000000000E+00  0.45593999997E+02  0.45594000000E+02  0.51100000000E-03 0. -1.
         11   -1    0    0    0    0 -0.00000000000E+00 -0.00000000000E+00 -0.45593999997E+02  0.45594000000E+02  0.51100000000E-03 0.  1.
    9900012    2    1    2    0    0 -0.61606590928E+01 -0.17492761917E+02  0.25945446718E+01  0.72461491997E+02  0.69999898003E+02 0.  0.
        -12    1    1    2    0    0  0.61606590928E+01  0.17492761917E+02 -0.25945446718E+01  0.18726508003E+02  0.00000000000E+00 0.  1.
         11    1    3    3    0    0 -0.11749554803E+01 -0.11715055460E+01 -0.32032934121E+01  0.36074969951E+01  0.51100000000E-03 0. -1.
        -11    1    3    3    0    0 -0.20567942809E+02 -0.24603022652E+02 -0.19855621160E+02  0.37717299571E+02  0.51100000000E-03 0.  1.
         12    1    3    3    0    0  0.15582239197E+02  0.82817662806E+01  0.25653459244E+02  0.31136695430E+02  0.00000000000E+00 0. -1.
</event>
<event>
 7    1  0.2700104E-013  0.7246154E+02  0.7816164E-02  0.1226708E+00
        -11   -1    0    0    0    0  0.00000000000E+00  0.00000000000E+00  0.45593999997E+02  0.45594000000E+02  0.51100000000E-03 0.  1.
         11   -1    0    0    0    0 -0.00000000000E+00 -0.00000000000E+00 -0.45593999997E+02  0.45594000000E+02  0.51100000000E-03 0. -1.
    9900012    2    1    2    0    0 -0.71315072796E+01  0.96197095262E+00 -0.17288627923E+02  0.72461536382E+02  0.69999955823E+02 0.  0.
        -12    1    1    2    0    0  0.71315072796E+01 -0.96197095262E+00  0.17288627923E+02  0.18726463618E+02  0.00000000000E+00 0.  1.
         11    1    3    3    0    0 -0.13224132501E+02 -0.12217930285E+02 -0.29227179613E+02  0.34327591370E+02  0.51100000000E-03 0. -1.
        -11    1    3    3    0    0  0.32541928625E+00  0.22599937558E+01 -0.11455299664E+02  0.11680640399E+02  0.51100000000E-03 0.  1.
        -12    1    3    3    0    0  0.57672059350E+01  0.10919907482E+02  0.23393851354E+02  0.26453304612E+02  0.00000000000E+00 0.  1.
</event>
<event>
 7    1  0.2700104E-013  0.7246165E+02  0.7816164E-02  0.1226708E+00
        -11   -1    0    0    0    0  0.00000000000E+00  0.00000000000E+00  0.45593999997E+02  0.45594000000E+02  0.51100000000E-03 0.  1.
         11   -1    0    0    0    0 -0.00000000000E+00 -0.00000000000E+00 -0.45593999997E+02  0.45594000000E+02  0.51100000000E-03 0. -1.
    9900012    2    1    2    0    0 -0.98473968522E+00 -0.15459382564E+02 -0.10522075594E+02  0.72461647009E+02  0.70000099935E+02 0.  0.
        -12    1    1    2    0    0  0.98473968522E+00  0.15459382564E+02  0.10522075594E+02  0.18726352991E+02  0.00000000000E+00 0.  1.
         11    1    3    3    0    0  0.15546272929E+00 -0.17998669738E+02 -0.15149769987E+02  0.23526406693E+02  0.51100000000E-03 0. -1.
        -11    1    3    3    0    0 -0.14592379227E+01 -0.11680606773E+02 -0.18415222994E+02  0.21856037795E+02  0.51100000000E-03 0.  1.
        -12    1    3    3    0    0  0.31903550817E+00  0.14219893946E+02  0.23042917387E+02  0.27079202521E+02  0.00000000000E+00 0.  1.
</event>
<event>
 7    1  0.2700104E-013  0.7246154E+02  0.7816164E-02  0.1226708E+00
        -11   -1    0    0    0    0  0.00000000000E+00  0.00000000000E+00  0.45593999997E+02  0.45594000000E+02  0.51100000000E-03 0. -1.
         11   -1    0    0    0    0 -0.00000000000E+00 -0.00000000000E+00 -0.45593999997E+02  0.45594000000E+02  0.51100000000E-03 0.  1.
    9900012    2    1    2    0    0  0.58157915211E+01 -0.42737103099E+01  0.17279818327E+02  0.72461544055E+02  0.69999965819E+02 0.  0.
        -12    1    1    2    0    0 -0.58157915211E+01  0.42737103099E+01 -0.17279818327E+02  0.18726455945E+02  0.00000000000E+00 0.  1.
         11    1    3    3    0    0 -0.23964907975E+01  0.73262864324E+01 -0.75079187599E+01  0.10760412882E+02  0.51100000000E-03 0. -1.
        -11    1    3    3    0    0  0.11968283995E+02  0.75775283529E+01  0.36337760259E+02  0.39001174067E+02  0.51100000000E-03 0.  1.
         12    1    3    3    0    0 -0.37560016759E+01 -0.19177525095E+02 -0.11550023172E+02  0.22699957106E+02  0.00000000000E+00 0. -1.
</event>
<event>
 7    1  0.2700104E-013  0.7246162E+02  0.7816164E-02  0.1226708E+00
        -11   -1    0    0    0    0  0.00000000000E+00  0.00000000000E+00  0.45593999997E+02  0.45594000000E+02  0.51100000000E-03 0. -1.
         11   -1    0    0    0    0 -0.00000000000E+00 -0.00000000000E+00 -0.45593999997E+02  0.45594000000E+02  0.51100000000E-03 0.  1.
    9900012    2    1    2    0    0 -0.11883709177E+02  0.84188920210E+01  0.11771877225E+02  0.72461618073E+02  0.70000062241E+02 0.  0.
        -12    1    1    2    0    0  0.11883709177E+02 -0.84188920210E+01 -0.11771877225E+02  0.18726381927E+02  0.00000000000E+00 0.  1.
         11    1    3    3    0    0 -0.16633610668E+02  0.95354417517E+01  0.70926229199E+01  0.20442772645E+02  0.51100000000E-03 0. -1.
        -11    1    3    3    0    0 -0.14398158436E+02  0.16325405179E+02  0.12322625757E+02  0.25013454908E+02  0.51100000000E-03 0.  1.
         12    1    3    3    0    0  0.19148059927E+02 -0.17441954910E+02 -0.76433714518E+01  0.27005390521E+02  0.00000000000E+00 0. -1.
</event>
<event>
 7    1  0.2700104E-013  0.7246163E+02  0.7816164E-02  0.1226708E+00
        -11   -1    0    0    0    0  0.00000000000E+00  0.00000000000E+00  0.45593999997E+02  0.45594000000E+02  0.51100000000E-03 0. -1.
         11   -1    0    0    0    0 -0.00000000000E+00 -0.00000000000E+00 -0.45593999997E+02  0.45594000000E+02  0.51100000000E-03 0.  1.
    9900012    2    1    2    0    0 -0.13869581658E+02  0.12478301632E+02 -0.16135210535E+01  0.72461634705E+02  0.70000083906E+02 0.  0.
        -12    1    1    2    0    0  0.13869581658E+02 -0.12478301632E+02  0.16135210535E+01  0.18726365295E+02  0.00000000000E+00 0.  1.
         11    1    3    3    0    0 -0.48508381644E+01  0.34091240309E+01  0.13579053263E+02  0.14816998527E+02  0.51100000000E-03 0. -1.
        -11    1    3    3    0    0 -0.31045128622E+02  0.10490219277E+02 -0.43626395575E+01  0.33058695314E+02  0.51100000000E-03 0.  1.
        -12    1    3    3    0    0  0.22026385129E+02 -0.14210416758E+01 -0.10829934759E+02  0.24585940864E+02  0.00000000000E+00 0.  1.
</event>
<event>
 7    1  0.2700104E-013  0.7246192E+02  0.7816164E-02  0.1226707E+00
        -11   -1    0    0    0    0  0.00000000000E+00  0.00000000000E+00  0.45593999997E+02  0.45594000000E+02  0.51100000000E-03 0. -1.
         11   -1    0    0    0    0 -0.00000000000E+00 -0.00000000000E+00 -0.45593999997E+02  0.45594000000E+02  0.51100000000E-03 0.  1.
    9900012    2    1    2    0    0  0.10744962445E+01 -0.14967006221E+02  0.11202693769E+02  0.72461917519E+02  0.70000452324E+02 0.  0.
        -12    1    1    2    0    0 -0.10744962445E+01  0.14967006221E+02 -0.11202693769E+02  0.18726082481E+02  0.00000000000E+00 0.  1.
         11    1    3    3    0    0 -0.19915977452E+02  0.98761522128E+01 -0.77174676290E+00  0.22243653786E+02  0.51100000000E-03 0. -1.
        -11    1    3    3    0    0  0.43251366274E+01  0.13937424508E+01  0.17993602051E+02  0.18558530111E+02  0.51100000000E-03 0.  1.
        -12    1    3    3    0    0  0.16665337069E+02 -0.26236900884E+02 -0.60191615192E+01  0.31659733622E+02  0.00000000000E+00 0.  1.
</event>
<event>
 7    1  0.2700104E-013  0.7246156E+02  0.7816164E-02  0.1226708E+00
        -11   -1    0    0    0    0  0.00000000000E+00  0.00000000000E+00  0.45593999997E+02  0.45594000000E+02  0.51100000000E-03 0. -1.
         11   -1    0    0    0    0 -0.00000000000E+00 -0.00000000000E+00 -0.45593999997E+02  0.45594000000E+02  0.51100000000E-03 0.  1.
    9900012    2    1    2    0    0  0.15315789877E+02 -0.48704243042E+00  0.10764251054E+02  0.72461555312E+02  0.69999980483E+02 0.  0.
        -12    1    1    2    0    0 -0.15315789877E+02  0.48704243042E+00 -0.10764251054E+02  0.18726444688E+02  0.00000000000E+00 0.  1.
         11    1    3    3    0    0  0.76037688653E+01  0.59188607623E+01 -0.73258485125E+00  0.96636894872E+01  0.51100000000E-03 0. -1.
        -11    1    3    3    0    0 -0.21099901097E+02  0.34794969409E+01 -0.11823055093E+02  0.24435575649E+02  0.51100000000E-03 0.  1.
         12    1    3    3    0    0  0.28811922109E+02 -0.98854001336E+01  0.23319890999E+02  0.38362290177E+02  0.00000000000E+00 0. -1.
</event>
<event>
 7    1  0.2700104E-013  0.7246157E+02  0.7816164E-02  0.1226708E+00
        -11   -1    0    0    0    0  0.00000000000E+00  0.00000000000E+00  0.45593999997E+02  0.45594000000E+02  0.51100000000E-03 0. -1.
         11   -1    0    0    0    0 -0.00000000000E+00 -0.00000000000E+00 -0.45593999997E+02  0.45594000000E+02  0.51100000000E-03 0.  1.
    9900012    2    1    2    0    0 -0.11049320898E+02  0.84912059006E+01  0.12509638496E+02  0.72461571476E+02  0.70000001540E+02 0.  0.
        -12    1    1    2    0    0  0.11049320898E+02 -0.84912059006E+01 -0.12509638496E+02  0.18726428524E+02  0.00000000000E+00 0.  1.
         11    1    3    3    0    0  0.70007299161E+00 -0.93365605691E+01 -0.10852242526E+02  0.14332921320E+02  0.51100000000E-03 0. -1.
        -11    1    3    3    0    0 -0.21000549103E+02 -0.59223415444E+01 -0.23236692829E+01  0.21943031495E+02  0.51100000000E-03 0.  1.
         12    1    3    3    0    0  0.92511552134E+01  0.23750108014E+02  0.25685550305E+02  0.36185618662E+02  0.00000000000E+00 0. -1.
</event>
<event>
 7    1  0.2700104E-013  0.7246158E+02  0.7816164E-02  0.1226708E+00
        -11   -1    0    0    0    0  0.00000000000E+00  0.00000000000E+00  0.45593999997E+02  0.45594000000E+02  0.51100000000E-03 0. -1.
         11   -1    0    0    0    0 -0.00000000000E+00 -0.00000000000E+00 -0.45593999997E+02  0.45594000000E+02  0.51100000000E-03 0.  1.
    9900012    2    1    2    0    0 -0.16733872268E+01 -0.99064877668E+01  0.15803167204E+02  0.72461579670E+02  0.70000012214E+02 0.  0.
        -12    1    1    2    0    0  0.16733872268E+01  0.99064877668E+01 -0.15803167204E+02  0.18726420330E+02  0.00000000000E+00 0.  1.
         11    1    3    3    0    0 -0.18718352845E+02 -0.22221129631E+02  0.24009320128E+02  0.37690884689E+02  0.51100000000E-03 0. -1.
        -11    1    3    3    0    0 -0.14389527119E+01 -0.58300011821E+01  0.28027009897E+01  0.66268115854E+01  0.51100000000E-03 0.  1.
        -12    1    3    3    0    0  0.18483918330E+02  0.18144643046E+02 -0.11008853914E+02  0.28143883396E+02  0.00000000000E+00 0.  1.
</event>
<event>
 7    1  0.2700104E-013  0.7246175E+02  0.7816164E-02  0.1226708E+00
        -11   -1    0    0    0    0  0.00000000000E+00  0.00000000000E+00  0.45593999997E+02  0.45594000000E+02  0.51100000000E-03 0. -1.
         11   -1    0    0    0    0 -0.00000000000E+00 -0.00000000000E+00 -0.45593999997E+02  0.45594000000E+02  0.51100000000E-03 0.  1.
    9900012    2    1    2    0    0  0.76114840797E+01 -0.15356480347E+02  0.75442884474E+01  0.72461749261E+02  0.70000233137E+02 0.  0.
        -12    1    1    2    0    0 -0.76114840797E+01  0.15356480347E+02 -0.75442884474E+01  0.18726250739E+02  0.00000000000E+00 0.  1.
         11    1    3    3    0    0  0.63511965250E+01  0.29804415620E+01 -0.19816802850E+01  0.72902528225E+01  0.51100000000E-03 0. -1.
        -11    1    3    3    0    0 -0.34095606824E+01  0.20422572180E+02  0.15248844398E+02  0.25714467022E+02  0.51100000000E-03 0.  1.
         12    1    3    3    0    0  0.46698482371E+01 -0.38759494089E+02 -0.57228756651E+01  0.39457029417E+02  0.00000000000E+00 0. -1.
</event>
<event>
 7    1  0.2700104E-013  0.7246155E+02  0.7816164E-02  0.1226708E+00
        -11   -1    0    0    0    0  0.00000000000E+00  0.00000000000E+00  0.45593999997E+02  0.45594000000E+02  0.51100000000E-03 0.  1.
         11   -1    0    0    0    0 -0.00000000000E+00 -0.00000000000E+00 -0.45593999997E+02  0.45594000000E+02  0.51100000000E-03 0. -1.
    9900012    2    1    2    0    0  0.57920882378E+01  0.15913250894E+02  0.79937585762E+01  0.72461547684E+02  0.69999970546E+02 0.  0.
        -12    1    1    2    0    0 -0.57920882378E+01 -0.15913250894E+02 -0.79937585762E+01  0.18726452316E+02  0.00000000000E+00 0.  1.
         11    1    3    3    0    0  0.30149612646E+01  0.15824307752E+02  0.10880497283E+02  0.19439236833E+02  0.51100000000E-03 0. -1.
        -11    1    3    3    0    0  0.12990424975E+02 -0.16798050993E+02  0.15309686649E+02  0.26178467559E+02  0.51100000000E-03 0.  1.
         12    1    3    3    0    0 -0.10213298001E+02  0.16886994135E+02 -0.18196425356E+02  0.26843843293E+02  0.00000000000E+00 0. -1.
</event>
<event>
 7    1  0.2700104E-013  0.7246156E+02  0.7816164E-02  0.1226708E+00
        -11   -1    0    0    0    0  0.00000000000E+00  0.00000000000E+00  0.45593999997E+02  0.45594000000E+02  0.51100000000E-03 0.  1.
         11   -1    0    0    0    0 -0.00000000000E+00 -0.00000000000E+00 -0.45593999997E+02  0.45594000000E+02  0.51100000000E-03 0. -1.
    9900012    2    1    2    0    0 -0.13709694755E+02  0.55068277017E+01 -0.11506466230E+02  0.72461557553E+02  0.69999983402E+02 0.  0.
        -12    1    1    2    0    0  0.13709694755E+02 -0.55068277017E+01  0.11506466230E+02  0.18726442447E+02  0.00000000000E+00 0.  1.
         11    1    3    3    0    0 -0.61523820996E+00 -0.68722755195E+01 -0.48882669462E+01  0.84558762331E+01  0.51100000000E-03 0. -1.
        -11    1    3    3    0    0 -0.19979362765E+02  0.23777038289E+02 -0.25991148359E+02  0.40497682398E+02  0.51100000000E-03 0.  1.
        -12    1    3    3    0    0  0.68849062205E+01 -0.11397935067E+02  0.19372949075E+02  0.23507998922E+02  0.00000000000E+00 0.  1.
</event>
<event>
 7    1  0.2700104E-013  0.7246163E+02  0.7816164E-02  0.1226708E+00
        -11   -1    0    0    0    0  0.00000000000E+00  0.00000000000E+00  0.45593999997E+02  0.45594000000E+02  0.51100000000E-03 0. -1.
         11   -1    0    0    0    0 -0.00000000000E+00 -0.00000000000E+00 -0.45593999997E+02  0.45594000000E+02  0.51100000000E-03 0.  1.
    9900012    2    1    2    0    0 -0.18715775188E+02  0.20087827323E+00  0.59707881919E+00  0.72461625656E+02  0.70000072119E+02 0.  0.
        -12    1    1    2    0    0  0.18715775188E+02 -0.20087827323E+00 -0.59707881919E+00  0.18726374344E+02  0.00000000000E+00 0.  1.
         11    1    3    3    0    0 -0.26360783171E+02 -0.45796934995E+01 -0.64138062036E+00  0.26763330347E+02  0.51100000000E-03 0. -1.
        -11    1    3    3    0    0 -0.41502449712E+01 -0.90993146682E+01  0.18227098886E+02  0.20790603522E+02  0.51100000000E-03 0.  1.
        -12    1    3    3    0    0  0.11795252954E+02  0.13879886441E+02 -0.16988639447E+02  0.24907691786E+02  0.00000000000E+00 0.  1.
</event>
<event>
 7    1  0.2700104E-013  0.7246162E+02  0.7816164E-02  0.1226708E+00
        -11   -1    0    0    0    0  0.00000000000E+00  0.00000000000E+00  0.45593999997E+02  0.45594000000E+02  0.51100000000E-03 0.  1.
         11   -1    0    0    0    0 -0.00000000000E+00 -0.00000000000E+00 -0.45593999997E+02  0.45594000000E+02  0.51100000000E-03 0. -1.
    9900012    2    1    2    0    0  0.68435308575E+01 -0.17048293968E+02 -0.36330601417E+01  0.72461618401E+02  0.70000062667E+02 0.  0.
        -12    1    1    2    0    0 -0.68435308575E+01  0.17048293968E+02  0.36330601417E+01  0.18726381599E+02  0.00000000000E+00 0.  1.
         11    1    3    3    0    0  0.14266751879E+02 -0.10723946701E+02 -0.27388142530E+02  0.32690267566E+02  0.51100000000E-03 0. -1.
        -11    1    3    3    0    0 -0.40362918091E+01  0.27058076663E+01 -0.64433145636E+01  0.80702756782E+01  0.51100000000E-03 0.  1.
        -12    1    3    3    0    0 -0.33869292127E+01 -0.90301549331E+01  0.30198396952E+02  0.31701075156E+02  0.00000000000E+00 0.  1.
</event>
<event>
 7    1  0.2700104E-013  0.7246172E+02  0.7816164E-02  0.1226708E+00
        -11   -1    0    0    0    0  0.00000000000E+00  0.00000000000E+00  0.45593999997E+02  0.45594000000E+02  0.51100000000E-03 0. -1.
         11   -1    0    0    0    0 -0.00000000000E+00 -0.00000000000E+00 -0.45593999997E+02  0.45594000000E+02  0.51100000000E-03 0.  1.
    9900012    2    1    2    0    0 -0.98801577274E+01 -0.23364730426E+01  0.15735213056E+02  0.72461720260E+02  0.70000195358E+02 0.  0.
        -12    1    1    2    0    0  0.98801577274E+01  0.23364730426E+01 -0.15735213056E+02  0.18726279740E+02  0.00000000000E+00 0.  1.
         11    1    3    3    0    0  0.39073761801E+01  0.51142979656E+00  0.13244134320E+02  0.13817968128E+02  0.51100000000E-03 0. -1.
        -11    1    3    3    0    0 -0.12146809038E+02  0.25438978774E+02  0.89607576010E+01  0.29580091073E+02  0.51100000000E-03 0.  1.
        -12    1    3    3    0    0 -0.16407248696E+01 -0.28286881613E+02 -0.64696788652E+01  0.29063661058E+02  0.00000000000E+00 0.  1.
</event>
<event>
 7    1  0.2700104E-013  0.7246159E+02  0.7816164E-02  0.1226708E+00
        -11   -1    0    0    0    0  0.00000000000E+00  0.00000000000E+00  0.45593999997E+02  0.45594000000E+02  0.51100000000E-03 0. -1.
         11   -1    0    0    0    0 -0.00000000000E+00 -0.00000000000E+00 -0.45593999997E+02  0.45594000000E+02  0.51100000000E-03 0.  1.
    9900012    2    1    2    0    0  0.13245474193E+02 -0.61640176497E+01 -0.11714978787E+02  0.72461590088E+02  0.70000025785E+02 0.  0.
        -12    1    1    2    0    0 -0.13245474193E+02  0.61640176497E+01  0.11714978787E+02  0.18726409912E+02  0.00000000000E+00 0.  1.
         11    1    3    3    0    0  0.22193980612E+02 -0.20029428443E+02 -0.12042578981E+02  0.32230024634E+02  0.51100000000E-03 0. -1.
        -11    1    3    3    0    0  0.13422799285E+02  0.92810723376E+01 -0.44202178738E+01  0.16907045002E+02  0.51100000000E-03 0.  1.
        -12    1    3    3    0    0 -0.22371305703E+02  0.45843384552E+01  0.47478180675E+01  0.23324520453E+02  0.00000000000E+00 0.  1.
</event>
<event>
 7    1  0.2700104E-013  0.7246160E+02  0.7816164E-02  0.1226708E+00
        -11   -1    0    0    0    0  0.00000000000E+00  0.00000000000E+00  0.45593999997E+02  0.45594000000E+02  0.51100000000E-03 0.  1.
         11   -1    0    0    0    0 -0.00000000000E+00 -0.00000000000E+00 -0.45593999997E+02  0.45594000000E+02  0.51100000000E-03 0. -1.
    9900012    2    1    2    0    0  0.18172736933E+01 -0.16398810453E+02 -0.88574553809E+01  0.72461601954E+02  0.70000041242E+02 0.  0.
        -12    1    1    2    0    0 -0.18172736933E+01  0.16398810453E+02  0.88574553809E+01  0.18726398046E+02  0.00000000000E+00 0.  1.
         11    1    3    3    0    0 -0.90129707706E+00 -0.10159553199E+02 -0.30084994758E+02  0.31766897353E+02  0.51100000000E-03 0. -1.
        -11    1    3    3    0    0  0.94183668904E+01 -0.10204757565E+02 -0.38711507872E+01  0.14416258895E+02  0.51100000000E-03 0.  1.
        -12    1    3    3    0    0 -0.66997961200E+01  0.39655003105E+01  0.25098690164E+02  0.26278445706E+02  0.00000000000E+00 0.  1.
</event>
<event>
 7    1  0.2700104E-013  0.7246163E+02  0.7816164E-02  0.1226708E+00
        -11   -1    0    0    0    0  0.00000000000E+00  0.00000000000E+00  0.45593999997E+02  0.45594000000E+02  0.51100000000E-03 0.  1.
         11   -1    0    0    0    0 -0.00000000000E+00 -0.00000000000E+00 -0.45593999997E+02  0.45594000000E+02  0.51100000000E-03 0. -1.
    9900012    2    1    2    0    0  0.67942382540E+01  0.15941139572E+02 -0.70989780257E+01  0.72461625730E+02  0.70000072215E+02 0.  0.
        -12    1    1    2    0    0 -0.67942382540E+01 -0.15941139572E+02  0.70989780257E+01  0.18726374270E+02  0.00000000000E+00 0.  1.
         11    1    3    3    0    0 -0.21304082865E+02 -0.10923072542E+02 -0.97304578664E+00  0.23960890611E+02  0.51100000000E-03 0. -1.
        -11    1    3    3    0    0 -0.54318389225E+01  0.15834051410E+01 -0.29687111694E+01  0.63894672852E+01  0.51100000000E-03 0.  1.
        -12    1    3    3    0    0  0.33530160042E+02  0.25280806973E+02 -0.31572210696E+01  0.42111267833E+02  0.00000000000E+00 0.  1.
</event>
<event>
 7    1  0.2700104E-013  0.7246156E+02  0.7816164E-02  0.1226708E+00
        -11   -1    0    0    0    0  0.00000000000E+00  0.00000000000E+00  0.45593999997E+02  0.45594000000E+02  0.51100000000E-03 0.  1.
         11   -1    0    0    0    0 -0.00000000000E+00 -0.00000000000E+00 -0.45593999997E+02  0.45594000000E+02  0.51100000000E-03 0. -1.
    9900012    2    1    2    0    0  0.25130470188E+01  0.17429900844E+02  0.63688990818E+01  0.72461555482E+02  0.69999980705E+02 0.  0.
        -12    1    1    2    0    0 -0.25130470188E+01 -0.17429900844E+02 -0.63688990818E+01  0.18726444518E+02  0.00000000000E+00 0.  1.
         11    1    3    3    0    0  0.95082473888E+00 -0.72529112375E+01 -0.67188874329E+01  0.99323832839E+01  0.51100000000E-03 0. -1.
        -11    1    3    3    0    0  0.12608477205E+02 -0.15181784468E+02  0.53227854421E+01  0.20439968742E+02  0.51100000000E-03 0.  1.
        -12    1    3    3    0    0 -0.11046254925E+02  0.39864596549E+02  0.77650010725E+01  0.42089203456E+02  0.00000000000E+00 0.  1.
</event>
<event>
 7    1  0.2700104E-013  0.7246161E+02  0.7816164E-02  0.1226708E+00
        -11   -1    0    0    0    0  0.00000000000E+00  0.00000000000E+00  0.45593999997E+02  0.45594000000E+02  0.51100000000E-03 0.  1.
         11   -1    0    0    0    0 -0.00000000000E+00 -0.00000000000E+00 -0.45593999997E+02  0.45594000000E+02  0.51100000000E-03 0. -1.
    9900012    2    1    2    0    0 -0.15194901951E+02 -0.10127122179E+02 -0.41513899391E+01  0.72461609868E+02  0.70000051553E+02 0.  0.
        -12    1    1    2    0    0  0.15194901951E+02  0.10127122179E+02  0.41513899391E+01  0.18726390132E+02  0.00000000000E+00 0.  1.
         11    1    3    3    0    0 -0.28975268290E+02 -0.19947214794E+02 -0.48440169346E+01  0.35509464243E+02  0.51100000000E-03 0. -1.
        -11    1    3    3    0    0 -0.77901054359E+01 -0.62531233866E+01 -0.71491912067E+00  0.10014909106E+02  0.51100000000E-03 0.  1.
        -12    1    3    3    0    0  0.21570471775E+02  0.16073216002E+02  0.14075461162E+01  0.26937236519E+02  0.00000000000E+00 0.  1.
</event>
<event>
 7    1  0.2700104E-013  0.7246157E+02  0.7816164E-02  0.1226708E+00
        -11   -1    0    0    0    0  0.00000000000E+00  0.00000000000E+00  0.45593999997E+02  0.45594000000E+02  0.51100000000E-03 0.  1.
         11   -1    0    0    0    0 -0.00000000000E+00 -0.00000000000E+00 -0.45593999997E+02  0.45594000000E+02  0.51100000000E-03 0. -1.
    9900012    2    1    2    0    0 -0.10436834852E+02  0.10373586562E+02 -0.11581891449E+02  0.72461574035E+02  0.70000004872E+02 0.  0.
        -12    1    1    2    0    0  0.10436834852E+02 -0.10373586562E+02  0.11581891449E+02  0.18726425965E+02  0.00000000000E+00 0.  1.
         11    1    3    3    0    0  0.22075939129E+01  0.56689919498E+01 -0.60387015631E+01  0.85718642920E+01  0.51100000000E-03 0. -1.
        -11    1    3    3    0    0  0.17859414714E+02  0.18620981408E+02 -0.13939652673E+02  0.29325987782E+02  0.51100000000E-03 0.  1.
         12    1    3    3    0    0 -0.30503843479E+02 -0.13916386796E+02  0.83964627866E+01  0.34563721960E+02  0.00000000000E+00 0. -1.
</event>
<event>
 7    1  0.2700104E-013  0.7246153E+02  0.7816164E-02  0.1226708E+00
        -11   -1    0    0    0    0  0.00000000000E+00  0.00000000000E+00  0.45593999997E+02  0.45594000000E+02  0.51100000000E-03 0.  1.
         11   -1    0    0    0    0 -0.00000000000E+00 -0.00000000000E+00 -0.45593999997E+02  0.45594000000E+02  0.51100000000E-03 0. -1.
    9900012    2    1    2    0    0  0.78388625737E+01 -0.12362470465E+02 -0.11679142475E+02  0.72461526456E+02  0.69999942893E+02 0.  0.
        -12    1    1    2    0    0 -0.78388625737E+01  0.12362470465E+02  0.11679142475E+02  0.18726473544E+02  0.00000000000E+00 0.  1.
         11    1    3    3    0    0  0.19932050617E+02  0.34292153098E+01 -0.34203985072E+02  0.39736113984E+02  0.51100000000E-03 0. -1.
        -11    1    3    3    0    0 -0.10714074346E+02 -0.94312729193E+01  0.70129103952E+01  0.15903496799E+02  0.51100000000E-03 0.  1.
        -12    1    3    3    0    0 -0.13791136977E+01 -0.63604128553E+01  0.15511932202E+02  0.16821915674E+02  0.00000000000E+00 0.  1.
</event>
<event>
 7    1  0.2700104E-013  0.7246146E+02  0.7816164E-02  0.1226708E+00
        -11   -1    0    0    0    0  0.00000000000E+00  0.00000000000E+00  0.45593999997E+02  0.45594000000E+02  0.51100000000E-03 0. -1.
         11   -1    0    0    0    0 -0.00000000000E+00 -0.00000000000E+00 -0.45593999997E+02  0.45594000000E+02  0.51100000000E-03 0.  1.
    9900012    2    1    2    0    0  0.40588483259E+01  0.94977557515E+01  0.15620551123E+02  0.72461461841E+02  0.69999858719E+02 0.  0.
        -12    1    1    2    0    0 -0.40588483259E+01 -0.94977557515E+01 -0.15620551123E+02  0.18726538159E+02  0.00000000000E+00 0.  1.
         11    1    3    3    0    0 -0.24642223422E+01 -0.16620745736E+02  0.12198487538E+02  0.20763542064E+02  0.51100000000E-03 0. -1.
        -11    1    3    3    0    0 -0.14287276582E+02 -0.40080448282E+01 -0.67471714072E+00  0.14854155612E+02  0.51100000000E-03 0.  1.
         12    1    3    3    0    0  0.20810347250E+02  0.30126546315E+02  0.40967807258E+01  0.36843764165E+02  0.00000000000E+00 0. -1.
</event>
<event>
 7    1  0.2700104E-013  0.7246157E+02  0.7816164E-02  0.1226708E+00
        -11   -1    0    0    0    0  0.00000000000E+00  0.00000000000E+00  0.45593999997E+02  0.45594000000E+02  0.51100000000E-03 0.  1.
         11   -1    0    0    0    0 -0.00000000000E+00 -0.00000000000E+00 -0.45593999997E+02  0.45594000000E+02  0.51100000000E-03 0. -1.
    9900012    2    1    2    0    0 -0.16654903879E+02  0.85323521454E+01  0.70172310059E+00  0.72461567567E+02  0.69999996447E+02 0.  0.
        -12    1    1    2    0    0  0.16654903879E+02 -0.85323521454E+01 -0.70172310059E+00  0.18726432433E+02  0.00000000000E+00 0.  1.
         11    1    3    3    0    0  0.54242577997E+01 -0.11042974234E+02  0.16543486429E+02  0.20616905590E+02  0.51100000000E-03 0. -1.
        -11    1    3    3    0    0 -0.60551480157E+01 -0.11589814312E+02  0.69657587060E+00  0.13094801697E+02  0.51100000000E-03 0.  1.
         12    1    3    3    0    0 -0.16024013663E+02  0.31165140692E+02 -0.16538339199E+02  0.38749860280E+02  0.00000000000E+00 0. -1.
</event>
<event>
 7    1  0.3864413E-013  0.7246158E+02  0.7816164E-02  0.1226708E+00
        -11   -1    0    0    0    0  0.00000000000E+00  0.00000000000E+00  0.45593999997E+02  0.45594000000E+02  0.51100000000E-03 0. -1.
         11   -1    0    0    0    0 -0.00000000000E+00 -0.00000000000E+00 -0.45593999997E+02  0.45594000000E+02  0.51100000000E-03 0.  1.
    9900012    2    1    2    0    0  0.16186933318E+02  0.77581083864E+01  0.53360923883E+01  0.72461576477E+02  0.70000008055E+02 0.  0.
        -12    1    1    2    0    0 -0.16186933318E+02 -0.77581083864E+01 -0.53360923883E+01  0.18726423523E+02  0.00000000000E+00 0.  1.
         11    1    3    3    0    0  0.30399355999E+02  0.10177968590E+02  0.15271455168E+02  0.35509565373E+02  0.51100000000E-03 0. -1.
        -11    1    3    3    0    0 -0.72772072692E+01  0.56407442505E+00  0.11837714355E+02  0.13907099159E+02  0.51100000000E-03 0.  1.
        -12    1    3    3    0    0 -0.69352154120E+01 -0.29839346282E+01 -0.21773077135E+02  0.23044911946E+02  0.00000000000E+00 0.  1.
</event>
<event>
 7    1  0.2700104E-013  0.7246154E+02  0.7816164E-02  0.1226708E+00
        -11   -1    0    0    0    0  0.00000000000E+00  0.00000000000E+00  0.45593999997E+02  0.45594000000E+02  0.51100000000E-03 0.  1.
         11   -1    0    0    0    0 -0.00000000000E+00 -0.00000000000E+00 -0.45593999997E+02  0.45594000000E+02  0.51100000000E-03 0. -1.
    9900012    2    1    2    0    0 -0.14961785575E+02 -0.10829256934E+02 -0.30907179921E+01  0.72461538214E+02  0.69999958209E+02 0.  0.
        -12    1    1    2    0    0  0.14961785575E+02  0.10829256934E+02  0.30907179921E+01  0.18726461786E+02  0.00000000000E+00 0.  1.
         11    1    3    3    0    0  0.12771979452E+02 -0.20008271129E+01  0.20755108585E+01  0.13093300342E+02  0.51100000000E-03 0. -1.
        -11    1    3    3    0    0  0.63053535370E+01  0.15529833796E+02 -0.50710533549E+01  0.17511390674E+02  0.51100000000E-03 0.  1.
         12    1    3    3    0    0 -0.34039118564E+02 -0.24358263616E+02 -0.95175495732E-01  0.41856847198E+02  0.00000000000E+00 0. -1.
</event>
<event>
 7    1  0.2700104E-013  0.7246161E+02  0.7816164E-02  0.1226708E+00
        -11   -1    0    0    0    0  0.00000000000E+00  0.00000000000E+00  0.45593999997E+02  0.45594000000E+02  0.51100000000E-03 0. -1.
         11   -1    0    0    0    0 -0.00000000000E+00 -0.00000000000E+00 -0.45593999997E+02  0.45594000000E+02  0.51100000000E-03 0.  1.
    9900012    2    1    2    0    0  0.12405936119E+02  0.13185234692E+02  0.47874929841E+01  0.72461608090E+02  0.70000049236E+02 0.  0.
        -12    1    1    2    0    0 -0.12405936119E+02 -0.13185234692E+02 -0.47874929841E+01  0.18726391910E+02  0.00000000000E+00 0.  1.
         11    1    3    3    0    0 -0.14321331146E+02 -0.27118319370E+01 -0.76978549418E+01  0.16483674627E+02  0.51100000000E-03 0. -1.
        -11    1    3    3    0    0 -0.11028043222E+02 -0.14333148357E+01 -0.32008504613E+01  0.11572276036E+02  0.51100000000E-03 0.  1.
         12    1    3    3    0    0  0.37755310487E+02  0.17330381465E+02  0.15686198387E+02  0.44405657427E+02  0.00000000000E+00 0. -1.
</event>
<event>
 7    1  0.2700104E-013  0.7246164E+02  0.7816164E-02  0.1226708E+00
        -11   -1    0    0    0    0  0.00000000000E+00  0.00000000000E+00  0.45593999997E+02  0.45594000000E+02  0.51100000000E-03 0. -1.
         11   -1    0    0    0    0 -0.00000000000E+00 -0.00000000000E+00 -0.45593999997E+02  0.45594000000E+02  0.51100000000E-03 0.  1.
    9900012    2    1    2    0    0  0.72792779142E+01 -0.13246071356E+02  0.11055775635E+02  0.72461642421E+02  0.70000093958E+02 0.  0.
        -12    1    1    2    0    0 -0.72792779142E+01  0.13246071356E+02 -0.11055775635E+02  0.18726357579E+02  0.00000000000E+00 0.  1.
         11    1    3    3    0    0  0.18610193528E+02 -0.13909721545E+02 -0.46797120272E+01  0.23700619434E+02  0.51100000000E-03 0. -1.
        -11    1    3    3    0    0 -0.71653395667E+01 -0.62614141282E+01 -0.14566926658E+02  0.17399504318E+02  0.51100000000E-03 0.  1.
        -12    1    3    3    0    0 -0.41655760470E+01  0.69250643179E+01  0.30302414320E+02  0.31361518669E+02  0.00000000000E+00 0.  1.
</event>
<event>
 7    1  0.2700104E-013  0.7246151E+02  0.7816164E-02  0.1226708E+00
        -11   -1    0    0    0    0  0.00000000000E+00  0.00000000000E+00  0.45593999997E+02  0.45594000000E+02  0.51100000000E-03 0.  1.
         11   -1    0    0    0    0 -0.00000000000E+00 -0.00000000000E+00 -0.45593999997E+02  0.45594000000E+02  0.51100000000E-03 0. -1.
    9900012    2    1    2    0    0 -0.10300864434E+02 -0.15500522839E+02  0.20754220958E+01  0.72461510921E+02  0.69999922655E+02 0.  0.
        -12    1    1    2    0    0  0.10300864434E+02  0.15500522839E+02 -0.20754220958E+01  0.18726489079E+02  0.00000000000E+00 0.  1.
         11    1    3    3    0    0  0.11076239677E+02 -0.51140350936E+01 -0.27957969091E+02  0.30503843631E+02  0.51100000000E-03 0. -1.
        -11    1    3    3    0    0 -0.14813655605E+02 -0.12697326307E+01  0.72196863840E+01  0.16528172466E+02  0.51100000000E-03 0.  1.
        -12    1    3    3    0    0 -0.65634485065E+01 -0.91167551146E+01  0.22813704803E+02  0.25429494823E+02  0.00000000000E+00 0.  1.
</event>
<event>
 7    1  0.2700104E-013  0.7246170E+02  0.7816164E-02  0.1226708E+00
        -11   -1    0    0    0    0  0.00000000000E+00  0.00000000000E+00  0.45593999997E+02  0.45594000000E+02  0.51100000000E-03 0.  1.
         11   -1    0    0    0    0 -0.00000000000E+00 -0.00000000000E+00 -0.45593999997E+02  0.45594000000E+02  0.51100000000E-03 0. -1.
    9900012    2    1    2    0    0 -0.17265913763E+02  0.45185850304E+01 -0.56696405219E+01  0.72461702651E+02  0.70000172419E+02 0.  0.
        -12    1    1    2    0    0  0.17265913763E+02 -0.45185850304E+01  0.56696405219E+01  0.18726297349E+02  0.00000000000E+00 0.  1.
         11    1    3    3    0    0  0.98530205382E+01  0.18101098365E+02  0.79405359477E+01  0.22085830008E+02  0.51100000000E-03 0. -1.
        -11    1    3    3    0    0  0.65900711508E+01  0.63592749107E+01 -0.91413829575E+00  0.92035354211E+01  0.51100000000E-03 0.  1.
        -12    1    3    3    0    0 -0.33709005452E+02 -0.19941788245E+02 -0.12696038174E+02  0.41172337222E+02  0.00000000000E+00 0.  1.
</event>
<event>
 7    1  0.2700104E-013  0.7246153E+02  0.7816164E-02  0.1226708E+00
        -11   -1    0    0    0    0  0.00000000000E+00  0.00000000000E+00  0.45593999997E+02  0.45594000000E+02  0.51100000000E-03 0. -1.
         11   -1    0    0    0    0 -0.00000000000E+00 -0.00000000000E+00 -0.45593999997E+02  0.45594000000E+02  0.51100000000E-03 0.  1.
    9900012    2    1    2    0    0 -0.12080256929E+02 -0.64574681276E+01  0.12769064255E+02  0.72461534662E+02  0.69999953583E+02 0.  0.
        -12    1    1    2    0    0  0.12080256929E+02  0.64574681276E+01 -0.12769064255E+02  0.18726465338E+02  0.00000000000E+00 0.  1.
         11    1    3    3    0    0 -0.25368955291E+02  0.19238289483E+01 -0.73021008714E+01  0.26468957059E+02  0.51100000000E-03 0. -1.
        -11    1    3    3    0    0 -0.11085449013E+01  0.57190520927E+01 -0.89391424313E+01  0.10669803012E+02  0.51100000000E-03 0.  1.
         12    1    3    3    0    0  0.14397243264E+02 -0.14100349169E+02  0.29010307558E+02  0.35322774592E+02  0.00000000000E+00 0. -1.
</event>
<event>
 7    1  0.2700104E-013  0.7246140E+02  0.7816164E-02  0.1226708E+00
        -11   -1    0    0    0    0  0.00000000000E+00  0.00000000000E+00  0.45593999997E+02  0.45594000000E+02  0.51100000000E-03 0. -1.
         11   -1    0    0    0    0 -0.00000000000E+00 -0.00000000000E+00 -0.45593999997E+02  0.45594000000E+02  0.51100000000E-03 0.  1.
    9900012    2    1    2    0    0  0.48396516789E+01  0.13239856154E+02  0.12327594110E+02  0.72461398710E+02  0.69999776479E+02 0.  0.
        -12    1    1    2    0    0 -0.48396516789E+01 -0.13239856154E+02 -0.12327594110E+02  0.18726601290E+02  0.00000000000E+00 0.  1.
         11    1    3    3    0    0  0.18160135877E+02  0.14953206852E+02 -0.16385384967E+01  0.23581215807E+02  0.51100000000E-03 0. -1.
        -11    1    3    3    0    0 -0.67423975541E+01  0.14986864916E+02 -0.97723415109E+01  0.19119746433E+02  0.51100000000E-03 0.  1.
         12    1    3    3    0    0 -0.65780866443E+01 -0.16700215614E+02  0.23738474117E+02  0.29760436470E+02  0.00000000000E+00 0. -1.
</event>
<event>
 7    1  0.2700104E-013  0.7246157E+02  0.7816164E-02  0.1226708E+00
        -11   -1    0    0    0    0  0.00000000000E+00  0.00000000000E+00  0.45593999997E+02  0.45594000000E+02  0.51100000000E-03 0.  1.
         11   -1    0    0    0    0 -0.00000000000E+00 -0.00000000000E+00 -0.45593999997E+02  0.45594000000E+02  0.51100000000E-03 0. -1.
    9900012    2    1    2    0    0 -0.68663680286E+01  0.17407649265E+01 -0.17334995667E+02  0.72461565550E+02  0.69999993820E+02 0.  0.
        -12    1    1    2    0    0  0.68663680286E+01 -0.17407649265E+01  0.17334995667E+02  0.18726434450E+02  0.00000000000E+00 0.  1.
         11    1    3    3    0    0 -0.77318168015E+01 -0.44016647740E+01 -0.16323562987E+01  0.90454536195E+01  0.51100000000E-03 0. -1.
        -11    1    3    3    0    0 -0.17881694454E+02 -0.15721297571E+02  0.90185023411E+01  0.25460706561E+02  0.51100000000E-03 0.  1.
         12    1    3    3    0    0  0.18747143227E+02  0.21863727271E+02 -0.24721141709E+02  0.37955405370E+02  0.00000000000E+00 0. -1.
</event>
<event>
 7    1  0.2700104E-013  0.7246159E+02  0.7816164E-02  0.1226708E+00
        -11   -1    0    0    0    0  0.00000000000E+00  0.00000000000E+00  0.45593999997E+02  0.45594000000E+02  0.51100000000E-03 0.  1.
         11   -1    0    0    0    0 -0.00000000000E+00 -0.00000000000E+00 -0.45593999997E+02  0.45594000000E+02  0.51100000000E-03 0. -1.
    9900012    2    1    2    0    0 -0.34329667104E+01  0.14925092918E+02 -0.10776586921E+02  0.72461588579E+02  0.70000023820E+02 0.  0.
        -12    1    1    2    0    0  0.34329667104E+01 -0.14925092918E+02  0.10776586921E+02  0.18726411421E+02  0.00000000000E+00 0.  1.
         11    1    3    3    0    0 -0.53518386048E+01  0.15893046602E+02 -0.11056067043E+02  0.20086506054E+02  0.51100000000E-03 0. -1.
        -11    1    3    3    0    0  0.39971193129E+01  0.25262752200E+02 -0.34153325375E+01  0.25804032788E+02  0.51100000000E-03 0.  1.
         12    1    3    3    0    0 -0.20782474185E+01 -0.26230705884E+02  0.36948126601E+01  0.26571049737E+02  0.00000000000E+00 0. -1.
</event>
<event>
 7    1  0.2700104E-013  0.7246150E+02  0.7816164E-02  0.1226708E+00
        -11   -1    0    0    0    0  0.00000000000E+00  0.00000000000E+00  0.45593999997E+02  0.45594000000E+02  0.51100000000E-03 0. -1.
         11   -1    0    0    0    0 -0.00000000000E+00 -0.00000000000E+00 -0.45593999997E+02  0.45594000000E+02  0.51100000000E-03 0.  1.
    9900012    2    1    2    0    0  0.13670300440E+02 -0.11545680316E+02  0.55228419101E+01  0.72461504576E+02  0.69999914390E+02 0.  0.
        -12    1    1    2    0    0 -0.13670300440E+02  0.11545680316E+02 -0.55228419101E+01  0.18726495424E+02  0.00000000000E+00 0.  1.
         11    1    3    3    0    0  0.10059997432E+01  0.75529548809E+01  0.28508075832E+02  0.29508804633E+02  0.51100000000E-03 0. -1.
        -11    1    3    3    0    0  0.11248344654E+02 -0.58372606191E+01  0.36304433623E+01  0.13182525868E+02  0.51100000000E-03 0.  1.
        -12    1    3    3    0    0  0.14159560432E+01 -0.13261374578E+02 -0.26615677285E+02  0.29770174076E+02  0.00000000000E+00 0.  1.
</event>
<event>
 7    1  0.2700104E-013  0.7246156E+02  0.7816164E-02  0.1226708E+00
        -11   -1    0    0    0    0  0.00000000000E+00  0.00000000000E+00  0.45593999997E+02  0.45594000000E+02  0.51100000000E-03 0. -1.
         11   -1    0    0    0    0 -0.00000000000E+00 -0.00000000000E+00 -0.45593999997E+02  0.45594000000E+02  0.51100000000E-03 0.  1.
    9900012    2    1    2    0    0 -0.49334326535E+01 -0.17360698063E+02  0.49946760568E+01  0.72461564571E+02  0.69999992544E+02 0.  0.
        -12    1    1    2    0    0  0.49334326535E+01  0.17360698063E+02 -0.49946760568E+01  0.18726435429E+02  0.00000000000E+00 0.  1.
         11    1    3    3    0    0  0.25910465664E+01 -0.24630086076E+01 -0.12324319775E+01  0.37813783930E+01  0.51100000000E-03 0. -1.
        -11    1    3    3    0    0  0.19257495588E+02 -0.57313531024E+01  0.26937690565E+02  0.33605635211E+02  0.51100000000E-03 0.  1.
         12    1    3    3    0    0 -0.26781974808E+02 -0.91663363529E+01 -0.20710582531E+02  0.35074550967E+02  0.00000000000E+00 0. -1.
</event>
<event>
 7    1  0.2700104E-013  0.7246159E+02  0.7816164E-02  0.1226708E+00
        -11   -1    0    0    0    0  0.00000000000E+00  0.00000000000E+00  0.45593999997E+02  0.45594000000E+02  0.51100000000E-03 0.  1.
         11   -1    0    0    0    0 -0.00000000000E+00 -0.00000000000E+00 -0.45593999997E+02  0.45594000000E+02  0.51100000000E-03 0. -1.
    9900012    2    1    2    0    0  0.13601702195E+02 -0.12837189810E+02 -0.93733374720E+00  0.72461592459E+02  0.70000028874E+02 0.  0.
        -12    1    1    2    0    0 -0.13601702195E+02  0.12837189810E+02  0.93733374720E+00  0.18726407541E+02  0.00000000000E+00 0.  1.
         11    1    3    3    0    0  0.29952235626E+02 -0.99141217013E+01 -0.10430133290E+02  0.33229714245E+02  0.51100000000E-03 0.  1.
        -11    1    3    3    0    0 -0.75476402735E+01 -0.16506101808E+02 -0.34899662538E+01  0.18482373638E+02  0.51100000000E-03 0. -1.
        -12    1    3    3    0    0 -0.88028931571E+01  0.13583033699E+02  0.12982765797E+02  0.20749504576E+02  0.00000000000E+00 0.  1.
</event>
<event>
 7    1  0.2700104E-013  0.7246159E+02  0.7816164E-02  0.1226708E+00
        -11   -1    0    0    0    0  0.00000000000E+00  0.00000000000E+00  0.45593999997E+02  0.45594000000E+02  0.51100000000E-03 0. -1.
         11   -1    0    0    0    0 -0.00000000000E+00 -0.00000000000E+00 -0.45593999997E+02  0.45594000000E+02  0.51100000000E-03 0.  1.
    9900012    2    1    2    0    0 -0.42829402588E+01 -0.16718860685E+02  0.72673605743E+01  0.72461590585E+02  0.70000026432E+02 0.  0.
        -12    1    1    2    0    0  0.42829402588E+01  0.16718860685E+02 -0.72673605743E+01  0.18726409415E+02  0.00000000000E+00 0.  1.
         11    1    3    3    0    0  0.17638425961E+02 -0.24507394649E+02 -0.56793764503E+01  0.30724286484E+02  0.51100000000E-03 0. -1.
        -11    1    3    3    0    0 -0.47355988695E+01  0.12493861644E+02 -0.69231155378E+01  0.15048322313E+02  0.51100000000E-03 0.  1.
        -12    1    3    3    0    0 -0.17185767350E+02 -0.47053276802E+01  0.19869852562E+02  0.26688981787E+02  0.00000000000E+00 0.  1.
</event>
<event>
 7    1  0.2700104E-013  0.7246155E+02  0.7816164E-02  0.1226708E+00
        -11   -1    0    0    0    0  0.00000000000E+00  0.00000000000E+00  0.45593999997E+02  0.45594000000E+02  0.51100000000E-03 0.  1.
         11   -1    0    0    0    0 -0.00000000000E+00 -0.00000000000E+00 -0.45593999997E+02  0.45594000000E+02  0.51100000000E-03 0. -1.
    9900012    2    1    2    0    0  0.14829186999E+02  0.63886129712E+01 -0.94847590020E+01  0.72461553031E+02  0.69999977512E+02 0.  0.
        -12    1    1    2    0    0 -0.14829186999E+02 -0.63886129712E+01  0.94847590020E+01  0.18726446969E+02  0.00000000000E+00 0.  1.
         11    1    3    3    0    0  0.13664097002E+02 -0.31195744955E+01 -0.24227151135E+01  0.14223531231E+02  0.51100000000E-03 0. -1.
        -11    1    3    3    0    0  0.14034482820E+02 -0.82864068686E+01  0.18422277692E+02  0.24596982791E+02  0.51100000000E-03 0.  1.
         12    1    3    3    0    0 -0.12869392823E+02  0.17794594335E+02 -0.25484321580E+02  0.33641039009E+02  0.00000000000E+00 0. -1.
</event>
<event>
 7    1  0.2700104E-013  0.7246155E+02  0.7816164E-02  0.1226708E+00
        -11   -1    0    0    0    0  0.00000000000E+00  0.00000000000E+00  0.45593999997E+02  0.45594000000E+02  0.51100000000E-03 0.  1.
         11   -1    0    0    0    0 -0.00000000000E+00 -0.00000000000E+00 -0.45593999997E+02  0.45594000000E+02  0.51100000000E-03 0. -1.
    9900012    2    1    2    0    0  0.12219533863E+01  0.86237364627E+01 -0.16577629273E+02  0.72461553648E+02  0.69999978316E+02 0.  0.
        -12    1    1    2    0    0 -0.12219533863E+01 -0.86237364627E+01  0.16577629273E+02  0.18726446352E+02  0.00000000000E+00 0.  1.
         11    1    3    3    0    0 -0.69953306618E+01  0.18489259427E+01 -0.85954933720E+01  0.11235465490E+02  0.51100000000E-03 0. -1.
        -11    1    3    3    0    0 -0.24960738782E+02 -0.63904981909E+00 -0.10607292385E+02  0.27128610676E+02  0.51100000000E-03 0.  1.
         12    1    3    3    0    0  0.33178022830E+02  0.74138603391E+01  0.26251564846E+01  0.34097477482E+02  0.00000000000E+00 0. -1.
</event>
<event>
 7    1  0.2700104E-013  0.7246125E+02  0.7816164E-02  0.1226709E+00
        -11   -1    0    0    0    0  0.00000000000E+00  0.00000000000E+00  0.45593999997E+02  0.45594000000E+02  0.51100000000E-03 0.  1.
         11   -1    0    0    0    0 -0.00000000000E+00 -0.00000000000E+00 -0.45593999997E+02  0.45594000000E+02  0.51100000000E-03 0. -1.
    9900012    2    1    2    0    0  0.88714004799E+01 -0.14671680439E+02  0.75320202129E+01  0.72461246894E+02  0.69999578710E+02 0.  0.
        -12    1    1    2    0    0 -0.88714004799E+01  0.14671680439E+02 -0.75320202129E+01  0.18726753106E+02  0.00000000000E+00 0.  1.
         11    1    3    3    0    0  0.57636228926E+01 -0.12529407979E+02 -0.40450599303E+01  0.14372471021E+02  0.51100000000E-03 0. -1.
        -11    1    3    3    0    0 -0.17035237002E+01  0.10829666573E+02  0.31771393580E+02  0.33609598649E+02  0.51100000000E-03 0.  1.
         12    1    3    3    0    0  0.48113012875E+01 -0.12971939034E+02 -0.20194313437E+02  0.24479177224E+02  0.00000000000E+00 0. -1.
</event>
<event>
 7    1  0.2700104E-013  0.7246157E+02  0.7816164E-02  0.1226708E+00
        -11   -1    0    0    0    0  0.00000000000E+00  0.00000000000E+00  0.45593999997E+02  0.45594000000E+02  0.51100000000E-03 0.  1.
         11   -1    0    0    0    0 -0.00000000000E+00 -0.00000000000E+00 -0.45593999997E+02  0.45594000000E+02  0.51100000000E-03 0. -1.
    9900012    2    1    2    0    0 -0.15993286459E+02  0.65755734490E+01 -0.71871874809E+01  0.72461573704E+02  0.70000004442E+02 0.  0.
        -12    1    1    2    0    0  0.15993286459E+02 -0.65755734490E+01  0.71871874809E+01  0.18726426296E+02  0.00000000000E+00 0.  1.
         11    1    3    3    0    0 -0.17521988084E+02 -0.10199932661E+02 -0.58178260753E+00  0.20282927894E+02  0.51100000000E-03 0. -1.
        -11    1    3    3    0    0 -0.48103777962E+01 -0.10754727344E+02  0.13187971792E+02  0.17684074617E+02  0.51100000000E-03 0.  1.
         12    1    3    3    0    0  0.63390794216E+01  0.27530233454E+02 -0.19793376666E+02  0.34494571193E+02  0.00000000000E+00 0. -1.
</event>
<event>
 7    1  0.2700104E-013  0.7246146E+02  0.7816164E-02  0.1226708E+00
        -11   -1    0    0    0    0  0.00000000000E+00  0.00000000000E+00  0.45593999997E+02  0.45594000000E+02  0.51100000000E-03 0. -1.
         11   -1    0    0    0    0 -0.00000000000E+00 -0.00000000000E+00 -0.45593999997E+02  0.45594000000E+02  0.51100000000E-03 0.  1.
    9900012    2    1    2    0    0 -0.59044150748E+01 -0.57528998326E+01  0.16814441304E+02  0.72461457067E+02  0.69999852500E+02 0.  0.
        -12    1    1    2    0    0  0.59044150748E+01  0.57528998326E+01 -0.16814441304E+02  0.18726542933E+02  0.00000000000E+00 0.  1.
         11    1    3    3    0    0 -0.88848963149E+01 -0.14570632027E+02  0.10300256844E+02  0.19933388861E+02  0.51100000000E-03 0. -1.
        -11    1    3    3    0    0  0.37526296412E+01 -0.12093589135E+02 -0.16905382507E+02  0.21121768045E+02  0.51100000000E-03 0.  1.
         12    1    3    3    0    0 -0.77214840111E+00  0.20911321329E+02  0.23419566967E+02  0.31406300161E+02  0.00000000000E+00 0. -1.
</event>
<event>
 7    1  0.2700104E-013  0.7246161E+02  0.7816164E-02  0.1226708E+00
        -11   -1    0    0    0    0  0.00000000000E+00  0.00000000000E+00  0.45593999997E+02  0.45594000000E+02  0.51100000000E-03 0.  1.
         11   -1    0    0    0    0 -0.00000000000E+00 -0.00000000000E+00 -0.45593999997E+02  0.45594000000E+02  0.51100000000E-03 0. -1.
    9900012    2    1    2    0    0  0.13670720621E+02 -0.28129569395E+00 -0.12794919843E+02  0.72461609441E+02  0.70000050996E+02 0.  0.
        -12    1    1    2    0    0 -0.13670720621E+02  0.28129569395E+00  0.12794919843E+02  0.18726390559E+02  0.00000000000E+00 0.  1.
         11    1    3    3    0    0  0.33283341170E+02  0.12659452469E+01 -0.67937053913E+01  0.33993202997E+02  0.51100000000E-03 0. -1.
        -11    1    3    3    0    0  0.31363261950E+01 -0.12990148068E+01  0.10061695567E+02  0.10618931181E+02  0.51100000000E-03 0.  1.
         12    1    3    3    0    0 -0.22748946744E+02 -0.24822613409E+00 -0.16062910019E+02  0.27849475263E+02  0.00000000000E+00 0. -1.
</event>
<event>
 7    1  0.2700104E-013  0.7246155E+02  0.7816164E-02  0.1226708E+00
        -11   -1    0    0    0    0  0.00000000000E+00  0.00000000000E+00  0.45593999997E+02  0.45594000000E+02  0.51100000000E-03 0.  1.
         11   -1    0    0    0    0 -0.00000000000E+00 -0.00000000000E+00 -0.45593999997E+02  0.45594000000E+02  0.51100000000E-03 0. -1.
    9900012    2    1    2    0    0  0.15318114984E+02  0.50174174162E+01 -0.95320857919E+01  0.72461553895E+02  0.69999978637E+02 0.  0.
        -12    1    1    2    0    0 -0.15318114984E+02 -0.50174174162E+01  0.95320857919E+01  0.18726446105E+02  0.00000000000E+00 0.  1.
         11    1    3    3    0    0  0.27042172794E+02  0.18661502258E+02 -0.94993311531E+01  0.34201872296E+02  0.51100000000E-03 0. -1.
        -11    1    3    3    0    0 -0.43526104368E-01  0.80138288546E+01  0.89967026304E+01  0.12048402629E+02  0.51100000000E-03 0.  1.
        -12    1    3    3    0    0 -0.11680531706E+02 -0.21657913697E+02 -0.90294572693E+01  0.26211278969E+02  0.00000000000E+00 0.  1.
</event>
<event>
 7    1  0.2700104E-013  0.7246156E+02  0.7816164E-02  0.1226708E+00
        -11   -1    0    0    0    0  0.00000000000E+00  0.00000000000E+00  0.45593999997E+02  0.45594000000E+02  0.51100000000E-03 0. -1.
         11   -1    0    0    0    0 -0.00000000000E+00 -0.00000000000E+00 -0.45593999997E+02  0.45594000000E+02  0.51100000000E-03 0.  1.
    9900012    2    1    2    0    0 -0.43809331312E+01 -0.10352659655E+02  0.14976967345E+02  0.72461556454E+02  0.69999981970E+02 0.  0.
        -12    1    1    2    0    0  0.43809331312E+01  0.10352659655E+02 -0.14976967345E+02  0.18726443546E+02  0.00000000000E+00 0.  1.
         11    1    3    3    0    0 -0.59507342651E+01  0.11620985244E+02  0.29413477831E+01  0.13383200789E+02  0.51100000000E-03 0. -1.
        -11    1    3    3    0    0  0.26704882013E+02 -0.42522434057E+01  0.44835263563E+01  0.27410478036E+02  0.51100000000E-03 0.  1.
         12    1    3    3    0    0 -0.25135080879E+02 -0.17721401493E+02  0.75520932059E+01  0.31667877628E+02  0.00000000000E+00 0. -1.
</event>
<event>
 7    1  0.2700104E-013  0.7246154E+02  0.7816164E-02  0.1226708E+00
        -11   -1    0    0    0    0  0.00000000000E+00  0.00000000000E+00  0.45593999997E+02  0.45594000000E+02  0.51100000000E-03 0.  1.
         11   -1    0    0    0    0 -0.00000000000E+00 -0.00000000000E+00 -0.45593999997E+02  0.45594000000E+02  0.51100000000E-03 0. -1.
    9900012    2    1    2    0    0 -0.34556626677E+01  0.10239252668E+02  0.15293667101E+02  0.72461544033E+02  0.69999965790E+02 0.  0.
        -12    1    1    2    0    0  0.34556626677E+01 -0.10239252668E+02 -0.15293667101E+02  0.18726455967E+02  0.00000000000E+00 0.  1.
         11    1    3    3    0    0 -0.20671696868E+01 -0.88087603504E+01 -0.18638047518E+01  0.92380310586E+01  0.51100000000E-03 0. -1.
        -11    1    3    3    0    0  0.68952817870E+01 -0.75611058348E+01  0.30611899164E+02  0.32276982558E+02  0.51100000000E-03 0.  1.
         12    1    3    3    0    0 -0.82837747679E+01  0.26609118854E+02 -0.13454427311E+02  0.30946530417E+02  0.00000000000E+00 0. -1.
</event>
<event>
 7    1  0.2700104E-013  0.7246167E+02  0.7816164E-02  0.1226708E+00
        -11   -1    0    0    0    0  0.00000000000E+00  0.00000000000E+00  0.45593999997E+02  0.45594000000E+02  0.51100000000E-03 0. -1.
         11   -1    0    0    0    0 -0.00000000000E+00 -0.00000000000E+00 -0.45593999997E+02  0.45594000000E+02  0.51100000000E-03 0.  1.
    9900012    2    1    2    0    0  0.79208343838E+01  0.15806694431E+02  0.61712340669E+01  0.72461672648E+02  0.70000133335E+02 0.  0.
        -12    1    1    2    0    0 -0.79208343838E+01 -0.15806694431E+02 -0.61712340669E+01  0.18726327352E+02  0.00000000000E+00 0.  1.
         11    1    3    3    0    0 -0.12859251143E+01  0.78344459271E-01 -0.62657151164E+01  0.63967904010E+01  0.51100000000E-03 0. -1.
        -11    1    3    3    0    0 -0.48441852917E+01 -0.98885724151E+01 -0.19739152396E+02  0.22602746141E+02  0.51100000000E-03 0.  1.
         12    1    3    3    0    0  0.14050944790E+02  0.25616922387E+02  0.32176101579E+02  0.43462136106E+02  0.00000000000E+00 0. -1.
</event>
<event>
 7    1  0.2700104E-013  0.7246155E+02  0.7816164E-02  0.1226708E+00
        -11   -1    0    0    0    0  0.00000000000E+00  0.00000000000E+00  0.45593999997E+02  0.45594000000E+02  0.51100000000E-03 0. -1.
         11   -1    0    0    0    0 -0.00000000000E+00 -0.00000000000E+00 -0.45593999997E+02  0.45594000000E+02  0.51100000000E-03 0.  1.
    9900012    2    1    2    0    0  0.33443347845E+01  0.16572738929E+01  0.18350715197E+02  0.72461551320E+02  0.69999975283E+02 0.  0.
        -12    1    1    2    0    0 -0.33443347845E+01 -0.16572738929E+01 -0.18350715197E+02  0.18726448680E+02  0.00000000000E+00 0.  1.
         11    1    3    3    0    0 -0.20705778049E+01  0.59101257067E+01  0.63045331244E+01  0.88861699563E+01  0.51100000000E-03 0. -1.
        -11    1    3    3    0    0 -0.32114924475E+01  0.15108838881E+02 -0.19928022844E+02  0.25213424813E+02  0.51100000000E-03 0.  1.
         12    1    3    3    0    0  0.86264050369E+01 -0.19361690695E+02  0.31974204916E+02  0.38361956551E+02  0.00000000000E+00 0. -1.
</event>
<event>
 7    1  0.2700104E-013  0.7246168E+02  0.7816164E-02  0.1226708E+00
        -11   -1    0    0    0    0  0.00000000000E+00  0.00000000000E+00  0.45593999997E+02  0.45594000000E+02  0.51100000000E-03 0. -1.
         11   -1    0    0    0    0 -0.00000000000E+00 -0.00000000000E+00 -0.45593999997E+02  0.45594000000E+02  0.51100000000E-03 0.  1.
    9900012    2    1    2    0    0 -0.97577948757E+01  0.48480197196E+01  0.15230139755E+02  0.72461681275E+02  0.70000144573E+02 0.  0.
        -12    1    1    2    0    0  0.97577948757E+01 -0.48480197196E+01 -0.15230139755E+02  0.18726318725E+02  0.00000000000E+00 0.  1.
         11    1    3    3    0    0 -0.11842041598E+02 -0.14681201997E+02 -0.75409216405E+01  0.20313471902E+02  0.51100000000E-03 0. -1.
        -11    1    3    3    0    0 -0.41715810893E+01  0.63732176860E+01 -0.12133166767E+02  0.14325980892E+02  0.51100000000E-03 0.  1.
         12    1    3    3    0    0  0.62558278114E+01  0.13156004030E+02  0.34904228162E+02  0.37822228481E+02  0.00000000000E+00 0. -1.
</event>
<event>
 7    1  0.2700104E-013  0.7246155E+02  0.7816164E-02  0.1226708E+00
        -11   -1    0    0    0    0  0.00000000000E+00  0.00000000000E+00  0.45593999997E+02  0.45594000000E+02  0.51100000000E-03 0.  1.
         11   -1    0    0    0    0 -0.00000000000E+00 -0.00000000000E+00 -0.45593999997E+02  0.45594000000E+02  0.51100000000E-03 0. -1.
    9900012    2    1    2    0    0 -0.15085180696E+02 -0.60063604800E+01 -0.93295663980E+01  0.72461552072E+02  0.69999976261E+02 0.  0.
        -12    1    1    2    0    0  0.15085180696E+02  0.60063604800E+01  0.93295663980E+01  0.18726447928E+02  0.00000000000E+00 0.  1.
         11    1    3    3    0    0 -0.16375259849E+02 -0.20189784794E+02 -0.27646581625E+02  0.37948781548E+02  0.51100000000E-03 0. -1.
        -11    1    3    3    0    0 -0.67481259827E+01 -0.50347966712E+01  0.52884068088E+01  0.99425162125E+01  0.51100000000E-03 0.  1.
         12    1    3    3    0    0  0.80382051354E+01  0.19218220985E+02  0.13028608419E+02  0.24570254312E+02  0.00000000000E+00 0. -1.
</event>
<event>
 7    1  0.2700104E-013  0.7246155E+02  0.7816164E-02  0.1226708E+00
        -11   -1    0    0    0    0  0.00000000000E+00  0.00000000000E+00  0.45593999997E+02  0.45594000000E+02  0.51100000000E-03 0.  1.
         11   -1    0    0    0    0 -0.00000000000E+00 -0.00000000000E+00 -0.45593999997E+02  0.45594000000E+02  0.51100000000E-03 0. -1.
    9900012    2    1    2    0    0  0.16172387860E+02  0.75437515738E+01  0.56767537349E+01  0.72461552129E+02  0.69999976336E+02 0.  0.
        -12    1    1    2    0    0 -0.16172387860E+02 -0.75437515738E+01 -0.56767537349E+01  0.18726447871E+02  0.00000000000E+00 0.  1.
         11    1    3    3    0    0  0.22045189392E+01 -0.41757538942E+01  0.23193131620E+01  0.52608020436E+01  0.51100000000E-03 0. -1.
        -11    1    3    3    0    0  0.38287801277E+02 -0.29255460002E+01  0.52105259356E+01  0.38751311292E+02  0.51100000000E-03 0.  1.
         12    1    3    3    0    0 -0.24319932356E+02  0.14645051468E+02 -0.18530853626E+01  0.28449438793E+02  0.00000000000E+00 0. -1.
</event>
<event>
 7    1  0.2700104E-013  0.7246151E+02  0.7816164E-02  0.1226708E+00
        -11   -1    0    0    0    0  0.00000000000E+00  0.00000000000E+00  0.45593999997E+02  0.45594000000E+02  0.51100000000E-03 0.  1.
         11   -1    0    0    0    0 -0.00000000000E+00 -0.00000000000E+00 -0.45593999997E+02  0.45594000000E+02  0.51100000000E-03 0. -1.
    9900012    2    1    2    0    0  0.81949919926E+01  0.73570308863E+01  0.15145882593E+02  0.72461506555E+02  0.69999916968E+02 0.  0.
        -12    1    1    2    0    0 -0.81949919926E+01 -0.73570308863E+01 -0.15145882593E+02  0.18726493445E+02  0.00000000000E+00 0.  1.
         11    1    3    3    0    0 -0.49243399970E+01  0.45206874998E+01 -0.24187817149E+01  0.71088849422E+01  0.51100000000E-03 0. -1.
        -11    1    3    3    0    0  0.60078990107E+01  0.22177674634E+02  0.32571384539E+02  0.39860245781E+02  0.51100000000E-03 0.  1.
         12    1    3    3    0    0  0.71114329789E+01 -0.19341331248E+02 -0.15006720231E+02  0.25492375832E+02  0.00000000000E+00 0. -1.
</event>
<event>
 7    1  0.2700104E-013  0.7246161E+02  0.7816164E-02  0.1226708E+00
        -11   -1    0    0    0    0  0.00000000000E+00  0.00000000000E+00  0.45593999997E+02  0.45594000000E+02  0.51100000000E-03 0. -1.
         11   -1    0    0    0    0 -0.00000000000E+00 -0.00000000000E+00 -0.45593999997E+02  0.45594000000E+02  0.51100000000E-03 0.  1.
    9900012    2    1    2    0    0  0.71549942868E+01 -0.86512602966E+00  0.17283965272E+02  0.72461605744E+02  0.70000046180E+02 0.  0.
        -12    1    1    2    0    0 -0.71549942868E+01  0.86512602966E+00 -0.17283965272E+02  0.18726394256E+02  0.00000000000E+00 0.  1.
         11    1    3    3    0    0  0.21468886861E+02  0.48195323607E+00  0.17029230333E+02  0.27406934669E+02  0.51100000000E-03 0. -1.
        -11    1    3    3    0    0  0.93190367351E+01 -0.13797168497E+02 -0.58622873287E+01  0.17651422526E+02  0.51100000000E-03 0.  1.
         12    1    3    3    0    0 -0.23632929309E+02  0.12450089232E+02  0.61170222676E+01  0.27403248549E+02  0.00000000000E+00 0. -1.
</event>
<event>
 7    1  0.2700104E-013  0.7246157E+02  0.7816164E-02  0.1226708E+00
        -11   -1    0    0    0    0  0.00000000000E+00  0.00000000000E+00  0.45593999997E+02  0.45594000000E+02  0.51100000000E-03 0.  1.
         11   -1    0    0    0    0 -0.00000000000E+00 -0.00000000000E+00 -0.45593999997E+02  0.45594000000E+02  0.51100000000E-03 0. -1.
    9900012    2    1    2    0    0 -0.15191128177E+02  0.78649834001E+01 -0.76191062265E+01  0.72461571647E+02  0.70000001762E+02 0.  0.
        -12    1    1    2    0    0  0.15191128177E+02 -0.78649834001E+01  0.76191062265E+01  0.18726428353E+02  0.00000000000E+00 0.  1.
         11    1    3    3    0    0  0.43553994743E+01  0.37502654722E+01  0.90893872959E+01  0.10754113509E+02  0.51100000000E-03 0. -1.
        -11    1    3    3    0    0 -0.23681290777E+01 -0.23250510563E+02  0.34505118840E+01  0.23624146742E+02  0.51100000000E-03 0.  1.
         12    1    3    3    0    0 -0.17178398573E+02  0.27365228491E+02 -0.20159005406E+02  0.38083311396E+02  0.00000000000E+00 0. -1.
</event>
<event>
 7    1  0.2700104E-013  0.7246159E+02  0.7816164E-02  0.1226708E+00
        -11   -1    0    0    0    0  0.00000000000E+00  0.00000000000E+00  0.45593999997E+02  0.45594000000E+02  0.51100000000E-03 0.  1.
         11   -1    0    0    0    0 -0.00000000000E+00 -0.00000000000E+00 -0.45593999997E+02  0.45594000000E+02  0.51100000000E-03 0. -1.
    9900012    2    1    2    0    0  0.14459800974E+02  0.63981765002E+01 -0.10032742870E+02  0.72461589873E+02  0.70000025505E+02 0.  0.
        -12    1    1    2    0    0 -0.14459800974E+02 -0.63981765002E+01  0.10032742870E+02  0.18726410127E+02  0.00000000000E+00 0.  1.
         11    1    3    3    0    0  0.22754526387E+01  0.33893559036E+02 -0.79812839154E+01  0.34894869566E+02  0.51100000000E-03 0. -1.
        -11    1    3    3    0    0 -0.25635424682E+01 -0.99198732317E+00  0.56418707127E+01  0.62758660148E+01  0.51100000000E-03 0.  1.
        -12    1    3    3    0    0  0.14747890804E+02 -0.26503395213E+02 -0.76933296675E+01  0.31290854292E+02  0.00000000000E+00 0.  1.
</event>
<event>
 7    1  0.2700104E-013  0.7246158E+02  0.7816164E-02  0.1226708E+00
        -11   -1    0    0    0    0  0.00000000000E+00  0.00000000000E+00  0.45593999997E+02  0.45594000000E+02  0.51100000000E-03 0.  1.
         11   -1    0    0    0    0 -0.00000000000E+00 -0.00000000000E+00 -0.45593999997E+02  0.45594000000E+02  0.51100000000E-03 0. -1.
    9900012    2    1    2    0    0 -0.92439922678E+01  0.10749214210E+02 -0.12234453986E+02  0.72461578465E+02  0.70000010643E+02 0.  0.
        -12    1    1    2    0    0  0.92439922678E+01 -0.10749214210E+02  0.12234453986E+02  0.18726421535E+02  0.00000000000E+00 0.  1.
         11    1    3    3    0    0  0.29991652152E+01 -0.12526199261E+02 -0.20798254706E+01  0.13047081442E+02  0.51100000000E-03 0. -1.
        -11    1    3    3    0    0  0.80707516323E+01 -0.75510719956E+01 -0.18513977732E+02  0.21562075316E+02  0.51100000000E-03 0.  1.
         12    1    3    3    0    0 -0.20313909115E+02  0.30826485466E+02  0.83593492162E+01  0.37852421707E+02  0.00000000000E+00 0. -1.
</event>
<event>
 7    1  0.2700104E-013  0.7246161E+02  0.7816164E-02  0.1226708E+00
        -11   -1    0    0    0    0  0.00000000000E+00  0.00000000000E+00  0.45593999997E+02  0.45594000000E+02  0.51100000000E-03 0.  1.
         11   -1    0    0    0    0 -0.00000000000E+00 -0.00000000000E+00 -0.45593999997E+02  0.45594000000E+02  0.51100000000E-03 0. -1.
    9900012    2    1    2    0    0  0.66422739956E+00 -0.27435820013E+01 -0.18512403171E+02  0.72461614567E+02  0.70000057673E+02 0.  0.
        -12    1    1    2    0    0 -0.66422739956E+00  0.27435820013E+01  0.18512403171E+02  0.18726385433E+02  0.00000000000E+00 0.  1.
         11    1    3    3    0    0 -0.15256520328E+02 -0.39749439835E+01  0.12569762260E+02  0.20163345846E+02  0.51100000000E-03 0.  1.
        -11    1    3    3    0    0 -0.27024330148E+01  0.99262976394E+01  0.44826099751E+01  0.11221778891E+02  0.51100000000E-03 0. -1.
         12    1    3    3    0    0  0.18623180742E+02 -0.86949356572E+01 -0.35564775406E+02  0.41076489829E+02  0.00000000000E+00 0. -1.
</event>
<event>
 7    1  0.2700104E-013  0.7246160E+02  0.7816164E-02  0.1226708E+00
        -11   -1    0    0    0    0  0.00000000000E+00  0.00000000000E+00  0.45593999997E+02  0.45594000000E+02  0.51100000000E-03 0. -1.
         11   -1    0    0    0    0 -0.00000000000E+00 -0.00000000000E+00 -0.45593999997E+02  0.45594000000E+02  0.51100000000E-03 0.  1.
    9900012    2    1    2    0    0 -0.15125724457E+02  0.54041910403E-01  0.11040269622E+02  0.72461601141E+02  0.70000040184E+02 0.  0.
        -12    1    1    2    0    0  0.15125724457E+02 -0.54041910403E-01 -0.11040269622E+02  0.18726398859E+02  0.00000000000E+00 0.  1.
         11    1    3    3    0    0 -0.30086506623E+01 -0.32882168751E+01 -0.61668056311E+01  0.76088002325E+01  0.51100000000E-03 0. -1.
        -11    1    3    3    0    0  0.21363242720E+01 -0.16751920618E+01 -0.22346655517E+02  0.22510956507E+02  0.51100000000E-03 0.  1.
         12    1    3    3    0    0 -0.14253398067E+02  0.50174508473E+01  0.39553730770E+02  0.42341844401E+02  0.00000000000E+00 0. -1.
</event>
<event>
 7    1  0.2700104E-013  0.7246159E+02  0.7816164E-02  0.1226708E+00
        -11   -1    0    0    0    0  0.00000000000E+00  0.00000000000E+00  0.45593999997E+02  0.45594000000E+02  0.51100000000E-03 0.  1.
         11   -1    0    0    0    0 -0.00000000000E+00 -0.00000000000E+00 -0.45593999997E+02  0.45594000000E+02  0.51100000000E-03 0. -1.
    9900012    2    1    2    0    0  0.15654680613E+02  0.19103978670E+01 -0.10097517882E+02  0.72461587838E+02  0.70000022853E+02 0.  0.
        -12    1    1    2    0    0 -0.15654680613E+02 -0.19103978670E+01  0.10097517882E+02  0.18726412162E+02  0.00000000000E+00 0.  1.
         11    1    3    3    0    0 -0.16165545424E+02  0.57136342655E+01  0.23167633216E+01  0.17301383411E+02  0.51100000000E-03 0. -1.
        -11    1    3    3    0    0 -0.90706032403E+01 -0.21627694745E+01  0.51202745092E+01  0.10638168369E+02  0.51100000000E-03 0.  1.
        -12    1    3    3    0    0  0.40890829277E+02 -0.16404669240E+01 -0.17534555713E+02  0.44522036058E+02  0.00000000000E+00 0.  1.
</event>
<event>
 7    1  0.2700104E-013  0.7246159E+02  0.7816164E-02  0.1226708E+00
        -11   -1    0    0    0    0  0.00000000000E+00  0.00000000000E+00  0.45593999997E+02  0.45594000000E+02  0.51100000000E-03 0.  1.
         11   -1    0    0    0    0 -0.00000000000E+00 -0.00000000000E+00 -0.45593999997E+02  0.45594000000E+02  0.51100000000E-03 0. -1.
    9900012    2    1    2    0    0  0.18513653643E+01  0.63825976046E+01 -0.17507519557E+02  0.72461592258E+02  0.70000028611E+02 0.  0.
        -12    1    1    2    0    0 -0.18513653643E+01 -0.63825976046E+01  0.17507519557E+02  0.18726407742E+02  0.00000000000E+00 0.  1.
         11    1    3    3    0    0 -0.10055737112E+01  0.98435041674E+01  0.22117366231E+01  0.10138911773E+02  0.51100000000E-03 0. -1.
        -11    1    3    3    0    0  0.12817070786E+02 -0.64972708709E+01  0.18091711042E+02  0.23104152030E+02  0.51100000000E-03 0.  1.
         12    1    3    3    0    0 -0.99601317110E+01  0.30363643081E+01 -0.37810967222E+02  0.39218528455E+02  0.00000000000E+00 0. -1.
</event>
<event>
 7    1  0.2700104E-013  0.7246157E+02  0.7816164E-02  0.1226708E+00
        -11   -1    0    0    0    0  0.00000000000E+00  0.00000000000E+00  0.45593999997E+02  0.45594000000E+02  0.51100000000E-03 0. -1.
         11   -1    0    0    0    0 -0.00000000000E+00 -0.00000000000E+00 -0.45593999997E+02  0.45594000000E+02  0.51100000000E-03 0.  1.
    9900012    2    1    2    0    0  0.31607715528E+01 -0.12603646158E+02  0.13484687441E+02  0.72461570317E+02  0.70000000030E+02 0.  0.
        -12    1    1    2    0    0 -0.31607715528E+01  0.12603646158E+02 -0.13484687441E+02  0.18726429683E+02  0.00000000000E+00 0.  1.
         11    1    3    3    0    0 -0.16625835158E+02 -0.12082199387E+02 -0.12074927269E+02  0.23836983985E+02  0.51100000000E-03 0. -1.
        -11    1    3    3    0    0 -0.60693139979E+01 -0.93031957440E+01 -0.16508165910E+00  0.11109152788E+02  0.51100000000E-03 0.  1.
         12    1    3    3    0    0  0.25855920709E+02  0.87817489723E+01  0.25724696369E+02  0.37515433544E+02  0.00000000000E+00 0. -1.
</event>
<event>
 7    1  0.2700104E-013  0.7246156E+02  0.7816164E-02  0.1226708E+00
        -11   -1    0    0    0    0  0.00000000000E+00  0.00000000000E+00  0.45593999997E+02  0.45594000000E+02  0.51100000000E-03 0. -1.
         11   -1    0    0    0    0 -0.00000000000E+00 -0.00000000000E+00 -0.45593999997E+02  0.45594000000E+02  0.51100000000E-03 0.  1.
    9900012    2    1    2    0    0 -0.10838684911E+02  0.23081143664E+01  0.15095532753E+02  0.72461559024E+02  0.69999985318E+02 0.  0.
        -12    1    1    2    0    0  0.10838684911E+02 -0.23081143664E+01 -0.15095532753E+02  0.18726440976E+02  0.00000000000E+00 0.  1.
         11    1    3    3    0    0  0.58422625747E+01 -0.91503032642E+01  0.36443737709E+02  0.38026386895E+02  0.51100000000E-03 0. -1.
        -11    1    3    3    0    0  0.12974637104E+01  0.62699914410E+01 -0.50189816848E+00  0.64224689009E+01  0.51100000000E-03 0.  1.
        -12    1    3    3    0    0 -0.17978411196E+02  0.51884261896E+01 -0.20846306787E+02  0.28012703228E+02  0.00000000000E+00 0.  1.
</event>
<event>
 7    1  0.2700104E-013  0.7246153E+02  0.7816164E-02  0.1226708E+00
        -11   -1    0    0    0    0  0.00000000000E+00  0.00000000000E+00  0.45593999997E+02  0.45594000000E+02  0.51100000000E-03 0.  1.
         11   -1    0    0    0    0 -0.00000000000E+00 -0.00000000000E+00 -0.45593999997E+02  0.45594000000E+02  0.51100000000E-03 0. -1.
    9900012    2    1    2    0    0  0.13517770243E+02  0.10970409481E+02 -0.68993281803E+01  0.72461528740E+02  0.69999945867E+02 0.  0.
        -12    1    1    2    0    0 -0.13517770243E+02 -0.10970409481E+02  0.68993281803E+01  0.18726471260E+02  0.00000000000E+00 0.  1.
         11    1    3    3    0    0  0.22067847229E+02  0.13307705528E+02 -0.94692149054E+01  0.27454524926E+02  0.51100000000E-03 0. -1.
        -11    1    3    3    0    0  0.14859026683E+02  0.10517813222E+02  0.17366555410E+01  0.18287455855E+02  0.51100000000E-03 0.  1.
        -12    1    3    3    0    0 -0.23409103669E+02 -0.12855109269E+02  0.83323118418E+00  0.26719547958E+02  0.00000000000E+00 0.  1.
</event>
<event>
 7    1  0.2700104E-013  0.7246151E+02  0.7816164E-02  0.1226708E+00
        -11   -1    0    0    0    0  0.00000000000E+00  0.00000000000E+00  0.45593999997E+02  0.45594000000E+02  0.51100000000E-03 0. -1.
         11   -1    0    0    0    0 -0.00000000000E+00 -0.00000000000E+00 -0.45593999997E+02  0.45594000000E+02  0.51100000000E-03 0.  1.
    9900012    2    1    2    0    0 -0.53303654076E+01 -0.99742335854E+01  0.14925921873E+02  0.72461514085E+02  0.69999926776E+02 0.  0.
        -12    1    1    2    0    0  0.53303654076E+01  0.99742335854E+01 -0.14925921873E+02  0.18726485915E+02  0.00000000000E+00 0.  1.
         11    1    3    3    0    0 -0.14987184118E+02 -0.64018504212E+01  0.62478778439E+01  0.17453806301E+02  0.51100000000E-03 0. -1.
        -11    1    3    3    0    0 -0.11148084258E+02 -0.22611830132E+02 -0.89186546012E+00  0.25226376450E+02  0.51100000000E-03 0.  1.
         12    1    3    3    0    0  0.20804902968E+02  0.19039446968E+02  0.95699094888E+01  0.29781331333E+02  0.00000000000E+00 0. -1.
</event>
<event>
 7    1  0.2700104E-013  0.7246155E+02  0.7816164E-02  0.1226708E+00
        -11   -1    0    0    0    0  0.00000000000E+00  0.00000000000E+00  0.45593999997E+02  0.45594000000E+02  0.51100000000E-03 0. -1.
         11   -1    0    0    0    0 -0.00000000000E+00 -0.00000000000E+00 -0.45593999997E+02  0.45594000000E+02  0.51100000000E-03 0.  1.
    9900012    2    1    2    0    0 -0.14856552582E+02  0.38969897446E+01  0.10713359779E+02  0.72461554490E+02  0.69999979412E+02 0.  0.
        -12    1    1    2    0    0  0.14856552582E+02 -0.38969897446E+01 -0.10713359779E+02  0.18726445510E+02  0.00000000000E+00 0.  1.
         11    1    3    3    0    0 -0.90739740987E+01  0.26314753706E+02  0.13628182238E+02  0.30992428429E+02  0.51100000000E-03 0. -1.
        -11    1    3    3    0    0 -0.12412530395E+02 -0.18932382952E+02  0.11374649979E+02  0.25335522443E+02  0.51100000000E-03 0.  1.
        -12    1    3    3    0    0  0.66299519113E+01 -0.34853810092E+01 -0.14289472439E+02  0.16133603618E+02  0.00000000000E+00 0.  1.
</event>
<event>
 7    1  0.2700104E-013  0.7246156E+02  0.7816164E-02  0.1226708E+00
        -11   -1    0    0    0    0  0.00000000000E+00  0.00000000000E+00  0.45593999997E+02  0.45594000000E+02  0.51100000000E-03 0.  1.
         11   -1    0    0    0    0 -0.00000000000E+00 -0.00000000000E+00 -0.45593999997E+02  0.45594000000E+02  0.51100000000E-03 0. -1.
    9900012    2    1    2    0    0 -0.48210807889E+01  0.16780148126E+02 -0.67722405982E+01  0.72461563237E+02  0.69999990807E+02 0.  0.
        -12    1    1    2    0    0  0.48210807889E+01 -0.16780148126E+02  0.67722405982E+01  0.18726436763E+02  0.00000000000E+00 0.  1.
         11    1    3    3    0    0 -0.61838173073E+01  0.13033023730E+02 -0.13679850968E+02  0.19880584167E+02  0.51100000000E-03 0. -1.
        -11    1    3    3    0    0  0.84299211410E+01  0.14077656466E+02 -0.18213228792E+02  0.24514601471E+02  0.51100000000E-03 0.  1.
        -12    1    3    3    0    0 -0.70671846226E+01 -0.10330532070E+02  0.25120839162E+02  0.28066377599E+02  0.00000000000E+00 0.  1.
</event>
<event>
 7    1  0.2700104E-013  0.7246159E+02  0.7816164E-02  0.1226708E+00
        -11   -1    0    0    0    0  0.00000000000E+00  0.00000000000E+00  0.45593999997E+02  0.45594000000E+02  0.51100000000E-03 0. -1.
         11   -1    0    0    0    0 -0.00000000000E+00 -0.00000000000E+00 -0.45593999997E+02  0.45594000000E+02  0.51100000000E-03 0.  1.
    9900012    2    1    2    0    0 -0.17857778877E+01  0.18265944021E+02 -0.37208481968E+01  0.72461590175E+02  0.70000025898E+02 0.  0.
        -12    1    1    2    0    0  0.17857778877E+01 -0.18265944021E+02  0.37208481968E+01  0.18726409825E+02  0.00000000000E+00 0.  1.
         11    1    3    3    0    0  0.56511845655E+01 -0.27063135763E+01  0.79680128190E+01  0.10136530408E+02  0.51100000000E-03 0. -1.
        -11    1    3    3    0    0  0.40020330253E+00 -0.43245780996E+01  0.20321111263E+02  0.20780031320E+02  0.51100000000E-03 0.  1.
        -12    1    3    3    0    0 -0.78371657557E+01  0.25296835697E+02 -0.32009972279E+02  0.41545028447E+02  0.00000000000E+00 0.  1.
</event>
<event>
 7    1  0.2700104E-013  0.7246157E+02  0.7816164E-02  0.1226708E+00
        -11   -1    0    0    0    0  0.00000000000E+00  0.00000000000E+00  0.45593999997E+02  0.45594000000E+02  0.51100000000E-03 0.  1.
         11   -1    0    0    0    0 -0.00000000000E+00 -0.00000000000E+00 -0.45593999997E+02  0.45594000000E+02  0.51100000000E-03 0. -1.
    9900012    2    1    2    0    0  0.78288795872E+01  0.98411598852E+01 -0.13875853271E+02  0.72461572485E+02  0.70000002853E+02 0.  0.
        -12    1    1    2    0    0 -0.78288795872E+01 -0.98411598852E+01  0.13875853271E+02  0.18726427515E+02  0.00000000000E+00 0.  1.
         11    1    3    3    0    0 -0.48986277721E+01  0.21795824633E+02 -0.18399181637E+02  0.28941050614E+02  0.51100000000E-03 0. -1.
        -11    1    3    3    0    0 -0.56270838848E+01  0.90782896402E+01 -0.75768643874E+01  0.13095353758E+02  0.51100000000E-03 0.  1.
        -12    1    3    3    0    0  0.18354591244E+02 -0.21032954388E+02  0.12100192753E+02  0.30425168113E+02  0.00000000000E+00 0.  1.
</event>
<event>
 7    1  0.2700104E-013  0.7246156E+02  0.7816164E-02  0.1226708E+00
        -11   -1    0    0    0    0  0.00000000000E+00  0.00000000000E+00  0.45593999997E+02  0.45594000000E+02  0.51100000000E-03 0.  1.
         11   -1    0    0    0    0 -0.00000000000E+00 -0.00000000000E+00 -0.45593999997E+02  0.45594000000E+02  0.51100000000E-03 0. -1.
    9900012    2    1    2    0    0 -0.52993327920E+00  0.11186743740E+02 -0.15008509607E+02  0.72461563462E+02  0.69999991100E+02 0.  0.
        -12    1    1    2    0    0  0.52993327920E+00 -0.11186743740E+02  0.15008509607E+02  0.18726436538E+02  0.00000000000E+00 0.  1.
         11    1    3    3    0    0  0.15680165252E+02  0.16878913730E+02  0.17620061740E+02  0.29003997776E+02  0.51100000000E-03 0. -1.
        -11    1    3    3    0    0 -0.39235806084E+01  0.47381920709E+01  0.93739752920E+00  0.62228340232E+01  0.51100000000E-03 0.  1.
        -12    1    3    3    0    0 -0.12286517923E+02 -0.10430362061E+02 -0.33565968876E+02  0.37234731663E+02  0.00000000000E+00 0.  1.
</event>
<event>
 7    1  0.2700104E-013  0.7246179E+02  0.7816164E-02  0.1226707E+00
        -11   -1    0    0    0    0  0.00000000000E+00  0.00000000000E+00  0.45593999997E+02  0.45594000000E+02  0.51100000000E-03 0.  1.
         11   -1    0    0    0    0 -0.00000000000E+00 -0.00000000000E+00 -0.45593999997E+02  0.45594000000E+02  0.51100000000E-03 0. -1.
    9900012    2    1    2    0    0  0.10215677895E+02  0.17291125134E+01 -0.15598747928E+02  0.72461792646E+02  0.70000289654E+02 0.  0.
        -12    1    1    2    0    0 -0.10215677895E+02 -0.17291125134E+01  0.15598747928E+02  0.18726207354E+02  0.00000000000E+00 0.  1.
         11    1    3    3    0    0 -0.17042552108E+02  0.26776044467E+01 -0.70355625594E+01  0.18631083938E+02  0.51100000000E-03 0. -1.
        -11    1    3    3    0    0  0.62847723365E+01 -0.15537553642E+02  0.12345998535E+02  0.20816762874E+02  0.51100000000E-03 0.  1.
         12    1    3    3    0    0  0.20973457666E+02  0.14589061708E+02 -0.20909183904E+02  0.33013945834E+02  0.00000000000E+00 0. -1.
</event>
<event>
 7    1  0.2700104E-013  0.7246157E+02  0.7816164E-02  0.1226708E+00
        -11   -1    0    0    0    0  0.00000000000E+00  0.00000000000E+00  0.45593999997E+02  0.45594000000E+02  0.51100000000E-03 0. -1.
         11   -1    0    0    0    0 -0.00000000000E+00 -0.00000000000E+00 -0.45593999997E+02  0.45594000000E+02  0.51100000000E-03 0.  1.
    9900012    2    1    2    0    0  0.44484570893E+00  0.15350342093E+02  0.10716724981E+02  0.72461572567E+02  0.70000002960E+02 0.  0.
        -12    1    1    2    0    0 -0.44484570893E+00 -0.15350342093E+02 -0.10716724981E+02  0.18726427433E+02  0.00000000000E+00 0.  1.
         11    1    3    3    0    0 -0.13640252171E+02  0.14191384582E+02  0.20136683600E+02  0.28159153082E+02  0.51100000000E-03 0. -1.
        -11    1    3    3    0    0 -0.83191752498E+01  0.10417271508E+02  0.69663505263E+01  0.15041883606E+02  0.51100000000E-03 0.  1.
        -12    1    3    3    0    0  0.22404273129E+02 -0.92583139962E+01 -0.16386309145E+02  0.29260535879E+02  0.00000000000E+00 0.  1.
</event>
<event>
 7    1  0.2700104E-013  0.7246158E+02  0.7816164E-02  0.1226708E+00
        -11   -1    0    0    0    0  0.00000000000E+00  0.00000000000E+00  0.45593999997E+02  0.45594000000E+02  0.51100000000E-03 0. -1.
         11   -1    0    0    0    0 -0.00000000000E+00 -0.00000000000E+00 -0.45593999997E+02  0.45594000000E+02  0.51100000000E-03 0.  1.
    9900012    2    1    2    0    0 -0.13525559502E+02 -0.62045192354E+01  0.11368465206E+02  0.72461579629E+02  0.70000012160E+02 0.  0.
        -12    1    1    2    0    0  0.13525559502E+02  0.62045192354E+01 -0.11368465206E+02  0.18726420371E+02  0.00000000000E+00 0.  1.
         11    1    3    3    0    0 -0.16909112391E+01  0.70173618723E+00 -0.19352641260E+01  0.26639936174E+01  0.51100000000E-03 0. -1.
        -11    1    3    3    0    0 -0.29253445263E+02  0.13437650088E+02 -0.10607191543E+02  0.33894645777E+02  0.51100000000E-03 0.  1.
         12    1    3    3    0    0  0.17418797001E+02 -0.20343905511E+02  0.23910920874E+02  0.35902940234E+02  0.00000000000E+00 0. -1.
</event>
<event>
 7    1  0.2700104E-013  0.7246161E+02  0.7816164E-02  0.1226708E+00
        -11   -1    0    0    0    0  0.00000000000E+00  0.00000000000E+00  0.45593999997E+02  0.45594000000E+02  0.51100000000E-03 0.  1.
         11   -1    0    0    0    0 -0.00000000000E+00 -0.00000000000E+00 -0.45593999997E+02  0.45594000000E+02  0.51100000000E-03 0. -1.
    9900012    2    1    2    0    0  0.10811512764E+02  0.98848415776E+01  0.11665276727E+02  0.72461612672E+02  0.70000055204E+02 0.  0.
        -12    1    1    2    0    0 -0.10811512764E+02 -0.98848415776E+01 -0.11665276727E+02  0.18726387328E+02  0.00000000000E+00 0.  1.
         11    1    3    3    0    0  0.21713578283E+02  0.14264681801E+02 -0.23207209926E+01  0.26083450212E+02  0.51100000000E-03 0. -1.
        -11    1    3    3    0    0  0.14902488841E+02  0.35214767577E+01  0.11744408881E+02  0.19298085719E+02  0.51100000000E-03 0.  1.
         12    1    3    3    0    0 -0.25804554360E+02 -0.79013169814E+01  0.22415888384E+01  0.27080076741E+02  0.00000000000E+00 0. -1.
</event>
<event>
 7    1  0.2700104E-013  0.7246147E+02  0.7816164E-02  0.1226708E+00
        -11   -1    0    0    0    0  0.00000000000E+00  0.00000000000E+00  0.45593999997E+02  0.45594000000E+02  0.51100000000E-03 0.  1.
         11   -1    0    0    0    0 -0.00000000000E+00 -0.00000000000E+00 -0.45593999997E+02  0.45594000000E+02  0.51100000000E-03 0. -1.
    9900012    2    1    2    0    0  0.22710841354E+01  0.17862630276E+02 -0.51431187334E+01  0.72461466582E+02  0.69999864896E+02 0.  0.
        -12    1    1    2    0    0 -0.22710841354E+01 -0.17862630276E+02  0.51431187334E+01  0.18726533418E+02  0.00000000000E+00 0.  1.
         11    1    3    3    0    0 -0.82066660695E+01 -0.15035445199E+01 -0.90619387402E+01  0.12317822376E+02  0.51100000000E-03 0. -1.
        -11    1    3    3    0    0  0.15490084096E+02 -0.10915226295E+02 -0.14930201420E+02  0.24124588807E+02  0.51100000000E-03 0.  1.
        -12    1    3    3    0    0 -0.50123338915E+01  0.30281401092E+02  0.18849021427E+02  0.36019055399E+02  0.00000000000E+00 0.  1.
</event>
<event>
 7    1  0.2700104E-013  0.7246155E+02  0.7816164E-02  0.1226708E+00
        -11   -1    0    0    0    0  0.00000000000E+00  0.00000000000E+00  0.45593999997E+02  0.45594000000E+02  0.51100000000E-03 0. -1.
         11   -1    0    0    0    0 -0.00000000000E+00 -0.00000000000E+00 -0.45593999997E+02  0.45594000000E+02  0.51100000000E-03 0.  1.
    9900012    2    1    2    0    0 -0.69390088801E+01 -0.93408681007E+01  0.14672369560E+02  0.72461545727E+02  0.69999967997E+02 0.  0.
        -12    1    1    2    0    0  0.69390088801E+01  0.93408681007E+01 -0.14672369560E+02  0.18726454273E+02  0.00000000000E+00 0.  1.
         11    1    3    3    0    0  0.13990853585E+02 -0.29525312813E+01  0.22180217718E+01  0.14470005040E+02  0.51100000000E-03 0. -1.
        -11    1    3    3    0    0  0.15618792689E+02  0.74932247281E+01  0.14905011657E+01  0.17387256709E+02  0.51100000000E-03 0.  1.
         12    1    3    3    0    0 -0.36548655155E+02 -0.13881561547E+02  0.10963846623E+02  0.40604283978E+02  0.00000000000E+00 0. -1.
</event>
<event>
 7    1  0.2700104E-013  0.7246155E+02  0.7816164E-02  0.1226708E+00
        -11   -1    0    0    0    0  0.00000000000E+00  0.00000000000E+00  0.45593999997E+02  0.45594000000E+02  0.51100000000E-03 0.  1.
         11   -1    0    0    0    0 -0.00000000000E+00 -0.00000000000E+00 -0.45593999997E+02  0.45594000000E+02  0.51100000000E-03 0. -1.
    9900012    2    1    2    0    0 -0.18247297344E+02 -0.36296717513E+00 -0.41933828969E+01  0.72461546368E+02  0.69999968831E+02 0.  0.
        -12    1    1    2    0    0  0.18247297344E+02  0.36296717513E+00  0.41933828969E+01  0.18726453632E+02  0.00000000000E+00 0.  1.
         11    1    3    3    0    0 -0.50577746588E+01 -0.14060940310E+02 -0.23703962399E+01  0.15129768852E+02  0.51100000000E-03 0. -1.
        -11    1    3    3    0    0 -0.15912953524E+02 -0.18814507884E+02  0.20534686725E+00  0.24642442338E+02  0.51100000000E-03 0.  1.
         12    1    3    3    0    0  0.27234308396E+01  0.32512481019E+02 -0.20283335242E+01  0.32689335179E+02  0.00000000000E+00 0. -1.
</event>
<event>
 7    1  0.2700104E-013  0.7246145E+02  0.7816164E-02  0.1226708E+00
        -11   -1    0    0    0    0  0.00000000000E+00  0.00000000000E+00  0.45593999997E+02  0.45594000000E+02  0.51100000000E-03 0. -1.
         11   -1    0    0    0    0 -0.00000000000E+00 -0.00000000000E+00 -0.45593999997E+02  0.45594000000E+02  0.51100000000E-03 0.  1.
    9900012    2    1    2    0    0  0.25487347795E+01  0.89111457117E+01  0.16272030655E+02  0.72461453374E+02  0.69999847690E+02 0.  0.
        -12    1    1    2    0    0 -0.25487347795E+01 -0.89111457117E+01 -0.16272030655E+02  0.18726546626E+02  0.00000000000E+00 0.  1.
         11    1    3    3    0    0  0.30034369816E+01 -0.10179424546E+01  0.19572929839E+01  0.37266387844E+01  0.51100000000E-03 0. -1.
        -11    1    3    3    0    0 -0.29583085502E+02 -0.10516708921E+02  0.96268548610E+01  0.32839556165E+02  0.51100000000E-03 0.  1.
         12    1    3    3    0    0  0.29128383300E+02  0.20445797087E+02  0.46878828105E+01  0.35895258425E+02  0.00000000000E+00 0. -1.
</event>
<event>
 7    1  0.2700104E-013  0.7246156E+02  0.7816164E-02  0.1226708E+00
        -11   -1    0    0    0    0  0.00000000000E+00  0.00000000000E+00  0.45593999997E+02  0.45594000000E+02  0.51100000000E-03 0.  1.
         11   -1    0    0    0    0 -0.00000000000E+00 -0.00000000000E+00 -0.45593999997E+02  0.45594000000E+02  0.51100000000E-03 0. -1.
    9900012    2    1    2    0    0  0.52570667182E+00 -0.14958273842E+02 -0.11254033195E+02  0.72461559148E+02  0.69999985480E+02 0.  0.
        -12    1    1    2    0    0 -0.52570667182E+00  0.14958273842E+02  0.11254033195E+02  0.18726440852E+02  0.00000000000E+00 0.  1.
         11    1    3    3    0    0  0.20876666108E+02 -0.12068776746E+02  0.17711506869E+02  0.29919693109E+02  0.51100000000E-03 0. -1.
        -11    1    3    3    0    0 -0.84682612810E+01 -0.68813214654E+01  0.74458648090E-01  0.10911900778E+02  0.51100000000E-03 0.  1.
        -12    1    3    3    0    0 -0.11882698155E+02  0.39918243694E+01 -0.29039998711E+02  0.31629965261E+02  0.00000000000E+00 0.  1.
</event>
<event>
 7    1  0.2700104E-013  0.7246160E+02  0.7816164E-02  0.1226708E+00
        -11   -1    0    0    0    0  0.00000000000E+00  0.00000000000E+00  0.45593999997E+02  0.45594000000E+02  0.51100000000E-03 0. -1.
         11   -1    0    0    0    0 -0.00000000000E+00 -0.00000000000E+00 -0.45593999997E+02  0.45594000000E+02  0.51100000000E-03 0.  1.
    9900012    2    1    2    0    0  0.10370735155E+02 -0.14960542599E+02  0.43940913602E+01  0.72461600950E+02  0.70000039934E+02 0.  0.
        -12    1    1    2    0    0 -0.10370735155E+02  0.14960542599E+02 -0.43940913602E+01  0.18726399050E+02  0.00000000000E+00 0.  1.
         11    1    3    3    0    0  0.71087208392E+01  0.49216924034E+01  0.24038669575E+01  0.89741598322E+01  0.51100000000E-03 0. -1.
        -11    1    3    3    0    0  0.24647105989E+02  0.78223535838E+01 -0.80412275875E+01  0.27080073682E+02  0.51100000000E-03 0.  1.
         12    1    3    3    0    0 -0.21385091673E+02 -0.27704588586E+02  0.10031451990E+02  0.36407367436E+02  0.00000000000E+00 0. -1.
</event>
<event>
 7    1  0.2700104E-013  0.7246158E+02  0.7816164E-02  0.1226708E+00
        -11   -1    0    0    0    0  0.00000000000E+00  0.00000000000E+00  0.45593999997E+02  0.45594000000E+02  0.51100000000E-03 0.  1.
         11   -1    0    0    0    0 -0.00000000000E+00 -0.00000000000E+00 -0.45593999997E+02  0.45594000000E+02  0.51100000000E-03 0. -1.
    9900012    2    1    2    0    0  0.44188372012E+01 -0.11649255011E+01 -0.18160280662E+02  0.72461575692E+02  0.70000007031E+02 0.  0.
        -12    1    1    2    0    0 -0.44188372012E+01  0.11649255011E+01  0.18160280662E+02  0.18726424308E+02  0.00000000000E+00 0.  1.
         11    1    3    3    0    0  0.25739435441E+00  0.59928683509E+01 -0.12567134620E+02  0.13925286199E+02  0.51100000000E-03 0. -1.
        -11    1    3    3    0    0 -0.14754735388E+02  0.15657548004E+02 -0.16334650015E+02  0.27012623294E+02  0.51100000000E-03 0.  1.
        -12    1    3    3    0    0  0.18916178235E+02 -0.22815341856E+02  0.10741503972E+02  0.31523666198E+02  0.00000000000E+00 0.  1.
</event>
<event>
 7    1  0.2700104E-013  0.7246173E+02  0.7816164E-02  0.1226708E+00
        -11   -1    0    0    0    0  0.00000000000E+00  0.00000000000E+00  0.45593999997E+02  0.45594000000E+02  0.51100000000E-03 0.  1.
         11   -1    0    0    0    0 -0.00000000000E+00 -0.00000000000E+00 -0.45593999997E+02  0.45594000000E+02  0.51100000000E-03 0. -1.
    9900012    2    1    2    0    0 -0.14189928617E+02 -0.51048350809E+01 -0.11102241371E+02  0.72461730248E+02  0.70000208370E+02 0.  0.
        -12    1    1    2    0    0  0.14189928617E+02  0.51048350809E+01  0.11102241371E+02  0.18726269752E+02  0.00000000000E+00 0.  1.
         11    1    3    3    0    0  0.16998616642E+02  0.74679941165E+01  0.72688391315E+01  0.19938904846E+02  0.51100000000E-03 0. -1.
        -11    1    3    3    0    0 -0.14835249327E+02 -0.14274055539E+02  0.74650072418E+01  0.21898849684E+02  0.51100000000E-03 0.  1.
         12    1    3    3    0    0 -0.16353295932E+02  0.17012263414E+01 -0.25836087744E+02  0.30623975719E+02  0.00000000000E+00 0. -1.
</event>
<event>
 7    1  0.2700104E-013  0.7246172E+02  0.7816164E-02  0.1226708E+00
        -11   -1    0    0    0    0  0.00000000000E+00  0.00000000000E+00  0.45593999997E+02  0.45594000000E+02  0.51100000000E-03 0. -1.
         11   -1    0    0    0    0 -0.00000000000E+00 -0.00000000000E+00 -0.45593999997E+02  0.45594000000E+02  0.51100000000E-03 0.  1.
    9900012    2    1    2    0    0 -0.53950132654E+01  0.16296806910E+02  0.74820651900E+01  0.72461724794E+02  0.70000201264E+02 0.  0.
        -12    1    1    2    0    0  0.53950132654E+01 -0.16296806910E+02 -0.74820651900E+01  0.18726275206E+02  0.00000000000E+00 0.  1.
         11    1    3    3    0    0  0.69361728658E+01  0.51891866035E+00  0.32886555040E+01  0.76938303780E+01  0.51100000000E-03 0. -1.
        -11    1    3    3    0    0 -0.19586071644E+02  0.37090578411E+02  0.46023476243E+00  0.41946835704E+02  0.51100000000E-03 0.  1.
         12    1    3    3    0    0  0.72548855124E+01 -0.21312690162E+02  0.37331749236E+01  0.22821058712E+02  0.00000000000E+00 0. -1.
</event>
<event>
 7    1  0.2700104E-013  0.7246159E+02  0.7816164E-02  0.1226708E+00
        -11   -1    0    0    0    0  0.00000000000E+00  0.00000000000E+00  0.45593999997E+02  0.45594000000E+02  0.51100000000E-03 0. -1.
         11   -1    0    0    0    0 -0.00000000000E+00 -0.00000000000E+00 -0.45593999997E+02  0.45594000000E+02  0.51100000000E-03 0.  1.
    9900012    2    1    2    0    0  0.18293259524E+02  0.37961870467E+01 -0.12743362839E+01  0.72461593162E+02  0.70000029789E+02 0.  0.
        -12    1    1    2    0    0 -0.18293259524E+02 -0.37961870467E+01  0.12743362839E+01  0.18726406838E+02  0.00000000000E+00 0.  1.
         11    1    3    3    0    0  0.24746043201E+01 -0.61499397069E+01 -0.28270789416E+02  0.29037612840E+02  0.51100000000E-03 0. -1.
        -11    1    3    3    0    0  0.12474816501E+02  0.90862179588E+01 -0.76174529378E+00  0.15451882076E+02  0.51100000000E-03 0.  1.
         12    1    3    3    0    0  0.33438387033E+01  0.85990879476E+00  0.27758198426E+02  0.27972098246E+02  0.00000000000E+00 0. -1.
</event>
<event>
 7    1  0.2700104E-013  0.7246153E+02  0.7816164E-02  0.1226708E+00
        -11   -1    0    0    0    0  0.00000000000E+00  0.00000000000E+00  0.45593999997E+02  0.45594000000E+02  0.51100000000E-03 0.  1.
         11   -1    0    0    0    0 -0.00000000000E+00 -0.00000000000E+00 -0.45593999997E+02  0.45594000000E+02  0.51100000000E-03 0. -1.
    9900012    2    1    2    0    0 -0.15044711195E+01 -0.30921206667E-01 -0.18665916229E+02  0.72461526276E+02  0.69999942658E+02 0.  0.
        -12    1    1    2    0    0  0.15044711195E+01  0.30921206667E-01  0.18665916229E+02  0.18726473724E+02  0.00000000000E+00 0.  1.
         11    1    3    3    0    0  0.61886710810E+01 -0.47441536726E+01 -0.25892765362E+02  0.27041485577E+02  0.51100000000E-03 0. -1.
        -11    1    3    3    0    0  0.65755646003E+01 -0.62551526870E+01  0.20921341259E+02  0.22804988606E+02  0.51100000000E-03 0.  1.
         12    1    3    3    0    0 -0.14268706801E+02  0.10968385153E+02 -0.13694492126E+02  0.22615052094E+02  0.00000000000E+00 0. -1.
</event>
<event>
 7    1  0.2700104E-013  0.7246091E+02  0.7816164E-02  0.1226710E+00
        -11   -1    0    0    0    0  0.00000000000E+00  0.00000000000E+00  0.45593999997E+02  0.45594000000E+02  0.51100000000E-03 0. -1.
         11   -1    0    0    0    0 -0.00000000000E+00 -0.00000000000E+00 -0.45593999997E+02  0.45594000000E+02  0.51100000000E-03 0.  1.
    9900012    2    1    2    0    0 -0.18501665599E+02  0.17990500320E+01  0.22705938033E+01  0.72460912474E+02  0.69999143062E+02 0.  0.
        -12    1    1    2    0    0  0.18501665599E+02 -0.17990500320E+01 -0.22705938033E+01  0.18727087526E+02  0.00000000000E+00 0.  1.
         11    1    3    3    0    0 -0.24092946271E+02  0.44041032218E+01  0.21707628044E+02  0.32727470124E+02  0.51100000000E-03 0. -1.
        -11    1    3    3    0    0 -0.24040240297E+00 -0.12689705478E+02  0.42105385374E+01  0.13372174597E+02  0.51100000000E-03 0.  1.
        -12    1    3    3    0    0  0.58316830744E+01  0.10084652288E+02 -0.23647572778E+02  0.26361267753E+02  0.00000000000E+00 0.  1.
</event>
<event>
 7    1  0.2700104E-013  0.7246158E+02  0.7816164E-02  0.1226708E+00
        -11   -1    0    0    0    0  0.00000000000E+00  0.00000000000E+00  0.45593999997E+02  0.45594000000E+02  0.51100000000E-03 0. -1.
         11   -1    0    0    0    0 -0.00000000000E+00 -0.00000000000E+00 -0.45593999997E+02  0.45594000000E+02  0.51100000000E-03 0.  1.
    9900012    2    1    2    0    0 -0.76134788996E+00 -0.17689940484E+02 -0.60963388134E+01  0.72461575038E+02  0.70000006179E+02 0.  0.
        -12    1    1    2    0    0  0.76134788996E+00  0.17689940484E+02  0.60963388134E+01  0.18726424962E+02  0.00000000000E+00 0.  1.
         11    1    3    3    0    0  0.77444740978E+01 -0.15275234349E+02  0.10865001354E+02  0.20281960412E+02  0.51100000000E-03 0. -1.
        -11    1    3    3    0    0 -0.15648607835E+02 -0.18839199362E+02  0.37742670845E+01  0.24779819452E+02  0.51100000000E-03 0.  1.
         12    1    3    3    0    0  0.71427858472E+01  0.16424493227E+02 -0.20735607252E+02  0.27399795173E+02  0.00000000000E+00 0. -1.
</event>
<event>
 7    1  0.2700104E-013  0.7246161E+02  0.7816164E-02  0.1226708E+00
        -11   -1    0    0    0    0  0.00000000000E+00  0.00000000000E+00  0.45593999997E+02  0.45594000000E+02  0.51100000000E-03 0.  1.
         11   -1    0    0    0    0 -0.00000000000E+00 -0.00000000000E+00 -0.45593999997E+02  0.45594000000E+02  0.51100000000E-03 0. -1.
    9900012    2    1    2    0    0  0.76112860037E+01  0.93810387640E+01 -0.14308809780E+02  0.72461612195E+02  0.70000054583E+02 0.  0.
        -12    1    1    2    0    0 -0.76112860037E+01 -0.93810387640E+01  0.14308809780E+02  0.18726387805E+02  0.00000000000E+00 0.  1.
         11    1    3    3    0    0 -0.20403402120E+01  0.44824385362E+01 -0.20026937498E+02  0.20623614359E+02  0.51100000000E-03 0. -1.
        -11    1    3    3    0    0  0.13174615778E+02 -0.11746433114E+02 -0.16290847520E+02  0.24019594189E+02  0.51100000000E-03 0.  1.
        -12    1    3    3    0    0 -0.35229895627E+01  0.16645033341E+02  0.22008975239E+02  0.27818403647E+02  0.00000000000E+00 0.  1.
</event>
<event>
 7    1  0.2700104E-013  0.7246172E+02  0.7816164E-02  0.1226708E+00
        -11   -1    0    0    0    0  0.00000000000E+00  0.00000000000E+00  0.45593999997E+02  0.45594000000E+02  0.51100000000E-03 0.  1.
         11   -1    0    0    0    0 -0.00000000000E+00 -0.00000000000E+00 -0.45593999997E+02  0.45594000000E+02  0.51100000000E-03 0. -1.
    9900012    2    1    2    0    0  0.82900703919E+01 -0.12345488442E+02 -0.11381438068E+02  0.72461722087E+02  0.70000197738E+02 0.  0.
        -12    1    1    2    0    0 -0.82900703919E+01  0.12345488442E+02  0.11381438068E+02  0.18726277913E+02  0.00000000000E+00 0.  1.
         11    1    3    3    0    0  0.10385920730E+02  0.12081073303E+02 -0.41940489153E+01  0.16474517538E+02  0.51100000000E-03 0. -1.
        -11    1    3    3    0    0  0.60810381263E+00 -0.28200968890E+02  0.15939010707E+02  0.32399328684E+02  0.51100000000E-03 0.  1.
         12    1    3    3    0    0 -0.27039541510E+01  0.37744071452E+01 -0.23126399859E+02  0.23587875865E+02  0.00000000000E+00 0. -1.
</event>
<event>
 7    1  0.2700104E-013  0.7246161E+02  0.7816164E-02  0.1226708E+00
        -11   -1    0    0    0    0  0.00000000000E+00  0.00000000000E+00  0.45593999997E+02  0.45594000000E+02  0.51100000000E-03 0.  1.
         11   -1    0    0    0    0 -0.00000000000E+00 -0.00000000000E+00 -0.45593999997E+02  0.45594000000E+02  0.51100000000E-03 0. -1.
    9900012    2    1    2    0    0  0.15520488778E+02 -0.50282118925E+01  0.91928918859E+01  0.72461608250E+02  0.70000049444E+02 0.  0.
        -12    1    1    2    0    0 -0.15520488778E+02  0.50282118925E+01 -0.91928918859E+01  0.18726391750E+02  0.00000000000E+00 0.  1.
         11    1    3    3    0    0 -0.10184253974E+02 -0.22855073174E+02 -0.15079330366E+02  0.29214030932E+02  0.51100000000E-03 0. -1.
        -11    1    3    3    0    0 -0.20750408819E+01  0.37900491332E+01  0.11419633856E+01  0.44692670237E+01  0.51100000000E-03 0.  1.
        -12    1    3    3    0    0  0.27779783634E+02  0.14036812148E+02  0.23130258866E+02  0.38778310294E+02  0.00000000000E+00 0.  1.
</event>
<event>
 7    1  0.2700104E-013  0.7246147E+02  0.7816164E-02  0.1226708E+00
        -11   -1    0    0    0    0  0.00000000000E+00  0.00000000000E+00  0.45593999997E+02  0.45594000000E+02  0.51100000000E-03 0.  1.
         11   -1    0    0    0    0 -0.00000000000E+00 -0.00000000000E+00 -0.45593999997E+02  0.45594000000E+02  0.51100000000E-03 0. -1.
    9900012    2    1    2    0    0  0.17014300094E+02 -0.69712925511E+01 -0.35493176641E+01  0.72461468463E+02  0.69999867346E+02 0.  0.
        -12    1    1    2    0    0 -0.17014300094E+02  0.69712925511E+01  0.35493176641E+01  0.18726531537E+02  0.00000000000E+00 0.  1.
         11    1    3    3    0    0  0.28499835856E+01  0.69502869041E+01 -0.81441610289E+01  0.11079542121E+02  0.51100000000E-03 0. -1.
        -11    1    3    3    0    0  0.18435453079E+02  0.18336576454E+02  0.10974127169E+02  0.28222817607E+02  0.51100000000E-03 0.  1.
         12    1    3    3    0    0 -0.42711365711E+01 -0.32258155909E+02 -0.63792838040E+01  0.33159108735E+02  0.00000000000E+00 0. -1.
</event>
<event>
 7    1  0.2700104E-013  0.7246159E+02  0.7816164E-02  0.1226708E+00
        -11   -1    0    0    0    0  0.00000000000E+00  0.00000000000E+00  0.45593999997E+02  0.45594000000E+02  0.51100000000E-03 0.  1.
         11   -1    0    0    0    0 -0.00000000000E+00 -0.00000000000E+00 -0.45593999997E+02  0.45594000000E+02  0.51100000000E-03 0. -1.
    9900012    2    1    2    0    0  0.96142399501E+01  0.12553627640E+02 -0.10032510996E+02  0.72461589409E+02  0.70000024900E+02 0.  0.
        -12    1    1    2    0    0 -0.96142399501E+01 -0.12553627640E+02  0.10032510996E+02  0.18726410591E+02  0.00000000000E+00 0.  1.
         11    1    3    3    0    0 -0.49358710429E+01  0.12044528701E+02 -0.15048784497E+01  0.13103364224E+02  0.51100000000E-03 0. -1.
        -11    1    3    3    0    0  0.24337724610E+02  0.96766012740E+01  0.16506482847E+02  0.30958446790E+02  0.51100000000E-03 0.  1.
         12    1    3    3    0    0 -0.97876136165E+01 -0.91675023347E+01 -0.25034115394E+02  0.28399778395E+02  0.00000000000E+00 0. -1.
</event>
<event>
 7    1  0.2700104E-013  0.7246154E+02  0.7816164E-02  0.1226708E+00
        -11   -1    0    0    0    0  0.00000000000E+00  0.00000000000E+00  0.45593999997E+02  0.45594000000E+02  0.51100000000E-03 0.  1.
         11   -1    0    0    0    0 -0.00000000000E+00 -0.00000000000E+00 -0.45593999997E+02  0.45594000000E+02  0.51100000000E-03 0. -1.
    9900012    2    1    2    0    0 -0.92826122304E+01  0.15763620539E+02  0.40027018899E+01  0.72461541586E+02  0.69999962602E+02 0.  0.
        -12    1    1    2    0    0  0.92826122304E+01 -0.15763620539E+02 -0.40027018899E+01  0.18726458414E+02  0.00000000000E+00 0.  1.
         11    1    3    3    0    0 -0.18125979119E+02  0.22282481407E+01 -0.27524831358E+01  0.18468686268E+02  0.51100000000E-03 0. -1.
        -11    1    3    3    0    0  0.14097280499E+02  0.14814927696E+02 -0.18856251715E+02  0.27816786822E+02  0.51100000000E-03 0.  1.
         12    1    3    3    0    0 -0.52539136108E+01 -0.12795552976E+01  0.25611436741E+02  0.26176068496E+02  0.00000000000E+00 0. -1.
</event>
<event>
 7    1  0.2700104E-013  0.7246136E+02  0.7816164E-02  0.1226709E+00
        -11   -1    0    0    0    0  0.00000000000E+00  0.00000000000E+00  0.45593999997E+02  0.45594000000E+02  0.51100000000E-03 0. -1.
         11   -1    0    0    0    0 -0.00000000000E+00 -0.00000000000E+00 -0.45593999997E+02  0.45594000000E+02  0.51100000000E-03 0.  1.
    9900012    2    1    2    0    0 -0.53026461043E+01  0.15258306088E+02  0.94738133202E+01  0.72461358571E+02  0.69999724190E+02 0.  0.
        -12    1    1    2    0    0  0.53026461043E+01 -0.15258306088E+02 -0.94738133202E+01  0.18726641429E+02  0.00000000000E+00 0.  1.
         11    1    3    3    0    0 -0.61332813547E+01 -0.77179910766E+01  0.18416986009E+02  0.20889468647E+02  0.51100000000E-03 0. -1.
        -11    1    3    3    0    0 -0.19014301971E+02  0.65660062038E+01 -0.15030356556E+02  0.25111107809E+02  0.51100000000E-03 0.  1.
        -12    1    3    3    0    0  0.19844937222E+02  0.16410290961E+02  0.60871838671E+01  0.26460782116E+02  0.00000000000E+00 0.  1.
</event>
<event>
 7    1  0.2700104E-013  0.7246164E+02  0.7816164E-02  0.1226708E+00
        -11   -1    0    0    0    0  0.00000000000E+00  0.00000000000E+00  0.45593999997E+02  0.45594000000E+02  0.51100000000E-03 0.  1.
         11   -1    0    0    0    0 -0.00000000000E+00 -0.00000000000E+00 -0.45593999997E+02  0.45594000000E+02  0.51100000000E-03 0. -1.
    9900012    2    1    2    0    0 -0.14385474138E+00  0.18181685492E+02 -0.44813277089E+01  0.72461636777E+02  0.70000086606E+02 0.  0.
        -12    1    1    2    0    0  0.14385474138E+00 -0.18181685492E+02  0.44813277089E+01  0.18726363223E+02  0.00000000000E+00 0.  1.
         11    1    3    3    0    0 -0.17028710011E+02  0.27529997517E+02 -0.16370095349E+02  0.36274753616E+02  0.51100000000E-03 0. -1.
        -11    1    3    3    0    0 -0.39540613386E+01  0.45327956509E+01 -0.33404033206E+01  0.68803438931E+01  0.51100000000E-03 0.  1.
        -12    1    3    3    0    0  0.20838916608E+02 -0.13881107676E+02  0.15229170961E+02  0.29306539268E+02  0.00000000000E+00 0.  1.
</event>
<event>
 7    1  0.2700104E-013  0.7246156E+02  0.7816164E-02  0.1226708E+00
        -11   -1    0    0    0    0  0.00000000000E+00  0.00000000000E+00  0.45593999997E+02  0.45594000000E+02  0.51100000000E-03 0. -1.
         11   -1    0    0    0    0 -0.00000000000E+00 -0.00000000000E+00 -0.45593999997E+02  0.45594000000E+02  0.51100000000E-03 0.  1.
    9900012    2    1    2    0    0 -0.16881692123E+02  0.80353711814E+01  0.10587203178E+01  0.72461558595E+02  0.69999984760E+02 0.  0.
        -12    1    1    2    0    0  0.16881692123E+02 -0.80353711814E+01 -0.10587203178E+01  0.18726441405E+02  0.00000000000E+00 0.  1.
         11    1    3    3    0    0  0.19627017651E+01 -0.34994568171E+00  0.17208698455E+02  0.17323797591E+02  0.51100000000E-03 0. -1.
        -11    1    3    3    0    0  0.36589352009E+01  0.16977442230E+02  0.96276412947E+01  0.19857311717E+02  0.51100000000E-03 0.  1.
         12    1    3    3    0    0 -0.22503329089E+02 -0.85921253664E+01 -0.25777619431E+02  0.35280449288E+02  0.00000000000E+00 0. -1.
</event>
<event>
 7    1  0.2700104E-013  0.7246155E+02  0.7816164E-02  0.1226708E+00
        -11   -1    0    0    0    0  0.00000000000E+00  0.00000000000E+00  0.45593999997E+02  0.45594000000E+02  0.51100000000E-03 0.  1.
         11   -1    0    0    0    0 -0.00000000000E+00 -0.00000000000E+00 -0.45593999997E+02  0.45594000000E+02  0.51100000000E-03 0. -1.
    9900012    2    1    2    0    0  0.18716391806E+02  0.28101693518E+00  0.54558299697E+00  0.72461549360E+02  0.69999972730E+02 0.  0.
        -12    1    1    2    0    0 -0.18716391806E+02 -0.28101693518E+00 -0.54558299697E+00  0.18726450640E+02  0.00000000000E+00 0.  1.
         11    1    3    3    0    0  0.96044646868E+00 -0.13772432106E+02  0.10260151162E+02  0.17200960603E+02  0.51100000000E-03 0. -1.
        -11    1    3    3    0    0 -0.89422303561E+01 -0.20510810728E+01  0.13546160366E+02  0.16360589177E+02  0.51100000000E-03 0.  1.
         12    1    3    3    0    0  0.26698175693E+02  0.16104530114E+02 -0.23260728531E+02  0.38899999580E+02  0.00000000000E+00 0. -1.
</event>
<event>
 7    1  0.2700104E-013  0.7246156E+02  0.7816164E-02  0.1226708E+00
        -11   -1    0    0    0    0  0.00000000000E+00  0.00000000000E+00  0.45593999997E+02  0.45594000000E+02  0.51100000000E-03 0.  1.
         11   -1    0    0    0    0 -0.00000000000E+00 -0.00000000000E+00 -0.45593999997E+02  0.45594000000E+02  0.51100000000E-03 0. -1.
    9900012    2    1    2    0    0  0.10350968335E+02  0.15585335158E+02  0.79640673680E+00  0.72461561974E+02  0.69999989161E+02 0.  0.
        -12    1    1    2    0    0 -0.10350968335E+02 -0.15585335158E+02 -0.79640673680E+00  0.18726438026E+02  0.00000000000E+00 0.  1.
         11    1    3    3    0    0  0.19836014368E+02 -0.96442198559E+01 -0.12896323045E+02  0.25549825655E+02  0.51100000000E-03 0. -1.
        -11    1    3    3    0    0 -0.41908862051E+01  0.12553197945E+02 -0.11943513378E+02  0.17826772503E+02  0.51100000000E-03 0.  1.
        -12    1    3    3    0    0 -0.52941598285E+01  0.12676357069E+02  0.25636243159E+02  0.29084963816E+02  0.00000000000E+00 0.  1.
</event>
<event>
 7    1  0.2700104E-013  0.7246160E+02  0.7816164E-02  0.1226708E+00
        -11   -1    0    0    0    0  0.00000000000E+00  0.00000000000E+00  0.45593999997E+02  0.45594000000E+02  0.51100000000E-03 0. -1.
         11   -1    0    0    0    0 -0.00000000000E+00 -0.00000000000E+00 -0.45593999997E+02  0.45594000000E+02  0.51100000000E-03 0.  1.
    9900012    2    1    2    0    0 -0.31388215553E+01 -0.65855634453E+01  0.17246922214E+02  0.72461596915E+02  0.70000034678E+02 0.  0.
        -12    1    1    2    0    0  0.31388215553E+01  0.65855634453E+01 -0.17246922214E+02  0.18726403085E+02  0.00000000000E+00 0.  1.
         11    1    3    3    0    0  0.30665218246E+02 -0.93385765066E+01  0.79291269202E+01  0.33021745490E+02  0.51100000000E-03 0. -1.
        -11    1    3    3    0    0 -0.38726938304E+00 -0.36488077409E+01  0.32023037648E+01  0.48701668522E+01  0.51100000000E-03 0.  1.
        -12    1    3    3    0    0 -0.33416770418E+02  0.64018208023E+01  0.61154915293E+01  0.34569684572E+02  0.00000000000E+00 0.  1.
</event>
<event>
 7    1  0.2700104E-013  0.7246153E+02  0.7816164E-02  0.1226708E+00
        -11   -1    0    0    0    0  0.00000000000E+00  0.00000000000E+00  0.45593999997E+02  0.45594000000E+02  0.51100000000E-03 0.  1.
         11   -1    0    0    0    0 -0.00000000000E+00 -0.00000000000E+00 -0.45593999997E+02  0.45594000000E+02  0.51100000000E-03 0. -1.
    9900012    2    1    2    0    0 -0.86252846219E+01  0.49284784646E+01 -0.15874355427E+02  0.72461532233E+02  0.69999950418E+02 0.  0.
        -12    1    1    2    0    0  0.86252846219E+01 -0.49284784646E+01  0.15874355427E+02  0.18726467767E+02  0.00000000000E+00 0.  1.
         11    1    3    3    0    0 -0.21118659665E+02  0.51778605171E+01 -0.21037257373E+02  0.30255152018E+02  0.51100000000E-03 0. -1.
        -11    1    3    3    0    0  0.84794312992E+01  0.61089744537E+01 -0.16357006466E+02  0.19410615261E+02  0.51100000000E-03 0.  1.
        -12    1    3    3    0    0  0.40139437439E+01 -0.63583565062E+01  0.21519908411E+02  0.22795764955E+02  0.00000000000E+00 0.  1.
</event>
<event>
 7    1  0.2700104E-013  0.7246154E+02  0.7816164E-02  0.1226708E+00
        -11   -1    0    0    0    0  0.00000000000E+00  0.00000000000E+00  0.45593999997E+02  0.45594000000E+02  0.51100000000E-03 0. -1.
         11   -1    0    0    0    0 -0.00000000000E+00 -0.00000000000E+00 -0.45593999997E+02  0.45594000000E+02  0.51100000000E-03 0.  1.
    9900012    2    1    2    0    0 -0.58354094292E+01  0.93446558271E+01  0.15142849003E+02  0.72461535527E+02  0.69999954709E+02 0.  0.
        -12    1    1    2    0    0  0.58354094292E+01 -0.93446558271E+01 -0.15142849003E+02  0.18726464473E+02  0.00000000000E+00 0.  1.
         11    1    3    3    0    0  0.82977106083E+01  0.96404664422E+01  0.12052825253E+01  0.12776670176E+02  0.51100000000E-03 0. -1.
        -11    1    3    3    0    0  0.83698657533E+01  0.48730219847E+01 -0.17902474342E+02  0.20354350489E+02  0.51100000000E-03 0.  1.
         12    1    3    3    0    0 -0.22502985791E+02 -0.51688325998E+01  0.31840040820E+02  0.39330514862E+02  0.00000000000E+00 0. -1.
</event>
<event>
 7    1  0.2700104E-013  0.7246154E+02  0.7816164E-02  0.1226708E+00
        -11   -1    0    0    0    0  0.00000000000E+00  0.00000000000E+00  0.45593999997E+02  0.45594000000E+02  0.51100000000E-03 0.  1.
         11   -1    0    0    0    0 -0.00000000000E+00 -0.00000000000E+00 -0.45593999997E+02  0.45594000000E+02  0.51100000000E-03 0. -1.
    9900012    2    1    2    0    0 -0.85632969922E+01  0.16411136044E+02  0.28328086037E+01  0.72461541546E+02  0.69999962550E+02 0.  0.
        -12    1    1    2    0    0  0.85632969922E+01 -0.16411136044E+02 -0.28328086037E+01  0.18726458454E+02  0.00000000000E+00 0.  1.
         11    1    3    3    0    0  0.18213298235E+01  0.14016033002E+02 -0.60754807987E+01  0.15384339136E+02  0.51100000000E-03 0. -1.
        -11    1    3    3    0    0  0.67753689245E+01 -0.22661067161E+02  0.12052164146E+02  0.26545889509E+02  0.51100000000E-03 0.  1.
         12    1    3    3    0    0 -0.17159995740E+02  0.25056170203E+02 -0.31438747433E+01  0.30531312901E+02  0.00000000000E+00 0. -1.
</event>
<event>
 7    1  0.2700104E-013  0.7246153E+02  0.7816164E-02  0.1226708E+00
        -11   -1    0    0    0    0  0.00000000000E+00  0.00000000000E+00  0.45593999997E+02  0.45594000000E+02  0.51100000000E-03 0. -1.
         11   -1    0    0    0    0 -0.00000000000E+00 -0.00000000000E+00 -0.45593999997E+02  0.45594000000E+02  0.51100000000E-03 0.  1.
    9900012    2    1    2    0    0  0.85093630831E+01 -0.45341249295E+01  0.16053440366E+02  0.72461534862E+02  0.69999953843E+02 0.  0.
        -12    1    1    2    0    0 -0.85093630831E+01  0.45341249295E+01 -0.16053440366E+02  0.18726465138E+02  0.00000000000E+00 0.  1.
         11    1    3    3    0    0 -0.28632319947E+02  0.24057039699E+01  0.10007553748E+02  0.30426111967E+02  0.51100000000E-03 0. -1.
        -11    1    3    3    0    0  0.49800811988E+01  0.38676719084E+01  0.50724088344E+01  0.80925537615E+01  0.51100000000E-03 0.  1.
        -12    1    3    3    0    0  0.32161601831E+02 -0.10807500808E+02  0.97347778334E+00  0.33942869134E+02  0.00000000000E+00 0.  1.
</event>
<event>
 7    1  0.2700104E-013  0.7246152E+02  0.7816164E-02  0.1226708E+00
        -11   -1    0    0    0    0  0.00000000000E+00  0.00000000000E+00  0.45593999997E+02  0.45594000000E+02  0.51100000000E-03 0.  1.
         11   -1    0    0    0    0 -0.00000000000E+00 -0.00000000000E+00 -0.45593999997E+02  0.45594000000E+02  0.51100000000E-03 0. -1.
    9900012    2    1    2    0    0 -0.72522378234E+01 -0.15790028328E+02 -0.69829054093E+01  0.72461523663E+02  0.69999939254E+02 0.  0.
        -12    1    1    2    0    0  0.72522378234E+01  0.15790028328E+02  0.69829054093E+01  0.18726476337E+02  0.00000000000E+00 0.  1.
         11    1    3    3    0    0  0.12439688218E+02 -0.42302819925E+01 -0.16755210110E+02  0.21292679371E+02  0.51100000000E-03 0. -1.
        -11    1    3    3    0    0  0.80595803181E+01  0.10737141233E+02 -0.22123102739E+01  0.13606518797E+02  0.51100000000E-03 0.  1.
        -12    1    3    3    0    0 -0.27751506360E+02 -0.22296887568E+02  0.11984614975E+02  0.37562325495E+02  0.00000000000E+00 0.  1.
</event>
<event>
 7    1  0.2700104E-013  0.7246157E+02  0.7816164E-02  0.1226708E+00
        -11   -1    0    0    0    0  0.00000000000E+00  0.00000000000E+00  0.45593999997E+02  0.45594000000E+02  0.51100000000E-03 0.  1.
         11   -1    0    0    0    0 -0.00000000000E+00 -0.00000000000E+00 -0.45593999997E+02  0.45594000000E+02  0.51100000000E-03 0. -1.
    9900012    2    1    2    0    0  0.30005346986E+01 -0.17548197797E+02 -0.58083219769E+01  0.72461573257E+02  0.70000003859E+02 0.  0.
        -12    1    1    2    0    0 -0.30005346986E+01  0.17548197797E+02  0.58083219769E+01  0.18726426743E+02  0.00000000000E+00 0.  1.
         11    1    3    3    0    0 -0.69684879867E+01 -0.14248211985E+01 -0.18631798960E+02  0.19943266358E+02  0.51100000000E-03 0. -1.
        -11    1    3    3    0    0 -0.11246830836E+02  0.38851272292E+01 -0.99549925339E+01  0.15514099847E+02  0.51100000000E-03 0.  1.
        -12    1    3    3    0    0  0.21215853521E+02 -0.20008503827E+02  0.22778469517E+02  0.37004207052E+02  0.00000000000E+00 0.  1.
</event>
<event>
 7    1  0.2700104E-013  0.7246163E+02  0.7816164E-02  0.1226708E+00
        -11   -1    0    0    0    0  0.00000000000E+00  0.00000000000E+00  0.45593999997E+02  0.45594000000E+02  0.51100000000E-03 0.  1.
         11   -1    0    0    0    0 -0.00000000000E+00 -0.00000000000E+00 -0.45593999997E+02  0.45594000000E+02  0.51100000000E-03 0. -1.
    9900012    2    1    2    0    0  0.11318283963E+02 -0.11298265734E+02  0.97428297668E+01  0.72461625756E+02  0.70000072249E+02 0.  0.
        -12    1    1    2    0    0 -0.11318283963E+02  0.11298265734E+02 -0.97428297668E+01  0.18726374244E+02  0.00000000000E+00 0.  1.
         11    1    3    3    0    0 -0.92283260505E+01 -0.60903435523E+01  0.17425213707E+01  0.11193331375E+02  0.51100000000E-03 0. -1.
        -11    1    3    3    0    0  0.14695145613E+02 -0.23491355923E+02 -0.14839423796E+02  0.31432461032E+02  0.51100000000E-03 0.  1.
        -12    1    3    3    0    0  0.58514643999E+01  0.18283433740E+02  0.22839732193E+02  0.29835833348E+02  0.00000000000E+00 0.  1.
</event>
<event>
 7    1  0.2700104E-013  0.7246158E+02  0.7816164E-02  0.1226708E+00
        -11   -1    0    0    0    0  0.00000000000E+00  0.00000000000E+00  0.45593999997E+02  0.45594000000E+02  0.51100000000E-03 0. -1.
         11   -1    0    0    0    0 -0.00000000000E+00 -0.00000000000E+00 -0.45593999997E+02  0.45594000000E+02  0.51100000000E-03 0.  1.
    9900012    2    1    2    0    0 -0.68868709042E+01  0.72215039129E+01  0.15846125893E+02  0.72461579749E+02  0.70000012316E+02 0.  0.
        -12    1    1    2    0    0  0.68868709042E+01 -0.72215039129E+01 -0.15846125893E+02  0.18726420251E+02  0.00000000000E+00 0.  1.
         11    1    3    3    0    0  0.65158206752E+01 -0.21861320181E+02  0.14364233140E+02  0.26957455983E+02  0.51100000000E-03 0. -1.
        -11    1    3    3    0    0 -0.84060976132E-01 -0.64679730700E+01 -0.32631666766E+01  0.72449981989E+01  0.51100000000E-03 0.  1.
        -12    1    3    3    0    0 -0.13318630603E+02  0.35550797164E+02  0.47450594290E+01  0.38259125566E+02  0.00000000000E+00 0.  1.
</event>
<event>
 7    1  0.2700104E-013  0.7246158E+02  0.7816164E-02  0.1226708E+00
        -11   -1    0    0    0    0  0.00000000000E+00  0.00000000000E+00  0.45593999997E+02  0.45594000000E+02  0.51100000000E-03 0. -1.
         11   -1    0    0    0    0 -0.00000000000E+00 -0.00000000000E+00 -0.45593999997E+02  0.45594000000E+02  0.51100000000E-03 0.  1.
    9900012    2    1    2    0    0  0.17880664934E+02 -0.15034554618E+01  0.53572699668E+01  0.72461577536E+02  0.70000009433E+02 0.  0.
        -12    1    1    2    0    0 -0.17880664934E+02  0.15034554618E+01 -0.53572699668E+01  0.18726422464E+02  0.00000000000E+00 0.  1.
         11    1    3    3    0    0  0.21074709479E+02  0.16643916312E+02  0.18998461995E+02  0.32895362716E+02  0.51100000000E-03 0. -1.
        -11    1    3    3    0    0  0.10717718436E+02 -0.20402935301E+02 -0.83995524876E+01  0.24529609447E+02  0.51100000000E-03 0.  1.
         12    1    3    3    0    0 -0.13911762981E+02  0.22555635277E+01 -0.52416395405E+01  0.15036605373E+02  0.00000000000E+00 0. -1.
</event>
<event>
 7    1  0.2700104E-013  0.7246157E+02  0.7816164E-02  0.1226708E+00
        -11   -1    0    0    0    0  0.00000000000E+00  0.00000000000E+00  0.45593999997E+02  0.45594000000E+02  0.51100000000E-03 0.  1.
         11   -1    0    0    0    0 -0.00000000000E+00 -0.00000000000E+00 -0.45593999997E+02  0.45594000000E+02  0.51100000000E-03 0. -1.
    9900012    2    1    2    0    0 -0.41552937444E+01 -0.54543728620E+01 -0.17425913878E+02  0.72461571513E+02  0.70000001587E+02 0.  0.
        -12    1    1    2    0    0  0.41552937444E+01  0.54543728620E+01  0.17425913878E+02  0.18726428487E+02  0.00000000000E+00 0.  1.
         11    1    3    3    0    0 -0.49861585282E+01 -0.29792454318E+02 -0.26044888318E+02  0.39884687775E+02  0.51100000000E-03 0.  1.
        -11    1    3    3    0    0 -0.29826842239E+01  0.18054095907E+01 -0.49081002338E+01  0.60204117082E+01  0.51100000000E-03 0. -1.
        -12    1    3    3    0    0  0.38135490077E+01  0.22532671865E+02  0.13527074674E+02  0.26556472030E+02  0.00000000000E+00 0.  1.
</event>
<event>
 7    1  0.3715985E-013  0.7246158E+02  0.7816164E-02  0.1226708E+00
        -11   -1    0    0    0    0  0.00000000000E+00  0.00000000000E+00  0.45593999997E+02  0.45594000000E+02  0.51100000000E-03 0. -1.
         11   -1    0    0    0    0 -0.00000000000E+00 -0.00000000000E+00 -0.45593999997E+02  0.45594000000E+02  0.51100000000E-03 0.  1.
    9900012    2    1    2    0    0 -0.88063590468E+01  0.89709598683E+01  0.13879794323E+02  0.72461580933E+02  0.70000013859E+02 0.  0.
        -12    1    1    2    0    0  0.88063590468E+01 -0.89709598683E+01 -0.13879794323E+02  0.18726419067E+02  0.00000000000E+00 0.  1.
         11    1    3    3    0    0 -0.55570762557E+01 -0.93687464979E+01  0.31257970915E+02  0.33101589893E+02  0.51100000000E-03 0. -1.
        -11    1    3    3    0    0  0.95251762089E+01  0.23161967194E+01  0.32066695961E+01  0.10313897382E+02  0.51100000000E-03 0.  1.
        -12    1    3    3    0    0 -0.12774459000E+02  0.16023509647E+02 -0.20584846189E+02  0.29046093658E+02  0.00000000000E+00 0.  1.
</event>
<event>
 7    1  0.2700104E-013  0.7246155E+02  0.7816164E-02  0.1226708E+00
        -11   -1    0    0    0    0  0.00000000000E+00  0.00000000000E+00  0.45593999997E+02  0.45594000000E+02  0.51100000000E-03 0.  1.
         11   -1    0    0    0    0 -0.00000000000E+00 -0.00000000000E+00 -0.45593999997E+02  0.45594000000E+02  0.51100000000E-03 0. -1.
    9900012    2    1    2    0    0 -0.15973790116E+02  0.96241301987E+01 -0.17011770097E+01  0.72461551966E+02  0.69999976124E+02 0.  0.
        -12    1    1    2    0    0  0.15973790116E+02 -0.96241301987E+01  0.17011770097E+01  0.18726448034E+02  0.00000000000E+00 0.  1.
         11    1    3    3    0    0  0.50214152005E+01 -0.32328919938E+01  0.68401175404E+01  0.90803859767E+01  0.51100000000E-03 0. -1.
        -11    1    3    3    0    0  0.30224390783E+01 -0.16481929061E+02  0.11664868377E+02  0.20417107485E+02  0.51100000000E-03 0.  1.
         12    1    3    3    0    0 -0.24017644394E+02  0.29338951254E+02 -0.20206162927E+02  0.42964058504E+02  0.00000000000E+00 0. -1.
</event>
<event>
 7    1  0.2700104E-013  0.7246155E+02  0.7816164E-02  0.1226708E+00
        -11   -1    0    0    0    0  0.00000000000E+00  0.00000000000E+00  0.45593999997E+02  0.45594000000E+02  0.51100000000E-03 0.  1.
         11   -1    0    0    0    0 -0.00000000000E+00 -0.00000000000E+00 -0.45593999997E+02  0.45594000000E+02  0.51100000000E-03 0. -1.
    9900012    2    1    2    0    0  0.73756269648E+01  0.63873171234E+01 -0.15983812031E+02  0.72461549717E+02  0.69999973194E+02 0.  0.
        -12    1    1    2    0    0 -0.73756269648E+01 -0.63873171234E+01  0.15983812031E+02  0.18726450283E+02  0.00000000000E+00 0.  1.
         11    1    3    3    0    0 -0.13280877186E+01 -0.26353543166E+02 -0.22726187764E+02  0.34824598561E+02  0.51100000000E-03 0. -1.
        -11    1    3    3    0    0  0.77363942347E+01  0.15845398011E+02 -0.33275983217E+01  0.17944395914E+02  0.51100000000E-03 0.  1.
        -12    1    3    3    0    0  0.96732044866E+00  0.16895462279E+02  0.10069974055E+02  0.19692555241E+02  0.00000000000E+00 0.  1.
</event>
<event>
 7    1  0.2700104E-013  0.7246160E+02  0.7816164E-02  0.1226708E+00
        -11   -1    0    0    0    0  0.00000000000E+00  0.00000000000E+00  0.45593999997E+02  0.45594000000E+02  0.51100000000E-03 0.  1.
         11   -1    0    0    0    0 -0.00000000000E+00 -0.00000000000E+00 -0.45593999997E+02  0.45594000000E+02  0.51100000000E-03 0. -1.
    9900012    2    1    2    0    0  0.24262688768E+01  0.89602859549E+01 -0.16263601423E+02  0.72461595212E+02  0.70000032459E+02 0.  0.
        -12    1    1    2    0    0 -0.24262688768E+01 -0.89602859549E+01  0.16263601423E+02  0.18726404788E+02  0.00000000000E+00 0.  1.
         11    1    3    3    0    0 -0.22096694451E+02  0.48721732653E+01 -0.55448283740E+01  0.23296933274E+02  0.51100000000E-03 0. -1.
        -11    1    3    3    0    0 -0.39137140167E+01 -0.64551152472E+01 -0.16632300931E+02  0.18265243080E+02  0.51100000000E-03 0.  1.
        -12    1    3    3    0    0  0.28436677345E+02  0.10543227937E+02  0.59135278817E+01  0.30899418858E+02  0.00000000000E+00 0.  1.
</event>
<event>
 7    1  0.2700104E-013  0.7246156E+02  0.7816164E-02  0.1226708E+00
        -11   -1    0    0    0    0  0.00000000000E+00  0.00000000000E+00  0.45593999997E+02  0.45594000000E+02  0.51100000000E-03 0. -1.
         11   -1    0    0    0    0 -0.00000000000E+00 -0.00000000000E+00 -0.45593999997E+02  0.45594000000E+02  0.51100000000E-03 0.  1.
    9900012    2    1    2    0    0 -0.45526529045E+01 -0.16153463019E+02  0.83077341994E+01  0.72461562445E+02  0.69999989775E+02 0.  0.
        -12    1    1    2    0    0  0.45526529045E+01  0.16153463019E+02 -0.83077341994E+01  0.18726437555E+02  0.00000000000E+00 0.  1.
         11    1    3    3    0    0 -0.21993580690E+02 -0.31241182429E+02  0.70719354246E+01  0.38855390129E+02  0.51100000000E-03 0. -1.
        -11    1    3    3    0    0 -0.43853290399E+01  0.67540054126E+01 -0.49313497799E+01  0.94427702934E+01  0.51100000000E-03 0.  1.
        -12    1    3    3    0    0  0.21826256826E+02  0.83337139978E+01  0.61671485548E+01  0.24163402023E+02  0.00000000000E+00 0.  1.
</event>
<event>
 7    1  0.2700104E-013  0.7246165E+02  0.7816164E-02  0.1226708E+00
        -11   -1    0    0    0    0  0.00000000000E+00  0.00000000000E+00  0.45593999997E+02  0.45594000000E+02  0.51100000000E-03 0. -1.
         11   -1    0    0    0    0 -0.00000000000E+00 -0.00000000000E+00 -0.45593999997E+02  0.45594000000E+02  0.51100000000E-03 0.  1.
    9900012    2    1    2    0    0  0.90669758680E+01  0.16065370703E+02  0.32202678539E+01  0.72461646584E+02  0.70000099381E+02 0.  0.
        -12    1    1    2    0    0 -0.90669758680E+01 -0.16065370703E+02 -0.32202678539E+01  0.18726353416E+02  0.00000000000E+00 0.  1.
         11    1    3    3    0    0  0.28638035990E+00 -0.64550389058E+01  0.68438311911E+01  0.94120968238E+01  0.51100000000E-03 0. -1.
        -11    1    3    3    0    0 -0.27335695493E+01  0.27198580079E+01  0.25617179982E+02  0.25905789711E+02  0.51100000000E-03 0.  1.
        -12    1    3    3    0    0  0.11514165057E+02  0.19800551601E+02 -0.29240743320E+02  0.37143760049E+02  0.00000000000E+00 0.  1.
</event>
<event>
 7    1  0.2700104E-013  0.7246157E+02  0.7816164E-02  0.1226708E+00
        -11   -1    0    0    0    0  0.00000000000E+00  0.00000000000E+00  0.45593999997E+02  0.45594000000E+02  0.51100000000E-03 0.  1.
         11   -1    0    0    0    0 -0.00000000000E+00 -0.00000000000E+00 -0.45593999997E+02  0.45594000000E+02  0.51100000000E-03 0. -1.
    9900012    2    1    2    0    0  0.21047389628E+00  0.18553412890E+02 -0.25309805083E+01  0.72461567038E+02  0.69999995758E+02 0.  0.
        -12    1    1    2    0    0 -0.21047389628E+00 -0.18553412890E+02  0.25309805083E+01  0.18726432962E+02  0.00000000000E+00 0.  1.
         11    1    3    3    0    0 -0.64575005233E+01  0.66142318282E+01 -0.43704723534E+01  0.10224891419E+02  0.51100000000E-03 0. -1.
        -11    1    3    3    0    0 -0.20565293810E+02  0.23526415247E+02 -0.55390440419E+01  0.31734910320E+02  0.51100000000E-03 0.  1.
        -12    1    3    3    0    0  0.27233268229E+02 -0.11587234185E+02  0.73785358870E+01  0.30501765299E+02  0.00000000000E+00 0.  1.
</event>
<event>
 7    1  0.2700104E-013  0.7246162E+02  0.7816164E-02  0.1226708E+00
        -11   -1    0    0    0    0  0.00000000000E+00  0.00000000000E+00  0.45593999997E+02  0.45594000000E+02  0.51100000000E-03 0.  1.
         11   -1    0    0    0    0 -0.00000000000E+00 -0.00000000000E+00 -0.45593999997E+02  0.45594000000E+02  0.51100000000E-03 0. -1.
    9900012    2    1    2    0    0  0.17434570678E+02  0.68281735856E+01 -0.29832598420E+00  0.72461622677E+02  0.70000068238E+02 0.  0.
        -12    1    1    2    0    0 -0.17434570678E+02 -0.68281735856E+01  0.29832598420E+00  0.18726377323E+02  0.00000000000E+00 0.  1.
         11    1    3    3    0    0 -0.68867897368E+01 -0.66855809557E+00 -0.16512943386E+02  0.17903970016E+02  0.51100000000E-03 0. -1.
        -11    1    3    3    0    0  0.17513366652E+01  0.88229731396E+01 -0.14109457738E+02  0.16732866851E+02  0.51100000000E-03 0.  1.
        -12    1    3    3    0    0  0.22570023750E+02 -0.13262414585E+01  0.30324075140E+02  0.37824785810E+02  0.00000000000E+00 0.  1.
</event>
<event>
 7    1  0.2700104E-013  0.7246159E+02  0.7816164E-02  0.1226708E+00
        -11   -1    0    0    0    0  0.00000000000E+00  0.00000000000E+00  0.45593999997E+02  0.45594000000E+02  0.51100000000E-03 0. -1.
         11   -1    0    0    0    0 -0.00000000000E+00 -0.00000000000E+00 -0.45593999997E+02  0.45594000000E+02  0.51100000000E-03 0.  1.
    9900012    2    1    2    0    0  0.11489734354E+02  0.55470550015E+01  0.13707471971E+02  0.72461585433E+02  0.70000019720E+02 0.  0.
        -12    1    1    2    0    0 -0.11489734354E+02 -0.55470550015E+01 -0.13707471971E+02  0.18726414567E+02  0.00000000000E+00 0.  1.
         11    1    3    3    0    0  0.22616565803E+02  0.14279849622E+02 -0.66407152571E+01  0.27559431296E+02  0.51100000000E-03 0. -1.
        -11    1    3    3    0    0  0.22773505413E+01 -0.89477460330E+01 -0.88399916355E+01  0.12782563786E+02  0.51100000000E-03 0.  1.
        -12    1    3    3    0    0 -0.13404181990E+02  0.21495141216E+00  0.29188178864E+02  0.32119590351E+02  0.00000000000E+00 0.  1.
</event>
<event>
 7    1  0.2700104E-013  0.7246159E+02  0.7816164E-02  0.1226708E+00
        -11   -1    0    0    0    0  0.00000000000E+00  0.00000000000E+00  0.45593999997E+02  0.45594000000E+02  0.51100000000E-03 0.  1.
         11   -1    0    0    0    0 -0.00000000000E+00 -0.00000000000E+00 -0.45593999997E+02  0.45594000000E+02  0.51100000000E-03 0. -1.
    9900012    2    1    2    0    0 -0.35079152876E+01 -0.16957131335E+02  0.71294275698E+01  0.72461587897E+02  0.70000022931E+02 0.  0.
        -12    1    1    2    0    0  0.35079152876E+01  0.16957131335E+02 -0.71294275698E+01  0.18726412103E+02  0.00000000000E+00 0.  1.
         11    1    3    3    0    0 -0.56924540519E+01 -0.48588699852E+01 -0.19703424243E+02  0.21076944224E+02  0.51100000000E-03 0. -1.
        -11    1    3    3    0    0  0.11097114152E+02 -0.12089283737E+02 -0.59164606053E+01  0.17444232002E+02  0.51100000000E-03 0.  1.
         12    1    3    3    0    0 -0.89125753873E+01 -0.89776121106E-02  0.32749312418E+02  0.33940411672E+02  0.00000000000E+00 0. -1.
</event>
<event>
 7    1  0.2700104E-013  0.7246179E+02  0.7816164E-02  0.1226707E+00
        -11   -1    0    0    0    0  0.00000000000E+00  0.00000000000E+00  0.45593999997E+02  0.45594000000E+02  0.51100000000E-03 0.  1.
         11   -1    0    0    0    0 -0.00000000000E+00 -0.00000000000E+00 -0.45593999997E+02  0.45594000000E+02  0.51100000000E-03 0. -1.
    9900012    2    1    2    0    0 -0.84273669103E-01 -0.34425444795E+01 -0.18406862742E+02  0.72461793483E+02  0.70000290743E+02 0.  0.
        -12    1    1    2    0    0  0.84273669103E-01  0.34425444795E+01  0.18406862742E+02  0.18726206517E+02  0.00000000000E+00 0.  1.
         11    1    3    3    0    0 -0.14327524279E+02  0.51851596020E+00 -0.65946907530E+01  0.15780898490E+02  0.51100000000E-03 0. -1.
        -11    1    3    3    0    0 -0.17454050253E+02 -0.37774265932E+01  0.77124440146E+01  0.19452367847E+02  0.51100000000E-03 0.  1.
         12    1    3    3    0    0  0.31697300863E+02 -0.18363384656E+00 -0.19524616003E+02  0.37228527146E+02  0.00000000000E+00 0. -1.
</event>
<event>
 7    1  0.2700104E-013  0.7246152E+02  0.7816164E-02  0.1226708E+00
        -11   -1    0    0    0    0  0.00000000000E+00  0.00000000000E+00  0.45593999997E+02  0.45594000000E+02  0.51100000000E-03 0.  1.
         11   -1    0    0    0    0 -0.00000000000E+00 -0.00000000000E+00 -0.45593999997E+02  0.45594000000E+02  0.51100000000E-03 0. -1.
    9900012    2    1    2    0    0  0.13407746656E+02  0.10840308719E+00 -0.13072929759E+02  0.72461523713E+02  0.69999939320E+02 0.  0.
        -12    1    1    2    0    0 -0.13407746656E+02 -0.10840308719E+00  0.13072929759E+02  0.18726476287E+02  0.00000000000E+00 0.  1.
         11    1    3    3    0    0  0.20365065565E+02 -0.67075754297E+00 -0.54501081773E+01  0.21092403622E+02  0.51100000000E-03 0. -1.
        -11    1    3    3    0    0  0.28398231017E+01  0.17708726574E+02 -0.21042127429E+02  0.27648412596E+02  0.51100000000E-03 0.  1.
        -12    1    3    3    0    0 -0.97971420107E+01 -0.16929565944E+02  0.13419305847E+02  0.23720707495E+02  0.00000000000E+00 0.  1.
</event>
<event>
 7    1  0.2700104E-013  0.7246158E+02  0.7816164E-02  0.1226708E+00
        -11   -1    0    0    0    0  0.00000000000E+00  0.00000000000E+00  0.45593999997E+02  0.45594000000E+02  0.51100000000E-03 0. -1.
         11   -1    0    0    0    0 -0.00000000000E+00 -0.00000000000E+00 -0.45593999997E+02  0.45594000000E+02  0.51100000000E-03 0.  1.
    9900012    2    1    2    0    0 -0.15472082851E+02 -0.51596350022E+01  0.92017093451E+01  0.72461584540E+02  0.70000018558E+02 0.  0.
        -12    1    1    2    0    0  0.15472082851E+02  0.51596350022E+01 -0.92017093451E+01  0.18726415460E+02  0.00000000000E+00 0.  1.
         11    1    3    3    0    0  0.71699756644E+01 -0.15905722404E+02  0.10082904392E+02  0.20151067403E+02  0.51100000000E-03 0. -1.
        -11    1    3    3    0    0 -0.51403547676E+01 -0.17950046588E+02  0.36715818761E+00  0.18675176707E+02  0.51100000000E-03 0.  1.
        -12    1    3    3    0    0 -0.17501703748E+02  0.28696133990E+02 -0.12483532345E+01  0.33635340430E+02  0.00000000000E+00 0.  1.
</event>
<event>
 7    1  0.2700104E-013  0.7246181E+02  0.7816164E-02  0.1226707E+00
        -11   -1    0    0    0    0  0.00000000000E+00  0.00000000000E+00  0.45593999997E+02  0.45594000000E+02  0.51100000000E-03 0.  1.
         11   -1    0    0    0    0 -0.00000000000E+00 -0.00000000000E+00 -0.45593999997E+02  0.45594000000E+02  0.51100000000E-03 0. -1.
    9900012    2    1    2    0    0 -0.69384740015E+01  0.10210275694E+02 -0.14081119667E+02  0.72461812927E+02  0.70000316073E+02 0.  0.
        -12    1    1    2    0    0  0.69384740015E+01 -0.10210275694E+02  0.14081119667E+02  0.18726187073E+02  0.00000000000E+00 0.  1.
         11    1    3    3    0    0  0.18708128250E+01 -0.22813003583E+02  0.96926373920E+01  0.24857198011E+02  0.51100000000E-03 0. -1.
        -11    1    3    3    0    0 -0.20923279918E+01  0.16627977119E+01  0.42459427913E+01  0.50170472496E+01  0.51100000000E-03 0.  1.
        -12    1    3    3    0    0 -0.67169588347E+01  0.31360481566E+02 -0.28019699850E+02  0.42587567666E+02  0.00000000000E+00 0.  1.
</event>
<event>
 7    1  0.2700104E-013  0.7246157E+02  0.7816164E-02  0.1226708E+00
        -11   -1    0    0    0    0  0.00000000000E+00  0.00000000000E+00  0.45593999997E+02  0.45594000000E+02  0.51100000000E-03 0.  1.
         11   -1    0    0    0    0 -0.00000000000E+00 -0.00000000000E+00 -0.45593999997E+02  0.45594000000E+02  0.51100000000E-03 0. -1.
    9900012    2    1    2    0    0 -0.12839684248E+02 -0.55440003585E+01 -0.12453346338E+02  0.72461567702E+02  0.69999996624E+02 0.  0.
        -12    1    1    2    0    0  0.12839684248E+02  0.55440003585E+01  0.12453346338E+02  0.18726432298E+02  0.00000000000E+00 0.  1.
         11    1    3    3    0    0  0.97786942709E+00  0.82745311270E+01  0.13994676106E+02  0.16287266608E+02  0.51100000000E-03 0.  1.
        -11    1    3    3    0    0 -0.20636528879E+02 -0.27219436336E+02 -0.21426346173E+02  0.40321859446E+02  0.51100000000E-03 0. -1.
         12    1    3    3    0    0  0.68189752037E+01  0.13400904850E+02 -0.50216762717E+01  0.15852441648E+02  0.00000000000E+00 0. -1.
</event>
<event>
 7    1  0.2700104E-013  0.7246157E+02  0.7816164E-02  0.1226708E+00
        -11   -1    0    0    0    0  0.00000000000E+00  0.00000000000E+00  0.45593999997E+02  0.45594000000E+02  0.51100000000E-03 0.  1.
         11   -1    0    0    0    0 -0.00000000000E+00 -0.00000000000E+00 -0.45593999997E+02  0.45594000000E+02  0.51100000000E-03 0. -1.
    9900012    2    1    2    0    0  0.10263044828E+01 -0.28693953079E+01 -0.18476809388E+02  0.72461569067E+02  0.69999998401E+02 0.  0.
        -12    1    1    2    0    0 -0.10263044828E+01  0.28693953079E+01  0.18476809388E+02  0.18726430933E+02  0.00000000000E+00 0.  1.
         11    1    3    3    0    0  0.58648101866E+01  0.11106436127E+02 -0.21645545134E+02  0.25025557864E+02  0.51100000000E-03 0. -1.
        -11    1    3    3    0    0 -0.12050776754E+01  0.16465434733E+02 -0.76579431731E+00  0.16527225851E+02  0.51100000000E-03 0.  1.
        -12    1    3    3    0    0 -0.36334280283E+01 -0.30441266167E+02  0.39345300634E+01  0.30908785352E+02  0.00000000000E+00 0.  1.
</event>
<event>
 7    1  0.2700104E-013  0.7246170E+02  0.7816164E-02  0.1226708E+00
        -11   -1    0    0    0    0  0.00000000000E+00  0.00000000000E+00  0.45593999997E+02  0.45594000000E+02  0.51100000000E-03 0.  1.
         11   -1    0    0    0    0 -0.00000000000E+00 -0.00000000000E+00 -0.45593999997E+02  0.45594000000E+02  0.51100000000E-03 0. -1.
    9900012    2    1    2    0    0 -0.13523826097E+02  0.21828827925E+01 -0.12767743628E+02  0.72461704933E+02  0.70000175391E+02 0.  0.
        -12    1    1    2    0    0  0.13523826097E+02 -0.21828827925E+01  0.12767743628E+02  0.18726295067E+02  0.00000000000E+00 0.  1.
         11    1    3    3    0    0 -0.10781303424E+02 -0.22138021213E+02 -0.23404296097E+02  0.33971893718E+02  0.51100000000E-03 0. -1.
        -11    1    3    3    0    0 -0.76635928032E+00 -0.55814515994E+01  0.58865906733E+01  0.81481199377E+01  0.51100000000E-03 0.  1.
        -12    1    3    3    0    0 -0.19761633928E+01  0.29902355605E+02  0.47499617956E+01  0.30341691277E+02  0.00000000000E+00 0.  1.
</event>
<event>
 7    1  0.2700104E-013  0.7246160E+02  0.7816164E-02  0.1226708E+00
        -11   -1    0    0    0    0  0.00000000000E+00  0.00000000000E+00  0.45593999997E+02  0.45594000000E+02  0.51100000000E-03 0.  1.
         11   -1    0    0    0    0 -0.00000000000E+00 -0.00000000000E+00 -0.45593999997E+02  0.45594000000E+02  0.51100000000E-03 0. -1.
    9900012    2    1    2    0    0  0.34284645760E+01  0.11116449244E+02 -0.14674753218E+02  0.72461596310E+02  0.70000033891E+02 0.  0.
        -12    1    1    2    0    0 -0.34284645760E+01 -0.11116449244E+02  0.14674753218E+02  0.18726403690E+02  0.00000000000E+00 0.  1.
         11    1    3    3    0    0  0.10875673046E+02  0.37673890320E+01 -0.39421459017E+02  0.41067321749E+02  0.51100000000E-03 0. -1.
        -11    1    3    3    0    0 -0.18451630945E+00  0.19138797493E+01 -0.22234139666E+01  0.29394815684E+01  0.51100000000E-03 0.  1.
        -12    1    3    3    0    0 -0.72626921605E+01  0.54351804626E+01  0.26970119766E+02  0.28454792993E+02  0.00000000000E+00 0.  1.
</event>
<event>
 7    1  0.2700104E-013  0.7246157E+02  0.7816164E-02  0.1226708E+00
        -11   -1    0    0    0    0  0.00000000000E+00  0.00000000000E+00  0.45593999997E+02  0.45594000000E+02  0.51100000000E-03 0.  1.
         11   -1    0    0    0    0 -0.00000000000E+00 -0.00000000000E+00 -0.45593999997E+02  0.45594000000E+02  0.51100000000E-03 0. -1.
    9900012    2    1    2    0    0 -0.16590590621E+01 -0.42729215637E+01 -0.18156785259E+02  0.72461569839E+02  0.69999999406E+02 0.  0.
        -12    1    1    2    0    0  0.16590590621E+01  0.42729215637E+01  0.18156785259E+02  0.18726430161E+02  0.00000000000E+00 0.  1.
         11    1    3    3    0    0  0.40044136725E+01  0.15868676169E+02 -0.27156042788E+02  0.31706479975E+02  0.51100000000E-03 0. -1.
        -11    1    3    3    0    0 -0.43317719643E+00  0.74724488229E+01  0.10167869626E+02  0.12625795297E+02  0.51100000000E-03 0.  1.
        -12    1    3    3    0    0 -0.52302955382E+01 -0.27614046556E+02 -0.11686120968E+01  0.28129294567E+02  0.00000000000E+00 0.  1.
</event>
<event>
 7    1  0.2700104E-013  0.7246157E+02  0.7816164E-02  0.1226708E+00
        -11   -1    0    0    0    0  0.00000000000E+00  0.00000000000E+00  0.45593999997E+02  0.45594000000E+02  0.51100000000E-03 0.  1.
         11   -1    0    0    0    0 -0.00000000000E+00 -0.00000000000E+00 -0.45593999997E+02  0.45594000000E+02  0.51100000000E-03 0. -1.
    9900012    2    1    2    0    0  0.15566917866E+02  0.22887720578E+00 -0.10406630477E+02  0.72461567491E+02  0.69999996348E+02 0.  0.
        -12    1    1    2    0    0 -0.15566917866E+02 -0.22887720578E+00  0.10406630477E+02  0.18726432509E+02  0.00000000000E+00 0.  1.
         11    1    3    3    0    0 -0.84011980942E+01 -0.37545736484E+01  0.93537745010E+01  0.13121358557E+02  0.51100000000E-03 0. -1.
        -11    1    3    3    0    0  0.20128455899E+02  0.19371344992E+02  0.64817754986E+01  0.28677816471E+02  0.51100000000E-03 0.  1.
         12    1    3    3    0    0  0.38396600614E+01 -0.15387894138E+02 -0.26242180477E+02  0.30662392463E+02  0.00000000000E+00 0. -1.
</event>
<event>
 7    1  0.2700104E-013  0.7246157E+02  0.7816164E-02  0.1226708E+00
        -11   -1    0    0    0    0  0.00000000000E+00  0.00000000000E+00  0.45593999997E+02  0.45594000000E+02  0.51100000000E-03 0. -1.
         11   -1    0    0    0    0 -0.00000000000E+00 -0.00000000000E+00 -0.45593999997E+02  0.45594000000E+02  0.51100000000E-03 0.  1.
    9900012    2    1    2    0    0  0.61057058645E+01  0.17699071934E+02  0.37720894816E+00  0.72461572738E+02  0.70000003183E+02 0.  0.
        -12    1    1    2    0    0 -0.61057058645E+01 -0.17699071934E+02 -0.37720894816E+00  0.18726427262E+02  0.00000000000E+00 0.  1.
         11    1    3    3    0    0  0.32180882324E+00 -0.14136839362E+02 -0.41979629071E+01  0.14750480701E+02  0.51100000000E-03 0. -1.
        -11    1    3    3    0    0 -0.11987778559E+01  0.23947130001E+02 -0.19839181775E+02  0.31120656121E+02  0.51100000000E-03 0.  1.
         12    1    3    3    0    0  0.69826748971E+01  0.78887812948E+01  0.24414353630E+02  0.26590435916E+02  0.00000000000E+00 0. -1.
</event>
<event>
 7    1  0.2700104E-013  0.7246161E+02  0.7816164E-02  0.1226708E+00
        -11   -1    0    0    0    0  0.00000000000E+00  0.00000000000E+00  0.45593999997E+02  0.45594000000E+02  0.51100000000E-03 0.  1.
         11   -1    0    0    0    0 -0.00000000000E+00 -0.00000000000E+00 -0.45593999997E+02  0.45594000000E+02  0.51100000000E-03 0. -1.
    9900012    2    1    2    0    0  0.33123840167E+01 -0.69515387046E+01 -0.17069907849E+02  0.72461614011E+02  0.70000056949E+02 0.  0.
        -12    1    1    2    0    0 -0.33123840167E+01  0.69515387046E+01  0.17069907849E+02  0.18726385989E+02  0.00000000000E+00 0.  1.
         11    1    3    3    0    0  0.34615331127E+01 -0.63855777942E-01 -0.40796117837E+01  0.53506561857E+01  0.51100000000E-03 0. -1.
        -11    1    3    3    0    0 -0.23768360014E+02 -0.17464133952E+02 -0.24921761861E+02  0.38613794516E+02  0.51100000000E-03 0.  1.
        -12    1    3    3    0    0  0.23619210918E+02  0.10576451025E+02  0.11931465796E+02  0.28497163309E+02  0.00000000000E+00 0.  1.
</event>
<event>
 7    1  0.2700104E-013  0.7246155E+02  0.7816164E-02  0.1226708E+00
        -11   -1    0    0    0    0  0.00000000000E+00  0.00000000000E+00  0.45593999997E+02  0.45594000000E+02  0.51100000000E-03 0.  1.
         11   -1    0    0    0    0 -0.00000000000E+00 -0.00000000000E+00 -0.45593999997E+02  0.45594000000E+02  0.51100000000E-03 0. -1.
    9900012    2    1    2    0    0 -0.21839539690E+01 -0.18550310016E+02  0.13402006898E+01  0.72461553607E+02  0.69999978261E+02 0.  0.
        -12    1    1    2    0    0  0.21839539690E+01  0.18550310016E+02 -0.13402006898E+01  0.18726446393E+02  0.00000000000E+00 0.  1.
         11    1    3    3    0    0  0.23493567076E+01  0.50683939256E+01  0.21577616300E+02  0.22289047072E+02  0.51100000000E-03 0. -1.
        -11    1    3    3    0    0  0.10246136923E+02  0.33463072064E+01  0.34932575528E+01  0.11330663809E+02  0.51100000000E-03 0.  1.
         12    1    3    3    0    0 -0.14779447600E+02 -0.26965011148E+02 -0.23730673163E+02  0.38841842726E+02  0.00000000000E+00 0. -1.
</event>
<event>
 7    1  0.2700104E-013  0.7246164E+02  0.7816164E-02  0.1226708E+00
        -11   -1    0    0    0    0  0.00000000000E+00  0.00000000000E+00  0.45593999997E+02  0.45594000000E+02  0.51100000000E-03 0.  1.
         11   -1    0    0    0    0 -0.00000000000E+00 -0.00000000000E+00 -0.45593999997E+02  0.45594000000E+02  0.51100000000E-03 0. -1.
    9900012    2    1    2    0    0  0.70000384959E+01  0.56006043600E+01 -0.16441084583E+02  0.72461639692E+02  0.70000090403E+02 0.  0.
        -12    1    1    2    0    0 -0.70000384959E+01 -0.56006043600E+01  0.16441084583E+02  0.18726360308E+02  0.00000000000E+00 0.  1.
         11    1    3    3    0    0  0.10914900195E+02  0.30617791003E+02 -0.18106123576E+02  0.37207739563E+02  0.51100000000E-03 0. -1.
        -11    1    3    3    0    0  0.51059537327E+01  0.47106458469E-01 -0.56639890280E+01  0.76258609028E+01  0.51100000000E-03 0.  1.
        -12    1    3    3    0    0 -0.90208154315E+01 -0.25064293102E+02  0.73290280217E+01  0.27628039226E+02  0.00000000000E+00 0.  1.
</event>
<event>
 7    1  0.2700104E-013  0.7246169E+02  0.7816164E-02  0.1226708E+00
        -11   -1    0    0    0    0  0.00000000000E+00  0.00000000000E+00  0.45593999997E+02  0.45594000000E+02  0.51100000000E-03 0.  1.
         11   -1    0    0    0    0 -0.00000000000E+00 -0.00000000000E+00 -0.45593999997E+02  0.45594000000E+02  0.51100000000E-03 0. -1.
    9900012    2    1    2    0    0  0.84129048674E+01 -0.15020899075E+02 -0.73668508446E+01  0.72461685128E+02  0.70000149592E+02 0.  0.
        -12    1    1    2    0    0 -0.84129048674E+01  0.15020899075E+02  0.73668508446E+01  0.18726314872E+02  0.00000000000E+00 0.  1.
         11    1    3    3    0    0  0.12255304393E+02  0.16043258478E+02  0.32501380301E+01  0.20448521360E+02  0.51100000000E-03 0. -1.
        -11    1    3    3    0    0  0.15583410482E+02 -0.24785108791E+02 -0.62498642116E+00  0.29283696971E+02  0.51100000000E-03 0.  1.
         12    1    3    3    0    0 -0.19425810008E+02 -0.62790487621E+01 -0.99920024536E+01  0.22729466796E+02  0.00000000000E+00 0. -1.
</event>
<event>
 7    1  0.2700104E-013  0.7246158E+02  0.7816164E-02  0.1226708E+00
        -11   -1    0    0    0    0  0.00000000000E+00  0.00000000000E+00  0.45593999997E+02  0.45594000000E+02  0.51100000000E-03 0. -1.
         11   -1    0    0    0    0 -0.00000000000E+00 -0.00000000000E+00 -0.45593999997E+02  0.45594000000E+02  0.51100000000E-03 0.  1.
    9900012    2    1    2    0    0  0.11493942517E+02  0.98700539090E+01  0.11006826921E+02  0.72461577021E+02  0.70000008762E+02 0.  0.
        -12    1    1    2    0    0 -0.11493942517E+02 -0.98700539090E+01 -0.11006826921E+02  0.18726422979E+02  0.00000000000E+00 0.  1.
         11    1    3    3    0    0 -0.16071202384E+02 -0.78904218003E+01 -0.99392374805E+00  0.17931262837E+02  0.51100000000E-03 0. -1.
        -11    1    3    3    0    0 -0.11198365760E+01  0.18723956001E+02 -0.70979305110E+01  0.20055452627E+02  0.51100000000E-03 0.  1.
         12    1    3    3    0    0  0.28684981476E+02 -0.96348029132E+00  0.19098681180E+02  0.34474861557E+02  0.00000000000E+00 0. -1.
</event>
<event>
 7    1  0.2700104E-013  0.7246157E+02  0.7816164E-02  0.1226708E+00
        -11   -1    0    0    0    0  0.00000000000E+00  0.00000000000E+00  0.45593999997E+02  0.45594000000E+02  0.51100000000E-03 0.  1.
         11   -1    0    0    0    0 -0.00000000000E+00 -0.00000000000E+00 -0.45593999997E+02  0.45594000000E+02  0.51100000000E-03 0. -1.
    9900012    2    1    2    0    0  0.14466652525E+02 -0.11876499648E+02 -0.58658792706E+00  0.72461565086E+02  0.69999993215E+02 0.  0.
        -12    1    1    2    0    0 -0.14466652525E+02  0.11876499648E+02  0.58658792706E+00  0.18726434914E+02  0.00000000000E+00 0.  1.
         11    1    3    3    0    0 -0.99995269495E+01 -0.69949346507E+01 -0.91686828460E+01  0.15263826367E+02  0.51100000000E-03 0. -1.
        -11    1    3    3    0    0 -0.15133039781E+02 -0.49525059232E+01  0.74570292198E+01  0.17582476873E+02  0.51100000000E-03 0.  1.
        -12    1    3    3    0    0  0.39599219256E+02  0.70940925568E-01  0.11250656992E+01  0.39615261846E+02  0.00000000000E+00 0.  1.
</event>
<event>
 7    1  0.2700104E-013  0.7246158E+02  0.7816164E-02  0.1226708E+00
        -11   -1    0    0    0    0  0.00000000000E+00  0.00000000000E+00  0.45593999997E+02  0.45594000000E+02  0.51100000000E-03 0. -1.
         11   -1    0    0    0    0 -0.00000000000E+00 -0.00000000000E+00 -0.45593999997E+02  0.45594000000E+02  0.51100000000E-03 0.  1.
    9900012    2    1    2    0    0 -0.16986628807E+02 -0.67250106101E+01  0.41118559078E+01  0.72461583233E+02  0.70000016855E+02 0.  0.
        -12    1    1    2    0    0  0.16986628807E+02  0.67250106101E+01 -0.41118559078E+01  0.18726416767E+02  0.00000000000E+00 0.  1.
         11    1    3    3    0    0  0.29378452996E+01  0.58061563899E+01 -0.18710011621E+02  0.19809263543E+02  0.51100000000E-03 0. -1.
        -11    1    3    3    0    0  0.65485229762E+01 -0.18807732311E+01 -0.80944048518E+01  0.10580163103E+02  0.51100000000E-03 0.  1.
         12    1    3    3    0    0 -0.26472997083E+02 -0.10650393769E+02  0.30916272380E+02  0.42072156587E+02  0.00000000000E+00 0. -1.
</event>
<event>
 7    1  0.2700104E-013  0.7246153E+02  0.7816164E-02  0.1226708E+00
        -11   -1    0    0    0    0  0.00000000000E+00  0.00000000000E+00  0.45593999997E+02  0.45594000000E+02  0.51100000000E-03 0.  1.
         11   -1    0    0    0    0 -0.00000000000E+00 -0.00000000000E+00 -0.45593999997E+02  0.45594000000E+02  0.51100000000E-03 0. -1.
    9900012    2    1    2    0    0 -0.12353094121E+02  0.12961599373E+02 -0.54843873026E+01  0.72461534857E+02  0.69999953837E+02 0.  0.
        -12    1    1    2    0    0  0.12353094121E+02 -0.12961599373E+02  0.54843873026E+01  0.18726465143E+02  0.00000000000E+00 0.  1.
         11    1    3    3    0    0 -0.12974448266E+02  0.19090498646E+02 -0.64517263790E+01  0.23966814972E+02  0.51100000000E-03 0. -1.
        -11    1    3    3    0    0 -0.70103709258E+01  0.11773177086E+02 -0.17118697186E+02  0.21927215802E+02  0.51100000000E-03 0.  1.
        -12    1    3    3    0    0  0.76317250713E+01 -0.17902076360E+02  0.18086036262E+02  0.26567504083E+02  0.00000000000E+00 0.  1.
</event>
<event>
 7    1  0.2700104E-013  0.7246158E+02  0.7816164E-02  0.1226708E+00
        -11   -1    0    0    0    0  0.00000000000E+00  0.00000000000E+00  0.45593999997E+02  0.45594000000E+02  0.51100000000E-03 0.  1.
         11   -1    0    0    0    0 -0.00000000000E+00 -0.00000000000E+00 -0.45593999997E+02  0.45594000000E+02  0.51100000000E-03 0. -1.
    9900012    2    1    2    0    0 -0.67996195140E+01 -0.17435515658E+02 -0.66840593261E+00  0.72461580206E+02  0.70000012912E+02 0.  0.
        -12    1    1    2    0    0  0.67996195140E+01  0.17435515658E+02  0.66840593261E+00  0.18726419794E+02  0.00000000000E+00 0.  1.
         11    1    3    3    0    0 -0.13842411397E+02 -0.78435359507E+01  0.20370251901E+00  0.15911470846E+02  0.51100000000E-03 0. -1.
        -11    1    3    3    0    0 -0.18037204788E+01  0.16294406140E+02 -0.17942919814E+02  0.24304515028E+02  0.51100000000E-03 0.  1.
        -12    1    3    3    0    0  0.88465123618E+01 -0.25886385848E+02  0.17070811363E+02  0.32245594332E+02  0.00000000000E+00 0.  1.
</event>
<event>
 7    1  0.2700104E-013  0.7246157E+02  0.7816164E-02  0.1226708E+00
        -11   -1    0    0    0    0  0.00000000000E+00  0.00000000000E+00  0.45593999997E+02  0.45594000000E+02  0.51100000000E-03 0.  1.
         11   -1    0    0    0    0 -0.00000000000E+00 -0.00000000000E+00 -0.45593999997E+02  0.45594000000E+02  0.51100000000E-03 0. -1.
    9900012    2    1    2    0    0 -0.76146019929E+01  0.15221487090E+00 -0.17107708820E+02  0.72461573914E+02  0.70000004715E+02 0.  0.
        -12    1    1    2    0    0  0.76146019929E+01 -0.15221487090E+00  0.17107708820E+02  0.18726426086E+02  0.00000000000E+00 0.  1.
         11    1    3    3    0    0 -0.50709902724E+01 -0.16810443129E+02 -0.94923210598E+01  0.19960212923E+02  0.51100000000E-03 0. -1.
        -11    1    3    3    0    0  0.18236172785E+02  0.63665394253E+01 -0.18513830793E+02  0.26755424739E+02  0.51100000000E-03 0.  1.
        -12    1    3    3    0    0 -0.20779784506E+02  0.10596118575E+02  0.10898443032E+02  0.25745936252E+02  0.00000000000E+00 0.  1.
</event>
<event>
 7    1  0.2700104E-013  0.7246162E+02  0.7816164E-02  0.1226708E+00
        -11   -1    0    0    0    0  0.00000000000E+00  0.00000000000E+00  0.45593999997E+02  0.45594000000E+02  0.51100000000E-03 0.  1.
         11   -1    0    0    0    0 -0.00000000000E+00 -0.00000000000E+00 -0.45593999997E+02  0.45594000000E+02  0.51100000000E-03 0. -1.
    9900012    2    1    2    0    0  0.15211062105E+01  0.32230827134E+01 -0.18384105807E+02  0.72461618272E+02  0.70000062500E+02 0.  0.
        -12    1    1    2    0    0 -0.15211062105E+01 -0.32230827134E+01  0.18384105807E+02  0.18726381728E+02  0.00000000000E+00 0.  1.
         11    1    3    3    0    0  0.23390244068E+02 -0.73097864700E+01 -0.24733734108E+01  0.24630348599E+02  0.51100000000E-03 0. -1.
        -11    1    3    3    0    0 -0.56853427984E+01 -0.19355775697E+01  0.11896139768E+02  0.13326204444E+02  0.51100000000E-03 0.  1.
        -12    1    3    3    0    0 -0.16183795059E+02  0.12468446753E+02 -0.27806872164E+02  0.34505065229E+02  0.00000000000E+00 0.  1.
</event>
<event>
 7    1  0.2700104E-013  0.7246156E+02  0.7816164E-02  0.1226708E+00
        -11   -1    0    0    0    0  0.00000000000E+00  0.00000000000E+00  0.45593999997E+02  0.45594000000E+02  0.51100000000E-03 0. -1.
         11   -1    0    0    0    0 -0.00000000000E+00 -0.00000000000E+00 -0.45593999997E+02  0.45594000000E+02  0.51100000000E-03 0.  1.
    9900012    2    1    2    0    0  0.12745477041E+02  0.11844856667E+02  0.69232703468E+01  0.72461561824E+02  0.69999988966E+02 0.  0.
        -12    1    1    2    0    0 -0.12745477041E+02 -0.11844856667E+02 -0.69232703468E+01  0.18726438176E+02  0.00000000000E+00 0.  1.
         11    1    3    3    0    0  0.36388592639E+01  0.12774280965E+01 -0.58980253587E+01  0.70469725895E+01  0.51100000000E-03 0. -1.
        -11    1    3    3    0    0  0.21986079947E+02 -0.78036113961E+01 -0.16441015559E+02  0.28541041592E+02  0.51100000000E-03 0.  1.
         12    1    3    3    0    0 -0.12879462170E+02  0.18371039966E+02  0.29262311265E+02  0.36873547643E+02  0.00000000000E+00 0. -1.
</event>
<event>
 7    1  0.2700104E-013  0.7246159E+02  0.7816164E-02  0.1226708E+00
        -11   -1    0    0    0    0  0.00000000000E+00  0.00000000000E+00  0.45593999997E+02  0.45594000000E+02  0.51100000000E-03 0. -1.
         11   -1    0    0    0    0 -0.00000000000E+00 -0.00000000000E+00 -0.45593999997E+02  0.45594000000E+02  0.51100000000E-03 0.  1.
    9900012    2    1    2    0    0 -0.55733818318E+01 -0.16950108369E+02  0.56841516321E+01  0.72461592482E+02  0.70000028903E+02 0.  0.
        -12    1    1    2    0    0  0.55733818318E+01  0.16950108369E+02 -0.56841516321E+01  0.18726407518E+02  0.00000000000E+00 0.  1.
         11    1    3    3    0    0 -0.11400463857E+02 -0.59294694839E+01  0.32626764258E+01  0.13257987865E+02  0.51100000000E-03 0.  1.
        -11    1    3    3    0    0 -0.14213499776E+02 -0.12114263946E+02  0.23553748015E+02  0.30059241718E+02  0.51100000000E-03 0. -1.
         12    1    3    3    0    0  0.20040581801E+02  0.10936250613E+01 -0.21132272809E+02  0.29144362899E+02  0.00000000000E+00 0. -1.
</event>
<event>
 7    1  0.2700104E-013  0.7246151E+02  0.7816164E-02  0.1226708E+00
        -11   -1    0    0    0    0  0.00000000000E+00  0.00000000000E+00  0.45593999997E+02  0.45594000000E+02  0.51100000000E-03 0.  1.
         11   -1    0    0    0    0 -0.00000000000E+00 -0.00000000000E+00 -0.45593999997E+02  0.45594000000E+02  0.51100000000E-03 0. -1.
    9900012    2    1    2    0    0 -0.18313912192E+02 -0.35972478434E+01  0.15303172684E+01  0.72461509598E+02  0.69999920932E+02 0.  0.
        -12    1    1    2    0    0  0.18313912192E+02  0.35972478434E+01 -0.15303172684E+01  0.18726490402E+02  0.00000000000E+00 0.  1.
         11    1    3    3    0    0  0.62943421094E+01  0.16683722669E+02 -0.15609857116E+02  0.23698797103E+02  0.51100000000E-03 0. -1.
        -11    1    3    3    0    0  0.76598659141E+01 -0.73371908043E+01  0.17879532092E+01  0.10756611532E+02  0.51100000000E-03 0.  1.
        -12    1    3    3    0    0 -0.32268120216E+02 -0.12943779708E+02  0.15352221175E+02  0.38006100963E+02  0.00000000000E+00 0.  1.
</event>
<event>
 7    1  0.2700104E-013  0.7246158E+02  0.7816164E-02  0.1226708E+00
        -11   -1    0    0    0    0  0.00000000000E+00  0.00000000000E+00  0.45593999997E+02  0.45594000000E+02  0.51100000000E-03 0.  1.
         11   -1    0    0    0    0 -0.00000000000E+00 -0.00000000000E+00 -0.45593999997E+02  0.45594000000E+02  0.51100000000E-03 0. -1.
    9900012    2    1    2    0    0 -0.14253097170E+02 -0.11376334355E+02  0.42552424135E+01  0.72461578818E+02  0.70000011104E+02 0.  0.
        -12    1    1    2    0    0  0.14253097170E+02  0.11376334355E+02 -0.42552424135E+01  0.18726421182E+02  0.00000000000E+00 0.  1.
         11    1    3    3    0    0  0.45676232349E+01 -0.42613459131E+01  0.16351151373E+01  0.64572325946E+01  0.51100000000E-03 0. -1.
        -11    1    3    3    0    0  0.11149643971E+02 -0.22784383049E+02  0.15600455615E+02  0.29779470903E+02  0.51100000000E-03 0.  1.
         12    1    3    3    0    0 -0.29970364376E+02  0.15669394608E+02 -0.12980328339E+02  0.36224875320E+02  0.00000000000E+00 0. -1.
</event>
<event>
 7    1  0.2700104E-013  0.7246158E+02  0.7816164E-02  0.1226708E+00
        -11   -1    0    0    0    0  0.00000000000E+00  0.00000000000E+00  0.45593999997E+02  0.45594000000E+02  0.51100000000E-03 0. -1.
         11   -1    0    0    0    0 -0.00000000000E+00 -0.00000000000E+00 -0.45593999997E+02  0.45594000000E+02  0.51100000000E-03 0.  1.
    9900012    2    1    2    0    0  0.20052049446E+01 -0.61533610818E+01  0.17572541994E+02  0.72461576647E+02  0.70000008275E+02 0.  0.
        -12    1    1    2    0    0 -0.20052049446E+01  0.61533610818E+01 -0.17572541994E+02  0.18726423353E+02  0.00000000000E+00 0.  1.
         11    1    3    3    0    0  0.75819522167E+01  0.15522413390E+02  0.14732397961E+02  0.22704071591E+02  0.51100000000E-03 0. -1.
        -11    1    3    3    0    0 -0.21166232953E+01  0.12457955816E+02  0.81552544171E+01  0.15039578856E+02  0.51100000000E-03 0.  1.
        -12    1    3    3    0    0 -0.34601239767E+01 -0.34133730287E+02 -0.53151103845E+01  0.34717926200E+02  0.00000000000E+00 0.  1.
</event>
<event>
 7    1  0.2700104E-013  0.7246159E+02  0.7816164E-02  0.1226708E+00
        -11   -1    0    0    0    0  0.00000000000E+00  0.00000000000E+00  0.45593999997E+02  0.45594000000E+02  0.51100000000E-03 0. -1.
         11   -1    0    0    0    0 -0.00000000000E+00 -0.00000000000E+00 -0.45593999997E+02  0.45594000000E+02  0.51100000000E-03 0.  1.
    9900012    2    1    2    0    0  0.13401426006E+01  0.18518904938E+02  0.24356743917E+01  0.72461592655E+02  0.70000029129E+02 0.  0.
        -12    1    1    2    0    0 -0.13401426006E+01 -0.18518904938E+02 -0.24356743917E+01  0.18726407345E+02  0.00000000000E+00 0.  1.
         11    1    3    3    0    0 -0.14332853714E+02 -0.21021187513E+01  0.99703030439E+00  0.14520456898E+02  0.51100000000E-03 0. -1.
        -11    1    3    3    0    0 -0.16201233504E+02 -0.11786137553E+01 -0.81189240908E+01  0.18160011731E+02  0.51100000000E-03 0.  1.
         12    1    3    3    0    0  0.31874229819E+02  0.21799637445E+02  0.95575681780E+01  0.39781124026E+02  0.00000000000E+00 0. -1.
</event>
<event>
 7    1  0.2700104E-013  0.7246191E+02  0.7816164E-02  0.1226707E+00
        -11   -1    0    0    0    0  0.00000000000E+00  0.00000000000E+00  0.45593999997E+02  0.45594000000E+02  0.51100000000E-03 0. -1.
         11   -1    0    0    0    0 -0.00000000000E+00 -0.00000000000E+00 -0.45593999997E+02  0.45594000000E+02  0.51100000000E-03 0.  1.
    9900012    2    1    2    0    0 -0.75349133258E+01 -0.16065339379E+02  0.59830243380E+01  0.72461905147E+02  0.70000436207E+02 0.  0.
        -12    1    1    2    0    0  0.75349133258E+01  0.16065339379E+02 -0.59830243380E+01  0.18726094853E+02  0.00000000000E+00 0.  1.
         11    1    3    3    0    0  0.68796820988E+01 -0.47721617369E+01  0.13097073606E+01  0.84746024719E+01  0.51100000000E-03 0. -1.
        -11    1    3    3    0    0  0.22853647396E+02 -0.26834181114E+01 -0.69035041757E+01  0.24023911051E+02  0.51100000000E-03 0.  1.
        -12    1    3    3    0    0 -0.37268242820E+02 -0.86097595311E+01  0.11576821153E+02  0.39963391624E+02  0.00000000000E+00 0.  1.
</event>
<event>
 7    1  0.2700104E-013  0.7246159E+02  0.7816164E-02  0.1226708E+00
        -11   -1    0    0    0    0  0.00000000000E+00  0.00000000000E+00  0.45593999997E+02  0.45594000000E+02  0.51100000000E-03 0. -1.
         11   -1    0    0    0    0 -0.00000000000E+00 -0.00000000000E+00 -0.45593999997E+02  0.45594000000E+02  0.51100000000E-03 0.  1.
    9900012    2    1    2    0    0 -0.96084183165E+01 -0.12791148571E+02  0.97336089450E+01  0.72461592779E+02  0.70000029290E+02 0.  0.
        -12    1    1    2    0    0  0.96084183165E+01  0.12791148571E+02 -0.97336089450E+01  0.18726407221E+02  0.00000000000E+00 0.  1.
         11    1    3    3    0    0  0.12203477929E+02 -0.10167253440E+02 -0.74920242162E+01  0.17562128094E+02  0.51100000000E-03 0. -1.
        -11    1    3    3    0    0 -0.14019272184E+02  0.20158452408E+02 -0.11949726906E+01  0.24583147806E+02  0.51100000000E-03 0.  1.
         12    1    3    3    0    0 -0.77926240611E+01 -0.22782347540E+02  0.18420605852E+02  0.30316316879E+02  0.00000000000E+00 0. -1.
</event>
<event>
 7    1  0.2700104E-013  0.7246168E+02  0.7816164E-02  0.1226708E+00
        -11   -1    0    0    0    0  0.00000000000E+00  0.00000000000E+00  0.45593999997E+02  0.45594000000E+02  0.51100000000E-03 0.  1.
         11   -1    0    0    0    0 -0.00000000000E+00 -0.00000000000E+00 -0.45593999997E+02  0.45594000000E+02  0.51100000000E-03 0. -1.
    9900012    2    1    2    0    0  0.10759608075E+01  0.17998769690E+02  0.50558609937E+01  0.72461678087E+02  0.70000140419E+02 0.  0.
        -12    1    1    2    0    0 -0.10759608075E+01 -0.17998769690E+02 -0.50558609937E+01  0.18726321913E+02  0.00000000000E+00 0.  1.
         11    1    3    3    0    0  0.12652658625E+02  0.18620999698E+02  0.62392023371E+01  0.23361486385E+02  0.51100000000E-03 0. -1.
        -11    1    3    3    0    0  0.76638232205E+00 -0.14774998621E+02  0.17291346730E+02  0.22756946151E+02  0.51100000000E-03 0.  1.
        -12    1    3    3    0    0 -0.12343080140E+02  0.14152768613E+02 -0.18474688074E+02  0.26343245551E+02  0.00000000000E+00 0.  1.
</event>
<event>
 7    1  0.2700104E-013  0.7246157E+02  0.7816164E-02  0.1226708E+00
        -11   -1    0    0    0    0  0.00000000000E+00  0.00000000000E+00  0.45593999997E+02  0.45594000000E+02  0.51100000000E-03 0. -1.
         11   -1    0    0    0    0 -0.00000000000E+00 -0.00000000000E+00 -0.45593999997E+02  0.45594000000E+02  0.51100000000E-03 0.  1.
    9900012    2    1    2    0    0  0.12876284731E+02 -0.11519579874E+02  0.72235608211E+01  0.72461567881E+02  0.69999996857E+02 0.  0.
        -12    1    1    2    0    0 -0.12876284731E+02  0.11519579874E+02 -0.72235608211E+01  0.18726432119E+02  0.00000000000E+00 0.  1.
         11    1    3    3    0    0 -0.18052430896E+01 -0.29395833966E+02  0.15418065996E+02  0.33242904754E+02  0.51100000000E-03 0. -1.
        -11    1    3    3    0    0 -0.84766241162E+01  0.17809398868E+01  0.25654645275E+01  0.90336322590E+01  0.51100000000E-03 0.  1.
        -12    1    3    3    0    0  0.23158151937E+02  0.16095314206E+02 -0.10759969702E+02  0.30185030868E+02  0.00000000000E+00 0.  1.
</event>
<event>
 7    1  0.2700104E-013  0.7246153E+02  0.7816164E-02  0.1226708E+00
        -11   -1    0    0    0    0  0.00000000000E+00  0.00000000000E+00  0.45593999997E+02  0.45594000000E+02  0.51100000000E-03 0.  1.
         11   -1    0    0    0    0 -0.00000000000E+00 -0.00000000000E+00 -0.45593999997E+02  0.45594000000E+02  0.51100000000E-03 0. -1.
    9900012    2    1    2    0    0  0.90812599546E+01 -0.11366524880E+02 -0.11790403566E+02  0.72461527122E+02  0.69999943760E+02 0.  0.
        -12    1    1    2    0    0 -0.90812599546E+01  0.11366524880E+02  0.11790403566E+02  0.18726472878E+02  0.00000000000E+00 0.  1.
         11    1    3    3    0    0 -0.60190888032E+01  0.18581506678E+00 -0.24783093021E+01  0.65119869869E+01  0.51100000000E-03 0. -1.
        -11    1    3    3    0    0  0.15972842218E+02  0.24311212755E+02 -0.74462949794E+01  0.30026889005E+02  0.51100000000E-03 0.  1.
         12    1    3    3    0    0 -0.87249346038E+00 -0.35863552702E+02 -0.18657992844E+01  0.35922651130E+02  0.00000000000E+00 0. -1.
</event>
<event>
 7    1  0.2700104E-013  0.7246159E+02  0.7816164E-02  0.1226708E+00
        -11   -1    0    0    0    0  0.00000000000E+00  0.00000000000E+00  0.45593999997E+02  0.45594000000E+02  0.51100000000E-03 0. -1.
         11   -1    0    0    0    0 -0.00000000000E+00 -0.00000000000E+00 -0.45593999997E+02  0.45594000000E+02  0.51100000000E-03 0.  1.
    9900012    2    1    2    0    0  0.17084613038E+01  0.16591028562E+01  0.18574361195E+02  0.72461592013E+02  0.70000028292E+02 0.  0.
        -12    1    1    2    0    0 -0.17084613038E+01 -0.16591028562E+01 -0.18574361195E+02  0.18726407987E+02  0.00000000000E+00 0.  1.
         11    1    3    3    0    0  0.28081350266E+01  0.87832701536E+01  0.12254447384E+01  0.93023207850E+01  0.51100000000E-03 0. -1.
        -11    1    3    3    0    0  0.20688622987E+02  0.18034495745E+02  0.81101202964E+01  0.28618808664E+02  0.51100000000E-03 0.  1.
         12    1    3    3    0    0 -0.21788296710E+02 -0.25158663042E+02  0.92387961600E+01  0.34540462563E+02  0.00000000000E+00 0. -1.
</event>
<event>
 7    1  0.2700104E-013  0.7246166E+02  0.7816164E-02  0.1226708E+00
        -11   -1    0    0    0    0  0.00000000000E+00  0.00000000000E+00  0.45593999997E+02  0.45594000000E+02  0.51100000000E-03 0.  1.
         11   -1    0    0    0    0 -0.00000000000E+00 -0.00000000000E+00 -0.45593999997E+02  0.45594000000E+02  0.51100000000E-03 0. -1.
    9900012    2    1    2    0    0 -0.16033292968E+02 -0.67932791368E-01  0.96749457547E+01  0.72461663636E+02  0.70000121594E+02 0.  0.
        -12    1    1    2    0    0  0.16033292968E+02  0.67932791368E-01 -0.96749457547E+01  0.18726336364E+02  0.00000000000E+00 0.  1.
         11    1    3    3    0    0 -0.32152515560E+02 -0.13571070189E+02 -0.24656521224E-01  0.34899266628E+02  0.51100000000E-03 0. -1.
        -11    1    3    3    0    0 -0.84417595402E+01  0.17973616273E+01  0.49296786883E+01  0.99395948199E+01  0.51100000000E-03 0.  1.
        -12    1    3    3    0    0  0.24560982132E+02  0.11705775771E+02  0.47699235877E+01  0.27622802188E+02  0.00000000000E+00 0.  1.
</event>
<event>
 7    1  0.2700104E-013  0.7246077E+02  0.7816164E-02  0.1226710E+00
        -11   -1    0    0    0    0  0.00000000000E+00  0.00000000000E+00  0.45593999997E+02  0.45594000000E+02  0.51100000000E-03 0. -1.
         11   -1    0    0    0    0 -0.00000000000E+00 -0.00000000000E+00 -0.45593999997E+02  0.45594000000E+02  0.51100000000E-03 0.  1.
    9900012    2    1    2    0    0  0.14148100796E+02 -0.12260554168E+02  0.46836612771E+00  0.72460765515E+02  0.69998951618E+02 0.  0.
        -12    1    1    2    0    0 -0.14148100796E+02  0.12260554168E+02 -0.46836612771E+00  0.18727234485E+02  0.00000000000E+00 0.  1.
         11    1    3    3    0    0  0.21868636588E+02 -0.19111404083E+01  0.74580613123E+01  0.23184313720E+02  0.51100000000E-03 0. -1.
        -11    1    3    3    0    0  0.27732215209E+01  0.71841773356E+01 -0.22397582209E+02  0.23684485442E+02  0.51100000000E-03 0.  1.
         12    1    3    3    0    0 -0.10493757313E+02 -0.17533591095E+02  0.15407887025E+02  0.25591966352E+02  0.00000000000E+00 0. -1.
</event>
<event>
 7    1  0.2700104E-013  0.7246138E+02  0.7816164E-02  0.1226709E+00
        -11   -1    0    0    0    0  0.00000000000E+00  0.00000000000E+00  0.45593999997E+02  0.45594000000E+02  0.51100000000E-03 0. -1.
         11   -1    0    0    0    0 -0.00000000000E+00 -0.00000000000E+00 -0.45593999997E+02  0.45594000000E+02  0.51100000000E-03 0.  1.
    9900012    2    1    2    0    0  0.64284012572E+01  0.16712696268E+02  0.54815707197E+01  0.72461383199E+02  0.69999756273E+02 0.  0.
        -12    1    1    2    0    0 -0.64284012572E+01 -0.16712696268E+02 -0.54815707197E+01  0.18726616801E+02  0.00000000000E+00 0.  1.
         11    1    3    3    0    0  0.12231743816E+02  0.20056426763E+02  0.19540491032E+02  0.30556613053E+02  0.51100000000E-03 0. -1.
        -11    1    3    3    0    0  0.75211642296E+00  0.11934437541E+02  0.79224114082E+01  0.14344374553E+02  0.51100000000E-03 0.  1.
        -12    1    3    3    0    0 -0.65554589814E+01 -0.15278168036E+02 -0.21981331720E+02  0.27560395592E+02  0.00000000000E+00 0.  1.
</event>
<event>
 7    1  0.2700104E-013  0.7246154E+02  0.7816164E-02  0.1226708E+00
        -11   -1    0    0    0    0  0.00000000000E+00  0.00000000000E+00  0.45593999997E+02  0.45594000000E+02  0.51100000000E-03 0. -1.
         11   -1    0    0    0    0 -0.00000000000E+00 -0.00000000000E+00 -0.45593999997E+02  0.45594000000E+02  0.51100000000E-03 0.  1.
    9900012    2    1    2    0    0 -0.12554486516E+02  0.11654329154E+02  0.75658286355E+01  0.72461540573E+02  0.69999961283E+02 0.  0.
        -12    1    1    2    0    0  0.12554486516E+02 -0.11654329154E+02 -0.75658286355E+01  0.18726459427E+02  0.00000000000E+00 0.  1.
         11    1    3    3    0    0 -0.29122658709E+02 -0.83516823456E-01 -0.19361486712E+01  0.29187067295E+02  0.51100000000E-03 0. -1.
        -11    1    3    3    0    0  0.16785875586E+02  0.21148573888E+02 -0.34959996107E+01  0.27225903295E+02  0.51100000000E-03 0.  1.
         12    1    3    3    0    0 -0.21770339264E+00 -0.94107279101E+01  0.12997976917E+02  0.16048569983E+02  0.00000000000E+00 0. -1.
</event>
<event>
 7    1  0.2700104E-013  0.7246152E+02  0.7816164E-02  0.1226708E+00
        -11   -1    0    0    0    0  0.00000000000E+00  0.00000000000E+00  0.45593999997E+02  0.45594000000E+02  0.51100000000E-03 0. -1.
         11   -1    0    0    0    0 -0.00000000000E+00 -0.00000000000E+00 -0.45593999997E+02  0.45594000000E+02  0.51100000000E-03 0.  1.
    9900012    2    1    2    0    0  0.68721721082E+00 -0.15408229234E+02  0.10620503919E+02  0.72461524114E+02  0.69999939841E+02 0.  0.
        -12    1    1    2    0    0 -0.68721721082E+00  0.15408229234E+02 -0.10620503919E+02  0.18726475886E+02  0.00000000000E+00 0.  1.
         11    1    3    3    0    0 -0.21024912509E+02 -0.16492179293E+02  0.21029854873E+02  0.34004319138E+02  0.51100000000E-03 0. -1.
        -11    1    3    3    0    0  0.61532859540E+01 -0.11439046231E+02 -0.12928376713E+02  0.18326418947E+02  0.51100000000E-03 0.  1.
        -12    1    3    3    0    0  0.15558843765E+02  0.12522996289E+02  0.25190257588E+01  0.20130786029E+02  0.00000000000E+00 0.  1.
</event>
<event>
 7    1  0.2700104E-013  0.7246147E+02  0.7816164E-02  0.1226708E+00
        -11   -1    0    0    0    0  0.00000000000E+00  0.00000000000E+00  0.45593999997E+02  0.45594000000E+02  0.51100000000E-03 0. -1.
         11   -1    0    0    0    0 -0.00000000000E+00 -0.00000000000E+00 -0.45593999997E+02  0.45594000000E+02  0.51100000000E-03 0.  1.
    9900012    2    1    2    0    0  0.78914017127E+01  0.15275125485E+02 -0.74215500314E+01  0.72461465765E+02  0.69999863831E+02 0.  0.
        -12    1    1    2    0    0 -0.78914017127E+01 -0.15275125485E+02  0.74215500314E+01  0.18726534235E+02  0.00000000000E+00 0.  1.
         11    1    3    3    0    0  0.12918922812E+02  0.15853311066E+02  0.10390004753E+02  0.22938575313E+02  0.51100000000E-03 0. -1.
        -11    1    3    3    0    0  0.14529960043E+02  0.11992320290E+02  0.20424508132E+01  0.18950121118E+02  0.51100000000E-03 0.  1.
         12    1    3    3    0    0 -0.19557481142E+02 -0.12570505871E+02 -0.19854005598E+02  0.30572769334E+02  0.00000000000E+00 0. -1.
</event>
<event>
 7    1  0.2700104E-013  0.7246208E+02  0.7816164E-02  0.1226707E+00
        -11   -1    0    0    0    0  0.00000000000E+00  0.00000000000E+00  0.45593999997E+02  0.45594000000E+02  0.51100000000E-03 0.  1.
         11   -1    0    0    0    0 -0.00000000000E+00 -0.00000000000E+00 -0.45593999997E+02  0.45594000000E+02  0.51100000000E-03 0. -1.
    9900012    2    1    2    0    0 -0.19126075763E+01  0.11566963403E+02 -0.14601621838E+02  0.72462080252E+02  0.70000664312E+02 0.  0.
        -12    1    1    2    0    0  0.19126075763E+01 -0.11566963403E+02  0.14601621838E+02  0.18725919748E+02  0.00000000000E+00 0.  1.
         11    1    3    3    0    0 -0.82210828802E+00 -0.84799876871E+01  0.20823975220E+01  0.87705434787E+01  0.51100000000E-03 0. -1.
        -11    1    3    3    0    0  0.27412437555E+02  0.32631861566E+01 -0.12659406522E+02  0.30370227038E+02  0.51100000000E-03 0.  1.
         12    1    3    3    0    0 -0.28502936843E+02  0.16783764934E+02 -0.40246128381E+01  0.33321309736E+02  0.00000000000E+00 0. -1.
</event>
<event>
 7    1  0.2700104E-013  0.7246157E+02  0.7816164E-02  0.1226708E+00
        -11   -1    0    0    0    0  0.00000000000E+00  0.00000000000E+00  0.45593999997E+02  0.45594000000E+02  0.51100000000E-03 0.  1.
         11   -1    0    0    0    0 -0.00000000000E+00 -0.00000000000E+00 -0.45593999997E+02  0.45594000000E+02  0.51100000000E-03 0. -1.
    9900012    2    1    2    0    0  0.12732509943E+02 -0.13372030603E+02  0.31226819039E+01  0.72461570704E+02  0.70000000534E+02 0.  0.
        -12    1    1    2    0    0 -0.12732509943E+02  0.13372030603E+02 -0.31226819039E+01  0.18726429296E+02  0.00000000000E+00 0.  1.
         11    1    3    3    0    0  0.34956155266E+02 -0.80279708251E+00  0.50662576680E+01  0.35330500154E+02  0.51100000000E-03 0. -1.
        -11    1    3    3    0    0  0.43900171542E+01 -0.47194716915E+01  0.54221288266E+01  0.84228940949E+01  0.51100000000E-03 0.  1.
        -12    1    3    3    0    0 -0.26613662477E+02 -0.78497618293E+01 -0.73657045907E+01  0.28708176454E+02  0.00000000000E+00 0.  1.
</event>
<event>
 7    1  0.2700104E-013  0.7246155E+02  0.7816164E-02  0.1226708E+00
        -11   -1    0    0    0    0  0.00000000000E+00  0.00000000000E+00  0.45593999997E+02  0.45594000000E+02  0.51100000000E-03 0.  1.
         11   -1    0    0    0    0 -0.00000000000E+00 -0.00000000000E+00 -0.45593999997E+02  0.45594000000E+02  0.51100000000E-03 0. -1.
    9900012    2    1    2    0    0  0.92549805989E+00 -0.10574133720E+02 -0.15427612741E+02  0.72461545838E+02  0.69999968141E+02 0.  0.
        -12    1    1    2    0    0 -0.92549805989E+00  0.10574133720E+02  0.15427612741E+02  0.18726454162E+02  0.00000000000E+00 0.  1.
         11    1    3    3    0    0  0.25233795993E+02 -0.26561570068E+01 -0.16155192526E+02  0.30079725332E+02  0.51100000000E-03 0. -1.
        -11    1    3    3    0    0 -0.60116818335E+01 -0.19040245826E+02 -0.42150727895E+01  0.20406815491E+02  0.51100000000E-03 0.  1.
         12    1    3    3    0    0 -0.18296616100E+02  0.11122269113E+02  0.49426525745E+01  0.21975005015E+02  0.00000000000E+00 0. -1.
</event>
<event>
 7    1  0.2700104E-013  0.7246156E+02  0.7816164E-02  0.1226708E+00
        -11   -1    0    0    0    0  0.00000000000E+00  0.00000000000E+00  0.45593999997E+02  0.45594000000E+02  0.51100000000E-03 0. -1.
         11   -1    0    0    0    0 -0.00000000000E+00 -0.00000000000E+00 -0.45593999997E+02  0.45594000000E+02  0.51100000000E-03 0.  1.
    9900012    2    1    2    0    0 -0.24213687657E+01  0.13849332879E+02  0.12369817043E+02  0.72461563564E+02  0.69999991233E+02 0.  0.
        -12    1    1    2    0    0  0.24213687657E+01 -0.13849332879E+02 -0.12369817043E+02  0.18726436436E+02  0.00000000000E+00 0.  1.
         11    1    3    3    0    0  0.14308656452E+01  0.38139291135E+01 -0.71044325666E+01  0.81894074348E+01  0.51100000000E-03 0. -1.
        -11    1    3    3    0    0  0.24705066697E+02 -0.66612252036E+01 -0.56891579899E+00  0.25593669279E+02  0.51100000000E-03 0.  1.
         12    1    3    3    0    0 -0.28557301107E+02  0.16696628970E+02  0.20043165408E+02  0.38678486851E+02  0.00000000000E+00 0. -1.
</event>
<event>
 7    1  0.2700104E-013  0.7246159E+02  0.7816164E-02  0.1226708E+00
        -11   -1    0    0    0    0  0.00000000000E+00  0.00000000000E+00  0.45593999997E+02  0.45594000000E+02  0.51100000000E-03 0.  1.
         11   -1    0    0    0    0 -0.00000000000E+00 -0.00000000000E+00 -0.45593999997E+02  0.45594000000E+02  0.51100000000E-03 0. -1.
    9900012    2    1    2    0    0 -0.99010062702E+01  0.54652480302E+01 -0.14925798202E+02  0.72461593159E+02  0.70000029786E+02 0.  0.
        -12    1    1    2    0    0  0.99010062702E+01 -0.54652480302E+01  0.14925798202E+02  0.18726406841E+02  0.00000000000E+00 0.  1.
         11    1    3    3    0    0 -0.49493349357E+01 -0.34553731068E+01 -0.14114235788E+02  0.15350803619E+02  0.51100000000E-03 0. -1.
        -11    1    3    3    0    0 -0.27825075966E+02  0.14415849282E+02 -0.83092517686E+01  0.32420598827E+02  0.51100000000E-03 0.  1.
        -12    1    3    3    0    0  0.22873404632E+02 -0.54952281452E+01  0.74976893544E+01  0.24690190714E+02  0.00000000000E+00 0.  1.
</event>
<event>
 7    1  0.2700104E-013  0.7246180E+02  0.7816164E-02  0.1226707E+00
        -11   -1    0    0    0    0  0.00000000000E+00  0.00000000000E+00  0.45593999997E+02  0.45594000000E+02  0.51100000000E-03 0.  1.
         11   -1    0    0    0    0 -0.00000000000E+00 -0.00000000000E+00 -0.45593999997E+02  0.45594000000E+02  0.51100000000E-03 0. -1.
    9900012    2    1    2    0    0 -0.14290040943E+02  0.58912691030E+00 -0.12087933060E+02  0.72461802673E+02  0.70000302716E+02 0.  0.
        -12    1    1    2    0    0  0.14290040943E+02 -0.58912691030E+00  0.12087933060E+02  0.18726197327E+02  0.00000000000E+00 0.  1.
         11    1    3    3    0    0  0.61134385922E+01 -0.88462019776E+01 -0.17595610566E+02  0.20621225286E+02  0.51100000000E-03 0. -1.
        -11    1    3    3    0    0 -0.12636681661E+02 -0.18557983608E+02  0.13330383846E+01  0.22491364356E+02  0.51100000000E-03 0.  1.
        -12    1    3    3    0    0 -0.77667978741E+01  0.27993312496E+02  0.41746391218E+01  0.29349213031E+02  0.00000000000E+00 0.  1.
</event>
<event>
 7    1  0.2700104E-013  0.7246159E+02  0.7816164E-02  0.1226708E+00
        -11   -1    0    0    0    0  0.00000000000E+00  0.00000000000E+00  0.45593999997E+02  0.45594000000E+02  0.51100000000E-03 0.  1.
         11   -1    0    0    0    0 -0.00000000000E+00 -0.00000000000E+00 -0.45593999997E+02  0.45594000000E+02  0.51100000000E-03 0. -1.
    9900012    2    1    2    0    0 -0.15507441660E+02 -0.65953574246E+01 -0.81669489857E+01  0.72461587046E+02  0.70000021822E+02 0.  0.
        -12    1    1    2    0    0  0.15507441660E+02  0.65953574246E+01  0.81669489857E+01  0.18726412954E+02  0.00000000000E+00 0.  1.
         11    1    3    3    0    0  0.33399996470E+01 -0.43434565994E+01 -0.18872703759E+01  0.57950843485E+01  0.51100000000E-03 0. -1.
        -11    1    3    3    0    0  0.18709364357E+02  0.10033304337E+02  0.10561989656E+02  0.23712088401E+02  0.51100000000E-03 0.  1.
         12    1    3    3    0    0 -0.37556805664E+02 -0.12285205162E+02 -0.16841668266E+02  0.42954414297E+02  0.00000000000E+00 0. -1.
</event>
<event>
 7    1  0.2700104E-013  0.7246161E+02  0.7816164E-02  0.1226708E+00
        -11   -1    0    0    0    0  0.00000000000E+00  0.00000000000E+00  0.45593999997E+02  0.45594000000E+02  0.51100000000E-03 0. -1.
         11   -1    0    0    0    0 -0.00000000000E+00 -0.00000000000E+00 -0.45593999997E+02  0.45594000000E+02  0.51100000000E-03 0.  1.
    9900012    2    1    2    0    0 -0.26714087642E+00  0.17057887179E+02 -0.77223457434E+01  0.72461614790E+02  0.70000057964E+02 0.  0.
        -12    1    1    2    0    0  0.26714087642E+00 -0.17057887179E+02  0.77223457434E+01  0.18726385210E+02  0.00000000000E+00 0.  1.
         11    1    3    3    0    0  0.10746978835E+02  0.10171658046E+02 -0.63135473465E+01  0.16087916641E+02  0.51100000000E-03 0. -1.
        -11    1    3    3    0    0  0.16851057401E+02  0.19040080629E+02 -0.44831663416E+01  0.25818241354E+02  0.51100000000E-03 0.  1.
         12    1    3    3    0    0 -0.27865177112E+02 -0.12153851497E+02  0.30743679448E+01  0.30555456795E+02  0.00000000000E+00 0. -1.
</event>
<event>
 7    1  0.2700104E-013  0.7246230E+02  0.7816164E-02  0.1226706E+00
        -11   -1    0    0    0    0  0.00000000000E+00  0.00000000000E+00  0.45593999997E+02  0.45594000000E+02  0.51100000000E-03 0. -1.
         11   -1    0    0    0    0 -0.00000000000E+00 -0.00000000000E+00 -0.45593999997E+02  0.45594000000E+02  0.51100000000E-03 0.  1.
    9900012    2    1    2    0    0  0.13915489709E+02  0.12212962982E+02 -0.28026240448E+01  0.72462295203E+02  0.70000944321E+02 0.  0.
        -12    1    1    2    0    0 -0.13915489709E+02 -0.12212962982E+02  0.28026240448E+01  0.18725704797E+02  0.00000000000E+00 0.  1.
         11    1    3    3    0    0 -0.42529413977E+01  0.46171928934E+01 -0.36394169304E+01  0.72561240757E+01  0.51100000000E-03 0. -1.
        -11    1    3    3    0    0  0.12476623170E+02  0.34816410325E+02 -0.31241560707E+01  0.37116154233E+02  0.51100000000E-03 0.  1.
        -12    1    3    3    0    0  0.56918079363E+01 -0.27220640236E+02  0.39609489564E+01  0.28090016894E+02  0.00000000000E+00 0.  1.
</event>
<event>
 7    1  0.2700104E-013  0.7246156E+02  0.7816164E-02  0.1226708E+00
        -11   -1    0    0    0    0  0.00000000000E+00  0.00000000000E+00  0.45593999997E+02  0.45594000000E+02  0.51100000000E-03 0. -1.
         11   -1    0    0    0    0 -0.00000000000E+00 -0.00000000000E+00 -0.45593999997E+02  0.45594000000E+02  0.51100000000E-03 0.  1.
    9900012    2    1    2    0    0  0.68055461103E+01  0.12070229779E+01  0.17404231190E+02  0.72461558116E+02  0.69999984135E+02 0.  0.
        -12    1    1    2    0    0 -0.68055461103E+01 -0.12070229779E+01 -0.17404231190E+02  0.18726441884E+02  0.00000000000E+00 0.  1.
         11    1    3    3    0    0 -0.19930810938E+01 -0.95716808621E+01 -0.19933780622E+01  0.99781262335E+01  0.51100000000E-03 0. -1.
        -11    1    3    3    0    0  0.10232198512E+02  0.78486615987E+00 -0.19641019808E+02  0.22160405245E+02  0.51100000000E-03 0.  1.
         12    1    3    3    0    0 -0.14335713082E+01  0.99938376801E+01  0.39038629060E+02  0.40323026637E+02  0.00000000000E+00 0. -1.
</event>
<event>
 7    1  0.2700104E-013  0.7246153E+02  0.7816164E-02  0.1226708E+00
        -11   -1    0    0    0    0  0.00000000000E+00  0.00000000000E+00  0.45593999997E+02  0.45594000000E+02  0.51100000000E-03 0. -1.
         11   -1    0    0    0    0 -0.00000000000E+00 -0.00000000000E+00 -0.45593999997E+02  0.45594000000E+02  0.51100000000E-03 0.  1.
    9900012    2    1    2    0    0  0.87080897103E+01 -0.19234614320E+01  0.16466636201E+02  0.72461531084E+02  0.69999948922E+02 0.  0.
        -12    1    1    2    0    0 -0.87080897103E+01  0.19234614320E+01 -0.16466636201E+02  0.18726468916E+02  0.00000000000E+00 0.  1.
         11    1    3    3    0    0  0.13858067388E+02  0.75312888747E+01  0.69419124754E+00  0.15787597841E+02  0.51100000000E-03 0. -1.
        -11    1    3    3    0    0 -0.27017958588E+01 -0.19311372670E+02 -0.14786311465E+02  0.24471694308E+02  0.51100000000E-03 0.  1.
         12    1    3    3    0    0 -0.24481818189E+01  0.98566223636E+01  0.30558756418E+02  0.32202238936E+02  0.00000000000E+00 0. -1.
</event>
<event>
 7    1  0.2700104E-013  0.7246145E+02  0.7816164E-02  0.1226708E+00
        -11   -1    0    0    0    0  0.00000000000E+00  0.00000000000E+00  0.45593999997E+02  0.45594000000E+02  0.51100000000E-03 0. -1.
         11   -1    0    0    0    0 -0.00000000000E+00 -0.00000000000E+00 -0.45593999997E+02  0.45594000000E+02  0.51100000000E-03 0.  1.
    9900012    2    1    2    0    0  0.16427400173E+02 -0.52181178563E+01  0.73208904947E+01  0.72461450183E+02  0.69999843532E+02 0.  0.
        -12    1    1    2    0    0 -0.16427400173E+02  0.52181178563E+01 -0.73208904947E+01  0.18726549817E+02  0.00000000000E+00 0.  1.
         11    1    3    3    0    0  0.37624786478E+01 -0.30032188226E+00  0.27826015858E+02  0.28080840400E+02  0.51100000000E-03 0. -1.
        -11    1    3    3    0    0 -0.91705323771E+01 -0.86925962388E+01  0.20047833215E+01  0.12793711341E+02  0.51100000000E-03 0.  1.
        -12    1    3    3    0    0  0.21835453903E+02  0.37748002647E+01 -0.22509908684E+02  0.31586898442E+02  0.00000000000E+00 0.  1.
</event>
<event>
 7    1  0.2700104E-013  0.7246116E+02  0.7816164E-02  0.1226709E+00
        -11   -1    0    0    0    0  0.00000000000E+00  0.00000000000E+00  0.45593999997E+02  0.45594000000E+02  0.51100000000E-03 0.  1.
         11   -1    0    0    0    0 -0.00000000000E+00 -0.00000000000E+00 -0.45593999997E+02  0.45594000000E+02  0.51100000000E-03 0. -1.
    9900012    2    1    2    0    0  0.13191843691E+02 -0.49614325293E+01 -0.12331012689E+02  0.72461162930E+02  0.69999469330E+02 0.  0.
        -12    1    1    2    0    0 -0.13191843691E+02  0.49614325293E+01  0.12331012689E+02  0.18726837070E+02  0.00000000000E+00 0.  1.
         11    1    3    3    0    0  0.13150966526E+02 -0.16193897097E+02 -0.16199655676E+02  0.26412479400E+02  0.51100000000E-03 0. -1.
        -11    1    3    3    0    0  0.27966619330E+01 -0.14609769239E+02  0.11678586626E+02  0.18911796874E+02  0.51100000000E-03 0.  1.
        -12    1    3    3    0    0 -0.27557847677E+01  0.25842233806E+02 -0.78099436385E+01  0.27136886656E+02  0.00000000000E+00 0.  1.
</event>
<event>
 7    1  0.2700104E-013  0.7246163E+02  0.7816164E-02  0.1226708E+00
        -11   -1    0    0    0    0  0.00000000000E+00  0.00000000000E+00  0.45593999997E+02  0.45594000000E+02  0.51100000000E-03 0. -1.
         11   -1    0    0    0    0 -0.00000000000E+00 -0.00000000000E+00 -0.45593999997E+02  0.45594000000E+02  0.51100000000E-03 0.  1.
    9900012    2    1    2    0    0  0.60120863729E+01  0.79338895101E+01  0.15861432331E+02  0.72461633003E+02  0.70000081689E+02 0.  0.
        -12    1    1    2    0    0 -0.60120863729E+01 -0.79338895101E+01 -0.15861432331E+02  0.18726366997E+02  0.00000000000E+00 0.  1.
         11    1    3    3    0    0  0.12624905846E+02 -0.10038499874E+02  0.73075507855E+01  0.17707626213E+02  0.51100000000E-03 0. -1.
        -11    1    3    3    0    0  0.13604093875E+01 -0.52580185556E+01 -0.17870794691E+02  0.18677868614E+02  0.51100000000E-03 0.  1.
         12    1    3    3    0    0 -0.79732288608E+01  0.23230407940E+02  0.26424676236E+02  0.36076138176E+02  0.00000000000E+00 0. -1.
</event>
<event>
 7    1  0.2700104E-013  0.7246158E+02  0.7816164E-02  0.1226708E+00
        -11   -1    0    0    0    0  0.00000000000E+00  0.00000000000E+00  0.45593999997E+02  0.45594000000E+02  0.51100000000E-03 0.  1.
         11   -1    0    0    0    0 -0.00000000000E+00 -0.00000000000E+00 -0.45593999997E+02  0.45594000000E+02  0.51100000000E-03 0. -1.
    9900012    2    1    2    0    0 -0.18538110360E+02 -0.21020719843E+01 -0.16120180472E+01  0.72461578972E+02  0.70000011304E+02 0.  0.
        -12    1    1    2    0    0  0.18538110360E+02  0.21020719843E+01  0.16120180472E+01  0.18726421028E+02  0.00000000000E+00 0.  1.
         11    1    3    3    0    0 -0.24425947879E+01 -0.49034934105E+01  0.90218578918E+01  0.10554830032E+02  0.51100000000E-03 0. -1.
        -11    1    3    3    0    0 -0.87696858142E+01 -0.15654998414E+02  0.19064794404E+02  0.26181152582E+02  0.51100000000E-03 0.  1.
         12    1    3    3    0    0 -0.73258297577E+01  0.18456419841E+02 -0.29698670343E+02  0.35725596357E+02  0.00000000000E+00 0. -1.
</event>
<event>
 7    1  0.2700104E-013  0.7246155E+02  0.7816164E-02  0.1226708E+00
        -11   -1    0    0    0    0  0.00000000000E+00  0.00000000000E+00  0.45593999997E+02  0.45594000000E+02  0.51100000000E-03 0. -1.
         11   -1    0    0    0    0 -0.00000000000E+00 -0.00000000000E+00 -0.45593999997E+02  0.45594000000E+02  0.51100000000E-03 0.  1.
    9900012    2    1    2    0    0  0.15235849200E+02 -0.75380602922E+01  0.78566149472E+01  0.72461552065E+02  0.69999976253E+02 0.  0.
        -12    1    1    2    0    0 -0.15235849200E+02  0.75380602922E+01 -0.78566149472E+01  0.18726447935E+02  0.00000000000E+00 0.  1.
         11    1    3    3    0    0  0.10272257256E+02 -0.16882424154E+02 -0.11027172534E+02  0.22630378892E+02  0.51100000000E-03 0. -1.
        -11    1    3    3    0    0  0.22218114691E+02 -0.29156779942E+01  0.15313808554E+01  0.22460875454E+02  0.51100000000E-03 0.  1.
        -12    1    3    3    0    0 -0.17254522747E+02  0.12260041856E+02  0.17352406626E+02  0.27370297719E+02  0.00000000000E+00 0.  1.
</event>
<event>
 7    1  0.2700104E-013  0.7246137E+02  0.7816164E-02  0.1226709E+00
        -11   -1    0    0    0    0  0.00000000000E+00  0.00000000000E+00  0.45593999997E+02  0.45594000000E+02  0.51100000000E-03 0.  1.
         11   -1    0    0    0    0 -0.00000000000E+00 -0.00000000000E+00 -0.45593999997E+02  0.45594000000E+02  0.51100000000E-03 0. -1.
    9900012    2    1    2    0    0 -0.13268326286E+02 -0.65305295339E+01  0.11488711508E+02  0.72461366813E+02  0.69999734927E+02 0.  0.
        -12    1    1    2    0    0  0.13268326286E+02  0.65305295339E+01 -0.11488711508E+02  0.18726633187E+02  0.00000000000E+00 0.  1.
         11    1    3    3    0    0 -0.33972274855E+02 -0.14524891455E+02 -0.15441768342E+01  0.36979351170E+02  0.51100000000E-03 0. -1.
        -11    1    3    3    0    0  0.35719506794E+01 -0.82472166147E+01  0.11745271442E+01  0.90639355591E+01  0.51100000000E-03 0.  1.
        -12    1    3    3    0    0  0.17131997889E+02  0.16241578536E+02  0.11858361198E+02  0.26418080084E+02  0.00000000000E+00 0.  1.
</event>
<event>
 7    1  0.2700104E-013  0.7246160E+02  0.7816164E-02  0.1226708E+00
        -11   -1    0    0    0    0  0.00000000000E+00  0.00000000000E+00  0.45593999997E+02  0.45594000000E+02  0.51100000000E-03 0. -1.
         11   -1    0    0    0    0 -0.00000000000E+00 -0.00000000000E+00 -0.45593999997E+02  0.45594000000E+02  0.51100000000E-03 0.  1.
    9900012    2    1    2    0    0  0.63279703935E+01  0.63515790985E+01  0.16440572914E+02  0.72461596071E+02  0.70000033579E+02 0.  0.
        -12    1    1    2    0    0 -0.63279703935E+01 -0.63515790985E+01 -0.16440572914E+02  0.18726403929E+02  0.00000000000E+00 0.  1.
         11    1    3    3    0    0 -0.24097359664E+02  0.37690099953E+01  0.26960950723E+02  0.36356306788E+02  0.51100000000E-03 0. -1.
        -11    1    3    3    0    0 -0.13575899118E+01 -0.14561716245E+01  0.77152301099E+00  0.21351192440E+01  0.51100000000E-03 0.  1.
        -12    1    3    3    0    0  0.31782919969E+02  0.40387407277E+01 -0.11291900819E+02  0.33970170040E+02  0.00000000000E+00 0.  1.
</event>
<event>
 7    1  0.2700104E-013  0.7246157E+02  0.7816164E-02  0.1226708E+00
        -11   -1    0    0    0    0  0.00000000000E+00  0.00000000000E+00  0.45593999997E+02  0.45594000000E+02  0.51100000000E-03 0. -1.
         11   -1    0    0    0    0 -0.00000000000E+00 -0.00000000000E+00 -0.45593999997E+02  0.45594000000E+02  0.51100000000E-03 0.  1.
    9900012    2    1    2    0    0 -0.13632499389E+02  0.16772849246E+01  0.12728747723E+02  0.72461565665E+02  0.69999993970E+02 0.  0.
        -12    1    1    2    0    0  0.13632499389E+02 -0.16772849246E+01 -0.12728747723E+02  0.18726434335E+02  0.00000000000E+00 0.  1.
         11    1    3    3    0    0 -0.92542883165E+01 -0.12935925214E+01  0.32941690664E+00  0.93500668242E+01  0.51100000000E-03 0. -1.
        -11    1    3    3    0    0 -0.28801598668E+02  0.94547550692E+00 -0.94004080419E+01  0.30311609680E+02  0.51100000000E-03 0.  1.
         12    1    3    3    0    0  0.24423387596E+02  0.20254019391E+01  0.21799738858E+02  0.32799889161E+02  0.00000000000E+00 0. -1.
</event>
<event>
 7    1  0.2700104E-013  0.7246153E+02  0.7816164E-02  0.1226708E+00
        -11   -1    0    0    0    0  0.00000000000E+00  0.00000000000E+00  0.45593999997E+02  0.45594000000E+02  0.51100000000E-03 0. -1.
         11   -1    0    0    0    0 -0.00000000000E+00 -0.00000000000E+00 -0.45593999997E+02  0.45594000000E+02  0.51100000000E-03 0.  1.
    9900012    2    1    2    0    0  0.15364101897E+02 -0.46398012331E+01 -0.96486936343E+01  0.72461530193E+02  0.69999947761E+02 0.  0.
        -12    1    1    2    0    0 -0.15364101897E+02  0.46398012331E+01  0.96486936343E+01  0.18726469807E+02  0.00000000000E+00 0.  1.
         11    1    3    3    0    0  0.22648380065E+00 -0.26982407433E+02  0.44143186206E+01  0.27342052134E+02  0.51100000000E-03 0. -1.
        -11    1    3    3    0    0  0.57541161441E+00  0.61689295296E+00  0.97271280509E+01  0.97636405004E+01  0.51100000000E-03 0.  1.
        -12    1    3    3    0    0  0.14562206482E+02  0.21725713246E+02 -0.23790140306E+02  0.35355837558E+02  0.00000000000E+00 0.  1.
</event>
<event>
 7    1  0.2700104E-013  0.7246166E+02  0.7816164E-02  0.1226708E+00
        -11   -1    0    0    0    0  0.00000000000E+00  0.00000000000E+00  0.45593999997E+02  0.45594000000E+02  0.51100000000E-03 0.  1.
         11   -1    0    0    0    0 -0.00000000000E+00 -0.00000000000E+00 -0.45593999997E+02  0.45594000000E+02  0.51100000000E-03 0. -1.
    9900012    2    1    2    0    0 -0.10550205038E+02 -0.11024028722E+02  0.10855405128E+02  0.72461658763E+02  0.70000115247E+02 0.  0.
        -12    1    1    2    0    0  0.10550205038E+02  0.11024028722E+02 -0.10855405128E+02  0.18726341237E+02  0.00000000000E+00 0.  1.
         11    1    3    3    0    0  0.16054003187E+02 -0.11741362074E+02 -0.12824213677E+02  0.23665397913E+02  0.51100000000E-03 0. -1.
        -11    1    3    3    0    0 -0.18905687082E+02 -0.10749519628E+02  0.42833396890E+00  0.21752256125E+02  0.51100000000E-03 0.  1.
        -12    1    3    3    0    0 -0.76985211436E+01  0.11466852980E+02  0.23251284836E+02  0.27044004726E+02  0.00000000000E+00 0.  1.
</event>
<event>
 7    1  0.2700104E-013  0.7246160E+02  0.7816164E-02  0.1226708E+00
        -11   -1    0    0    0    0  0.00000000000E+00  0.00000000000E+00  0.45593999997E+02  0.45594000000E+02  0.51100000000E-03 0. -1.
         11   -1    0    0    0    0 -0.00000000000E+00 -0.00000000000E+00 -0.45593999997E+02  0.45594000000E+02  0.51100000000E-03 0.  1.
    9900012    2    1    2    0    0 -0.16769702110E+02 -0.77290223081E+01 -0.31172879277E+01  0.72461596749E+02  0.70000034463E+02 0.  0.
        -12    1    1    2    0    0  0.16769702110E+02  0.77290223081E+01  0.31172879277E+01  0.18726403251E+02  0.00000000000E+00 0.  1.
         11    1    3    3    0    0 -0.12507190580E+02  0.79878496807E+01  0.18496739760E+01  0.14955161410E+02  0.51100000000E-03 0. -1.
        -11    1    3    3    0    0 -0.19852629456E+02  0.76587042689E+01 -0.16708096039E+02  0.27054447340E+02  0.51100000000E-03 0.  1.
         12    1    3    3    0    0  0.15590117926E+02 -0.23375576258E+02  0.11741134135E+02  0.30451987999E+02  0.00000000000E+00 0. -1.
</event>
<event>
 7    1  0.2700104E-013  0.7246153E+02  0.7816164E-02  0.1226708E+00
        -11   -1    0    0    0    0  0.00000000000E+00  0.00000000000E+00  0.45593999997E+02  0.45594000000E+02  0.51100000000E-03 0.  1.
         11   -1    0    0    0    0 -0.00000000000E+00 -0.00000000000E+00 -0.45593999997E+02  0.45594000000E+02  0.51100000000E-03 0. -1.
    9900012    2    1    2    0    0 -0.51442685199E+01  0.13782798972E+02 -0.11586695805E+02  0.72461533014E+02  0.69999951435E+02 0.  0.
        -12    1    1    2    0    0  0.51442685199E+01 -0.13782798972E+02  0.11586695805E+02  0.18726466986E+02  0.00000000000E+00 0.  1.
         11    1    3    3    0    0  0.12093117416E+02  0.29502012289E+02 -0.82991188867E+01  0.32946738724E+02  0.51100000000E-03 0. -1.
        -11    1    3    3    0    0 -0.19389726573E+02  0.22652971628E+01 -0.75099337859E+01  0.20916313574E+02  0.51100000000E-03 0.  1.
        -12    1    3    3    0    0  0.21523406366E+01 -0.17984510480E+02  0.42223568678E+01  0.18598480716E+02  0.00000000000E+00 0.  1.
</event>
<event>
 7    1  0.2700104E-013  0.7246154E+02  0.7816164E-02  0.1226708E+00
        -11   -1    0    0    0    0  0.00000000000E+00  0.00000000000E+00  0.45593999997E+02  0.45594000000E+02  0.51100000000E-03 0.  1.
         11   -1    0    0    0    0 -0.00000000000E+00 -0.00000000000E+00 -0.45593999997E+02  0.45594000000E+02  0.51100000000E-03 0. -1.
    9900012    2    1    2    0    0  0.60292467295E+01  0.10003309667E+02 -0.14637703389E+02  0.72461537950E+02  0.69999957865E+02 0.  0.
        -12    1    1    2    0    0 -0.60292467295E+01 -0.10003309667E+02  0.14637703389E+02  0.18726462050E+02  0.00000000000E+00 0.  1.
         11    1    3    3    0    0  0.93417942437E+01  0.87409393025E+01  0.17325794280E+02  0.21537323122E+02  0.51100000000E-03 0. -1.
        -11    1    3    3    0    0  0.16726538243E+02 -0.22295406550E+01 -0.59294977223E+01  0.17885940753E+02  0.51100000000E-03 0.  1.
         12    1    3    3    0    0 -0.20039085757E+02  0.34919110197E+01 -0.26033999947E+02  0.33038274074E+02  0.00000000000E+00 0. -1.
</event>
<event>
 7    1  0.2700104E-013  0.7246165E+02  0.7816164E-02  0.1226708E+00
        -11   -1    0    0    0    0  0.00000000000E+00  0.00000000000E+00  0.45593999997E+02  0.45594000000E+02  0.51100000000E-03 0.  1.
         11   -1    0    0    0    0 -0.00000000000E+00 -0.00000000000E+00 -0.45593999997E+02  0.45594000000E+02  0.51100000000E-03 0. -1.
    9900012    2    1    2    0    0 -0.14810443172E+02 -0.13217161025E+01  0.11383324703E+02  0.72461648467E+02  0.70000101835E+02 0.  0.
        -12    1    1    2    0    0  0.14810443172E+02  0.13217161025E+01 -0.11383324703E+02  0.18726351533E+02  0.00000000000E+00 0.  1.
         11    1    3    3    0    0  0.20772203175E+02  0.10060575549E+02  0.12830045055E+02  0.26406621546E+02  0.51100000000E-03 0. -1.
        -11    1    3    3    0    0 -0.15928387405E+02  0.55790233310E+01  0.76719635680E+01  0.18539095228E+02  0.51100000000E-03 0.  1.
         12    1    3    3    0    0 -0.19654258943E+02 -0.16961314982E+02 -0.91186839193E+01  0.27515931693E+02  0.00000000000E+00 0. -1.
</event>
<event>
 7    1  0.2700104E-013  0.7246159E+02  0.7816164E-02  0.1226708E+00
        -11   -1    0    0    0    0  0.00000000000E+00  0.00000000000E+00  0.45593999997E+02  0.45594000000E+02  0.51100000000E-03 0.  1.
         11   -1    0    0    0    0 -0.00000000000E+00 -0.00000000000E+00 -0.45593999997E+02  0.45594000000E+02  0.51100000000E-03 0. -1.
    9900012    2    1    2    0    0  0.15632173601E+02 -0.10169960410E+02  0.16987183989E+01  0.72461585757E+02  0.70000020143E+02 0.  0.
        -12    1    1    2    0    0 -0.15632173601E+02  0.10169960410E+02 -0.16987183989E+01  0.18726414243E+02  0.00000000000E+00 0.  1.
         11    1    3    3    0    0 -0.23714257170E+01 -0.14877698305E+02 -0.22821481649E+01  0.15237380592E+02  0.51100000000E-03 0. -1.
        -11    1    3    3    0    0  0.64602726008E+01 -0.24600298734E+02 -0.29382790540E+00  0.25436119102E+02  0.51100000000E-03 0.  1.
        -12    1    3    3    0    0  0.11543326717E+02  0.29308036629E+02  0.42746944692E+01  0.31788086063E+02  0.00000000000E+00 0.  1.
</event>
<event>
 7    1  0.2700104E-013  0.7246168E+02  0.7816164E-02  0.1226708E+00
        -11   -1    0    0    0    0  0.00000000000E+00  0.00000000000E+00  0.45593999997E+02  0.45594000000E+02  0.51100000000E-03 0.  1.
         11   -1    0    0    0    0 -0.00000000000E+00 -0.00000000000E+00 -0.45593999997E+02  0.45594000000E+02  0.51100000000E-03 0. -1.
    9900012    2    1    2    0    0  0.11936231389E+02  0.85088651892E+01 -0.11653355979E+02  0.72461678628E+02  0.70000141124E+02 0.  0.
        -12    1    1    2    0    0 -0.11936231389E+02 -0.85088651892E+01  0.11653355979E+02  0.18726321372E+02  0.00000000000E+00 0.  1.
         11    1    3    3    0    0  0.48383040456E+01  0.15584762564E+01  0.32388727479E+01  0.60272988326E+01  0.51100000000E-03 0. -1.
        -11    1    3    3    0    0  0.14019432824E+02  0.19003831283E+02  0.18672412963E+02  0.30105632468E+02  0.51100000000E-03 0.  1.
         12    1    3    3    0    0 -0.69215054814E+01 -0.12053442350E+02 -0.33564641690E+02  0.36328747327E+02  0.00000000000E+00 0. -1.
</event>
<event>
 7    1  0.2700104E-013  0.7246154E+02  0.7816164E-02  0.1226708E+00
        -11   -1    0    0    0    0  0.00000000000E+00  0.00000000000E+00  0.45593999997E+02  0.45594000000E+02  0.51100000000E-03 0.  1.
         11   -1    0    0    0    0 -0.00000000000E+00 -0.00000000000E+00 -0.45593999997E+02  0.45594000000E+02  0.51100000000E-03 0. -1.
    9900012    2    1    2    0    0 -0.16104998244E+02 -0.10733062947E+01 -0.94951301998E+01  0.72461536043E+02  0.69999955381E+02 0.  0.
        -12    1    1    2    0    0  0.16104998244E+02  0.10733062947E+01  0.94951301998E+01  0.18726463957E+02  0.00000000000E+00 0.  1.
         11    1    3    3    0    0  0.24115734768E+01  0.39304884804E+01  0.18313550097E+02  0.18885193770E+02  0.51100000000E-03 0. -1.
        -11    1    3    3    0    0  0.18741992787E+01 -0.20170475629E+02 -0.10386255862E+02  0.22764775885E+02  0.51100000000E-03 0.  1.
         12    1    3    3    0    0 -0.20390770999E+02  0.15166680853E+02 -0.17422424435E+02  0.30811566387E+02  0.00000000000E+00 0. -1.
</event>
<event>
 7    1  0.2930692E-013  0.7246154E+02  0.7816164E-02  0.1226708E+00
        -11   -1    0    0    0    0  0.00000000000E+00  0.00000000000E+00  0.45593999997E+02  0.45594000000E+02  0.51100000000E-03 0.  1.
         11   -1    0    0    0    0 -0.00000000000E+00 -0.00000000000E+00 -0.45593999997E+02  0.45594000000E+02  0.51100000000E-03 0. -1.
    9900012    2    1    2    0    0 -0.80821133155E+01 -0.16892520222E+02  0.49410490732E-01  0.72461541806E+02  0.69999962888E+02 0.  0.
        -12    1    1    2    0    0  0.80821133155E+01  0.16892520222E+02 -0.49410490732E-01  0.18726458194E+02  0.00000000000E+00 0.  1.
         11    1    3    3    0    0 -0.72767955286E+01 -0.30738753341E+02 -0.18956623078E+02  0.36839873356E+02  0.51100000000E-03 0. -1.
        -11    1    3    3    0    0 -0.10875529987E+02 -0.20872247779E+01  0.90694196323E+01  0.14313910454E+02  0.51100000000E-03 0.  1.
        -12    1    3    3    0    0  0.10070212200E+02  0.15933457896E+02  0.99366139362E+01  0.21307757996E+02  0.00000000000E+00 0.  1.
</event>
<event>
 7    1  0.2700104E-013  0.7246169E+02  0.7816164E-02  0.1226708E+00
        -11   -1    0    0    0    0  0.00000000000E+00  0.00000000000E+00  0.45593999997E+02  0.45594000000E+02  0.51100000000E-03 0. -1.
         11   -1    0    0    0    0 -0.00000000000E+00 -0.00000000000E+00 -0.45593999997E+02  0.45594000000E+02  0.51100000000E-03 0.  1.
    9900012    2    1    2    0    0 -0.21525849634E+01  0.99000533241E+01  0.15748965245E+02  0.72461692726E+02  0.70000159490E+02 0.  0.
        -12    1    1    2    0    0  0.21525849634E+01 -0.99000533241E+01 -0.15748965245E+02  0.18726307274E+02  0.00000000000E+00 0.  1.
         11    1    3    3    0    0 -0.17905615700E+00  0.65863673262E+01  0.22432431799E+02  0.23380040469E+02  0.51100000000E-03 0. -1.
        -11    1    3    3    0    0 -0.67889174751E+01  0.11235204037E+02  0.18249942853E+02  0.22480650005E+02  0.51100000000E-03 0.  1.
        -12    1    3    3    0    0  0.48153886687E+01 -0.79215180395E+01 -0.24933409408E+02  0.26601002251E+02  0.00000000000E+00 0.  1.
</event>
<event>
 7    1  0.2700104E-013  0.7246153E+02  0.7816164E-02  0.1226708E+00
        -11   -1    0    0    0    0  0.00000000000E+00  0.00000000000E+00  0.45593999997E+02  0.45594000000E+02  0.51100000000E-03 0.  1.
         11   -1    0    0    0    0 -0.00000000000E+00 -0.00000000000E+00 -0.45593999997E+02  0.45594000000E+02  0.51100000000E-03 0. -1.
    9900012    2    1    2    0    0 -0.19279863339E+01  0.31578034310E+01 -0.18357334035E+02  0.72461532989E+02  0.69999951403E+02 0.  0.
        -12    1    1    2    0    0  0.19279863339E+01 -0.31578034310E+01  0.18357334035E+02  0.18726467011E+02  0.00000000000E+00 0.  1.
         11    1    3    3    0    0 -0.50354634545E+01 -0.11016508017E+02 -0.10255691852E+02  0.15871312381E+02  0.51100000000E-03 0. -1.
        -11    1    3    3    0    0  0.25021159590E+02 -0.60123525023E+01 -0.74997152374E-01  0.25733488583E+02  0.51100000000E-03 0.  1.
         12    1    3    3    0    0 -0.21913682469E+02  0.20186663950E+02 -0.80266450312E+01  0.30856732025E+02  0.00000000000E+00 0. -1.
</event>
<event>
 7    1  0.2700104E-013  0.7246160E+02  0.7816164E-02  0.1226708E+00
        -11   -1    0    0    0    0  0.00000000000E+00  0.00000000000E+00  0.45593999997E+02  0.45594000000E+02  0.51100000000E-03 0.  1.
         11   -1    0    0    0    0 -0.00000000000E+00 -0.00000000000E+00 -0.45593999997E+02  0.45594000000E+02  0.51100000000E-03 0. -1.
    9900012    2    1    2    0    0 -0.16109802168E+02 -0.46376623812E+01  0.83453230284E+01  0.72461600060E+02  0.70000038775E+02 0.  0.
        -12    1    1    2    0    0  0.16109802168E+02  0.46376623812E+01 -0.83453230284E+01  0.18726399940E+02  0.00000000000E+00 0.  1.
         11    1    3    3    0    0 -0.11278355674E+02 -0.49404179768E+01 -0.16063313173E+02  0.20239542160E+02  0.51100000000E-03 0. -1.
        -11    1    3    3    0    0 -0.17243555655E+02 -0.26348479264E+01  0.32663034567E+02  0.37029129919E+02  0.51100000000E-03 0.  1.
         12    1    3    3    0    0  0.12412109160E+02  0.29376035221E+01 -0.82543983652E+01  0.15192927981E+02  0.00000000000E+00 0. -1.
</event>
<event>
 7    1  0.2700104E-013  0.7246161E+02  0.7816164E-02  0.1226708E+00
        -11   -1    0    0    0    0  0.00000000000E+00  0.00000000000E+00  0.45593999997E+02  0.45594000000E+02  0.51100000000E-03 0. -1.
         11   -1    0    0    0    0 -0.00000000000E+00 -0.00000000000E+00 -0.45593999997E+02  0.45594000000E+02  0.51100000000E-03 0.  1.
    9900012    2    1    2    0    0 -0.16458086033E+02 -0.89188973657E+01 -0.51236119443E+00  0.72461605791E+02  0.70000046241E+02 0.  0.
        -12    1    1    2    0    0  0.16458086033E+02  0.89188973657E+01  0.51236119443E+00  0.18726394209E+02  0.00000000000E+00 0.  1.
         11    1    3    3    0    0  0.52980125850E+01  0.83791307971E+01 -0.15833658394E+01  0.10039214008E+02  0.51100000000E-03 0. -1.
        -11    1    3    3    0    0  0.10123286589E+02 -0.19739573637E+01 -0.19097887134E+02  0.21704993257E+02  0.51100000000E-03 0.  1.
         12    1    3    3    0    0 -0.31879385207E+02 -0.15324070799E+02  0.20168891779E+02  0.40717398525E+02  0.00000000000E+00 0. -1.
</event>
<event>
 7    1  0.2700104E-013  0.7246160E+02  0.7816164E-02  0.1226708E+00
        -11   -1    0    0    0    0  0.00000000000E+00  0.00000000000E+00  0.45593999997E+02  0.45594000000E+02  0.51100000000E-03 0. -1.
         11   -1    0    0    0    0 -0.00000000000E+00 -0.00000000000E+00 -0.45593999997E+02  0.45594000000E+02  0.51100000000E-03 0.  1.
    9900012    2    1    2    0    0 -0.15880168397E+02  0.88121595126E+01  0.45655417539E+01  0.72461599516E+02  0.70000038066E+02 0.  0.
        -12    1    1    2    0    0  0.15880168397E+02 -0.88121595126E+01 -0.45655417539E+01  0.18726400484E+02  0.00000000000E+00 0.  1.
         11    1    3    3    0    0 -0.67026104530E+00  0.16105673866E+01 -0.23817735049E+01  0.29522910536E+01  0.51100000000E-03 0. -1.
        -11    1    3    3    0    0  0.19759883943E+01  0.26095122295E+02 -0.19580955609E+02  0.32684457477E+02  0.51100000000E-03 0.  1.
         12    1    3    3    0    0 -0.17185895746E+02 -0.18893530169E+02  0.26528270868E+02  0.36824850985E+02  0.00000000000E+00 0. -1.
</event>
<event>
 7    1  0.2700104E-013  0.7246166E+02  0.7816164E-02  0.1226708E+00
        -11   -1    0    0    0    0  0.00000000000E+00  0.00000000000E+00  0.45593999997E+02  0.45594000000E+02  0.51100000000E-03 0. -1.
         11   -1    0    0    0    0 -0.00000000000E+00 -0.00000000000E+00 -0.45593999997E+02  0.45594000000E+02  0.51100000000E-03 0.  1.
    9900012    2    1    2    0    0 -0.11302772245E+02 -0.41121833857E+01 -0.14353162480E+02  0.72461655301E+02  0.70000110737E+02 0.  0.
        -12    1    1    2    0    0  0.11302772245E+02  0.41121833857E+01  0.14353162480E+02  0.18726344699E+02  0.00000000000E+00 0.  1.
         11    1    3    3    0    0 -0.11978329395E+02 -0.27107211804E+02 -0.17268963637E+02  0.34300122627E+02  0.51100000000E-03 0. -1.
        -11    1    3    3    0    0 -0.35973972688E+01 -0.68511372962E+01 -0.81555317188E+00  0.77810331318E+01  0.51100000000E-03 0.  1.
        -12    1    3    3    0    0  0.42729544180E+01  0.29846165714E+02  0.37313543291E+01  0.30380499542E+02  0.00000000000E+00 0.  1.
</event>
<event>
 7    1  0.2700104E-013  0.7246160E+02  0.7816164E-02  0.1226708E+00
        -11   -1    0    0    0    0  0.00000000000E+00  0.00000000000E+00  0.45593999997E+02  0.45594000000E+02  0.51100000000E-03 0.  1.
         11   -1    0    0    0    0 -0.00000000000E+00 -0.00000000000E+00 -0.45593999997E+02  0.45594000000E+02  0.51100000000E-03 0. -1.
    9900012    2    1    2    0    0  0.74687147714E+00 -0.29458764213E+01 -0.18478145934E+02  0.72461604670E+02  0.70000044781E+02 0.  0.
        -12    1    1    2    0    0 -0.74687147714E+00  0.29458764213E+01  0.18478145934E+02  0.18726395330E+02  0.00000000000E+00 0.  1.
         11    1    3    3    0    0  0.85550062020E+00  0.27904081543E+02 -0.10804462760E+02  0.29935030714E+02  0.51100000000E-03 0. -1.
        -11    1    3    3    0    0 -0.59461732156E+01  0.28795894768E+01  0.20916406928E+01  0.69299330814E+01  0.51100000000E-03 0.  1.
        -12    1    3    3    0    0  0.58375440725E+01 -0.33729547441E+02 -0.97653238662E+01  0.35596640875E+02  0.00000000000E+00 0.  1.
</event>
<event>
 7    1  0.2700104E-013  0.7246134E+02  0.7816164E-02  0.1226709E+00
        -11   -1    0    0    0    0  0.00000000000E+00  0.00000000000E+00  0.45593999997E+02  0.45594000000E+02  0.51100000000E-03 0.  1.
         11   -1    0    0    0    0 -0.00000000000E+00 -0.00000000000E+00 -0.45593999997E+02  0.45594000000E+02  0.51100000000E-03 0. -1.
    9900012    2    1    2    0    0  0.18711416403E+02  0.37951602884E+00 -0.65330819366E+00  0.72461335913E+02  0.69999694675E+02 0.  0.
        -12    1    1    2    0    0 -0.18711416403E+02 -0.37951602884E+00  0.65330819366E+00  0.18726664087E+02  0.00000000000E+00 0.  1.
         11    1    3    3    0    0  0.57445847822E+01 -0.95961082467E+01 -0.86446089377E+01  0.14135586714E+02  0.51100000000E-03 0. -1.
        -11    1    3    3    0    0  0.25087393026E+02 -0.63974984906E+01  0.21691526396E+02  0.33776139410E+02  0.51100000000E-03 0.  1.
         12    1    3    3    0    0 -0.12120561405E+02  0.16373122766E+02 -0.13700225652E+02  0.24549609789E+02  0.00000000000E+00 0. -1.
</event>
<event>
 7    1  0.2700104E-013  0.7246134E+02  0.7816164E-02  0.1226709E+00
        -11   -1    0    0    0    0  0.00000000000E+00  0.00000000000E+00  0.45593999997E+02  0.45594000000E+02  0.51100000000E-03 0.  1.
         11   -1    0    0    0    0 -0.00000000000E+00 -0.00000000000E+00 -0.45593999997E+02  0.45594000000E+02  0.51100000000E-03 0. -1.
    9900012    2    1    2    0    0 -0.99920521391E+01  0.16793289707E+01 -0.15748854327E+02  0.72461343482E+02  0.69999704534E+02 0.  0.
        -12    1    1    2    0    0  0.99920521391E+01 -0.16793289707E+01  0.15748854327E+02  0.18726656518E+02  0.00000000000E+00 0.  1.
         11    1    3    3    0    0 -0.94259526126E+01  0.59164239025E+01 -0.95987496720E+01  0.14696552316E+02  0.51100000000E-03 0. -1.
        -11    1    3    3    0    0 -0.86466065604E+01  0.23962929760E+02  0.57365824752E+01  0.26113103731E+02  0.51100000000E-03 0.  1.
         12    1    3    3    0    0  0.80805070339E+01 -0.28200024692E+02 -0.11886687130E+02  0.31651687435E+02  0.00000000000E+00 0. -1.
</event>
<event>
 7    1  0.2700104E-013  0.7246166E+02  0.7816164E-02  0.1226708E+00
        -11   -1    0    0    0    0  0.00000000000E+00  0.00000000000E+00  0.45593999997E+02  0.45594000000E+02  0.51100000000E-03 0. -1.
         11   -1    0    0    0    0 -0.00000000000E+00 -0.00000000000E+00 -0.45593999997E+02  0.45594000000E+02  0.51100000000E-03 0.  1.
    9900012    2    1    2    0    0 -0.12396433805E+02 -0.12272546559E+02  0.68109312286E+01  0.72461661481E+02  0.70000118787E+02 0.  0.
        -12    1    1    2    0    0  0.12396433805E+02  0.12272546559E+02 -0.68109312286E+01  0.18726338519E+02  0.00000000000E+00 0.  1.
         11    1    3    3    0    0 -0.16568463078E+02 -0.27234578522E+02  0.26898156566E+02  0.41710275268E+02  0.51100000000E-03 0. -1.
        -11    1    3    3    0    0 -0.56226546065E+01  0.77539368723E+01 -0.35296953360E+01  0.10207670217E+02  0.51100000000E-03 0.  1.
        -12    1    3    3    0    0  0.97946838801E+01  0.72080950902E+01 -0.16557530002E+02  0.20543715995E+02  0.00000000000E+00 0.  1.
</event>
<event>
 7    1  0.2700104E-013  0.7246138E+02  0.7816164E-02  0.1226709E+00
        -11   -1    0    0    0    0  0.00000000000E+00  0.00000000000E+00  0.45593999997E+02  0.45594000000E+02  0.51100000000E-03 0. -1.
         11   -1    0    0    0    0 -0.00000000000E+00 -0.00000000000E+00 -0.45593999997E+02  0.45594000000E+02  0.51100000000E-03 0.  1.
    9900012    2    1    2    0    0 -0.58127144415E+01  0.22043968827E+01 -0.17664633486E+02  0.72461380151E+02  0.69999752302E+02 0.  0.
        -12    1    1    2    0    0  0.58127144415E+01 -0.22043968827E+01  0.17664633486E+02  0.18726619849E+02  0.00000000000E+00 0.  1.
         11    1    3    3    0    0 -0.24135090541E+02 -0.17402865690E+02 -0.13807692610E+02  0.32802663079E+02  0.51100000000E-03 0. -1.
        -11    1    3    3    0    0  0.67770202872E+01  0.72020256893E+01 -0.16000852603E+02  0.18810222282E+02  0.51100000000E-03 0.  1.
        -12    1    3    3    0    0  0.11545355812E+02  0.12405236883E+02  0.12143911727E+02  0.20848494790E+02  0.00000000000E+00 0.  1.
</event>
<event>
 7    1  0.2700104E-013  0.7246159E+02  0.7816164E-02  0.1226708E+00
        -11   -1    0    0    0    0  0.00000000000E+00  0.00000000000E+00  0.45593999997E+02  0.45594000000E+02  0.51100000000E-03 0. -1.
         11   -1    0    0    0    0 -0.00000000000E+00 -0.00000000000E+00 -0.45593999997E+02  0.45594000000E+02  0.51100000000E-03 0.  1.
    9900012    2    1    2    0    0  0.26343147085E+01  0.42790769564E+01  0.18039633432E+02  0.72461588493E+02  0.70000023707E+02 0.  0.
        -12    1    1    2    0    0 -0.26343147085E+01 -0.42790769564E+01 -0.18039633432E+02  0.18726411507E+02  0.00000000000E+00 0.  1.
         11    1    3    3    0    0  0.45046699971E+00 -0.17282069206E+02  0.15859767202E+02  0.23460712959E+02  0.51100000000E-03 0. -1.
        -11    1    3    3    0    0 -0.33077812375E+01  0.70722720135E+01 -0.20270757679E+02  0.21722386271E+02  0.51100000000E-03 0.  1.
         12    1    3    3    0    0  0.54916289463E+01  0.14488874149E+02  0.22450623909E+02  0.27278489263E+02  0.00000000000E+00 0. -1.
</event>
<event>
 7    1  0.2700104E-013  0.7246152E+02  0.7816164E-02  0.1226708E+00
        -11   -1    0    0    0    0  0.00000000000E+00  0.00000000000E+00  0.45593999997E+02  0.45594000000E+02  0.51100000000E-03 0. -1.
         11   -1    0    0    0    0 -0.00000000000E+00 -0.00000000000E+00 -0.45593999997E+02  0.45594000000E+02  0.51100000000E-03 0.  1.
    9900012    2    1    2    0    0  0.11943066720E+02 -0.14334688342E+02  0.16003381221E+01  0.72461515690E+02  0.69999928867E+02 0.  0.
        -12    1    1    2    0    0 -0.11943066720E+02  0.14334688342E+02 -0.16003381221E+01  0.18726484310E+02  0.00000000000E+00 0.  1.
         11    1    3    3    0    0  0.95406423272E+01 -0.19891755968E+02 -0.14253890766E+02  0.26265551845E+02  0.51100000000E-03 0. -1.
        -11    1    3    3    0    0  0.22022189773E+02  0.83583853237E+01  0.79760611875E+01  0.24868795708E+02  0.51100000000E-03 0.  1.
         12    1    3    3    0    0 -0.19619765381E+02 -0.28013176976E+01  0.78781677003E+01  0.21327168137E+02  0.00000000000E+00 0. -1.
</event>
<event>
 7    1  0.2700104E-013  0.7246163E+02  0.7816164E-02  0.1226708E+00
        -11   -1    0    0    0    0  0.00000000000E+00  0.00000000000E+00  0.45593999997E+02  0.45594000000E+02  0.51100000000E-03 0. -1.
         11   -1    0    0    0    0 -0.00000000000E+00 -0.00000000000E+00 -0.45593999997E+02  0.45594000000E+02  0.51100000000E-03 0.  1.
    9900012    2    1    2    0    0 -0.18411926094E+02 -0.83738477102E+00 -0.33131347428E+01  0.72461625616E+02  0.70000072066E+02 0.  0.
        -12    1    1    2    0    0  0.18411926094E+02  0.83738477102E+00  0.33131347428E+01  0.18726374384E+02  0.00000000000E+00 0.  1.
         11    1    3    3    0    0 -0.45093167971E+01 -0.80667474471E+01 -0.48349615959E+01  0.10429918803E+02  0.51100000000E-03 0. -1.
        -11    1    3    3    0    0 -0.70781925990E+01 -0.23562022286E+02 -0.12407721051E+02  0.27553969707E+02  0.51100000000E-03 0.  1.
         12    1    3    3    0    0 -0.68244166981E+01  0.30791384962E+02  0.13929547904E+02  0.34477737106E+02  0.00000000000E+00 0. -1.
</event>
<event>
 7    1  0.2700104E-013  0.7246157E+02  0.7816164E-02  0.1226708E+00
        -11   -1    0    0    0    0  0.00000000000E+00  0.00000000000E+00  0.45593999997E+02  0.45594000000E+02  0.51100000000E-03 0.  1.
         11   -1    0    0    0    0 -0.00000000000E+00 -0.00000000000E+00 -0.45593999997E+02  0.45594000000E+02  0.51100000000E-03 0. -1.
    9900012    2    1    2    0    0 -0.83736316712E+00 -0.18171223910E+02  0.44479776350E+01  0.72461573205E+02  0.70000003792E+02 0.  0.
        -12    1    1    2    0    0  0.83736316712E+00  0.18171223910E+02 -0.44479776350E+01  0.18726426795E+02  0.00000000000E+00 0.  1.
         11    1    3    3    0    0  0.12303566494E+02 -0.34593782748E+02  0.15469318971E+02  0.39842281347E+02  0.51100000000E-03 0. -1.
        -11    1    3    3    0    0 -0.21138396010E+01  0.47031438664E+01  0.68480919968E+01  0.85722951620E+01  0.51100000000E-03 0.  1.
        -12    1    3    3    0    0 -0.11027090060E+02  0.11719414971E+02 -0.17869433333E+02  0.24046996696E+02  0.00000000000E+00 0.  1.
</event>
<event>
 7    1  0.2700104E-013  0.7246128E+02  0.7816164E-02  0.1226709E+00
        -11   -1    0    0    0    0  0.00000000000E+00  0.00000000000E+00  0.45593999997E+02  0.45594000000E+02  0.51100000000E-03 0. -1.
         11   -1    0    0    0    0 -0.00000000000E+00 -0.00000000000E+00 -0.45593999997E+02  0.45594000000E+02  0.51100000000E-03 0.  1.
    9900012    2    1    2    0    0 -0.77724396861E+01  0.16622432808E+02  0.37381649519E+01  0.72461281966E+02  0.69999624398E+02 0.  0.
        -12    1    1    2    0    0  0.77724396861E+01 -0.16622432808E+02 -0.37381649519E+01  0.18726718034E+02  0.00000000000E+00 0.  1.
         11    1    3    3    0    0  0.87784876999E+01  0.40028077414E+01  0.16723660191E+02  0.19307126316E+02  0.51100000000E-03 0. -1.
        -11    1    3    3    0    0 -0.18709484675E+02 -0.98599833938E+01  0.77221390196E+01  0.22514340333E+02  0.51100000000E-03 0.  1.
         12    1    3    3    0    0  0.21585572890E+01  0.22479608460E+02 -0.20707634259E+02  0.30639815317E+02  0.00000000000E+00 0. -1.
</event>
<event>
 7    1  0.2700104E-013  0.7246155E+02  0.7816164E-02  0.1226708E+00
        -11   -1    0    0    0    0  0.00000000000E+00  0.00000000000E+00  0.45593999997E+02  0.45594000000E+02  0.51100000000E-03 0.  1.
         11   -1    0    0    0    0 -0.00000000000E+00 -0.00000000000E+00 -0.45593999997E+02  0.45594000000E+02  0.51100000000E-03 0. -1.
    9900012    2    1    2    0    0  0.10276886178E+02 -0.28698779814E+01 -0.15389257382E+02  0.72461552609E+02  0.69999976961E+02 0.  0.
        -12    1    1    2    0    0 -0.10276886178E+02  0.28698779814E+01  0.15389257382E+02  0.18726447391E+02  0.00000000000E+00 0.  1.
         11    1    3    3    0    0 -0.13113296953E+01 -0.31476482983E+01 -0.85557470598E+00  0.35155772951E+01  0.51100000000E-03 0. -1.
        -11    1    3    3    0    0  0.24286934822E+02  0.21679857448E+02 -0.25886305107E+02  0.41592934668E+02  0.51100000000E-03 0.  1.
         12    1    3    3    0    0 -0.12698718949E+02 -0.21402087131E+02  0.11352622431E+02  0.27353040645E+02  0.00000000000E+00 0. -1.
</event>
<event>
 7    1  0.2700104E-013  0.7246156E+02  0.7816164E-02  0.1226708E+00
        -11   -1    0    0    0    0  0.00000000000E+00  0.00000000000E+00  0.45593999997E+02  0.45594000000E+02  0.51100000000E-03 0. -1.
         11   -1    0    0    0    0 -0.00000000000E+00 -0.00000000000E+00 -0.45593999997E+02  0.45594000000E+02  0.51100000000E-03 0.  1.
    9900012    2    1    2    0    0  0.95503826650E+01 -0.92413991624E+01 -0.13193418158E+02  0.72461560130E+02  0.69999986758E+02 0.  0.
        -12    1    1    2    0    0 -0.95503826650E+01  0.92413991624E+01  0.13193418158E+02  0.18726439870E+02  0.00000000000E+00 0.  1.
         11    1    3    3    0    0  0.10424979866E+02 -0.83354255806E+01 -0.10679043701E+02  0.17093902406E+02  0.51100000000E-03 0. -1.
        -11    1    3    3    0    0 -0.11993875722E+02 -0.23989626197E+02 -0.10079158362E+02  0.28652131744E+02  0.51100000000E-03 0.  1.
         12    1    3    3    0    0  0.11119278521E+02  0.23083652615E+02  0.75647839055E+01  0.26715525980E+02  0.00000000000E+00 0. -1.
</event>
<event>
 7    1  0.2700104E-013  0.7246158E+02  0.7816164E-02  0.1226708E+00
        -11   -1    0    0    0    0  0.00000000000E+00  0.00000000000E+00  0.45593999997E+02  0.45594000000E+02  0.51100000000E-03 0.  1.
         11   -1    0    0    0    0 -0.00000000000E+00 -0.00000000000E+00 -0.45593999997E+02  0.45594000000E+02  0.51100000000E-03 0. -1.
    9900012    2    1    2    0    0 -0.10348483693E+02 -0.14862928037E+01 -0.15536369324E+02  0.72461576080E+02  0.70000007537E+02 0.  0.
        -12    1    1    2    0    0  0.10348483693E+02  0.14862928037E+01  0.15536369324E+02  0.18726423920E+02  0.00000000000E+00 0.  1.
         11    1    3    3    0    0 -0.16896614197E+02 -0.14606705304E+02 -0.25647395079E+02  0.34009414664E+02  0.51100000000E-03 0.  1.
        -11    1    3    3    0    0 -0.12191592188E+02  0.12324620920E+02  0.93120186475E+01  0.19678538880E+02  0.51100000000E-03 0. -1.
        -12    1    3    3    0    0  0.18739722691E+02  0.79579158052E+00  0.79900710697E+00  0.18773622536E+02  0.00000000000E+00 0.  1.
</event>
<event>
 7    1  0.2700104E-013  0.7246157E+02  0.7816164E-02  0.1226708E+00
        -11   -1    0    0    0    0  0.00000000000E+00  0.00000000000E+00  0.45593999997E+02  0.45594000000E+02  0.51100000000E-03 0.  1.
         11   -1    0    0    0    0 -0.00000000000E+00 -0.00000000000E+00 -0.45593999997E+02  0.45594000000E+02  0.51100000000E-03 0. -1.
    9900012    2    1    2    0    0  0.55663837752E+01  0.17542784482E+02  0.34561656394E+01  0.72461574910E+02  0.70000006013E+02 0.  0.
        -12    1    1    2    0    0 -0.55663837752E+01 -0.17542784482E+02 -0.34561656394E+01  0.18726425090E+02  0.00000000000E+00 0.  1.
         11    1    3    3    0    0 -0.12940973869E+01  0.76702163392E+01 -0.63052065645E+01  0.10013118237E+02  0.51100000000E-03 0. -1.
        -11    1    3    3    0    0  0.23737956736E+02  0.27393555537E+02  0.11581103291E+02  0.38052850466E+02  0.51100000000E-03 0.  1.
         12    1    3    3    0    0 -0.16877475574E+02 -0.17520987394E+02 -0.18197310868E+01  0.24395606207E+02  0.00000000000E+00 0. -1.
</event>
<event>
 7    1  0.2700104E-013  0.7246158E+02  0.7816164E-02  0.1226708E+00
        -11   -1    0    0    0    0  0.00000000000E+00  0.00000000000E+00  0.45593999997E+02  0.45594000000E+02  0.51100000000E-03 0.  1.
         11   -1    0    0    0    0 -0.00000000000E+00 -0.00000000000E+00 -0.45593999997E+02  0.45594000000E+02  0.51100000000E-03 0. -1.
    9900012    2    1    2    0    0 -0.27279990769E+01 -0.57717196634E+01 -0.17604660219E+02  0.72461580474E+02  0.70000013261E+02 0.  0.
        -12    1    1    2    0    0  0.27279990769E+01  0.57717196634E+01  0.17604660219E+02  0.18726419526E+02  0.00000000000E+00 0.  1.
         11    1    3    3    0    0 -0.48713724263E+01 -0.43247196249E+00 -0.76124027949E+01  0.90479819787E+01  0.51100000000E-03 0. -1.
        -11    1    3    3    0    0 -0.27519288598E+02 -0.63466343417E+01  0.71585174808E+01  0.29134779649E+02  0.51100000000E-03 0.  1.
         12    1    3    3    0    0  0.29662661947E+02  0.10073866408E+01 -0.17150774905E+02  0.34278818846E+02  0.00000000000E+00 0. -1.
</event>
<event>
 7    1  0.2700104E-013  0.7246165E+02  0.7816164E-02  0.1226708E+00
        -11   -1    0    0    0    0  0.00000000000E+00  0.00000000000E+00  0.45593999997E+02  0.45594000000E+02  0.51100000000E-03 0.  1.
         11   -1    0    0    0    0 -0.00000000000E+00 -0.00000000000E+00 -0.45593999997E+02  0.45594000000E+02  0.51100000000E-03 0. -1.
    9900012    2    1    2    0    0 -0.77886039920E+01  0.16603223512E+02 -0.37877130858E+01  0.72461650821E+02  0.70000104901E+02 0.  0.
        -12    1    1    2    0    0  0.77886039920E+01 -0.16603223512E+02  0.37877130858E+01  0.18726349179E+02  0.00000000000E+00 0.  1.
         11    1    3    3    0    0 -0.94877161209E+01  0.14882279380E+02 -0.15438312487E+02  0.23448677776E+02  0.51100000000E-03 0. -1.
        -11    1    3    3    0    0  0.75461232920E+01  0.17527631410E+02 -0.10025191094E+02  0.21556119696E+02  0.51100000000E-03 0.  1.
        -12    1    3    3    0    0 -0.58470111631E+01 -0.15806687278E+02  0.21675790496E+02  0.27456853349E+02  0.00000000000E+00 0.  1.
</event>
<event>
 7    1  0.2700104E-013  0.7246158E+02  0.7816164E-02  0.1226708E+00
        -11   -1    0    0    0    0  0.00000000000E+00  0.00000000000E+00  0.45593999997E+02  0.45594000000E+02  0.51100000000E-03 0. -1.
         11   -1    0    0    0    0 -0.00000000000E+00 -0.00000000000E+00 -0.45593999997E+02  0.45594000000E+02  0.51100000000E-03 0.  1.
    9900012    2    1    2    0    0 -0.12193728583E+01  0.17316381620E+02  0.70238795653E+01  0.72461579447E+02  0.70000011923E+02 0.  0.
        -12    1    1    2    0    0  0.12193728583E+01 -0.17316381620E+02 -0.70238795653E+01  0.18726420553E+02  0.00000000000E+00 0.  1.
         11    1    3    3    0    0  0.25564204980E+01  0.48385020729E+01 -0.63986521135E+01  0.84195687065E+01  0.51100000000E-03 0. -1.
        -11    1    3    3    0    0  0.26720481597E+01  0.20046046001E+02 -0.20437789481E+02  0.28752165845E+02  0.51100000000E-03 0.  1.
         12    1    3    3    0    0 -0.64478415160E+01 -0.75681664534E+01  0.33860321160E+02  0.35289844895E+02  0.00000000000E+00 0. -1.
</event>
<event>
 7    1  0.2700104E-013  0.7246157E+02  0.7816164E-02  0.1226708E+00
        -11   -1    0    0    0    0  0.00000000000E+00  0.00000000000E+00  0.45593999997E+02  0.45594000000E+02  0.51100000000E-03 0. -1.
         11   -1    0    0    0    0 -0.00000000000E+00 -0.00000000000E+00 -0.45593999997E+02  0.45594000000E+02  0.51100000000E-03 0.  1.
    9900012    2    1    2    0    0  0.53075938313E+01  0.11886182653E+02  0.13462069023E+02  0.72461569675E+02  0.69999999193E+02 0.  0.
        -12    1    1    2    0    0 -0.53075938313E+01 -0.11886182653E+02 -0.13462069023E+02  0.18726430325E+02  0.00000000000E+00 0.  1.
         11    1    3    3    0    0  0.27755811504E+01  0.56747567207E+01 -0.82554374509E+01  0.10395141285E+02  0.51100000000E-03 0. -1.
        -11    1    3    3    0    0  0.11232652053E+02  0.28153561226E+02  0.48156326678E+00  0.30315464458E+02  0.51100000000E-03 0.  1.
         12    1    3    3    0    0 -0.87006393723E+01 -0.21942135294E+02  0.21235943207E+02  0.31750963933E+02  0.00000000000E+00 0. -1.
</event>
<event>
 7    1  0.2700104E-013  0.7246157E+02  0.7816164E-02  0.1226708E+00
        -11   -1    0    0    0    0  0.00000000000E+00  0.00000000000E+00  0.45593999997E+02  0.45594000000E+02  0.51100000000E-03 0.  1.
         11   -1    0    0    0    0 -0.00000000000E+00 -0.00000000000E+00 -0.45593999997E+02  0.45594000000E+02  0.51100000000E-03 0. -1.
    9900012    2    1    2    0    0 -0.16620723437E+02  0.12105044684E+01 -0.85419853485E+01  0.72461567283E+02  0.69999996077E+02 0.  0.
        -12    1    1    2    0    0  0.16620723437E+02 -0.12105044684E+01  0.85419853485E+01  0.18726432717E+02  0.00000000000E+00 0.  1.
         11    1    3    3    0    0  0.42075168942E+01 -0.73070240964E+01 -0.10114038268E+02  0.13167747336E+02  0.51100000000E-03 0. -1.
        -11    1    3    3    0    0  0.22061344066E+01 -0.15482859171E+02  0.16586399565E+02  0.22796811354E+02  0.51100000000E-03 0.  1.
        -12    1    3    3    0    0 -0.23034374737E+02  0.24000387736E+02 -0.15014346645E+02  0.36497008592E+02  0.00000000000E+00 0.  1.
</event>
<event>
 7    1  0.2700104E-013  0.7246161E+02  0.7816164E-02  0.1226708E+00
        -11   -1    0    0    0    0  0.00000000000E+00  0.00000000000E+00  0.45593999997E+02  0.45594000000E+02  0.51100000000E-03 0.  1.
         11   -1    0    0    0    0 -0.00000000000E+00 -0.00000000000E+00 -0.45593999997E+02  0.45594000000E+02  0.51100000000E-03 0. -1.
    9900012    2    1    2    0    0 -0.24792207625E+01 -0.14462886046E+02 -0.11634264135E+02  0.72461609255E+02  0.70000050754E+02 0.  0.
        -12    1    1    2    0    0  0.24792207625E+01  0.14462886046E+02  0.11634264135E+02  0.18726390745E+02  0.00000000000E+00 0.  1.
         11    1    3    3    0    0 -0.22910614902E+02 -0.19030214690E+02 -0.17167013748E+02  0.34376615710E+02  0.51100000000E-03 0. -1.
        -11    1    3    3    0    0  0.16456022057E+01  0.55207311470E+01  0.15685508619E+02  0.16709926988E+02  0.51100000000E-03 0.  1.
        -12    1    3    3    0    0  0.18785791934E+02 -0.95340250249E+00 -0.10152759006E+02  0.21375066558E+02  0.00000000000E+00 0.  1.
</event>
<event>
 7    1  0.2700104E-013  0.7246157E+02  0.7816164E-02  0.1226708E+00
        -11   -1    0    0    0    0  0.00000000000E+00  0.00000000000E+00  0.45593999997E+02  0.45594000000E+02  0.51100000000E-03 0.  1.
         11   -1    0    0    0    0 -0.00000000000E+00 -0.00000000000E+00 -0.45593999997E+02  0.45594000000E+02  0.51100000000E-03 0. -1.
    9900012    2    1    2    0    0  0.73398860647E+01 -0.10705905923E+02 -0.13497734794E+02  0.72461569650E+02  0.69999999161E+02 0.  0.
        -12    1    1    2    0    0 -0.73398860647E+01  0.10705905923E+02  0.13497734794E+02  0.18726430350E+02  0.00000000000E+00 0.  1.
         11    1    3    3    0    0  0.15043429184E+02  0.14727198938E+02 -0.12407675146E+02  0.24436561807E+02  0.51100000000E-03 0. -1.
        -11    1    3    3    0    0 -0.16343009182E+02 -0.13945201047E+01 -0.11923937460E+02  0.20278533484E+02  0.51100000000E-03 0.  1.
        -12    1    3    3    0    0  0.86394660632E+01 -0.24038584756E+02  0.10833877812E+02  0.27746474359E+02  0.00000000000E+00 0.  1.
</event>
<event>
 7    1  0.2700104E-013  0.7246141E+02  0.7816164E-02  0.1226708E+00
        -11   -1    0    0    0    0  0.00000000000E+00  0.00000000000E+00  0.45593999997E+02  0.45594000000E+02  0.51100000000E-03 0.  1.
         11   -1    0    0    0    0 -0.00000000000E+00 -0.00000000000E+00 -0.45593999997E+02  0.45594000000E+02  0.51100000000E-03 0. -1.
    9900012    2    1    2    0    0 -0.19520087171E+01 -0.31216428999E+00 -0.18621957209E+02  0.72461412621E+02  0.69999794600E+02 0.  0.
        -12    1    1    2    0    0  0.19520087171E+01  0.31216428999E+00  0.18621957209E+02  0.18726587379E+02  0.00000000000E+00 0.  1.
         11    1    3    3    0    0  0.21538016046E+01  0.85743197152E+01 -0.24651192223E+02  0.26188529898E+02  0.51100000000E-03 0. -1.
        -11    1    3    3    0    0 -0.20731785651E+02  0.57195966584E+01 -0.41672703377E+01  0.21906320196E+02  0.51100000000E-03 0.  1.
        -12    1    3    3    0    0  0.16625975329E+02 -0.14606080664E+02  0.10196505352E+02  0.24366562527E+02  0.00000000000E+00 0.  1.
</event>
<event>
 7    1  0.2700104E-013  0.7246155E+02  0.7816164E-02  0.1226708E+00
        -11   -1    0    0    0    0  0.00000000000E+00  0.00000000000E+00  0.45593999997E+02  0.45594000000E+02  0.51100000000E-03 0. -1.
         11   -1    0    0    0    0 -0.00000000000E+00 -0.00000000000E+00 -0.45593999997E+02  0.45594000000E+02  0.51100000000E-03 0.  1.
    9900012    2    1    2    0    0 -0.36565459341E+00 -0.12118956331E+02 -0.14271554455E+02  0.72461546188E+02  0.69999968596E+02 0.  0.
        -12    1    1    2    0    0  0.36565459341E+00  0.12118956331E+02  0.14271554455E+02  0.18726453812E+02  0.00000000000E+00 0.  1.
         11    1    3    3    0    0 -0.31518814663E+01  0.11330827459E+02  0.90470332309E+01  0.14838154138E+02  0.51100000000E-03 0.  1.
        -11    1    3    3    0    0  0.44770725782E+01 -0.33126463597E+02 -0.30660669893E+02  0.45359491266E+02  0.51100000000E-03 0. -1.
         12    1    3    3    0    0 -0.16908457052E+01  0.96766798080E+01  0.73420822070E+01  0.12263900784E+02  0.00000000000E+00 0. -1.
</event>
<event>
 7    1  0.2700104E-013  0.7246159E+02  0.7816164E-02  0.1226708E+00
        -11   -1    0    0    0    0  0.00000000000E+00  0.00000000000E+00  0.45593999997E+02  0.45594000000E+02  0.51100000000E-03 0.  1.
         11   -1    0    0    0    0 -0.00000000000E+00 -0.00000000000E+00 -0.45593999997E+02  0.45594000000E+02  0.51100000000E-03 0. -1.
    9900012    2    1    2    0    0  0.52598452286E+01 -0.11230476034E+02 -0.14031707274E+02  0.72461591567E+02  0.70000027712E+02 0.  0.
        -12    1    1    2    0    0 -0.52598452286E+01  0.11230476034E+02  0.14031707274E+02  0.18726408433E+02  0.00000000000E+00 0.  1.
         11    1    3    3    0    0 -0.10294664617E+02 -0.10003116303E+02 -0.30439207099E+02  0.33653941588E+02  0.51100000000E-03 0. -1.
        -11    1    3    3    0    0 -0.94797352505E+01 -0.26084079361E+00  0.13526467178E+01  0.95793043455E+01  0.51100000000E-03 0.  1.
         12    1    3    3    0    0  0.25034245096E+02 -0.96651893699E+00  0.15054853107E+02  0.29228345633E+02  0.00000000000E+00 0. -1.
</event>
<event>
 7    1  0.2700104E-013  0.7246169E+02  0.7816164E-02  0.1226708E+00
        -11   -1    0    0    0    0  0.00000000000E+00  0.00000000000E+00  0.45593999997E+02  0.45594000000E+02  0.51100000000E-03 0.  1.
         11   -1    0    0    0    0 -0.00000000000E+00 -0.00000000000E+00 -0.45593999997E+02  0.45594000000E+02  0.51100000000E-03 0. -1.
    9900012    2    1    2    0    0  0.67571662582E+01 -0.14817390994E+02 -0.92444719434E+01  0.72461691415E+02  0.70000157782E+02 0.  0.
        -12    1    1    2    0    0 -0.67571662582E+01  0.14817390994E+02  0.92444719434E+01  0.18726308585E+02  0.00000000000E+00 0.  1.
         11    1    3    3    0    0 -0.11824607952E+02 -0.17347838338E+01  0.11569924465E+01  0.12007058755E+02  0.51100000000E-03 0. -1.
        -11    1    3    3    0    0 -0.19087868310E+02 -0.57870111985E+01 -0.94549540264E+01  0.22073340734E+02  0.51100000000E-03 0.  1.
         12    1    3    3    0    0  0.37669642520E+02 -0.72955959616E+01 -0.94651036352E+00  0.38381291926E+02  0.00000000000E+00 0. -1.
</event>
<event>
 7    1  0.2700104E-013  0.7246162E+02  0.7816164E-02  0.1226708E+00
        -11   -1    0    0    0    0  0.00000000000E+00  0.00000000000E+00  0.45593999997E+02  0.45594000000E+02  0.51100000000E-03 0. -1.
         11   -1    0    0    0    0 -0.00000000000E+00 -0.00000000000E+00 -0.45593999997E+02  0.45594000000E+02  0.51100000000E-03 0.  1.
    9900012    2    1    2    0    0 -0.16842677993E+02 -0.81331737038E+01 -0.92358063669E+00  0.72461619740E+02  0.70000064412E+02 0.  0.
        -12    1    1    2    0    0  0.16842677993E+02  0.81331737038E+01  0.92358063669E+00  0.18726380260E+02  0.00000000000E+00 0.  1.
         11    1    3    3    0    0 -0.20135667907E+02 -0.64979606648E+01 -0.12764932180E+02  0.24710566741E+02  0.51100000000E-03 0. -1.
        -11    1    3    3    0    0 -0.87446433592E+01 -0.57983753041E+01 -0.14846259566E+02  0.18179696560E+02  0.51100000000E-03 0.  1.
         12    1    3    3    0    0  0.12037633274E+02  0.41631622651E+01  0.26687611109E+02  0.29571356438E+02  0.00000000000E+00 0. -1.
</event>
<event>
 7    1  0.2700104E-013  0.7246155E+02  0.7816164E-02  0.1226708E+00
        -11   -1    0    0    0    0  0.00000000000E+00  0.00000000000E+00  0.45593999997E+02  0.45594000000E+02  0.51100000000E-03 0. -1.
         11   -1    0    0    0    0 -0.00000000000E+00 -0.00000000000E+00 -0.45593999997E+02  0.45594000000E+02  0.51100000000E-03 0.  1.
    9900012    2    1    2    0    0  0.18507779974E+02  0.12809463904E+01  0.25497217700E+01  0.72461552811E+02  0.69999977225E+02 0.  0.
        -12    1    1    2    0    0 -0.18507779974E+02 -0.12809463904E+01 -0.25497217700E+01  0.18726447189E+02  0.00000000000E+00 0.  1.
         11    1    3    3    0    0 -0.59253163688E+01  0.58005215940E+01  0.59400029031E+01  0.10199953901E+02  0.51100000000E-03 0. -1.
        -11    1    3    3    0    0 -0.14347402398E+02  0.11045254066E+02  0.66427608857E+01  0.19286572152E+02  0.51100000000E-03 0.  1.
         12    1    3    3    0    0  0.38780498740E+02 -0.15564829269E+02 -0.10033042019E+02  0.42975026758E+02  0.00000000000E+00 0. -1.
</event>
<event>
 7    1  0.2700104E-013  0.7246155E+02  0.7816164E-02  0.1226708E+00
        -11   -1    0    0    0    0  0.00000000000E+00  0.00000000000E+00  0.45593999997E+02  0.45594000000E+02  0.51100000000E-03 0. -1.
         11   -1    0    0    0    0 -0.00000000000E+00 -0.00000000000E+00 -0.45593999997E+02  0.45594000000E+02  0.51100000000E-03 0.  1.
    9900012    2    1    2    0    0  0.71953778663E+01 -0.17498134642E+01  0.17200130688E+02  0.72461553314E+02  0.69999977880E+02 0.  0.
        -12    1    1    2    0    0 -0.71953778663E+01  0.17498134642E+01 -0.17200130688E+02  0.18726446686E+02  0.00000000000E+00 0.  1.
         11    1    3    3    0    0  0.22119063066E+02  0.44151791887E+01  0.14916710438E+02  0.27041727177E+02  0.51100000000E-03 0. -1.
        -11    1    3    3    0    0 -0.45947666179E+01  0.39218121019E+01  0.20960359195E+02  0.21813508390E+02  0.51100000000E-03 0.  1.
        -12    1    3    3    0    0 -0.10328918581E+02 -0.10086804755E+02 -0.18676938945E+02  0.23606317747E+02  0.00000000000E+00 0.  1.
</event>
<event>
 7    1  0.2700104E-013  0.7246154E+02  0.7816164E-02  0.1226708E+00
        -11   -1    0    0    0    0  0.00000000000E+00  0.00000000000E+00  0.45593999997E+02  0.45594000000E+02  0.51100000000E-03 0. -1.
         11   -1    0    0    0    0 -0.00000000000E+00 -0.00000000000E+00 -0.45593999997E+02  0.45594000000E+02  0.51100000000E-03 0.  1.
    9900012    2    1    2    0    0 -0.90792673177E+00  0.91107876955E+01  0.16335533953E+02  0.72461536027E+02  0.69999955361E+02 0.  0.
        -12    1    1    2    0    0  0.90792673177E+00 -0.91107876955E+01 -0.16335533953E+02  0.18726463973E+02  0.00000000000E+00 0.  1.
         11    1    3    3    0    0 -0.21281703795E+01  0.15989354146E+02  0.56790509496E+01  0.17100882291E+02  0.51100000000E-03 0. -1.
        -11    1    3    3    0    0 -0.14932651805E+00  0.11979060494E+02 -0.17643135594E+02  0.21326050328E+02  0.51100000000E-03 0.  1.
         12    1    3    3    0    0  0.13695701658E+01 -0.18857626944E+02  0.28299618598E+02  0.34034603409E+02  0.00000000000E+00 0. -1.
</event>
<event>
 7    1  0.2700104E-013  0.7246158E+02  0.7816164E-02  0.1226708E+00
        -11   -1    0    0    0    0  0.00000000000E+00  0.00000000000E+00  0.45593999997E+02  0.45594000000E+02  0.51100000000E-03 0. -1.
         11   -1    0    0    0    0 -0.00000000000E+00 -0.00000000000E+00 -0.45593999997E+02  0.45594000000E+02  0.51100000000E-03 0.  1.
    9900012    2    1    2    0    0 -0.29384295859E+01 -0.16318490301E+02  0.87035286572E+01  0.72461577351E+02  0.70000009193E+02 0.  0.
        -12    1    1    2    0    0  0.29384295859E+01  0.16318490301E+02 -0.87035286572E+01  0.18726422649E+02  0.00000000000E+00 0.  1.
         11    1    3    3    0    0  0.13568809093E+02  0.18360937189E+02  0.19742679105E+02  0.30182941758E+02  0.51100000000E-03 0. -1.
        -11    1    3    3    0    0 -0.62132828811E+01 -0.83137066250E+01 -0.92755908713E+01  0.13919740956E+02  0.51100000000E-03 0.  1.
        -12    1    3    3    0    0 -0.10293955797E+02 -0.26365720865E+02 -0.17635595770E+01  0.28358894637E+02  0.00000000000E+00 0.  1.
</event>
<event>
 7    1  0.2700104E-013  0.7246157E+02  0.7816164E-02  0.1226708E+00
        -11   -1    0    0    0    0  0.00000000000E+00  0.00000000000E+00  0.45593999997E+02  0.45594000000E+02  0.51100000000E-03 0.  1.
         11   -1    0    0    0    0 -0.00000000000E+00 -0.00000000000E+00 -0.45593999997E+02  0.45594000000E+02  0.51100000000E-03 0. -1.
    9900012    2    1    2    0    0 -0.16185919331E+02 -0.85547045681E+01 -0.39385717201E+01  0.72461566757E+02  0.69999995391E+02 0.  0.
        -12    1    1    2    0    0  0.16185919331E+02  0.85547045681E+01  0.39385717201E+01  0.18726433243E+02  0.00000000000E+00 0.  1.
         11    1    3    3    0    0  0.92104813593E+01 -0.26036164906E+02  0.44873751627E+01  0.27979481518E+02  0.51100000000E-03 0. -1.
        -11    1    3    3    0    0 -0.14540621423E+01  0.16652230071E+02  0.44316767030E+01  0.17293085951E+02  0.51100000000E-03 0.  1.
        -12    1    3    3    0    0 -0.23942338548E+02  0.82923026689E+00 -0.12857623586E+02  0.27188999287E+02  0.00000000000E+00 0.  1.
</event>
<event>
 7    1  0.2700104E-013  0.7246148E+02  0.7816164E-02  0.1226708E+00
        -11   -1    0    0    0    0  0.00000000000E+00  0.00000000000E+00  0.45593999997E+02  0.45594000000E+02  0.51100000000E-03 0. -1.
         11   -1    0    0    0    0 -0.00000000000E+00 -0.00000000000E+00 -0.45593999997E+02  0.45594000000E+02  0.51100000000E-03 0.  1.
    9900012    2    1    2    0    0  0.51991228296E+01 -0.78953435700E+01  0.16165250795E+02  0.72461477057E+02  0.69999878541E+02 0.  0.
        -12    1    1    2    0    0 -0.51991228296E+01  0.78953435700E+01 -0.16165250795E+02  0.18726522943E+02  0.00000000000E+00 0.  1.
         11    1    3    3    0    0  0.40794788368E+01 -0.71757209033E+00  0.35676612628E+01  0.54667416650E+01  0.51100000000E-03 0. -1.
        -11    1    3    3    0    0  0.55432609578E+01  0.28284424295E+02 -0.78757962342E+00  0.28833256522E+02  0.51100000000E-03 0.  1.
         12    1    3    3    0    0 -0.44236169650E+01 -0.35462195775E+02  0.13385169156E+02  0.38161478870E+02  0.00000000000E+00 0. -1.
</event>
<event>
 7    1  0.2700104E-013  0.7246153E+02  0.7816164E-02  0.1226708E+00
        -11   -1    0    0    0    0  0.00000000000E+00  0.00000000000E+00  0.45593999997E+02  0.45594000000E+02  0.51100000000E-03 0.  1.
         11   -1    0    0    0    0 -0.00000000000E+00 -0.00000000000E+00 -0.45593999997E+02  0.45594000000E+02  0.51100000000E-03 0. -1.
    9900012    2    1    2    0    0 -0.13748112875E+01  0.21192257257E+01 -0.18555310171E+02  0.72461527847E+02  0.69999944704E+02 0.  0.
        -12    1    1    2    0    0  0.13748112875E+01 -0.21192257257E+01  0.18555310171E+02  0.18726472153E+02  0.00000000000E+00 0.  1.
         11    1    3    3    0    0  0.17827023189E+02  0.10831829721E+02 -0.17500469602E+02  0.27228619638E+02  0.51100000000E-03 0. -1.
        -11    1    3    3    0    0 -0.17109836314E+02 -0.65414151459E+01 -0.19376801156E+02  0.26664527637E+02  0.51100000000E-03 0.  1.
        -12    1    3    3    0    0 -0.20919981626E+01 -0.21711888490E+01  0.18321960586E+02  0.18568380572E+02  0.00000000000E+00 0.  1.
</event>
<event>
 7    1  0.2700104E-013  0.7246157E+02  0.7816164E-02  0.1226708E+00
        -11   -1    0    0    0    0  0.00000000000E+00  0.00000000000E+00  0.45593999997E+02  0.45594000000E+02  0.51100000000E-03 0.  1.
         11   -1    0    0    0    0 -0.00000000000E+00 -0.00000000000E+00 -0.45593999997E+02  0.45594000000E+02  0.51100000000E-03 0. -1.
    9900012    2    1    2    0    0  0.82352756395E+01 -0.14578476079E+02 -0.83861447910E+01  0.72461570706E+02  0.70000000536E+02 0.  0.
        -12    1    1    2    0    0 -0.82352756395E+01  0.14578476079E+02  0.83861447910E+01  0.18726429294E+02  0.00000000000E+00 0.  1.
         11    1    3    3    0    0 -0.12775437753E+02 -0.19332340116E+01 -0.14460047945E+02  0.19391807300E+02  0.51100000000E-03 0. -1.
        -11    1    3    3    0    0 -0.10978959552E+02 -0.73682140154E+01 -0.10287893238E+02  0.16753175167E+02  0.51100000000E-03 0.  1.
         12    1    3    3    0    0  0.31989672945E+02 -0.52770280521E+01  0.16361796392E+02  0.36316588239E+02  0.00000000000E+00 0. -1.
</event>
<event>
 7    1  0.2700104E-013  0.7246161E+02  0.7816164E-02  0.1226708E+00
        -11   -1    0    0    0    0  0.00000000000E+00  0.00000000000E+00  0.45593999997E+02  0.45594000000E+02  0.51100000000E-03 0. -1.
         11   -1    0    0    0    0 -0.00000000000E+00 -0.00000000000E+00 -0.45593999997E+02  0.45594000000E+02  0.51100000000E-03 0.  1.
    9900012    2    1    2    0    0 -0.40559138092E+01 -0.10231416446E+02  0.15150757134E+02  0.72461607901E+02  0.70000048989E+02 0.  0.
        -12    1    1    2    0    0  0.40559138092E+01  0.10231416446E+02 -0.15150757134E+02  0.18726392099E+02  0.00000000000E+00 0.  1.
         11    1    3    3    0    0 -0.12983678182E+01  0.22720753369E+01 -0.10045062598E+02  0.10380335649E+02  0.51100000000E-03 0. -1.
        -11    1    3    3    0    0 -0.24382396276E+02 -0.22233928787E+02  0.15613002657E+02  0.36504995407E+02  0.51100000000E-03 0.  1.
         12    1    3    3    0    0  0.21624850285E+02  0.97304370033E+01  0.95828170752E+01  0.25576276844E+02  0.00000000000E+00 0. -1.
</event>
<event>
 7    1  0.2700104E-013  0.7246146E+02  0.7816164E-02  0.1226708E+00
        -11   -1    0    0    0    0  0.00000000000E+00  0.00000000000E+00  0.45593999997E+02  0.45594000000E+02  0.51100000000E-03 0.  1.
         11   -1    0    0    0    0 -0.00000000000E+00 -0.00000000000E+00 -0.45593999997E+02  0.45594000000E+02  0.51100000000E-03 0. -1.
    9900012    2    1    2    0    0 -0.13857953824E+02  0.11092544665E+02  0.59662238186E+01  0.72461461132E+02  0.69999857795E+02 0.  0.
        -12    1    1    2    0    0  0.13857953824E+02 -0.11092544665E+02 -0.59662238186E+01  0.18726538868E+02  0.00000000000E+00 0.  1.
         11    1    3    3    0    0 -0.93944706576E+01 -0.22305481803E+02 -0.21677332030E+01  0.24299993105E+02  0.51100000000E-03 0. -1.
        -11    1    3    3    0    0 -0.17177053029E+02  0.16794783029E+02 -0.34274680215E+01  0.24266508299E+02  0.51100000000E-03 0.  1.
        -12    1    3    3    0    0  0.12713569862E+02  0.16603243439E+02  0.11561425043E+02  0.23894959727E+02  0.00000000000E+00 0.  1.
</event>
<event>
 7    1  0.2700104E-013  0.7246160E+02  0.7816164E-02  0.1226708E+00
        -11   -1    0    0    0    0  0.00000000000E+00  0.00000000000E+00  0.45593999997E+02  0.45594000000E+02  0.51100000000E-03 0.  1.
         11   -1    0    0    0    0 -0.00000000000E+00 -0.00000000000E+00 -0.45593999997E+02  0.45594000000E+02  0.51100000000E-03 0. -1.
    9900012    2    1    2    0    0 -0.57454010076E+01 -0.37590455067E+00 -0.17819292761E+02  0.72461598011E+02  0.70000036106E+02 0.  0.
        -12    1    1    2    0    0  0.57454010076E+01  0.37590455067E+00  0.17819292761E+02  0.18726401989E+02  0.00000000000E+00 0.  1.
         11    1    3    3    0    0 -0.94529525676E+01 -0.48860030783E+01 -0.35476960482E+02  0.37038440351E+02  0.51100000000E-03 0. -1.
        -11    1    3    3    0    0 -0.46514063997E+01  0.11819201352E+02 -0.19884595692E+01  0.12856246490E+02  0.51100000000E-03 0.  1.
        -12    1    3    3    0    0  0.83589579597E+01 -0.73091028240E+01  0.19646127290E+02  0.22566911170E+02  0.00000000000E+00 0.  1.
</event>
<event>
 7    1  0.2700104E-013  0.7246176E+02  0.7816164E-02  0.1226708E+00
        -11   -1    0    0    0    0  0.00000000000E+00  0.00000000000E+00  0.45593999997E+02  0.45594000000E+02  0.51100000000E-03 0.  1.
         11   -1    0    0    0    0 -0.00000000000E+00 -0.00000000000E+00 -0.45593999997E+02  0.45594000000E+02  0.51100000000E-03 0. -1.
    9900012    2    1    2    0    0 -0.10859396429E+02 -0.12722177506E+02 -0.84197187352E+01  0.72461762928E+02  0.70000250941E+02 0.  0.
        -12    1    1    2    0    0  0.10859396429E+02  0.12722177506E+02  0.84197187352E+01  0.18726237072E+02  0.00000000000E+00 0.  1.
         11    1    3    3    0    0  0.20533925060E+02 -0.20459090447E+01  0.61837247631E+01  0.21542197530E+02  0.51100000000E-03 0. -1.
        -11    1    3    3    0    0 -0.92022276830E+01  0.10858903131E+02 -0.14038329205E+02  0.19991784779E+02  0.51100000000E-03 0.  1.
         12    1    3    3    0    0 -0.22191093807E+02 -0.21535171593E+02 -0.56511429360E+00  0.30927780619E+02  0.00000000000E+00 0. -1.
</event>
<event>
 7    1  0.2700104E-013  0.7246159E+02  0.7816164E-02  0.1226708E+00
        -11   -1    0    0    0    0  0.00000000000E+00  0.00000000000E+00  0.45593999997E+02  0.45594000000E+02  0.51100000000E-03 0.  1.
         11   -1    0    0    0    0 -0.00000000000E+00 -0.00000000000E+00 -0.45593999997E+02  0.45594000000E+02  0.51100000000E-03 0. -1.
    9900012    2    1    2    0    0 -0.10492422303E+02  0.12546798455E+02  0.91195043335E+01  0.72461589865E+02  0.70000025495E+02 0.  0.
        -12    1    1    2    0    0  0.10492422303E+02 -0.12546798455E+02 -0.91195043335E+01  0.18726410135E+02  0.00000000000E+00 0.  1.
         11    1    3    3    0    0 -0.18158334080E+02 -0.70411903186E+01 -0.38969819749E+01  0.19861770476E+02  0.51100000000E-03 0. -1.
        -11    1    3    3    0    0 -0.91526756642E+00 -0.12438431804E+02  0.14850480479E+02  0.19393016042E+02  0.51100000000E-03 0.  1.
         12    1    3    3    0    0  0.85811793440E+01  0.32026420578E+02 -0.18339941709E+01  0.33206803348E+02  0.00000000000E+00 0. -1.
</event>
<event>
 7    1  0.2700104E-013  0.7246156E+02  0.7816164E-02  0.1226708E+00
        -11   -1    0    0    0    0  0.00000000000E+00  0.00000000000E+00  0.45593999997E+02  0.45594000000E+02  0.51100000000E-03 0.  1.
         11   -1    0    0    0    0 -0.00000000000E+00 -0.00000000000E+00 -0.45593999997E+02  0.45594000000E+02  0.51100000000E-03 0. -1.
    9900012    2    1    2    0    0 -0.46170761018E+01  0.17685461011E+02 -0.40726723738E+01  0.72461559250E+02  0.69999985613E+02 0.  0.
        -12    1    1    2    0    0  0.46170761018E+01 -0.17685461011E+02  0.40726723738E+01  0.18726440750E+02  0.00000000000E+00 0.  1.
         11    1    3    3    0    0 -0.99704659909E+01 -0.69915387205E+00  0.14514484257E+02  0.17622975393E+02  0.51100000000E-03 0. -1.
        -11    1    3    3    0    0  0.15589277002E+01  0.29660609070E+02  0.33429907073E+01  0.29889087860E+02  0.51100000000E-03 0.  1.
         12    1    3    3    0    0  0.37944621889E+01 -0.11275994188E+02 -0.21930147338E+02  0.24949495997E+02  0.00000000000E+00 0. -1.
</event>
<event>
 7    1  0.2700104E-013  0.7246157E+02  0.7816164E-02  0.1226708E+00
        -11   -1    0    0    0    0  0.00000000000E+00  0.00000000000E+00  0.45593999997E+02  0.45594000000E+02  0.51100000000E-03 0.  1.
         11   -1    0    0    0    0 -0.00000000000E+00 -0.00000000000E+00 -0.45593999997E+02  0.45594000000E+02  0.51100000000E-03 0. -1.
    9900012    2    1    2    0    0  0.43424207068E+01 -0.35549645103E+01 -0.17865740273E+02  0.72461573065E+02  0.70000003609E+02 0.  0.
        -12    1    1    2    0    0 -0.43424207068E+01  0.35549645103E+01  0.17865740273E+02  0.18726426935E+02  0.00000000000E+00 0.  1.
         11    1    3    3    0    0  0.37318976625E+01  0.32253919298E+01 -0.13098754978E+00  0.49343055503E+01  0.51100000000E-03 0. -1.
        -11    1    3    3    0    0 -0.22894648338E+02 -0.24475492847E+01  0.14640267154E+02  0.27285396142E+02  0.51100000000E-03 0.  1.
         12    1    3    3    0    0  0.23505171382E+02 -0.43328071555E+01 -0.32375019877E+02  0.40241871373E+02  0.00000000000E+00 0. -1.
</event>
<event>
 7    1  0.2700104E-013  0.7246138E+02  0.7816164E-02  0.1226709E+00
        -11   -1    0    0    0    0  0.00000000000E+00  0.00000000000E+00  0.45593999997E+02  0.45594000000E+02  0.51100000000E-03 0.  1.
         11   -1    0    0    0    0 -0.00000000000E+00 -0.00000000000E+00 -0.45593999997E+02  0.45594000000E+02  0.51100000000E-03 0. -1.
    9900012    2    1    2    0    0 -0.93614031228E+01  0.16146998738E+02 -0.15247607463E+01  0.72461379056E+02  0.69999750875E+02 0.  0.
        -12    1    1    2    0    0  0.93614031228E+01 -0.16146998738E+02  0.15247607463E+01  0.18726620944E+02  0.00000000000E+00 0.  1.
         11    1    3    3    0    0 -0.19430709435E+01 -0.95175161665E+01 -0.10632439554E+02  0.14401646080E+02  0.51100000000E-03 0. -1.
        -11    1    3    3    0    0  0.26440748795E+01  0.19698443225E+02  0.28896551131E+02  0.35071790159E+02  0.51100000000E-03 0.  1.
         12    1    3    3    0    0 -0.10062407059E+02  0.59660716796E+01 -0.19788872323E+02  0.22987942817E+02  0.00000000000E+00 0. -1.
</event>
<event>
 7    1  0.2700104E-013  0.7246161E+02  0.7816164E-02  0.1226708E+00
        -11   -1    0    0    0    0  0.00000000000E+00  0.00000000000E+00  0.45593999997E+02  0.45594000000E+02  0.51100000000E-03 0.  1.
         11   -1    0    0    0    0 -0.00000000000E+00 -0.00000000000E+00 -0.45593999997E+02  0.45594000000E+02  0.51100000000E-03 0. -1.
    9900012    2    1    2    0    0 -0.36175679418E+01  0.18365157997E+02 -0.55854525955E+00  0.72461606891E+02  0.70000047674E+02 0.  0.
        -12    1    1    2    0    0  0.36175679418E+01 -0.18365157997E+02  0.55854525955E+00  0.18726393109E+02  0.00000000000E+00 0.  1.
         11    1    3    3    0    0  0.26791756371E+02  0.83509148032E+01  0.17477421199E+02  0.33060493637E+02  0.51100000000E-03 0. -1.
        -11    1    3    3    0    0 -0.34132098988E+00 -0.17519198129E+01 -0.36297179711E+01  0.40448208687E+01  0.51100000000E-03 0.  1.
        -12    1    3    3    0    0 -0.30068003323E+02  0.11766163007E+02 -0.14406248488E+02  0.35356292385E+02  0.00000000000E+00 0.  1.
</event>
<event>
 7    1  0.2700104E-013  0.7246156E+02  0.7816164E-02  0.1226708E+00
        -11   -1    0    0    0    0  0.00000000000E+00  0.00000000000E+00  0.45593999997E+02  0.45594000000E+02  0.51100000000E-03 0.  1.
         11   -1    0    0    0    0 -0.00000000000E+00 -0.00000000000E+00 -0.45593999997E+02  0.45594000000E+02  0.51100000000E-03 0. -1.
    9900012    2    1    2    0    0  0.58870470133E+01 -0.60826704711E+01 -0.16703987279E+02  0.72461564311E+02  0.69999992205E+02 0.  0.
        -12    1    1    2    0    0 -0.58870470133E+01  0.60826704711E+01  0.16703987279E+02  0.18726435689E+02  0.00000000000E+00 0.  1.
         11    1    3    3    0    0 -0.16268701048E+02 -0.26213367107E+02 -0.10590193287E+02  0.32618452492E+02  0.51100000000E-03 0. -1.
        -11    1    3    3    0    0  0.16763661781E+02  0.88204725409E+01 -0.15264600437E+02  0.24327538283E+02  0.51100000000E-03 0.  1.
        -12    1    3    3    0    0  0.53920862803E+01  0.11310224095E+02  0.91508064445E+01  0.15515573535E+02  0.00000000000E+00 0.  1.
</event>
<event>
 7    1  0.2700104E-013  0.7246216E+02  0.7816164E-02  0.1226706E+00
        -11   -1    0    0    0    0  0.00000000000E+00  0.00000000000E+00  0.45593999997E+02  0.45594000000E+02  0.51100000000E-03 0.  1.
         11   -1    0    0    0    0 -0.00000000000E+00 -0.00000000000E+00 -0.45593999997E+02  0.45594000000E+02  0.51100000000E-03 0. -1.
    9900012    2    1    2    0    0  0.21169079645E+01 -0.27223057294E+01 -0.18405568144E+02  0.72462157255E+02  0.70000764621E+02 0.  0.
        -12    1    1    2    0    0 -0.21169079645E+01  0.27223057294E+01  0.18405568144E+02  0.18725842745E+02  0.00000000000E+00 0.  1.
         11    1    3    3    0    0  0.25489011735E+02 -0.11244697916E+02 -0.28026817670E+02  0.39517533570E+02  0.51100000000E-03 0. -1.
        -11    1    3    3    0    0  0.30563620470E+01  0.27955099355E+01 -0.26942984752E+00  0.41507610706E+01  0.51100000000E-03 0.  1.
        -12    1    3    3    0    0 -0.26428465817E+02  0.57268822509E+01  0.98906793737E+01  0.28793862614E+02  0.00000000000E+00 0.  1.
</event>
<event>
 7    1  0.2700104E-013  0.7246155E+02  0.7816164E-02  0.1226708E+00
        -11   -1    0    0    0    0  0.00000000000E+00  0.00000000000E+00  0.45593999997E+02  0.45594000000E+02  0.51100000000E-03 0.  1.
         11   -1    0    0    0    0 -0.00000000000E+00 -0.00000000000E+00 -0.45593999997E+02  0.45594000000E+02  0.51100000000E-03 0. -1.
    9900012    2    1    2    0    0 -0.98824156018E+01  0.10860855582E+02  0.11621518286E+02  0.72461547870E+02  0.69999970789E+02 0.  0.
        -12    1    1    2    0    0  0.98824156018E+01 -0.10860855582E+02 -0.11621518286E+02  0.18726452130E+02  0.00000000000E+00 0.  1.
         11    1    3    3    0    0 -0.16613863067E+02 -0.24230435849E+02  0.95677852676E+01  0.30897847540E+02  0.51100000000E-03 0. -1.
        -11    1    3    3    0    0  0.62857960740E+01 -0.85391602076E-01 -0.39726315320E+00  0.62989159610E+01  0.51100000000E-03 0.  1.
        -12    1    3    3    0    0  0.44565139127E+00  0.35176683033E+02  0.24509961714E+01  0.35264784369E+02  0.00000000000E+00 0.  1.
</event>
<event>
 7    1  0.2700104E-013  0.7246159E+02  0.7816164E-02  0.1226708E+00
        -11   -1    0    0    0    0  0.00000000000E+00  0.00000000000E+00  0.45593999997E+02  0.45594000000E+02  0.51100000000E-03 0. -1.
         11   -1    0    0    0    0 -0.00000000000E+00 -0.00000000000E+00 -0.45593999997E+02  0.45594000000E+02  0.51100000000E-03 0.  1.
    9900012    2    1    2    0    0  0.97563647791E+01  0.12202897397E+02 -0.10323804274E+02  0.72461593690E+02  0.70000030477E+02 0.  0.
        -12    1    1    2    0    0 -0.97563647791E+01 -0.12202897397E+02  0.10323804274E+02  0.18726406310E+02  0.00000000000E+00 0.  1.
         11    1    3    3    0    0  0.75772868151E+00 -0.17956790537E+02  0.19176304196E+02  0.26282144548E+02  0.51100000000E-03 0. -1.
        -11    1    3    3    0    0  0.72239196406E+00 -0.19251914754E+01 -0.43185729487E+00  0.21011219267E+01  0.51100000000E-03 0.  1.
        -12    1    3    3    0    0  0.82762441335E+01  0.32084879410E+02 -0.29068251175E+02  0.44078327215E+02  0.00000000000E+00 0.  1.
</event>
<event>
 7    1  0.2700104E-013  0.7246156E+02  0.7816164E-02  0.1226708E+00
        -11   -1    0    0    0    0  0.00000000000E+00  0.00000000000E+00  0.45593999997E+02  0.45594000000E+02  0.51100000000E-03 0. -1.
         11   -1    0    0    0    0 -0.00000000000E+00 -0.00000000000E+00 -0.45593999997E+02  0.45594000000E+02  0.51100000000E-03 0.  1.
    9900012    2    1    2    0    0  0.17591810321E+02 -0.51190494803E+01  0.38733878609E+01  0.72461559028E+02  0.69999985324E+02 0.  0.
        -12    1    1    2    0    0 -0.17591810321E+02  0.51190494803E+01 -0.38733878609E+01  0.18726440972E+02  0.00000000000E+00 0.  1.
         11    1    3    3    0    0  0.21632197431E+02  0.76876357554E+01 -0.18974510780E+00  0.22958390899E+02  0.51100000000E-03 0. -1.
        -11    1    3    3    0    0 -0.49770401058E+01  0.14951419475E+02  0.12892001176E+02  0.20359753611E+02  0.51100000000E-03 0.  1.
         12    1    3    3    0    0  0.93665299542E+00 -0.27758104711E+02 -0.88288682073E+01  0.29143414518E+02  0.00000000000E+00 0. -1.
</event>
<event>
 7    1  0.2700104E-013  0.7246154E+02  0.7816164E-02  0.1226708E+00
        -11   -1    0    0    0    0  0.00000000000E+00  0.00000000000E+00  0.45593999997E+02  0.45594000000E+02  0.51100000000E-03 0. -1.
         11   -1    0    0    0    0 -0.00000000000E+00 -0.00000000000E+00 -0.45593999997E+02  0.45594000000E+02  0.51100000000E-03 0.  1.
    9900012    2    1    2    0    0 -0.12344346188E+02  0.26237322638E+01  0.13835223114E+02  0.72461541380E+02  0.69999962334E+02 0.  0.
        -12    1    1    2    0    0  0.12344346188E+02 -0.26237322638E+01 -0.13835223114E+02  0.18726458620E+02  0.00000000000E+00 0.  1.
         11    1    3    3    0    0  0.15593947675E+02  0.13121943715E+02  0.26268949351E+02  0.33247771522E+02  0.51100000000E-03 0. -1.
        -11    1    3    3    0    0 -0.18785461262E+02  0.12241523583E+01  0.14329165278E+01  0.18879760429E+02  0.51100000000E-03 0.  1.
        -12    1    3    3    0    0 -0.91528326013E+01 -0.11722363810E+02 -0.13866642764E+02  0.20334009429E+02  0.00000000000E+00 0.  1.
</event>
<event>
 7    1  0.2700104E-013  0.7246162E+02  0.7816164E-02  0.1226708E+00
        -11   -1    0    0    0    0  0.00000000000E+00  0.00000000000E+00  0.45593999997E+02  0.45594000000E+02  0.51100000000E-03 0.  1.
         11   -1    0    0    0    0 -0.00000000000E+00 -0.00000000000E+00 -0.45593999997E+02  0.45594000000E+02  0.51100000000E-03 0. -1.
    9900012    2    1    2    0    0 -0.12346557313E+01 -0.84973459218E+01 -0.16641758511E+02  0.72461617839E+02  0.70000061936E+02 0.  0.
        -12    1    1    2    0    0  0.12346557313E+01  0.84973459218E+01  0.16641758511E+02  0.18726382161E+02  0.00000000000E+00 0.  1.
         11    1    3    3    0    0  0.10912762040E+02 -0.13129532433E+02 -0.89795770212E+01  0.19290044090E+02  0.51100000000E-03 0. -1.
        -11    1    3    3    0    0  0.77230871088E+00  0.19430435190E+02 -0.21616000872E+02  0.29075587120E+02  0.51100000000E-03 0.  1.
         12    1    3    3    0    0 -0.12919726482E+02 -0.14798248678E+02  0.13953819382E+02  0.24095986630E+02  0.00000000000E+00 0. -1.
</event>
<event>
 7    1  0.2700104E-013  0.7246149E+02  0.7816164E-02  0.1226708E+00
        -11   -1    0    0    0    0  0.00000000000E+00  0.00000000000E+00  0.45593999997E+02  0.45594000000E+02  0.51100000000E-03 0.  1.
         11   -1    0    0    0    0 -0.00000000000E+00 -0.00000000000E+00 -0.45593999997E+02  0.45594000000E+02  0.51100000000E-03 0. -1.
    9900012    2    1    2    0    0  0.22020024681E+01  0.40222733230E+01 -0.18156396654E+02  0.72461488391E+02  0.69999893306E+02 0.  0.
        -12    1    1    2    0    0 -0.22020024681E+01 -0.40222733230E+01  0.18156396654E+02  0.18726511609E+02  0.00000000000E+00 0.  1.
         11    1    3    3    0    0  0.37495295308E+01 -0.18224148698E+01  0.86807509062E+01  0.96299327213E+01  0.51100000000E-03 0. -1.
        -11    1    3    3    0    0 -0.46367420262E+01 -0.17054084071E+02  0.92755429014E+01  0.19959380163E+02  0.51100000000E-03 0.  1.
         12    1    3    3    0    0  0.30892149634E+01  0.22898772264E+02 -0.36112690462E+02  0.42872175507E+02  0.00000000000E+00 0. -1.
</event>
<event>
 7    1  0.2700104E-013  0.7246087E+02  0.7816164E-02  0.1226710E+00
        -11   -1    0    0    0    0  0.00000000000E+00  0.00000000000E+00  0.45593999997E+02  0.45594000000E+02  0.51100000000E-03 0. -1.
         11   -1    0    0    0    0 -0.00000000000E+00 -0.00000000000E+00 -0.45593999997E+02  0.45594000000E+02  0.51100000000E-03 0.  1.
    9900012    2    1    2    0    0 -0.11017576910E+02 -0.13770801771E+02  0.62994692838E+01  0.72460872734E+02  0.69999091292E+02 0.  0.
        -12    1    1    2    0    0  0.11017576910E+02  0.13770801771E+02 -0.62994692838E+01  0.18727127266E+02  0.00000000000E+00 0.  1.
         11    1    3    3    0    0 -0.54354069881E+01 -0.29273390671E+02 -0.82881083174E+01  0.30905788944E+02  0.51100000000E-03 0. -1.
        -11    1    3    3    0    0 -0.18392030330E+02  0.10122290674E+02 -0.55942514047E+00  0.21000964380E+02  0.51100000000E-03 0.  1.
        -12    1    3    3    0    0  0.12809860407E+02  0.53802982260E+01  0.15147002742E+02  0.20554119410E+02  0.00000000000E+00 0.  1.
</event>
<event>
 7    1  0.2700104E-013  0.7246157E+02  0.7816164E-02  0.1226708E+00
        -11   -1    0    0    0    0  0.00000000000E+00  0.00000000000E+00  0.45593999997E+02  0.45594000000E+02  0.51100000000E-03 0.  1.
         11   -1    0    0    0    0 -0.00000000000E+00 -0.00000000000E+00 -0.45593999997E+02  0.45594000000E+02  0.51100000000E-03 0. -1.
    9900012    2    1    2    0    0 -0.27846989737E+01  0.82835208588E+00 -0.18499691108E+02  0.72461567167E+02  0.69999995926E+02 0.  0.
        -12    1    1    2    0    0  0.27846989737E+01 -0.82835208588E+00  0.18499691108E+02  0.18726432833E+02  0.00000000000E+00 0.  1.
         11    1    3    3    0    0  0.39023142752E+01 -0.15299851768E+02 -0.46930260327E+01  0.16472340891E+02  0.51100000000E-03 0. -1.
        -11    1    3    3    0    0 -0.93258075287E+00 -0.18548853660E+02 -0.10752229802E+01  0.18603380974E+02  0.51100000000E-03 0.  1.
        -12    1    3    3    0    0 -0.57544324960E+01  0.34677057513E+02 -0.12731442095E+02  0.37385845302E+02  0.00000000000E+00 0.  1.
</event>
<event>
 7    1  0.2700104E-013  0.7246154E+02  0.7816164E-02  0.1226708E+00
        -11   -1    0    0    0    0  0.00000000000E+00  0.00000000000E+00  0.45593999997E+02  0.45594000000E+02  0.51100000000E-03 0.  1.
         11   -1    0    0    0    0 -0.00000000000E+00 -0.00000000000E+00 -0.45593999997E+02  0.45594000000E+02  0.51100000000E-03 0. -1.
    9900012    2    1    2    0    0 -0.26040906816E+01  0.17822723945E+02  0.51234393570E+01  0.72461537229E+02  0.69999956926E+02 0.  0.
        -12    1    1    2    0    0  0.26040906816E+01 -0.17822723945E+02 -0.51234393570E+01  0.18726462771E+02  0.00000000000E+00 0.  1.
         11    1    3    3    0    0  0.52081638305E+01  0.26431878810E+02 -0.95127152264E+01  0.28570280698E+02  0.51100000000E-03 0. -1.
        -11    1    3    3    0    0  0.39812717607E+01  0.22507961227E+01  0.24595841471E+02  0.25017434440E+02  0.51100000000E-03 0.  1.
        -12    1    3    3    0    0 -0.11793526273E+02 -0.10859950988E+02 -0.99596868880E+01  0.18873822091E+02  0.00000000000E+00 0.  1.
</event>
<event>
 7    1  0.2700104E-013  0.7246170E+02  0.7816164E-02  0.1226708E+00
        -11   -1    0    0    0    0  0.00000000000E+00  0.00000000000E+00  0.45593999997E+02  0.45594000000E+02  0.51100000000E-03 0. -1.
         11   -1    0    0    0    0 -0.00000000000E+00 -0.00000000000E+00 -0.45593999997E+02  0.45594000000E+02  0.51100000000E-03 0.  1.
    9900012    2    1    2    0    0  0.14845186784E+02  0.54888473448E+01  0.10008357307E+02  0.72461702133E+02  0.70000171744E+02 0.  0.
        -12    1    1    2    0    0 -0.14845186784E+02 -0.54888473448E+01 -0.10008357307E+02  0.18726297867E+02  0.00000000000E+00 0.  1.
         11    1    3    3    0    0 -0.14863651891E+02  0.51062988232E+01 -0.13322272994E+02  0.20603043300E+02  0.51100000000E-03 0. -1.
        -11    1    3    3    0    0  0.18566739900E+01 -0.59935997152E+00 -0.89798192445E+01  0.91893212266E+01  0.51100000000E-03 0.  1.
         12    1    3    3    0    0  0.27852164685E+02  0.98190849309E+00  0.32310449546E+02  0.42669337607E+02  0.00000000000E+00 0. -1.
</event>
<event>
 7    1  0.2700104E-013  0.7246156E+02  0.7816164E-02  0.1226708E+00
        -11   -1    0    0    0    0  0.00000000000E+00  0.00000000000E+00  0.45593999997E+02  0.45594000000E+02  0.51100000000E-03 0. -1.
         11   -1    0    0    0    0 -0.00000000000E+00 -0.00000000000E+00 -0.45593999997E+02  0.45594000000E+02  0.51100000000E-03 0.  1.
    9900012    2    1    2    0    0 -0.65375586315E+01 -0.15795406667E+02  0.76449280752E+01  0.72461562274E+02  0.69999989552E+02 0.  0.
        -12    1    1    2    0    0  0.65375586315E+01  0.15795406667E+02 -0.76449280752E+01  0.18726437726E+02  0.00000000000E+00 0.  1.
         11    1    3    3    0    0  0.30131120765E+02 -0.35880899346E+01  0.59424096639E+01  0.30920398782E+02  0.51100000000E-03 0. -1.
        -11    1    3    3    0    0 -0.16893663574E+02  0.86530414277E+00 -0.34940360782E+01  0.17272895200E+02  0.51100000000E-03 0.  1.
        -12    1    3    3    0    0 -0.19775015823E+02 -0.13072620875E+02  0.51965544894E+01  0.24268268292E+02  0.00000000000E+00 0.  1.
</event>
<event>
 7    1  0.2700104E-013  0.7246153E+02  0.7816164E-02  0.1226708E+00
        -11   -1    0    0    0    0  0.00000000000E+00  0.00000000000E+00  0.45593999997E+02  0.45594000000E+02  0.51100000000E-03 0.  1.
         11   -1    0    0    0    0 -0.00000000000E+00 -0.00000000000E+00 -0.45593999997E+02  0.45594000000E+02  0.51100000000E-03 0. -1.
    9900012    2    1    2    0    0 -0.14471695989E+02 -0.84063679617E+01 -0.84014025622E+01  0.72461532845E+02  0.69999951215E+02 0.  0.
        -12    1    1    2    0    0  0.14471695989E+02  0.84063679617E+01  0.84014025622E+01  0.18726467155E+02  0.00000000000E+00 0.  1.
         11    1    3    3    0    0 -0.55510209725E+01  0.95595848116E+01 -0.59831704016E+01  0.12569718530E+02  0.51100000000E-03 0. -1.
        -11    1    3    3    0    0  0.10232252909E+02  0.17069397099E+02 -0.13885909821E+01  0.19949724362E+02  0.51100000000E-03 0.  1.
        -12    1    3    3    0    0 -0.19152927926E+02 -0.35035349873E+02 -0.10296411785E+01  0.39942089953E+02  0.00000000000E+00 0.  1.
</event>
<event>
 7    1  0.2700104E-013  0.7246156E+02  0.7816164E-02  0.1226708E+00
        -11   -1    0    0    0    0  0.00000000000E+00  0.00000000000E+00  0.45593999997E+02  0.45594000000E+02  0.51100000000E-03 0. -1.
         11   -1    0    0    0    0 -0.00000000000E+00 -0.00000000000E+00 -0.45593999997E+02  0.45594000000E+02  0.51100000000E-03 0.  1.
    9900012    2    1    2    0    0 -0.17895393528E+02 -0.52809108565E+01  0.15957987179E+01  0.72461556063E+02  0.69999981461E+02 0.  0.
        -12    1    1    2    0    0  0.17895393528E+02  0.52809108565E+01 -0.15957987179E+01  0.18726443937E+02  0.00000000000E+00 0.  1.
         11    1    3    3    0    0  0.10657441955E+02  0.24944160861E+02 -0.68289897651E+01  0.27971902537E+02  0.51100000000E-03 0. -1.
        -11    1    3    3    0    0 -0.10057450052E+02 -0.19024793068E+02  0.70712046650E+00  0.21531258032E+02  0.51100000000E-03 0.  1.
        -12    1    3    3    0    0 -0.18495385431E+02 -0.11200278649E+02  0.77176680165E+01  0.22958395494E+02  0.00000000000E+00 0.  1.
</event>
<event>
 7    1  0.2700104E-013  0.7246157E+02  0.7816164E-02  0.1226708E+00
        -11   -1    0    0    0    0  0.00000000000E+00  0.00000000000E+00  0.45593999997E+02  0.45594000000E+02  0.51100000000E-03 0.  1.
         11   -1    0    0    0    0 -0.00000000000E+00 -0.00000000000E+00 -0.45593999997E+02  0.45594000000E+02  0.51100000000E-03 0. -1.
    9900012    2    1    2    0    0  0.11492720744E+02  0.14526085332E+02  0.27548880727E+01  0.72461569655E+02  0.69999999167E+02 0.  0.
        -12    1    1    2    0    0 -0.11492720744E+02 -0.14526085332E+02 -0.27548880727E+01  0.18726430345E+02  0.00000000000E+00 0.  1.
         11    1    3    3    0    0  0.23600083299E+02 -0.10719014372E+02 -0.75511685437E+01  0.26997802641E+02  0.51100000000E-03 0. -1.
        -11    1    3    3    0    0 -0.20672263452E+02  0.36215946952E+01  0.57934458692E+01  0.21772056395E+02  0.51100000000E-03 0.  1.
         12    1    3    3    0    0  0.85649008973E+01  0.21623505009E+02  0.45126107472E+01  0.23691710618E+02  0.00000000000E+00 0. -1.
</event>
<event>
 7    1  0.2700104E-013  0.7246164E+02  0.7816164E-02  0.1226708E+00
        -11   -1    0    0    0    0  0.00000000000E+00  0.00000000000E+00  0.45593999997E+02  0.45594000000E+02  0.51100000000E-03 0.  1.
         11   -1    0    0    0    0 -0.00000000000E+00 -0.00000000000E+00 -0.45593999997E+02  0.45594000000E+02  0.51100000000E-03 0. -1.
    9900012    2    1    2    0    0  0.96783141306E+01 -0.12315095258E+02 -0.10263774727E+02  0.72461644047E+02  0.70000096076E+02 0.  0.
        -12    1    1    2    0    0 -0.96783141306E+01  0.12315095258E+02  0.10263774727E+02  0.18726355953E+02  0.00000000000E+00 0.  1.
         11    1    3    3    0    0  0.24984221692E+02  0.14509522034E+01 -0.62159186944E+01  0.25786706678E+02  0.51100000000E-03 0. -1.
        -11    1    3    3    0    0  0.70451187583E+01 -0.19032791333E+02  0.66302910181E+01  0.21350447384E+02  0.51100000000E-03 0.  1.
         12    1    3    3    0    0 -0.22351026319E+02  0.52667438716E+01 -0.10678147051E+02  0.25324489985E+02  0.00000000000E+00 0. -1.
</event>
<event>
 7    1  0.2700104E-013  0.7246153E+02  0.7816164E-02  0.1226708E+00
        -11   -1    0    0    0    0  0.00000000000E+00  0.00000000000E+00  0.45593999997E+02  0.45594000000E+02  0.51100000000E-03 0.  1.
         11   -1    0    0    0    0 -0.00000000000E+00 -0.00000000000E+00 -0.45593999997E+02  0.45594000000E+02  0.51100000000E-03 0. -1.
    9900012    2    1    2    0    0 -0.64374245691E+01 -0.23803272024E+01 -0.17423383599E+02  0.72461529732E+02  0.69999947159E+02 0.  0.
        -12    1    1    2    0    0  0.64374245691E+01  0.23803272024E+01  0.17423383599E+02  0.18726470268E+02  0.00000000000E+00 0.  1.
         11    1    3    3    0    0  0.14425770998E+02 -0.16611793703E+01  0.14133547607E+00  0.14521789207E+02  0.51100000000E-03 0. -1.
        -11    1    3    3    0    0 -0.43629537398E-01 -0.20540315853E+02  0.52955706678E+01  0.21212014233E+02  0.51100000000E-03 0.  1.
         12    1    3    3    0    0 -0.20819566030E+02  0.19821168021E+02 -0.22860289743E+02  0.36727726291E+02  0.00000000000E+00 0. -1.
</event>
<event>
 7    1  0.2700104E-013  0.7246158E+02  0.7816164E-02  0.1226708E+00
        -11   -1    0    0    0    0  0.00000000000E+00  0.00000000000E+00  0.45593999997E+02  0.45594000000E+02  0.51100000000E-03 0.  1.
         11   -1    0    0    0    0 -0.00000000000E+00 -0.00000000000E+00 -0.45593999997E+02  0.45594000000E+02  0.51100000000E-03 0. -1.
    9900012    2    1    2    0    0  0.39274719407E+01 -0.14555210325E+02 -0.11108540421E+02  0.72461578726E+02  0.70000010984E+02 0.  0.
        -12    1    1    2    0    0 -0.39274719407E+01  0.14555210325E+02  0.11108540421E+02  0.18726421274E+02  0.00000000000E+00 0.  1.
         11    1    3    3    0    0  0.28323256814E+01 -0.23512592996E+02 -0.40530202499E+01  0.24026882269E+02  0.51100000000E-03 0. -1.
        -11    1    3    3    0    0  0.22960175794E+02  0.56793092314E+01  0.35433687003E+01  0.23916096836E+02  0.51100000000E-03 0.  1.
        -12    1    3    3    0    0 -0.21865029535E+02  0.32780734400E+01 -0.10598888872E+02  0.24518599621E+02  0.00000000000E+00 0.  1.
</event>
<event>
 7    1  0.2700104E-013  0.7246159E+02  0.7816164E-02  0.1226708E+00
        -11   -1    0    0    0    0  0.00000000000E+00  0.00000000000E+00  0.45593999997E+02  0.45594000000E+02  0.51100000000E-03 0.  1.
         11   -1    0    0    0    0 -0.00000000000E+00 -0.00000000000E+00 -0.45593999997E+02  0.45594000000E+02  0.51100000000E-03 0. -1.
    9900012    2    1    2    0    0 -0.12188962980E+02  0.40686321446E+01 -0.13621821536E+02  0.72461585286E+02  0.70000019530E+02 0.  0.
        -12    1    1    2    0    0  0.12188962980E+02 -0.40686321446E+01  0.13621821536E+02  0.18726414714E+02  0.00000000000E+00 0.  1.
         11    1    3    3    0    0 -0.21552685721E+02 -0.17121122600E+02 -0.61501440498E+01  0.28204172971E+02  0.51100000000E-03 0. -1.
        -11    1    3    3    0    0 -0.11793135541E+02  0.13614545612E+02  0.48166232016E+01  0.18644939191E+02  0.51100000000E-03 0.  1.
         12    1    3    3    0    0  0.21156858281E+02  0.75752091330E+01 -0.12288300688E+02  0.25612473124E+02  0.00000000000E+00 0. -1.
</event>
<event>
 7    1  0.2700104E-013  0.7246153E+02  0.7816164E-02  0.1226708E+00
        -11   -1    0    0    0    0  0.00000000000E+00  0.00000000000E+00  0.45593999997E+02  0.45594000000E+02  0.51100000000E-03 0.  1.
         11   -1    0    0    0    0 -0.00000000000E+00 -0.00000000000E+00 -0.45593999997E+02  0.45594000000E+02  0.51100000000E-03 0. -1.
    9900012    2    1    2    0    0  0.51007113792E+01 -0.11811095447E+02 -0.13607403463E+02  0.72461530465E+02  0.69999948115E+02 0.  0.
        -12    1    1    2    0    0 -0.51007113792E+01  0.11811095447E+02  0.13607403463E+02  0.18726469535E+02  0.00000000000E+00 0.  1.
         11    1    3    3    0    0  0.13294833836E+01 -0.41915063931E+00 -0.14323272635E+01  0.19986933173E+01  0.51100000000E-03 0. -1.
        -11    1    3    3    0    0  0.34960318597E+02 -0.13967616508E+02 -0.10675665875E+02  0.39131675526E+02  0.51100000000E-03 0.  1.
         12    1    3    3    0    0 -0.31189090602E+02  0.25756717010E+01 -0.14994103250E+01  0.31331161622E+02  0.00000000000E+00 0. -1.
</event>
<event>
 7    1  0.2700104E-013  0.7246160E+02  0.7816164E-02  0.1226708E+00
        -11   -1    0    0    0    0  0.00000000000E+00  0.00000000000E+00  0.45593999997E+02  0.45594000000E+02  0.51100000000E-03 0.  1.
         11   -1    0    0    0    0 -0.00000000000E+00 -0.00000000000E+00 -0.45593999997E+02  0.45594000000E+02  0.51100000000E-03 0. -1.
    9900012    2    1    2    0    0 -0.13156449800E+02 -0.93485277199E+01 -0.94968886266E+01  0.72461600574E+02  0.70000039445E+02 0.  0.
        -12    1    1    2    0    0  0.13156449800E+02  0.93485277199E+01  0.94968886266E+01  0.18726399426E+02  0.00000000000E+00 0.  1.
         11    1    3    3    0    0 -0.33625107753E+01 -0.17548707649E+02 -0.18273225135E+02  0.25557276379E+02  0.51100000000E-03 0. -1.
        -11    1    3    3    0    0  0.45567355279E+01  0.57370737592E+01  0.24442268301E+02  0.25516706958E+02  0.51100000000E-03 0.  1.
         12    1    3    3    0    0 -0.14350674553E+02  0.24631061694E+01 -0.15665931793E+02  0.21387617237E+02  0.00000000000E+00 0. -1.
</event>
<event>
 7    1  0.2700104E-013  0.7246165E+02  0.7816164E-02  0.1226708E+00
        -11   -1    0    0    0    0  0.00000000000E+00  0.00000000000E+00  0.45593999997E+02  0.45594000000E+02  0.51100000000E-03 0. -1.
         11   -1    0    0    0    0 -0.00000000000E+00 -0.00000000000E+00 -0.45593999997E+02  0.45594000000E+02  0.51100000000E-03 0.  1.
    9900012    2    1    2    0    0  0.94003481758E+01  0.81074215608E+01  0.14020673685E+02  0.72461651697E+02  0.70000106042E+02 0.  0.
        -12    1    1    2    0    0 -0.94003481758E+01 -0.81074215608E+01 -0.14020673685E+02  0.18726348303E+02  0.00000000000E+00 0.  1.
         11    1    3    3    0    0 -0.11959874670E+01 -0.23651562053E+01 -0.85693484032E+00  0.27854420615E+01  0.51100000000E-03 0. -1.
        -11    1    3    3    0    0  0.14585339457E+02 -0.20191882475E+02 -0.12951603841E+02  0.28074691223E+02  0.51100000000E-03 0.  1.
         12    1    3    3    0    0 -0.39890038144E+01  0.30664460241E+02  0.27829212366E+02  0.41601518412E+02  0.00000000000E+00 0. -1.
</event>
<event>
 7    1  0.2700104E-013  0.7246153E+02  0.7816164E-02  0.1226708E+00
        -11   -1    0    0    0    0  0.00000000000E+00  0.00000000000E+00  0.45593999997E+02  0.45594000000E+02  0.51100000000E-03 0.  1.
         11   -1    0    0    0    0 -0.00000000000E+00 -0.00000000000E+00 -0.45593999997E+02  0.45594000000E+02  0.51100000000E-03 0. -1.
    9900012    2    1    2    0    0  0.48011319330E+01 -0.68556070941E+01 -0.16752025036E+02  0.72461533188E+02  0.69999951662E+02 0.  0.
        -12    1    1    2    0    0 -0.48011319330E+01  0.68556070941E+01  0.16752025036E+02  0.18726466812E+02  0.00000000000E+00 0.  1.
         11    1    3    3    0    0  0.80672403226E+01  0.56052031215E+01 -0.28016813147E+02  0.29689063435E+02  0.51100000000E-03 0. -1.
        -11    1    3    3    0    0 -0.10556856477E+02 -0.15962084102E+02 -0.88559481918E+01  0.21087037871E+02  0.51100000000E-03 0.  1.
        -12    1    3    3    0    0  0.72907480870E+01  0.35012738866E+01  0.20120736303E+02  0.21685431881E+02  0.00000000000E+00 0.  1.
</event>
<event>
 7    1  0.2700104E-013  0.7246161E+02  0.7816164E-02  0.1226708E+00
        -11   -1    0    0    0    0  0.00000000000E+00  0.00000000000E+00  0.45593999997E+02  0.45594000000E+02  0.51100000000E-03 0.  1.
         11   -1    0    0    0    0 -0.00000000000E+00 -0.00000000000E+00 -0.45593999997E+02  0.45594000000E+02  0.51100000000E-03 0. -1.
    9900012    2    1    2    0    0  0.43553600379E+01  0.10694065157E+01 -0.18181445108E+02  0.72461608528E+02  0.70000049806E+02 0.  0.
        -12    1    1    2    0    0 -0.43553600379E+01 -0.10694065157E+01  0.18181445108E+02  0.18726391472E+02  0.00000000000E+00 0.  1.
         11    1    3    3    0    0  0.21427540281E+01 -0.71127019548E+01 -0.18502845873E+02  0.19938335678E+02  0.51100000000E-03 0. -1.
        -11    1    3    3    0    0 -0.17998379189E+02 -0.12890640739E+02 -0.53582206798E+01  0.22777638183E+02  0.51100000000E-03 0.  1.
        -12    1    3    3    0    0  0.20210985199E+02  0.21072749209E+02  0.56796214451E+01  0.29745634666E+02  0.00000000000E+00 0.  1.
</event>
<event>
 7    1  0.2700104E-013  0.7246162E+02  0.7816164E-02  0.1226708E+00
        -11   -1    0    0    0    0  0.00000000000E+00  0.00000000000E+00  0.45593999997E+02  0.45594000000E+02  0.51100000000E-03 0.  1.
         11   -1    0    0    0    0 -0.00000000000E+00 -0.00000000000E+00 -0.45593999997E+02  0.45594000000E+02  0.51100000000E-03 0. -1.
    9900012    2    1    2    0    0  0.84846791229E+01  0.16401830740E+02 -0.31092725350E+01  0.72461617350E+02  0.70000061299E+02 0.  0.
        -12    1    1    2    0    0 -0.84846791229E+01 -0.16401830740E+02  0.31092725350E+01  0.18726382650E+02  0.00000000000E+00 0.  1.
         11    1    3    3    0    0 -0.19452278050E+01  0.52663345886E+00  0.22927381996E+02  0.23015779358E+02  0.51100000000E-03 0. -1.
        -11    1    3    3    0    0  0.98568190447E+01 -0.91126631895E+01 -0.97446006615E-01  0.13424120383E+02  0.51100000000E-03 0.  1.
         12    1    3    3    0    0  0.57308788321E+00  0.24987860471E+02 -0.25939208524E+02  0.36021717609E+02  0.00000000000E+00 0. -1.
</event>
<event>
 7    1  0.2700104E-013  0.7246090E+02  0.7816164E-02  0.1226710E+00
        -11   -1    0    0    0    0  0.00000000000E+00  0.00000000000E+00  0.45593999997E+02  0.45594000000E+02  0.51100000000E-03 0. -1.
         11   -1    0    0    0    0 -0.00000000000E+00 -0.00000000000E+00 -0.45593999997E+02  0.45594000000E+02  0.51100000000E-03 0.  1.
    9900012    2    1    2    0    0  0.95480580624E+01  0.27976339541E+01  0.15865433271E+02  0.72460903552E+02  0.69999131439E+02 0.  0.
        -12    1    1    2    0    0 -0.95480580624E+01 -0.27976339541E+01 -0.15865433271E+02  0.18727096448E+02  0.00000000000E+00 0.  1.
         11    1    3    3    0    0 -0.73029670739E+01 -0.25235384444E+02  0.22430726063E+02  0.34544108443E+02  0.51100000000E-03 0. -1.
        -11    1    3    3    0    0  0.20504182167E+01 -0.26736041275E+00 -0.55952480836E+01  0.59651066907E+01  0.51100000000E-03 0.  1.
        -12    1    3    3    0    0  0.14800606920E+02  0.28300378811E+02 -0.97004470878E+00  0.31951688418E+02  0.00000000000E+00 0.  1.
</event>
<event>
 7    1  0.2700104E-013  0.7246159E+02  0.7816164E-02  0.1226708E+00
        -11   -1    0    0    0    0  0.00000000000E+00  0.00000000000E+00  0.45593999997E+02  0.45594000000E+02  0.51100000000E-03 0.  1.
         11   -1    0    0    0    0 -0.00000000000E+00 -0.00000000000E+00 -0.45593999997E+02  0.45594000000E+02  0.51100000000E-03 0. -1.
    9900012    2    1    2    0    0 -0.11702322049E+02 -0.12626889977E+02 -0.73685646324E+01  0.72461589864E+02  0.70000025493E+02 0.  0.
        -12    1    1    2    0    0  0.11702322049E+02  0.12626889977E+02  0.73685646324E+01  0.18726410136E+02  0.00000000000E+00 0.  1.
         11    1    3    3    0    0  0.52940230429E+01 -0.69253395060E+01 -0.25713092009E+02  0.27150508434E+02  0.51100000000E-03 0. -1.
        -11    1    3    3    0    0 -0.11114882974E+02 -0.27557779246E+01 -0.10614618528E+02  0.15614258299E+02  0.51100000000E-03 0.  1.
        -12    1    3    3    0    0 -0.58814621184E+01 -0.29457725465E+01  0.28959145905E+02  0.29696823131E+02  0.00000000000E+00 0.  1.
</event>
<event>
 7    1  0.2700104E-013  0.7246157E+02  0.7816164E-02  0.1226708E+00
        -11   -1    0    0    0    0  0.00000000000E+00  0.00000000000E+00  0.45593999997E+02  0.45594000000E+02  0.51100000000E-03 0.  1.
         11   -1    0    0    0    0 -0.00000000000E+00 -0.00000000000E+00 -0.45593999997E+02  0.45594000000E+02  0.51100000000E-03 0. -1.
    9900012    2    1    2    0    0 -0.15913955019E+02 -0.75008766339E+01 -0.64157779270E+01  0.72461566249E+02  0.69999994730E+02 0.  0.
        -12    1    1    2    0    0  0.15913955019E+02  0.75008766339E+01  0.64157779270E+01  0.18726433751E+02  0.00000000000E+00 0.  1.
         11    1    3    3    0    0  0.73946924221E+01 -0.16076990942E+01 -0.53140934989E+00  0.75860772836E+01  0.51100000000E-03 0. -1.
        -11    1    3    3    0    0 -0.10606325436E+02  0.21917464725E+02  0.14301920610E+02  0.28238525681E+02  0.51100000000E-03 0.  1.
         12    1    3    3    0    0 -0.12702322006E+02 -0.27810642265E+02 -0.20186289187E+02  0.36636963284E+02  0.00000000000E+00 0. -1.
</event>
<event>
 7    1  0.2700104E-013  0.7246156E+02  0.7816164E-02  0.1226708E+00
        -11   -1    0    0    0    0  0.00000000000E+00  0.00000000000E+00  0.45593999997E+02  0.45594000000E+02  0.51100000000E-03 0.  1.
         11   -1    0    0    0    0 -0.00000000000E+00 -0.00000000000E+00 -0.45593999997E+02  0.45594000000E+02  0.51100000000E-03 0. -1.
    9900012    2    1    2    0    0 -0.71595023425E+01  0.15956594795E+02 -0.66939004182E+01  0.72461556289E+02  0.69999981755E+02 0.  0.
        -12    1    1    2    0    0  0.71595023425E+01 -0.15956594795E+02  0.66939004182E+01  0.18726443711E+02  0.00000000000E+00 0.  1.
         11    1    3    3    0    0 -0.47370155760E+01 -0.80381239359E+00  0.47531069862E+01  0.67585099848E+01  0.51100000000E-03 0. -1.
        -11    1    3    3    0    0 -0.19045059034E+02 -0.16576019526E+02 -0.13042451348E+02  0.28418026574E+02  0.51100000000E-03 0.  1.
        -12    1    3    3    0    0  0.16622572268E+02  0.33336426715E+02  0.15954439439E+01  0.37285019730E+02  0.00000000000E+00 0.  1.
</event>
<event>
 7    1  0.2700104E-013  0.7246160E+02  0.7816164E-02  0.1226708E+00
        -11   -1    0    0    0    0  0.00000000000E+00  0.00000000000E+00  0.45593999997E+02  0.45594000000E+02  0.51100000000E-03 0.  1.
         11   -1    0    0    0    0 -0.00000000000E+00 -0.00000000000E+00 -0.45593999997E+02  0.45594000000E+02  0.51100000000E-03 0. -1.
    9900012    2    1    2    0    0 -0.70593052098E+01 -0.16949959408E+02 -0.36801032685E+01  0.72461599544E+02  0.70000038103E+02 0.  0.
        -12    1    1    2    0    0  0.70593052098E+01  0.16949959408E+02  0.36801032685E+01  0.18726400456E+02  0.00000000000E+00 0.  1.
         11    1    3    3    0    0 -0.21607301779E+02 -0.23727099628E+02  0.68019422547E+01  0.32804224813E+02  0.51100000000E-03 0. -1.
        -11    1    3    3    0    0  0.84473566664E+01 -0.66249063772E+01  0.98389738088E+01  0.14562026817E+02  0.51100000000E-03 0.  1.
        -12    1    3    3    0    0  0.61006399024E+01  0.13402046597E+02 -0.20321019332E+02  0.25095347913E+02  0.00000000000E+00 0.  1.
</event>
<event>
 7    1  0.2700104E-013  0.7246143E+02  0.7816164E-02  0.1226708E+00
        -11   -1    0    0    0    0  0.00000000000E+00  0.00000000000E+00  0.45593999997E+02  0.45594000000E+02  0.51100000000E-03 0. -1.
         11   -1    0    0    0    0 -0.00000000000E+00 -0.00000000000E+00 -0.45593999997E+02  0.45594000000E+02  0.51100000000E-03 0.  1.
    9900012    2    1    2    0    0  0.13657997085E+02 -0.19713404885E+01  0.12659281312E+02  0.72461428744E+02  0.69999815604E+02 0.  0.
        -12    1    1    2    0    0 -0.13657997085E+02  0.19713404885E+01 -0.12659281312E+02  0.18726571256E+02  0.00000000000E+00 0.  1.
         11    1    3    3    0    0  0.12109376294E+02 -0.25730349767E+01 -0.13967963170E+02  0.18664444770E+02  0.51100000000E-03 0. -1.
        -11    1    3    3    0    0 -0.36632700149E+01  0.10901963346E+02 -0.10095042695E+02  0.15303014059E+02  0.51100000000E-03 0.  1.
         12    1    3    3    0    0  0.52118908057E+01 -0.10300268858E+02  0.36722287176E+02  0.38493969914E+02  0.00000000000E+00 0. -1.
</event>
<event>
 7    1  0.2700104E-013  0.7246155E+02  0.7816164E-02  0.1226708E+00
        -11   -1    0    0    0    0  0.00000000000E+00  0.00000000000E+00  0.45593999997E+02  0.45594000000E+02  0.51100000000E-03 0.  1.
         11   -1    0    0    0    0 -0.00000000000E+00 -0.00000000000E+00 -0.45593999997E+02  0.45594000000E+02  0.51100000000E-03 0. -1.
    9900012    2    1    2    0    0 -0.17666816768E+02 -0.40053119873E+01 -0.47456166548E+01  0.72461553026E+02  0.69999977505E+02 0.  0.
        -12    1    1    2    0    0  0.17666816768E+02  0.40053119873E+01  0.47456166548E+01  0.18726446974E+02  0.00000000000E+00 0.  1.
         11    1    3    3    0    0 -0.95205874061E+01  0.51629534300E+01 -0.86732118287E+01  0.13875239687E+02  0.51100000000E-03 0. -1.
        -11    1    3    3    0    0 -0.68677423057E+01  0.13560015124E+02  0.23885719914E+02  0.28311967622E+02  0.51100000000E-03 0.  1.
         12    1    3    3    0    0 -0.12784870560E+01 -0.22728280542E+02 -0.19958124740E+02  0.30274345718E+02  0.00000000000E+00 0. -1.
</event>
<event>
 7    1  0.2700104E-013  0.7246159E+02  0.7816164E-02  0.1226708E+00
        -11   -1    0    0    0    0  0.00000000000E+00  0.00000000000E+00  0.45593999997E+02  0.45594000000E+02  0.51100000000E-03 0.  1.
         11   -1    0    0    0    0 -0.00000000000E+00 -0.00000000000E+00 -0.45593999997E+02  0.45594000000E+02  0.51100000000E-03 0. -1.
    9900012    2    1    2    0    0  0.42267703256E+01 -0.12422501541E+02 -0.13360169984E+02  0.72461594207E+02  0.70000031151E+02 0.  0.
        -12    1    1    2    0    0 -0.42267703256E+01  0.12422501541E+02  0.13360169984E+02  0.18726405793E+02  0.00000000000E+00 0.  1.
         11    1    3    3    0    0 -0.39439678591E+01  0.31498358678E+01  0.62997060540E+01  0.80723382670E+01  0.51100000000E-03 0. -1.
        -11    1    3    3    0    0  0.27162811350E+02 -0.10437782609E+02 -0.30310231359E+02  0.42017564798E+02  0.51100000000E-03 0.  1.
         12    1    3    3    0    0 -0.18992073166E+02 -0.51345547991E+01  0.10650355321E+02  0.22371691142E+02  0.00000000000E+00 0. -1.
</event>
<event>
 7    1  0.2700104E-013  0.7246153E+02  0.7816164E-02  0.1226708E+00
        -11   -1    0    0    0    0  0.00000000000E+00  0.00000000000E+00  0.45593999997E+02  0.45594000000E+02  0.51100000000E-03 0.  1.
         11   -1    0    0    0    0 -0.00000000000E+00 -0.00000000000E+00 -0.45593999997E+02  0.45594000000E+02  0.51100000000E-03 0. -1.
    9900012    2    1    2    0    0 -0.37575994937E+01  0.12680841020E+02 -0.13257348048E+02  0.72461533163E+02  0.69999951630E+02 0.  0.
        -12    1    1    2    0    0  0.37575994937E+01 -0.12680841020E+02  0.13257348048E+02  0.18726466837E+02  0.00000000000E+00 0.  1.
         11    1    3    3    0    0  0.81039119612E+01 -0.24868057401E+01  0.29730874274E+01  0.89831420436E+01  0.51100000000E-03 0. -1.
        -11    1    3    3    0    0 -0.17234774139E+02 -0.19347539460E+02 -0.28281076742E+01  0.26064591231E+02  0.51100000000E-03 0.  1.
         12    1    3    3    0    0  0.53732626837E+01  0.34515186220E+02 -0.13402327801E+02  0.37413799889E+02  0.00000000000E+00 0. -1.
</event>
<event>
 7    1  0.2700104E-013  0.7246153E+02  0.7816164E-02  0.1226708E+00
        -11   -1    0    0    0    0  0.00000000000E+00  0.00000000000E+00  0.45593999997E+02  0.45594000000E+02  0.51100000000E-03 0.  1.
         11   -1    0    0    0    0 -0.00000000000E+00 -0.00000000000E+00 -0.45593999997E+02  0.45594000000E+02  0.51100000000E-03 0. -1.
    9900012    2    1    2    0    0  0.88134537473E+01  0.12393397950E+02 -0.10927363171E+02  0.72461533553E+02  0.69999952138E+02 0.  0.
        -12    1    1    2    0    0 -0.88134537473E+01 -0.12393397950E+02  0.10927363171E+02  0.18726466447E+02  0.00000000000E+00 0.  1.
         11    1    3    3    0    0  0.14266506635E+02  0.26573906976E+02 -0.20994039990E+02  0.36748543629E+02  0.51100000000E-03 0. -1.
        -11    1    3    3    0    0  0.55952186573E+01 -0.30319777152E+01 -0.89964236356E+01  0.11019754951E+02  0.51100000000E-03 0.  1.
        -12    1    3    3    0    0 -0.11048271545E+02 -0.11148531310E+02  0.19063100454E+02  0.24693234973E+02  0.00000000000E+00 0.  1.
</event>
<event>
 7    1  0.2700104E-013  0.7246157E+02  0.7816164E-02  0.1226708E+00
        -11   -1    0    0    0    0  0.00000000000E+00  0.00000000000E+00  0.45593999997E+02  0.45594000000E+02  0.51100000000E-03 0.  1.
         11   -1    0    0    0    0 -0.00000000000E+00 -0.00000000000E+00 -0.45593999997E+02  0.45594000000E+02  0.51100000000E-03 0. -1.
    9900012    2    1    2    0    0  0.12440132798E+02  0.95194310991E+01  0.10261712575E+02  0.72461569014E+02  0.69999998333E+02 0.  0.
        -12    1    1    2    0    0 -0.12440132798E+02 -0.95194310991E+01 -0.10261712575E+02  0.18726430986E+02  0.00000000000E+00 0.  1.
         11    1    3    3    0    0  0.11957476804E+02  0.13047119464E+02  0.12210692546E+02  0.21501385781E+02  0.51100000000E-03 0. -1.
        -11    1    3    3    0    0  0.57252351974E+01 -0.26119177501E+02  0.39511200307E+01  0.27029633759E+02  0.51100000000E-03 0.  1.
         12    1    3    3    0    0 -0.52425792027E+01  0.22591489136E+02 -0.59001000013E+01  0.23930549474E+02  0.00000000000E+00 0. -1.
</event>
<event>
 7    1  0.2700104E-013  0.7246158E+02  0.7816164E-02  0.1226708E+00
        -11   -1    0    0    0    0  0.00000000000E+00  0.00000000000E+00  0.45593999997E+02  0.45594000000E+02  0.51100000000E-03 0.  1.
         11   -1    0    0    0    0 -0.00000000000E+00 -0.00000000000E+00 -0.45593999997E+02  0.45594000000E+02  0.51100000000E-03 0. -1.
    9900012    2    1    2    0    0  0.62222303158E+01 -0.17646666636E+02  0.74679757192E+00  0.72461582829E+02  0.70000016328E+02 0.  0.
        -12    1    1    2    0    0 -0.62222303158E+01  0.17646666636E+02 -0.74679757192E+00  0.18726417171E+02  0.00000000000E+00 0.  1.
         11    1    3    3    0    0 -0.26209888413E+01 -0.24610833091E+02 -0.11010977598E+02  0.27088822711E+02  0.51100000000E-03 0. -1.
        -11    1    3    3    0    0  0.14672565877E+02 -0.42634352803E+01  0.23553861212E+02  0.28075709217E+02  0.51100000000E-03 0.  1.
         12    1    3    3    0    0 -0.58293467200E+01  0.11227601736E+02 -0.11796086042E+02  0.17297050900E+02  0.00000000000E+00 0. -1.
</event>
<event>
 7    1  0.2700104E-013  0.7246161E+02  0.7816164E-02  0.1226708E+00
        -11   -1    0    0    0    0  0.00000000000E+00  0.00000000000E+00  0.45593999997E+02  0.45594000000E+02  0.51100000000E-03 0.  1.
         11   -1    0    0    0    0 -0.00000000000E+00 -0.00000000000E+00 -0.45593999997E+02  0.45594000000E+02  0.51100000000E-03 0. -1.
    9900012    2    1    2    0    0 -0.29019020823E+01  0.80668696671E+01 -0.16648792351E+02  0.72461609300E+02  0.70000050812E+02 0.  0.
        -12    1    1    2    0    0  0.29019020823E+01 -0.80668696671E+01  0.16648792351E+02  0.18726390700E+02  0.00000000000E+00 0.  1.
         11    1    3    3    0    0  0.11652776807E+01 -0.43797487591E+01 -0.10056657601E+02  0.11030704131E+02  0.51100000000E-03 0. -1.
        -11    1    3    3    0    0 -0.90600894517E+01 -0.15423842025E+02 -0.22664425253E+02  0.28873106795E+02  0.51100000000E-03 0.  1.
         12    1    3    3    0    0  0.49929096887E+01  0.27870460452E+02  0.16072290503E+02  0.32557798374E+02  0.00000000000E+00 0. -1.
</event>
<event>
 7    1  0.2700104E-013  0.7246215E+02  0.7816164E-02  0.1226706E+00
        -11   -1    0    0    0    0  0.00000000000E+00  0.00000000000E+00  0.45593999997E+02  0.45594000000E+02  0.51100000000E-03 0. -1.
         11   -1    0    0    0    0 -0.00000000000E+00 -0.00000000000E+00 -0.45593999997E+02  0.45594000000E+02  0.51100000000E-03 0.  1.
    9900012    2    1    2    0    0 -0.16803645455E+02  0.34287302224E+01  0.75192212980E+01  0.72462152077E+02  0.70000757875E+02 0.  0.
        -12    1    1    2    0    0  0.16803645455E+02 -0.34287302224E+01 -0.75192212980E+01  0.18725847923E+02  0.00000000000E+00 0.  1.
         11    1    3    3    0    0 -0.12917623182E+02  0.13697667469E+02 -0.44615830316E+01  0.19349336065E+02  0.51100000000E-03 0. -1.
        -11    1    3    3    0    0  0.41690903176E+01 -0.27544531095E+02 -0.41203281249E+01  0.28161314093E+02  0.51100000000E-03 0.  1.
         12    1    3    3    0    0 -0.80551125910E+01  0.17275593849E+02  0.16101132454E+02  0.24951501919E+02  0.00000000000E+00 0. -1.
</event>
<event>
 7    1  0.2700104E-013  0.7246159E+02  0.7816164E-02  0.1226708E+00
        -11   -1    0    0    0    0  0.00000000000E+00  0.00000000000E+00  0.45593999997E+02  0.45594000000E+02  0.51100000000E-03 0.  1.
         11   -1    0    0    0    0 -0.00000000000E+00 -0.00000000000E+00 -0.45593999997E+02  0.45594000000E+02  0.51100000000E-03 0. -1.
    9900012    2    1    2    0    0 -0.14240046449E+02  0.41962520630E+00 -0.12154150020E+02  0.72461591618E+02  0.70000027778E+02 0.  0.
        -12    1    1    2    0    0  0.14240046449E+02 -0.41962520630E+00  0.12154150020E+02  0.18726408382E+02  0.00000000000E+00 0.  1.
         11    1    3    3    0    0 -0.61855261820E+01 -0.45146981535E+01  0.22064449541E+02  0.23355581075E+02  0.51100000000E-03 0. -1.
        -11    1    3    3    0    0 -0.11602632040E+02  0.56100160615E+01  0.17061348737E+01  0.13000163343E+02  0.51100000000E-03 0.  1.
         12    1    3    3    0    0  0.35481117734E+01 -0.67569270175E+00 -0.35924734435E+02  0.36105847200E+02  0.00000000000E+00 0. -1.
</event>
<event>
 7    1  0.2700104E-013  0.7246161E+02  0.7816164E-02  0.1226708E+00
        -11   -1    0    0    0    0  0.00000000000E+00  0.00000000000E+00  0.45593999997E+02  0.45594000000E+02  0.51100000000E-03 0. -1.
         11   -1    0    0    0    0 -0.00000000000E+00 -0.00000000000E+00 -0.45593999997E+02  0.45594000000E+02  0.51100000000E-03 0.  1.
    9900012    2    1    2    0    0  0.14225815319E+02  0.11521109882E+02  0.39456370563E+01  0.72461605628E+02  0.70000046029E+02 0.  0.
        -12    1    1    2    0    0 -0.14225815319E+02 -0.11521109882E+02 -0.39456370563E+01  0.18726394372E+02  0.00000000000E+00 0.  1.
         11    1    3    3    0    0  0.18128867329E+01  0.87629363262E+01  0.13293549954E+02  0.16024795849E+02  0.51100000000E-03 0. -1.
        -11    1    3    3    0    0 -0.12823497640E+02  0.14572382507E+02  0.10647821260E+02  0.22139840142E+02  0.51100000000E-03 0.  1.
        -12    1    3    3    0    0  0.25236426226E+02 -0.11814208951E+02 -0.19995734158E+02  0.34296969637E+02  0.00000000000E+00 0.  1.
</event>
<event>
 7    1  0.2700104E-013  0.7246154E+02  0.7816164E-02  0.1226708E+00
        -11   -1    0    0    0    0  0.00000000000E+00  0.00000000000E+00  0.45593999997E+02  0.45594000000E+02  0.51100000000E-03 0.  1.
         11   -1    0    0    0    0 -0.00000000000E+00 -0.00000000000E+00 -0.45593999997E+02  0.45594000000E+02  0.51100000000E-03 0. -1.
    9900012    2    1    2    0    0  0.13243496540E+02  0.98591114953E+01  0.88367382684E+01  0.72461542158E+02  0.69999963347E+02 0.  0.
        -12    1    1    2    0    0 -0.13243496540E+02 -0.98591114953E+01 -0.88367382684E+01  0.18726457842E+02  0.00000000000E+00 0.  1.
         11    1    3    3    0    0  0.10794852545E+02  0.54417992225E+01  0.42386160236E+01  0.12810460035E+02  0.51100000000E-03 0. -1.
        -11    1    3    3    0    0  0.27964374819E+01  0.15968684210E+02  0.28677172064E+02  0.32942360811E+02  0.51100000000E-03 0.  1.
         12    1    3    3    0    0 -0.34779348653E+00 -0.11551371937E+02 -0.24079049819E+02  0.26708721312E+02  0.00000000000E+00 0. -1.
</event>
<event>
 7    1  0.2700104E-013  0.7246159E+02  0.7816164E-02  0.1226708E+00
        -11   -1    0    0    0    0  0.00000000000E+00  0.00000000000E+00  0.45593999997E+02  0.45594000000E+02  0.51100000000E-03 0.  1.
         11   -1    0    0    0    0 -0.00000000000E+00 -0.00000000000E+00 -0.45593999997E+02  0.45594000000E+02  0.51100000000E-03 0. -1.
    9900012    2    1    2    0    0  0.11341649361E+02  0.38568338777E+01 -0.14393415623E+02  0.72461585739E+02  0.70000020119E+02 0.  0.
        -12    1    1    2    0    0 -0.11341649361E+02 -0.38568338777E+01  0.14393415623E+02  0.18726414261E+02  0.00000000000E+00 0.  1.
         11    1    3    3    0    0 -0.29970201832E+01  0.13050719303E+02 -0.60036155232E+00  0.13403874013E+02  0.51100000000E-03 0. -1.
        -11    1    3    3    0    0  0.53847368050E+01  0.22609237832E+01  0.20762424331E+02  0.21568157807E+02  0.51100000000E-03 0.  1.
         12    1    3    3    0    0  0.89539327388E+01 -0.11454809208E+02 -0.34555478402E+02  0.37489553919E+02  0.00000000000E+00 0. -1.
</event>
<event>
 7    1  0.2700104E-013  0.7246159E+02  0.7816164E-02  0.1226708E+00
        -11   -1    0    0    0    0  0.00000000000E+00  0.00000000000E+00  0.45593999997E+02  0.45594000000E+02  0.51100000000E-03 0. -1.
         11   -1    0    0    0    0 -0.00000000000E+00 -0.00000000000E+00 -0.45593999997E+02  0.45594000000E+02  0.51100000000E-03 0.  1.
    9900012    2    1    2    0    0 -0.75535962336E+01  0.88017764326E+01  0.14702058466E+02  0.72461585298E+02  0.70000019545E+02 0.  0.
        -12    1    1    2    0    0  0.75535962336E+01 -0.88017764326E+01 -0.14702058466E+02  0.18726414702E+02  0.00000000000E+00 0.  1.
         11    1    3    3    0    0 -0.47305244009E+01  0.24562394547E+01  0.39572540666E+02  0.39929900430E+02  0.51100000000E-03 0. -1.
        -11    1    3    3    0    0 -0.18583016383E+01 -0.50298780847E-01  0.32134987993E+01  0.37124641063E+01  0.51100000000E-03 0.  1.
        -12    1    3    3    0    0 -0.96477019443E+00  0.63958357587E+01 -0.28083980999E+02  0.28819220762E+02  0.00000000000E+00 0.  1.
</event>
<event>
 7    1  0.2700104E-013  0.7246156E+02  0.7816164E-02  0.1226708E+00
        -11   -1    0    0    0    0  0.00000000000E+00  0.00000000000E+00  0.45593999997E+02  0.45594000000E+02  0.51100000000E-03 0.  1.
         11   -1    0    0    0    0 -0.00000000000E+00 -0.00000000000E+00 -0.45593999997E+02  0.45594000000E+02  0.51100000000E-03 0. -1.
    9900012    2    1    2    0    0 -0.59068408902E+01 -0.17618150720E+02 -0.23215105059E+01  0.72461563737E+02  0.69999991458E+02 0.  0.
        -12    1    1    2    0    0  0.59068408902E+01  0.17618150720E+02  0.23215105059E+01  0.18726436263E+02  0.00000000000E+00 0.  1.
         11    1    3    3    0    0  0.11449255205E+02 -0.17479709227E+02 -0.29463836033E+01  0.21102295041E+02  0.51100000000E-03 0. -1.
        -11    1    3    3    0    0 -0.26398347145E+02 -0.16076906082E+02  0.74688395481E+01  0.31798163557E+02  0.51100000000E-03 0.  1.
         12    1    3    3    0    0  0.90422510496E+01  0.15938464589E+02 -0.68439664507E+01  0.19561105139E+02  0.00000000000E+00 0. -1.
</event>
<event>
 7    1  0.2700104E-013  0.7246157E+02  0.7816164E-02  0.1226708E+00
        -11   -1    0    0    0    0  0.00000000000E+00  0.00000000000E+00  0.45593999997E+02  0.45594000000E+02  0.51100000000E-03 0.  1.
         11   -1    0    0    0    0 -0.00000000000E+00 -0.00000000000E+00 -0.45593999997E+02  0.45594000000E+02  0.51100000000E-03 0. -1.
    9900012    2    1    2    0    0  0.36443744445E+01  0.16467748061E+02 -0.81370026023E+01  0.72461574750E+02  0.70000005805E+02 0.  0.
        -12    1    1    2    0    0 -0.36443744445E+01 -0.16467748061E+02  0.81370026023E+01  0.18726425250E+02  0.00000000000E+00 0.  1.
         11    1    3    3    0    0  0.49470419847E+01  0.37943346399E+02 -0.13897686554E+02  0.40710151709E+02  0.51100000000E-03 0. -1.
        -11    1    3    3    0    0  0.38912851017E+01  0.12683497091E+00  0.85154022443E+01  0.93632399572E+01  0.51100000000E-03 0.  1.
        -12    1    3    3    0    0 -0.51939526419E+01 -0.21602433309E+02 -0.27547182924E+01  0.22388183084E+02  0.00000000000E+00 0.  1.
</event>
<event>
 7    1  0.2700104E-013  0.7246157E+02  0.7816164E-02  0.1226708E+00
        -11   -1    0    0    0    0  0.00000000000E+00  0.00000000000E+00  0.45593999997E+02  0.45594000000E+02  0.51100000000E-03 0. -1.
         11   -1    0    0    0    0 -0.00000000000E+00 -0.00000000000E+00 -0.45593999997E+02  0.45594000000E+02  0.51100000000E-03 0.  1.
    9900012    2    1    2    0    0  0.14407531683E+02 -0.10189685062E+02  0.62667903564E+01  0.72461566484E+02  0.69999995036E+02 0.  0.
        -12    1    1    2    0    0 -0.14407531683E+02  0.10189685062E+02 -0.62667903564E+01  0.18726433516E+02  0.00000000000E+00 0.  1.
         11    1    3    3    0    0 -0.68047602807E+01 -0.17001929419E+02  0.81614435648E+01  0.20049427119E+02  0.51100000000E-03 0. -1.
        -11    1    3    3    0    0  0.17997506145E+02 -0.16094196128E+02 -0.12244349843E+02  0.27071340561E+02  0.51100000000E-03 0.  1.
        -12    1    3    3    0    0  0.32147858188E+01  0.22906440486E+02  0.10349696634E+02  0.25340798804E+02  0.00000000000E+00 0.  1.
</event>
<event>
 7    1  0.2700104E-013  0.7246158E+02  0.7816164E-02  0.1226708E+00
        -11   -1    0    0    0    0  0.00000000000E+00  0.00000000000E+00  0.45593999997E+02  0.45594000000E+02  0.51100000000E-03 0.  1.
         11   -1    0    0    0    0 -0.00000000000E+00 -0.00000000000E+00 -0.45593999997E+02  0.45594000000E+02  0.51100000000E-03 0. -1.
    9900012    2    1    2    0    0 -0.18589267925E+02  0.22112910668E+01  0.47751334750E+00  0.72461582586E+02  0.70000016012E+02 0.  0.
        -12    1    1    2    0    0  0.18589267925E+02 -0.22112910668E+01 -0.47751334750E+00  0.18726417414E+02  0.00000000000E+00 0.  1.
         11    1    3    3    0    0  0.97764156287E+01  0.21100556435E+02 -0.10376426957E+02  0.25465310151E+02  0.51100000000E-03 0. -1.
        -11    1    3    3    0    0 -0.73589680910E+01  0.26878919646E+01 -0.82154649914E+01  0.11352226207E+02  0.51100000000E-03 0.  1.
        -12    1    3    3    0    0 -0.21006715463E+02 -0.21577157333E+02  0.19069405296E+02  0.35644046227E+02  0.00000000000E+00 0.  1.
</event>
<event>
 7    1  0.2700104E-013  0.7246158E+02  0.7816164E-02  0.1226708E+00
        -11   -1    0    0    0    0  0.00000000000E+00  0.00000000000E+00  0.45593999997E+02  0.45594000000E+02  0.51100000000E-03 0.  1.
         11   -1    0    0    0    0 -0.00000000000E+00 -0.00000000000E+00 -0.45593999997E+02  0.45594000000E+02  0.51100000000E-03 0. -1.
    9900012    2    1    2    0    0  0.85889325681E+01 -0.34519158390E+01 -0.16278615817E+02  0.72461579666E+02  0.70000012208E+02 0.  0.
        -12    1    1    2    0    0 -0.85889325681E+01  0.34519158390E+01  0.16278615817E+02  0.18726420334E+02  0.00000000000E+00 0.  1.
         11    1    3    3    0    0 -0.81174235524E+00  0.28268823401E+01  0.11307605170E+02  0.11683840308E+02  0.51100000000E-03 0. -1.
        -11    1    3    3    0    0  0.13786323879E+01  0.48490545715E+00  0.15938861927E+02  0.16005720239E+02  0.51100000000E-03 0.  1.
         12    1    3    3    0    0  0.80220425354E+01 -0.67637036363E+01 -0.43525082914E+02  0.44772019119E+02  0.00000000000E+00 0. -1.
</event>
<event>
 7    1  0.2700104E-013  0.7246154E+02  0.7816164E-02  0.1226708E+00
        -11   -1    0    0    0    0  0.00000000000E+00  0.00000000000E+00  0.45593999997E+02  0.45594000000E+02  0.51100000000E-03 0.  1.
         11   -1    0    0    0    0 -0.00000000000E+00 -0.00000000000E+00 -0.45593999997E+02  0.45594000000E+02  0.51100000000E-03 0. -1.
    9900012    2    1    2    0    0  0.13288128861E+02 -0.10891902035E+02  0.74479690064E+01  0.72461544359E+02  0.69999966214E+02 0.  0.
        -12    1    1    2    0    0 -0.13288128861E+02  0.10891902035E+02 -0.74479690064E+01  0.18726455641E+02  0.00000000000E+00 0.  1.
         11    1    3    3    0    0 -0.11659073838E+02  0.15361336393E+02  0.63012044326E+01  0.20288169856E+02  0.51100000000E-03 0. -1.
        -11    1    3    3    0    0  0.24317835957E+02  0.98674266719E+00 -0.33172159581E+01  0.24562872973E+02  0.51100000000E-03 0.  1.
         12    1    3    3    0    0  0.62936674185E+00 -0.27239981095E+02  0.44639805319E+01  0.27610501530E+02  0.00000000000E+00 0. -1.
</event>
<event>
 7    1  0.2700104E-013  0.7246176E+02  0.7816164E-02  0.1226707E+00
        -11   -1    0    0    0    0  0.00000000000E+00  0.00000000000E+00  0.45593999997E+02  0.45594000000E+02  0.51100000000E-03 0. -1.
         11   -1    0    0    0    0 -0.00000000000E+00 -0.00000000000E+00 -0.45593999997E+02  0.45594000000E+02  0.51100000000E-03 0.  1.
    9900012    2    1    2    0    0 -0.12294264979E+02 -0.49411363270E+01  0.13232841860E+02  0.72461764840E+02  0.70000253431E+02 0.  0.
        -12    1    1    2    0    0  0.12294264979E+02  0.49411363270E+01 -0.13232841860E+02  0.18726235160E+02  0.00000000000E+00 0.  1.
         11    1    3    3    0    0 -0.13472122624E+02 -0.18752852929E+01  0.65609837715E+01  0.15101698289E+02  0.51100000000E-03 0. -1.
        -11    1    3    3    0    0 -0.98488979981E+01  0.21395572633E+02 -0.10196945288E+02  0.25666106318E+02  0.51100000000E-03 0.  1.
         12    1    3    3    0    0  0.11026755642E+02 -0.24461423667E+02  0.16868803377E+02  0.31693960232E+02  0.00000000000E+00 0. -1.
</event>
<event>
 7    1  0.2700104E-013  0.7246159E+02  0.7816164E-02  0.1226708E+00
        -11   -1    0    0    0    0  0.00000000000E+00  0.00000000000E+00  0.45593999997E+02  0.45594000000E+02  0.51100000000E-03 0. -1.
         11   -1    0    0    0    0 -0.00000000000E+00 -0.00000000000E+00 -0.45593999997E+02  0.45594000000E+02  0.51100000000E-03 0.  1.
    9900012    2    1    2    0    0  0.25662370215E+01 -0.36803420392E+01  0.18180975156E+02  0.72461592240E+02  0.70000028588E+02 0.  0.
        -12    1    1    2    0    0 -0.25662370215E+01  0.36803420392E+01 -0.18180975156E+02  0.18726407760E+02  0.00000000000E+00 0.  1.
         11    1    3    3    0    0  0.39352636706E+01 -0.20146324755E+02 -0.33524615752E+01  0.20799031231E+02  0.51100000000E-03 0. -1.
        -11    1    3    3    0    0 -0.13804974279E+02  0.12652383581E+02 -0.72468901811E+01  0.20079281429E+02  0.51100000000E-03 0.  1.
         12    1    3    3    0    0  0.12435947630E+02  0.38135991345E+01  0.28780326913E+02  0.31583279580E+02  0.00000000000E+00 0. -1.
</event>
<event>
 7    1  0.2700104E-013  0.7246157E+02  0.7816164E-02  0.1226708E+00
        -11   -1    0    0    0    0  0.00000000000E+00  0.00000000000E+00  0.45593999997E+02  0.45594000000E+02  0.51100000000E-03 0. -1.
         11   -1    0    0    0    0 -0.00000000000E+00 -0.00000000000E+00 -0.45593999997E+02  0.45594000000E+02  0.51100000000E-03 0.  1.
    9900012    2    1    2    0    0 -0.37902704876E+01  0.35129120017E+01  0.17999233178E+02  0.72461572255E+02  0.70000002553E+02 0.  0.
        -12    1    1    2    0    0  0.37902704876E+01 -0.35129120017E+01 -0.17999233178E+02  0.18726427745E+02  0.00000000000E+00 0.  1.
         11    1    3    3    0    0  0.13237914929E+01 -0.16266201340E+02  0.13544075583E+02  0.21208104904E+02  0.51100000000E-03 0. -1.
        -11    1    3    3    0    0  0.27654980378E+01 -0.20378598077E+01 -0.18382997587E+02  0.18701215269E+02  0.51100000000E-03 0.  1.
         12    1    3    3    0    0 -0.78795600183E+01  0.21816973150E+02  0.22838155182E+02  0.32552252082E+02  0.00000000000E+00 0. -1.
</event>
<event>
 7    1  0.2700104E-013  0.7246164E+02  0.7816164E-02  0.1226708E+00
        -11   -1    0    0    0    0  0.00000000000E+00  0.00000000000E+00  0.45593999997E+02  0.45594000000E+02  0.51100000000E-03 0.  1.
         11   -1    0    0    0    0 -0.00000000000E+00 -0.00000000000E+00 -0.45593999997E+02  0.45594000000E+02  0.51100000000E-03 0. -1.
    9900012    2    1    2    0    0  0.13356778016E+02 -0.94282289085E+01 -0.91313553252E+01  0.72461637049E+02  0.70000086960E+02 0.  0.
        -12    1    1    2    0    0 -0.13356778016E+02  0.94282289085E+01  0.91313553252E+01  0.18726362951E+02  0.00000000000E+00 0.  1.
         11    1    3    3    0    0  0.75686687079E+01  0.26617504697E+01 -0.25759548390E+01  0.84264586373E+01  0.51100000000E-03 0. -1.
        -11    1    3    3    0    0  0.11580778444E+02  0.11278751479E+02  0.21606538235E+02  0.26984572612E+02  0.51100000000E-03 0.  1.
         12    1    3    3    0    0 -0.57926691361E+01 -0.23368730857E+02 -0.28161938721E+02  0.37050605800E+02  0.00000000000E+00 0. -1.
</event>
<event>
 7    1  0.2700104E-013  0.7246152E+02  0.7816164E-02  0.1226708E+00
        -11   -1    0    0    0    0  0.00000000000E+00  0.00000000000E+00  0.45593999997E+02  0.45594000000E+02  0.51100000000E-03 0.  1.
         11   -1    0    0    0    0 -0.00000000000E+00 -0.00000000000E+00 -0.45593999997E+02  0.45594000000E+02  0.51100000000E-03 0. -1.
    9900012    2    1    2    0    0  0.72173187294E+01  0.98606821352E+01 -0.14190074192E+02  0.72461522825E+02  0.69999938163E+02 0.  0.
        -12    1    1    2    0    0 -0.72173187294E+01 -0.98606821352E+01  0.14190074192E+02  0.18726477175E+02  0.00000000000E+00 0.  1.
         11    1    3    3    0    0 -0.61785047479E+01 -0.18921943016E+02  0.96884417016E+01  0.22137744945E+02  0.51100000000E-03 0. -1.
        -11    1    3    3    0    0 -0.29002117355E+01 -0.54964199937E+01 -0.20769113164E+01  0.65525126276E+01  0.51100000000E-03 0.  1.
        -12    1    3    3    0    0  0.16296035213E+02  0.34279045144E+02 -0.21801604577E+02  0.43771265252E+02  0.00000000000E+00 0.  1.
</event>
<event>
 7    1  0.2700104E-013  0.7246159E+02  0.7816164E-02  0.1226708E+00
        -11   -1    0    0    0    0  0.00000000000E+00  0.00000000000E+00  0.45593999997E+02  0.45594000000E+02  0.51100000000E-03 0. -1.
         11   -1    0    0    0    0 -0.00000000000E+00 -0.00000000000E+00 -0.45593999997E+02  0.45594000000E+02  0.51100000000E-03 0.  1.
    9900012    2    1    2    0    0 -0.14515042551E+02 -0.25869719611E+01  0.11545536002E+02  0.72461593891E+02  0.70000030739E+02 0.  0.
        -12    1    1    2    0    0  0.14515042551E+02  0.25869719611E+01 -0.11545536002E+02  0.18726406109E+02  0.00000000000E+00 0.  1.
         11    1    3    3    0    0 -0.22446998625E+02  0.37524155716E+01 -0.42008219860E+01  0.23142931437E+02  0.51100000000E-03 0. -1.
        -11    1    3    3    0    0 -0.28007187724E+01  0.11951968610E+02 -0.10091847552E+02  0.15891474651E+02  0.51100000000E-03 0.  1.
         12    1    3    3    0    0  0.10732674846E+02 -0.18291356143E+02  0.25838205540E+02  0.33427187803E+02  0.00000000000E+00 0. -1.
</event>
<event>
 7    1  0.2700104E-013  0.7246157E+02  0.7816164E-02  0.1226708E+00
        -11   -1    0    0    0    0  0.00000000000E+00  0.00000000000E+00  0.45593999997E+02  0.45594000000E+02  0.51100000000E-03 0. -1.
         11   -1    0    0    0    0 -0.00000000000E+00 -0.00000000000E+00 -0.45593999997E+02  0.45594000000E+02  0.51100000000E-03 0.  1.
    9900012    2    1    2    0    0  0.92353079599E+01 -0.11752681419E+02 -0.11281075521E+02  0.72461572189E+02  0.70000002468E+02 0.  0.
        -12    1    1    2    0    0 -0.92353079599E+01  0.11752681419E+02  0.11281075521E+02  0.18726427811E+02  0.00000000000E+00 0.  1.
         11    1    3    3    0    0  0.17314620100E+02 -0.22388122088E+01 -0.20542975839E+02  0.26959640315E+02  0.51100000000E-03 0. -1.
        -11    1    3    3    0    0 -0.59915406299E+01 -0.21729537333E+02 -0.82894071498E+01  0.24016361568E+02  0.51100000000E-03 0.  1.
         12    1    3    3    0    0 -0.20877715105E+01  0.12215668122E+02  0.17551307468E+02  0.21485570306E+02  0.00000000000E+00 0. -1.
</event>
<event>
 7    1  0.2700104E-013  0.7246155E+02  0.7816164E-02  0.1226708E+00
        -11   -1    0    0    0    0  0.00000000000E+00  0.00000000000E+00  0.45593999997E+02  0.45594000000E+02  0.51100000000E-03 0.  1.
         11   -1    0    0    0    0 -0.00000000000E+00 -0.00000000000E+00 -0.45593999997E+02  0.45594000000E+02  0.51100000000E-03 0. -1.
    9900012    2    1    2    0    0  0.65012352691E+00 -0.16030116798E+02 -0.96588035250E+01  0.72461553709E+02  0.69999978395E+02 0.  0.
        -12    1    1    2    0    0 -0.65012352691E+00  0.16030116798E+02  0.96588035250E+01  0.18726446291E+02  0.00000000000E+00 0.  1.
         11    1    3    3    0    0 -0.20557414415E+02  0.14919444346E+02 -0.11849030163E+02  0.28028496625E+02  0.51100000000E-03 0.  1.
        -11    1    3    3    0    0  0.53359668168E+01 -0.76178215576E+01 -0.10033229655E+02  0.13680988441E+02  0.51100000000E-03 0. -1.
        -12    1    3    3    0    0  0.15871571125E+02 -0.23331739586E+02  0.12223456293E+02  0.30752068643E+02  0.00000000000E+00 0.  1.
</event>
<event>
 7    1  0.2700104E-013  0.7246150E+02  0.7816164E-02  0.1226708E+00
        -11   -1    0    0    0    0  0.00000000000E+00  0.00000000000E+00  0.45593999997E+02  0.45594000000E+02  0.51100000000E-03 0.  1.
         11   -1    0    0    0    0 -0.00000000000E+00 -0.00000000000E+00 -0.45593999997E+02  0.45594000000E+02  0.51100000000E-03 0. -1.
    9900012    2    1    2    0    0 -0.11872254201E+02 -0.12753518763E+02 -0.68614213975E+01  0.72461501015E+02  0.69999909751E+02 0.  0.
        -12    1    1    2    0    0  0.11872254201E+02  0.12753518763E+02  0.68614213975E+01  0.18726498985E+02  0.00000000000E+00 0.  1.
         11    1    3    3    0    0 -0.47018626111E+01  0.15805838339E+02  0.12739398362E+02  0.20838049537E+02  0.51100000000E-03 0. -1.
        -11    1    3    3    0    0 -0.71026497957E+01  0.72113294726E+01 -0.10767817984E+02  0.14778254677E+02  0.51100000000E-03 0.  1.
         12    1    3    3    0    0 -0.67741793859E-01 -0.35770686574E+02 -0.88330017753E+01  0.36845196801E+02  0.00000000000E+00 0. -1.
</event>
<event>
 7    1  0.2700104E-013  0.7246154E+02  0.7816164E-02  0.1226708E+00
        -11   -1    0    0    0    0  0.00000000000E+00  0.00000000000E+00  0.45593999997E+02  0.45594000000E+02  0.51100000000E-03 0. -1.
         11   -1    0    0    0    0 -0.00000000000E+00 -0.00000000000E+00 -0.45593999997E+02  0.45594000000E+02  0.51100000000E-03 0.  1.
    9900012    2    1    2    0    0 -0.13343192625E+02  0.12885429627E+02 -0.25700810539E+01  0.72461537368E+02  0.69999957107E+02 0.  0.
        -12    1    1    2    0    0  0.13343192625E+02 -0.12885429627E+02  0.25700810539E+01  0.18726462632E+02  0.00000000000E+00 0.  1.
         11    1    3    3    0    0 -0.27371303181E+01  0.59928045216E+01 -0.59339569401E+01  0.88666472604E+01  0.51100000000E-03 0. -1.
        -11    1    3    3    0    0 -0.10563368365E+02 -0.86973562213E+01 -0.26546456986E+02  0.29865417044E+02  0.51100000000E-03 0.  1.
         12    1    3    3    0    0 -0.42693941972E-01  0.15589981327E+02  0.29910332873E+02  0.33729473063E+02  0.00000000000E+00 0. -1.
</event>
<event>
 7    1  0.2700104E-013  0.7246160E+02  0.7816164E-02  0.1226708E+00
        -11   -1    0    0    0    0  0.00000000000E+00  0.00000000000E+00  0.45593999997E+02  0.45594000000E+02  0.51100000000E-03 0. -1.
         11   -1    0    0    0    0 -0.00000000000E+00 -0.00000000000E+00 -0.45593999997E+02  0.45594000000E+02  0.51100000000E-03 0.  1.
    9900012    2    1    2    0    0 -0.10967994245E+02 -0.10316901139E+02  0.11132959038E+02  0.72461598215E+02  0.70000036372E+02 0.  0.
        -12    1    1    2    0    0  0.10967994245E+02  0.10316901139E+02 -0.11132959038E+02  0.18726401785E+02  0.00000000000E+00 0.  1.
         11    1    3    3    0    0  0.13223119407E+02 -0.23100245005E+02  0.64553813795E+01  0.27388759650E+02  0.51100000000E-03 0. -1.
        -11    1    3    3    0    0  0.26087465412E+01 -0.39562978557E+01 -0.93642419822E+01  0.10495088347E+02  0.51100000000E-03 0.  1.
        -12    1    3    3    0    0 -0.26799860194E+02  0.16739641722E+02  0.14041819640E+02  0.34577750219E+02  0.00000000000E+00 0.  1.
</event>
<event>
 7    1  0.2700104E-013  0.7246157E+02  0.7816164E-02  0.1226708E+00
        -11   -1    0    0    0    0  0.00000000000E+00  0.00000000000E+00  0.45593999997E+02  0.45594000000E+02  0.51100000000E-03 0.  1.
         11   -1    0    0    0    0 -0.00000000000E+00 -0.00000000000E+00 -0.45593999997E+02  0.45594000000E+02  0.51100000000E-03 0. -1.
    9900012    2    1    2    0    0 -0.95719642598E+01 -0.38935570475E+01 -0.15617200688E+02  0.72461568316E+02  0.69999997423E+02 0.  0.
        -12    1    1    2    0    0  0.95719642598E+01  0.38935570475E+01  0.15617200688E+02  0.18726431684E+02  0.00000000000E+00 0.  1.
         11    1    3    3    0    0 -0.62208648820E+01 -0.11685436124E+01 -0.35187622960E+00  0.63394377665E+01  0.51100000000E-03 0. -1.
        -11    1    3    3    0    0  0.20630341680E+02  0.10626527094E+02  0.13102098201E+02  0.26649560098E+02  0.51100000000E-03 0.  1.
         12    1    3    3    0    0 -0.23981441058E+02 -0.13351540529E+02 -0.28367422659E+02  0.39472570451E+02  0.00000000000E+00 0. -1.
</event>
<event>
 7    1  0.2700104E-013  0.7246158E+02  0.7816164E-02  0.1226708E+00
        -11   -1    0    0    0    0  0.00000000000E+00  0.00000000000E+00  0.45593999997E+02  0.45594000000E+02  0.51100000000E-03 0. -1.
         11   -1    0    0    0    0 -0.00000000000E+00 -0.00000000000E+00 -0.45593999997E+02  0.45594000000E+02  0.51100000000E-03 0.  1.
    9900012    2    1    2    0    0 -0.16630951140E+02 -0.76291931507E+01 -0.39857078119E+01  0.72461575069E+02  0.70000006220E+02 0.  0.
        -12    1    1    2    0    0  0.16630951140E+02  0.76291931507E+01  0.39857078119E+01  0.18726424931E+02  0.00000000000E+00 0.  1.
         11    1    3    3    0    0 -0.95606417913E+01 -0.95824705346E+01 -0.25239880376E+02  0.28640551228E+02  0.51100000000E-03 0. -1.
        -11    1    3    3    0    0 -0.19256157360E+02 -0.75503517722E+01  0.47710979299E+01  0.21226652677E+02  0.51100000000E-03 0.  1.
         12    1    3    3    0    0  0.12185848011E+02  0.95036291561E+01  0.16483074634E+02  0.22594371164E+02  0.00000000000E+00 0. -1.
</event>
<event>
 7    1  0.2700104E-013  0.7246156E+02  0.7816164E-02  0.1226708E+00
        -11   -1    0    0    0    0  0.00000000000E+00  0.00000000000E+00  0.45593999997E+02  0.45594000000E+02  0.51100000000E-03 0. -1.
         11   -1    0    0    0    0 -0.00000000000E+00 -0.00000000000E+00 -0.45593999997E+02  0.45594000000E+02  0.51100000000E-03 0.  1.
    9900012    2    1    2    0    0 -0.45546915344E+01 -0.59378410085E+01  0.17166138229E+02  0.72461562204E+02  0.69999989461E+02 0.  0.
        -12    1    1    2    0    0  0.45546915344E+01  0.59378410085E+01 -0.17166138229E+02  0.18726437796E+02  0.00000000000E+00 0.  1.
         11    1    3    3    0    0 -0.29885732261E+02 -0.13107484870E+02  0.86112416474E+01  0.33750801996E+02  0.51100000000E-03 0. -1.
        -11    1    3    3    0    0  0.15523410130E+01  0.12911473217E+02  0.71924436866E+00  0.13024331690E+02  0.51100000000E-03 0.  1.
        -12    1    3    3    0    0  0.23778699714E+02 -0.57418293548E+01  0.78356522134E+01  0.25686428518E+02  0.00000000000E+00 0.  1.
</event>
<event>
 7    1  0.2700104E-013  0.7246154E+02  0.7816164E-02  0.1226708E+00
        -11   -1    0    0    0    0  0.00000000000E+00  0.00000000000E+00  0.45593999997E+02  0.45594000000E+02  0.51100000000E-03 0.  1.
         11   -1    0    0    0    0 -0.00000000000E+00 -0.00000000000E+00 -0.45593999997E+02  0.45594000000E+02  0.51100000000E-03 0. -1.
    9900012    2    1    2    0    0  0.27224874094E+01 -0.18367878741E+02 -0.24267737199E+01  0.72461544441E+02  0.69999966321E+02 0.  0.
        -12    1    1    2    0    0 -0.27224874094E+01  0.18367878741E+02  0.24267737199E+01  0.18726455559E+02  0.00000000000E+00 0.  1.
         11    1    3    3    0    0  0.42703690850E+01 -0.17276563852E-02  0.93978051199E+01  0.10322538275E+02  0.51100000000E-03 0. -1.
        -11    1    3    3    0    0  0.26439897301E+02 -0.13194471938E+02 -0.15622875788E+02  0.33425087991E+02  0.51100000000E-03 0.  1.
         12    1    3    3    0    0 -0.27987778977E+02 -0.51716791465E+01  0.37982969487E+01  0.28713918175E+02  0.00000000000E+00 0. -1.
</event>
<event>
 7    1  0.2877876E-013  0.7246157E+02  0.7816164E-02  0.1226708E+00
        -11   -1    0    0    0    0  0.00000000000E+00  0.00000000000E+00  0.45593999997E+02  0.45594000000E+02  0.51100000000E-03 0. -1.
         11   -1    0    0    0    0 -0.00000000000E+00 -0.00000000000E+00 -0.45593999997E+02  0.45594000000E+02  0.51100000000E-03 0.  1.
    9900012    2    1    2    0    0  0.35358261392E+00  0.91119221207E+01  0.16356258616E+02  0.72461565708E+02  0.69999994025E+02 0.  0.
        -12    1    1    2    0    0 -0.35358261392E+00 -0.91119221207E+01 -0.16356258616E+02  0.18726434292E+02  0.00000000000E+00 0.  1.
         11    1    3    3    0    0  0.51688166967E+01  0.24037364639E+02  0.16191143626E+02  0.29439169435E+02  0.51100000000E-03 0. -1.
        -11    1    3    3    0    0  0.36098455563E+01  0.12657787215E+02 -0.42795328605E+01  0.13840699545E+02  0.51100000000E-03 0.  1.
        -12    1    3    3    0    0 -0.84250796390E+01 -0.27583229733E+02  0.44446478501E+01  0.29181696728E+02  0.00000000000E+00 0.  1.
</event>
<event>
 7    1  0.2700104E-013  0.7246156E+02  0.7816164E-02  0.1226708E+00
        -11   -1    0    0    0    0  0.00000000000E+00  0.00000000000E+00  0.45593999997E+02  0.45594000000E+02  0.51100000000E-03 0.  1.
         11   -1    0    0    0    0 -0.00000000000E+00 -0.00000000000E+00 -0.45593999997E+02  0.45594000000E+02  0.51100000000E-03 0. -1.
    9900012    2    1    2    0    0 -0.75622801941E+01 -0.14843019451E+02 -0.85543127599E+01  0.72461559470E+02  0.69999985899E+02 0.  0.
        -12    1    1    2    0    0  0.75622801941E+01  0.14843019451E+02  0.85543127599E+01  0.18726440530E+02  0.00000000000E+00 0.  1.
         11    1    3    3    0    0 -0.17546843138E+02 -0.29612703419E+02  0.79009978523E+01  0.35316139019E+02  0.51100000000E-03 0. -1.
        -11    1    3    3    0    0  0.16044431835E+02  0.48993402416E+00 -0.24340656150E+01  0.16235408955E+02  0.51100000000E-03 0.  1.
        -12    1    3    3    0    0 -0.60598688915E+01  0.14279749945E+02 -0.14021244997E+02  0.20910011495E+02  0.00000000000E+00 0.  1.
</event>
<event>
 7    1  0.2700104E-013  0.7246151E+02  0.7816164E-02  0.1226708E+00
        -11   -1    0    0    0    0  0.00000000000E+00  0.00000000000E+00  0.45593999997E+02  0.45594000000E+02  0.51100000000E-03 0. -1.
         11   -1    0    0    0    0 -0.00000000000E+00 -0.00000000000E+00 -0.45593999997E+02  0.45594000000E+02  0.51100000000E-03 0.  1.
    9900012    2    1    2    0    0  0.12507264385E+02  0.13926294733E+02 -0.55491887922E+00  0.72461513881E+02  0.69999926512E+02 0.  0.
        -12    1    1    2    0    0 -0.12507264385E+02 -0.13926294733E+02  0.55491887922E+00  0.18726486119E+02  0.00000000000E+00 0.  1.
         11    1    3    3    0    0 -0.15350458563E+02 -0.11605885566E+02  0.38378354512E+01  0.19623000257E+02  0.51100000000E-03 0. -1.
        -11    1    3    3    0    0 -0.24673274422E+01 -0.34694948290E+01  0.80202892840E+01  0.90802059192E+01  0.51100000000E-03 0.  1.
        -12    1    3    3    0    0  0.30325050390E+02  0.29001675128E+02 -0.12413043614E+02  0.43758307705E+02  0.00000000000E+00 0.  1.
</event>
<event>
 7    1  0.2700104E-013  0.7246155E+02  0.7816164E-02  0.1226708E+00
        -11   -1    0    0    0    0  0.00000000000E+00  0.00000000000E+00  0.45593999997E+02  0.45594000000E+02  0.51100000000E-03 0. -1.
         11   -1    0    0    0    0 -0.00000000000E+00 -0.00000000000E+00 -0.45593999997E+02  0.45594000000E+02  0.51100000000E-03 0.  1.
    9900012    2    1    2    0    0 -0.10803970170E+02 -0.22090328895E+00  0.15293960738E+02  0.72461553334E+02  0.69999977906E+02 0.  0.
        -12    1    1    2    0    0  0.10803970170E+02  0.22090328895E+00 -0.15293960738E+02  0.18726446666E+02  0.00000000000E+00 0.  1.
         11    1    3    3    0    0 -0.28874996359E+02  0.23968918644E+01  0.63500486539E+01  0.29661989540E+02  0.51100000000E-03 0. -1.
        -11    1    3    3    0    0 -0.50438527617E+01  0.81739717582E+01 -0.77253711708E+01  0.12326216977E+02  0.51100000000E-03 0.  1.
         12    1    3    3    0    0  0.23114878950E+02 -0.10791766912E+02  0.16669283254E+02  0.30473346816E+02  0.00000000000E+00 0. -1.
</event>
<event>
 7    1  0.2700104E-013  0.7246158E+02  0.7816164E-02  0.1226708E+00
        -11   -1    0    0    0    0  0.00000000000E+00  0.00000000000E+00  0.45593999997E+02  0.45594000000E+02  0.51100000000E-03 0. -1.
         11   -1    0    0    0    0 -0.00000000000E+00 -0.00000000000E+00 -0.45593999997E+02  0.45594000000E+02  0.51100000000E-03 0.  1.
    9900012    2    1    2    0    0 -0.16727406887E+02  0.82077840805E+01  0.18721698766E+01  0.72461578005E+02  0.70000010045E+02 0.  0.
        -12    1    1    2    0    0  0.16727406887E+02 -0.82077840805E+01 -0.18721698766E+01  0.18726421995E+02  0.00000000000E+00 0.  1.
         11    1    3    3    0    0 -0.27821734205E+01 -0.89222720905E+00  0.20445232024E+00  0.29288836349E+01  0.51100000000E-03 0. -1.
        -11    1    3    3    0    0 -0.39275404042E+02  0.17047699738E+02  0.32425066744E+01  0.42938272891E+02  0.51100000000E-03 0.  1.
         12    1    3    3    0    0  0.25330170576E+02 -0.79476884484E+01 -0.15747891180E+01  0.26594421480E+02  0.00000000000E+00 0. -1.
</event>
<event>
 7    1  0.2700104E-013  0.7246158E+02  0.7816164E-02  0.1226708E+00
        -11   -1    0    0    0    0  0.00000000000E+00  0.00000000000E+00  0.45593999997E+02  0.45594000000E+02  0.51100000000E-03 0.  1.
         11   -1    0    0    0    0 -0.00000000000E+00 -0.00000000000E+00 -0.45593999997E+02  0.45594000000E+02  0.51100000000E-03 0. -1.
    9900012    2    1    2    0    0 -0.10208099183E+02 -0.13345157698E+02 -0.82692286742E+01  0.72461583744E+02  0.70000017521E+02 0.  0.
        -12    1    1    2    0    0  0.10208099183E+02  0.13345157698E+02  0.82692286742E+01  0.18726416256E+02  0.00000000000E+00 0.  1.
         11    1    3    3    0    0 -0.75808536292E+01  0.12833598171E+02 -0.92446257252E+01  0.17539489412E+02  0.51100000000E-03 0. -1.
        -11    1    3    3    0    0  0.13704606223E+02 -0.28384436907E+02 -0.12224607912E+02  0.33807299938E+02  0.51100000000E-03 0.  1.
         12    1    3    3    0    0 -0.16331851777E+02  0.22056810382E+01  0.13200004963E+02  0.21114794394E+02  0.00000000000E+00 0. -1.
</event>
<event>
 7    1  0.2700104E-013  0.7246157E+02  0.7816164E-02  0.1226708E+00
        -11   -1    0    0    0    0  0.00000000000E+00  0.00000000000E+00  0.45593999997E+02  0.45594000000E+02  0.51100000000E-03 0. -1.
         11   -1    0    0    0    0 -0.00000000000E+00 -0.00000000000E+00 -0.45593999997E+02  0.45594000000E+02  0.51100000000E-03 0.  1.
    9900012    2    1    2    0    0 -0.18630336222E+02 -0.15802951284E+01 -0.10452034914E+01  0.72461569192E+02  0.69999998565E+02 0.  0.
        -12    1    1    2    0    0  0.18630336222E+02  0.15802951284E+01  0.10452034914E+01  0.18726430808E+02  0.00000000000E+00 0.  1.
         11    1    3    3    0    0 -0.21432163086E+02 -0.14607478655E+02  0.42151007203E+01  0.26277045525E+02  0.51100000000E-03 0. -1.
        -11    1    3    3    0    0  0.76290331261E+01 -0.39353655146E+01 -0.20911636357E+02  0.22604994660E+02  0.51100000000E-03 0.  1.
         12    1    3    3    0    0 -0.48272062622E+01  0.16962549041E+02  0.15651332146E+02  0.23579529007E+02  0.00000000000E+00 0. -1.
</event>
<event>
 7    1  0.2700104E-013  0.7246158E+02  0.7816164E-02  0.1226708E+00
        -11   -1    0    0    0    0  0.00000000000E+00  0.00000000000E+00  0.45593999997E+02  0.45594000000E+02  0.51100000000E-03 0. -1.
         11   -1    0    0    0    0 -0.00000000000E+00 -0.00000000000E+00 -0.45593999997E+02  0.45594000000E+02  0.51100000000E-03 0.  1.
    9900012    2    1    2    0    0 -0.38141889893E+01  0.17170241318E+02  0.64275776636E+01  0.72461575376E+02  0.70000006620E+02 0.  0.
        -12    1    1    2    0    0  0.38141889893E+01 -0.17170241318E+02 -0.64275776636E+01  0.18726424624E+02  0.00000000000E+00 0.  1.
         11    1    3    3    0    0 -0.14485319401E+01  0.63375255624E+01  0.93096061601E+01  0.11354789393E+02  0.51100000000E-03 0. -1.
        -11    1    3    3    0    0 -0.72580788959E+01  0.12640274994E+02  0.27048164007E+02  0.30725550241E+02  0.51100000000E-03 0.  1.
        -12    1    3    3    0    0  0.48924218467E+01 -0.18075592383E+01 -0.29930192504E+02  0.30381235743E+02  0.00000000000E+00 0.  1.
</event>
<event>
 7    1  0.2700104E-013  0.7246156E+02  0.7816164E-02  0.1226708E+00
        -11   -1    0    0    0    0  0.00000000000E+00  0.00000000000E+00  0.45593999997E+02  0.45594000000E+02  0.51100000000E-03 0.  1.
         11   -1    0    0    0    0 -0.00000000000E+00 -0.00000000000E+00 -0.45593999997E+02  0.45594000000E+02  0.51100000000E-03 0. -1.
    9900012    2    1    2    0    0  0.17262103239E+02  0.52273908970E+01  0.50372267913E+01  0.72461562069E+02  0.69999989285E+02 0.  0.
        -12    1    1    2    0    0 -0.17262103239E+02 -0.52273908970E+01 -0.50372267913E+01  0.18726437931E+02  0.00000000000E+00 0.  1.
         11    1    3    3    0    0  0.86292384196E+01  0.16125362272E+02  0.94724943331E+01  0.20596582563E+02  0.51100000000E-03 0. -1.
        -11    1    3    3    0    0  0.26173105825E+02  0.15910702579E+00  0.83889117441E+01  0.27485098218E+02  0.51100000000E-03 0.  1.
        -12    1    3    3    0    0 -0.17540241005E+02 -0.11057078401E+02 -0.12824179286E+02  0.24379881288E+02  0.00000000000E+00 0.  1.
</event>
<event>
 7    1  0.2700104E-013  0.7246161E+02  0.7816164E-02  0.1226708E+00
        -11   -1    0    0    0    0  0.00000000000E+00  0.00000000000E+00  0.45593999997E+02  0.45594000000E+02  0.51100000000E-03 0. -1.
         11   -1    0    0    0    0 -0.00000000000E+00 -0.00000000000E+00 -0.45593999997E+02  0.45594000000E+02  0.51100000000E-03 0.  1.
    9900012    2    1    2    0    0  0.16472749342E+02 -0.74546423526E+01  0.48738568404E+01  0.72461611027E+02  0.70000053061E+02 0.  0.
        -12    1    1    2    0    0 -0.16472749342E+02  0.74546423526E+01 -0.48738568404E+01  0.18726388973E+02  0.00000000000E+00 0.  1.
         11    1    3    3    0    0  0.14710174907E+02 -0.32079440542E+02 -0.11112705245E+02  0.36999621206E+02  0.51100000000E-03 0. -1.
        -11    1    3    3    0    0 -0.71179081669E+01  0.95862747186E+01  0.23343279009E+00  0.11942184506E+02  0.51100000000E-03 0.  1.
        -12    1    3    3    0    0  0.88804826021E+01  0.15038523471E+02  0.15753129295E+02  0.23519805314E+02  0.00000000000E+00 0.  1.
</event>
<event>
 7    1  0.2700104E-013  0.7246158E+02  0.7816164E-02  0.1226708E+00
        -11   -1    0    0    0    0  0.00000000000E+00  0.00000000000E+00  0.45593999997E+02  0.45594000000E+02  0.51100000000E-03 0.  1.
         11   -1    0    0    0    0 -0.00000000000E+00 -0.00000000000E+00 -0.45593999997E+02  0.45594000000E+02  0.51100000000E-03 0. -1.
    9900012    2    1    2    0    0 -0.13351852298E+00 -0.18475610507E+02  0.30516954576E+01  0.72461578666E+02  0.70000010906E+02 0.  0.
        -12    1    1    2    0    0  0.13351852298E+00  0.18475610507E+02 -0.30516954576E+01  0.18726421334E+02  0.00000000000E+00 0.  1.
         11    1    3    3    0    0  0.50068048547E+01  0.81806869262E+01  0.10708965311E+02  0.14376149405E+02  0.51100000000E-03 0. -1.
        -11    1    3    3    0    0 -0.21802161802E+02  0.30830003998E+01  0.33306774130E+01  0.22269543394E+02  0.51100000000E-03 0.  1.
         12    1    3    3    0    0  0.16661838424E+02 -0.29739297833E+02 -0.10987947266E+02  0.35815885866E+02  0.00000000000E+00 0. -1.
</event>
<event>
 7    1  0.2700104E-013  0.7246158E+02  0.7816164E-02  0.1226708E+00
        -11   -1    0    0    0    0  0.00000000000E+00  0.00000000000E+00  0.45593999997E+02  0.45594000000E+02  0.51100000000E-03 0. -1.
         11   -1    0    0    0    0 -0.00000000000E+00 -0.00000000000E+00 -0.45593999997E+02  0.45594000000E+02  0.51100000000E-03 0.  1.
    9900012    2    1    2    0    0  0.10171433916E+01 -0.18678134607E+02 -0.87833225070E+00  0.72461581212E+02  0.70000014223E+02 0.  0.
        -12    1    1    2    0    0 -0.10171433916E+01  0.18678134607E+02  0.87833225070E+00  0.18726418788E+02  0.00000000000E+00 0.  1.
         11    1    3    3    0    0  0.25530222147E+00  0.16837093258E+02 -0.11828420795E+01  0.16880521444E+02  0.51100000000E-03 0. -1.
        -11    1    3    3    0    0  0.14439960263E+02 -0.81872379498E+01  0.14355248671E+02  0.21945762286E+02  0.51100000000E-03 0.  1.
        -12    1    3    3    0    0 -0.13678119093E+02 -0.27327989914E+02 -0.14050738842E+02  0.33635297482E+02  0.00000000000E+00 0.  1.
</event>
<event>
 7    1  0.2700104E-013  0.7246155E+02  0.7816164E-02  0.1226708E+00
        -11   -1    0    0    0    0  0.00000000000E+00  0.00000000000E+00  0.45593999997E+02  0.45594000000E+02  0.51100000000E-03 0. -1.
         11   -1    0    0    0    0 -0.00000000000E+00 -0.00000000000E+00 -0.45593999997E+02  0.45594000000E+02  0.51100000000E-03 0.  1.
    9900012    2    1    2    0    0  0.26302934196E+01 -0.17952281943E+02  0.46343428946E+01  0.72461548000E+02  0.69999970958E+02 0.  0.
        -12    1    1    2    0    0 -0.26302934196E+01  0.17952281943E+02 -0.46343428946E+01  0.18726452000E+02  0.00000000000E+00 0.  1.
         11    1    3    3    0    0 -0.81948264110E+01 -0.40598375424E+01  0.10414367677E+02  0.13859888713E+02  0.51100000000E-03 0. -1.
        -11    1    3    3    0    0  0.15494891503E+02  0.15985087415E+00  0.22124630840E+02  0.27011414348E+02  0.51100000000E-03 0.  1.
        -12    1    3    3    0    0 -0.46697716726E+01 -0.14052295275E+02 -0.27904655622E+02  0.31590244939E+02  0.00000000000E+00 0.  1.
</event>
<event>
 7    1  0.2700104E-013  0.7246159E+02  0.7816164E-02  0.1226708E+00
        -11   -1    0    0    0    0  0.00000000000E+00  0.00000000000E+00  0.45593999997E+02  0.45594000000E+02  0.51100000000E-03 0.  1.
         11   -1    0    0    0    0 -0.00000000000E+00 -0.00000000000E+00 -0.45593999997E+02  0.45594000000E+02  0.51100000000E-03 0. -1.
    9900012    2    1    2    0    0  0.79009825305E+01  0.10444443508E+02 -0.13385307898E+02  0.72461591037E+02  0.70000027021E+02 0.  0.
        -12    1    1    2    0    0 -0.79009825305E+01 -0.10444443508E+02  0.13385307898E+02  0.18726408963E+02  0.00000000000E+00 0.  1.
         11    1    3    3    0    0 -0.10922941766E+02  0.66085983636E+01  0.41203876905E+01  0.13414985059E+02  0.51100000000E-03 0. -1.
        -11    1    3    3    0    0 -0.15143527459E+02 -0.18071904989E+01  0.70029054893E+01  0.16781926199E+02  0.51100000000E-03 0.  1.
         12    1    3    3    0    0  0.33967451755E+02  0.56430356429E+01 -0.24508601078E+02  0.42264679779E+02  0.00000000000E+00 0. -1.
</event>
<event>
 7    1  0.2700104E-013  0.7246153E+02  0.7816164E-02  0.1226708E+00
        -11   -1    0    0    0    0  0.00000000000E+00  0.00000000000E+00  0.45593999997E+02  0.45594000000E+02  0.51100000000E-03 0.  1.
         11   -1    0    0    0    0 -0.00000000000E+00 -0.00000000000E+00 -0.45593999997E+02  0.45594000000E+02  0.51100000000E-03 0. -1.
    9900012    2    1    2    0    0 -0.37514511910E+01  0.82685196937E+01 -0.16377997026E+02  0.72461532353E+02  0.69999950574E+02 0.  0.
        -12    1    1    2    0    0  0.37514511910E+01 -0.82685196937E+01  0.16377997026E+02  0.18726467647E+02  0.00000000000E+00 0.  1.
         11    1    3    3    0    0  0.13091946287E+02 -0.91239280644E+00  0.40846313105E+01  0.13744661925E+02  0.51100000000E-03 0. -1.
        -11    1    3    3    0    0 -0.28720002463E+02  0.22577072167E+02 -0.95837189025E+01  0.37767848726E+02  0.51100000000E-03 0.  1.
         12    1    3    3    0    0  0.11876604985E+02 -0.13396159667E+02 -0.10878909434E+02  0.20949021702E+02  0.00000000000E+00 0. -1.
</event>
<event>
 7    1  0.2700104E-013  0.7246156E+02  0.7816164E-02  0.1226708E+00
        -11   -1    0    0    0    0  0.00000000000E+00  0.00000000000E+00  0.45593999997E+02  0.45594000000E+02  0.51100000000E-03 0. -1.
         11   -1    0    0    0    0 -0.00000000000E+00 -0.00000000000E+00 -0.45593999997E+02  0.45594000000E+02  0.51100000000E-03 0.  1.
    9900012    2    1    2    0    0 -0.14496703833E+02 -0.91237752314E+01  0.75684746942E+01  0.72461561318E+02  0.69999988307E+02 0.  0.
        -12    1    1    2    0    0  0.14496703833E+02  0.91237752314E+01 -0.75684746942E+01  0.18726438682E+02  0.00000000000E+00 0.  1.
         11    1    3    3    0    0 -0.51876122720E+00  0.10950092554E+02  0.59390935216E+01  0.12467817462E+02  0.51100000000E-03 0. -1.
        -11    1    3    3    0    0  0.36805837625E+01  0.10966456336E+02 -0.16336700717E+02  0.20017433701E+02  0.51100000000E-03 0.  1.
         12    1    3    3    0    0 -0.17658526369E+02 -0.31040324122E+02  0.17966081890E+02  0.39976310155E+02  0.00000000000E+00 0. -1.
</event>
<event>
 7    1  0.2700104E-013  0.7246177E+02  0.7816164E-02  0.1226707E+00
        -11   -1    0    0    0    0  0.00000000000E+00  0.00000000000E+00  0.45593999997E+02  0.45594000000E+02  0.51100000000E-03 0. -1.
         11   -1    0    0    0    0 -0.00000000000E+00 -0.00000000000E+00 -0.45593999997E+02  0.45594000000E+02  0.51100000000E-03 0.  1.
    9900012    2    1    2    0    0  0.92286297549E+01 -0.15838385208E+02  0.38274726874E+01  0.72461772395E+02  0.70000263273E+02 0.  0.
        -12    1    1    2    0    0 -0.92286297549E+01  0.15838385208E+02 -0.38274726874E+01  0.18726227605E+02  0.00000000000E+00 0.  1.
         11    1    3    3    0    0  0.26441730832E+02  0.47590037363E+01 -0.51200972758E+01  0.27350112291E+02  0.51100000000E-03 0. -1.
        -11    1    3    3    0    0 -0.17175059414E+02 -0.99359125346E+01 -0.10858138930E+02  0.22618669392E+02  0.51100000000E-03 0.  1.
         12    1    3    3    0    0 -0.38041662552E-01 -0.10661476410E+02  0.19805708893E+02  0.22492990712E+02  0.00000000000E+00 0. -1.
</event>
<event>
 7    1  0.2700104E-013  0.7246155E+02  0.7816164E-02  0.1226708E+00
        -11   -1    0    0    0    0  0.00000000000E+00  0.00000000000E+00  0.45593999997E+02  0.45594000000E+02  0.51100000000E-03 0.  1.
         11   -1    0    0    0    0 -0.00000000000E+00 -0.00000000000E+00 -0.45593999997E+02  0.45594000000E+02  0.51100000000E-03 0. -1.
    9900012    2    1    2    0    0  0.22005631812E+01  0.11984213523E+02 -0.14220265868E+02  0.72461553101E+02  0.69999977603E+02 0.  0.
        -12    1    1    2    0    0 -0.22005631812E+01 -0.11984213523E+02  0.14220265868E+02  0.18726446899E+02  0.00000000000E+00 0.  1.
         11    1    3    3    0    0  0.76387998274E+01 -0.19007805480E+02 -0.25972158990E+02  0.33078708784E+02  0.51100000000E-03 0. -1.
        -11    1    3    3    0    0  0.60782214908E+01  0.11736779207E+02 -0.15368604973E+01  0.13306340710E+02  0.51100000000E-03 0.  1.
        -12    1    3    3    0    0 -0.11516458137E+02  0.19255239796E+02  0.13288753619E+02  0.26076503607E+02  0.00000000000E+00 0.  1.
</event>
<event>
 7    1  0.2700104E-013  0.7246170E+02  0.7816164E-02  0.1226708E+00
        -11   -1    0    0    0    0  0.00000000000E+00  0.00000000000E+00  0.45593999997E+02  0.45594000000E+02  0.51100000000E-03 0. -1.
         11   -1    0    0    0    0 -0.00000000000E+00 -0.00000000000E+00 -0.45593999997E+02  0.45594000000E+02  0.51100000000E-03 0.  1.
    9900012    2    1    2    0    0 -0.41922419274E+01  0.93040599715E+01  0.15701393198E+02  0.72461703712E+02  0.70000173800E+02 0.  0.
        -12    1    1    2    0    0  0.41922419274E+01 -0.93040599715E+01 -0.15701393198E+02  0.18726296288E+02  0.00000000000E+00 0.  1.
         11    1    3    3    0    0  0.18952575420E+02  0.13622815123E+02 -0.11774972038E+02  0.26142516590E+02  0.51100000000E-03 0. -1.
        -11    1    3    3    0    0 -0.11652265445E+02  0.80023712926E+01  0.55720704543E-01  0.14135640819E+02  0.51100000000E-03 0.  1.
         12    1    3    3    0    0 -0.11492551902E+02 -0.12321126444E+02  0.27420644532E+02  0.32183546302E+02  0.00000000000E+00 0. -1.
</event>
<event>
 7    1  0.2700104E-013  0.7246158E+02  0.7816164E-02  0.1226708E+00
        -11   -1    0    0    0    0  0.00000000000E+00  0.00000000000E+00  0.45593999997E+02  0.45594000000E+02  0.51100000000E-03 0.  1.
         11   -1    0    0    0    0 -0.00000000000E+00 -0.00000000000E+00 -0.45593999997E+02  0.45594000000E+02  0.51100000000E-03 0. -1.
    9900012    2    1    2    0    0 -0.17062475098E+02  0.54378734778E+01 -0.54754419545E+01  0.72461575114E+02  0.70000006278E+02 0.  0.
        -12    1    1    2    0    0  0.17062475098E+02 -0.54378734778E+01  0.54754419545E+01  0.18726424886E+02  0.00000000000E+00 0.  1.
         11    1    3    3    0    0 -0.30687121467E+02 -0.14646327167E+01 -0.30774109741E+01  0.30875800094E+02  0.51100000000E-03 0. -1.
        -11    1    3    3    0    0 -0.30432544455E+01  0.18737912478E+02  0.53520843946E+01  0.19723477616E+02  0.51100000000E-03 0.  1.
        -12    1    3    3    0    0  0.16667900814E+02 -0.11835406283E+02 -0.77501153750E+01  0.21862297403E+02  0.00000000000E+00 0.  1.
</event>
<event>
 7    1  0.2700104E-013  0.7246159E+02  0.7816164E-02  0.1226708E+00
        -11   -1    0    0    0    0  0.00000000000E+00  0.00000000000E+00  0.45593999997E+02  0.45594000000E+02  0.51100000000E-03 0.  1.
         11   -1    0    0    0    0 -0.00000000000E+00 -0.00000000000E+00 -0.45593999997E+02  0.45594000000E+02  0.51100000000E-03 0. -1.
    9900012    2    1    2    0    0 -0.12756963114E+02 -0.24212000872E+01 -0.13493557366E+02  0.72461590623E+02  0.70000026482E+02 0.  0.
        -12    1    1    2    0    0  0.12756963114E+02  0.24212000872E+01  0.13493557366E+02  0.18726409377E+02  0.00000000000E+00 0.  1.
         11    1    3    3    0    0 -0.24068917055E+02  0.24399825458E+02 -0.19866067883E+02  0.39614705653E+02  0.51100000000E-03 0. -1.
        -11    1    3    3    0    0 -0.15956790171E+00  0.60590460091E+00 -0.18896661053E+01  0.19908341345E+01  0.51100000000E-03 0.  1.
        -12    1    3    3    0    0  0.11471521843E+02 -0.27426930146E+02  0.82621766216E+01  0.30856050836E+02  0.00000000000E+00 0.  1.
</event>
<event>
 7    1  0.2700104E-013  0.7246162E+02  0.7816164E-02  0.1226708E+00
        -11   -1    0    0    0    0  0.00000000000E+00  0.00000000000E+00  0.45593999997E+02  0.45594000000E+02  0.51100000000E-03 0.  1.
         11   -1    0    0    0    0 -0.00000000000E+00 -0.00000000000E+00 -0.45593999997E+02  0.45594000000E+02  0.51100000000E-03 0. -1.
    9900012    2    1    2    0    0  0.17946530297E+02  0.70998972283E+00 -0.53004833962E+01  0.72461623967E+02  0.70000069918E+02 0.  0.
        -12    1    1    2    0    0 -0.17946530297E+02 -0.70998972283E+00  0.53004833962E+01  0.18726376033E+02  0.00000000000E+00 0.  1.
         11    1    3    3    0    0 -0.11274178203E+02 -0.12533603779E+02  0.13061343079E+02  0.21325970110E+02  0.51100000000E-03 0. -1.
        -11    1    3    3    0    0  0.14473227089E+02  0.12710104767E+02  0.80534895518E+01  0.20877733588E+02  0.51100000000E-03 0.  1.
        -12    1    3    3    0    0  0.14747481411E+02  0.53348873531E+00 -0.26415316027E+02  0.30257920269E+02  0.00000000000E+00 0.  1.
</event>
<event>
 7    1  0.2700104E-013  0.7246152E+02  0.7816164E-02  0.1226708E+00
        -11   -1    0    0    0    0  0.00000000000E+00  0.00000000000E+00  0.45593999997E+02  0.45594000000E+02  0.51100000000E-03 0.  1.
         11   -1    0    0    0    0 -0.00000000000E+00 -0.00000000000E+00 -0.45593999997E+02  0.45594000000E+02  0.51100000000E-03 0. -1.
    9900012    2    1    2    0    0  0.66669363303E+01 -0.13645027349E+02 -0.10956563119E+02  0.72461519103E+02  0.69999933314E+02 0.  0.
        -12    1    1    2    0    0 -0.66669363303E+01  0.13645027349E+02  0.10956563119E+02  0.18726480897E+02  0.00000000000E+00 0.  1.
         11    1    3    3    0    0  0.28235422717E+02 -0.37453789469E+01 -0.17117782943E+02  0.33230790731E+02  0.51100000000E-03 0. -1.
        -11    1    3    3    0    0  0.47383885044E+01 -0.28646476039E+01 -0.70495879279E+01  0.89641074139E+01  0.51100000000E-03 0.  1.
         12    1    3    3    0    0 -0.26306874891E+02 -0.70350007983E+01  0.13210807752E+02  0.30266620958E+02  0.00000000000E+00 0. -1.
</event>
<event>
 7    1  0.2700104E-013  0.7246160E+02  0.7816164E-02  0.1226708E+00
        -11   -1    0    0    0    0  0.00000000000E+00  0.00000000000E+00  0.45593999997E+02  0.45594000000E+02  0.51100000000E-03 0. -1.
         11   -1    0    0    0    0 -0.00000000000E+00 -0.00000000000E+00 -0.45593999997E+02  0.45594000000E+02  0.51100000000E-03 0.  1.
    9900012    2    1    2    0    0  0.48937359211E+01  0.53084294171E+01 -0.17278602913E+02  0.72461596374E+02  0.70000033973E+02 0.  0.
        -12    1    1    2    0    0 -0.48937359211E+01 -0.53084294171E+01  0.17278602913E+02  0.18726403626E+02  0.00000000000E+00 0.  1.
         11    1    3    3    0    0  0.73158017357E+01 -0.13338355117E+02 -0.80838050003E+01  0.17227320622E+02  0.51100000000E-03 0. -1.
        -11    1    3    3    0    0  0.13324126430E+02 -0.10226465709E+02  0.74500042766E+01  0.18374316586E+02  0.51100000000E-03 0.  1.
         12    1    3    3    0    0 -0.15746192244E+02  0.28873250243E+02 -0.16644802190E+02  0.36859959166E+02  0.00000000000E+00 0. -1.
</event>
<event>
 7    1  0.2700104E-013  0.7246157E+02  0.7816164E-02  0.1226708E+00
        -11   -1    0    0    0    0  0.00000000000E+00  0.00000000000E+00  0.45593999997E+02  0.45594000000E+02  0.51100000000E-03 0. -1.
         11   -1    0    0    0    0 -0.00000000000E+00 -0.00000000000E+00 -0.45593999997E+02  0.45594000000E+02  0.51100000000E-03 0.  1.
    9900012    2    1    2    0    0 -0.30847392719E+01 -0.62745558730E+01  0.17372201345E+02  0.72461573556E+02  0.70000004249E+02 0.  0.
        -12    1    1    2    0    0  0.30847392719E+01  0.62745558730E+01 -0.17372201345E+02  0.18726426444E+02  0.00000000000E+00 0.  1.
         11    1    3    3    0    0 -0.80611843503E+01 -0.55922323753E+01 -0.14789302835E+02  0.17747654343E+02  0.51100000000E-03 0. -1.
        -11    1    3    3    0    0  0.11288131915E+02  0.17070513622E+02  0.40340221705E+01  0.20858995483E+02  0.51100000000E-03 0.  1.
         12    1    3    3    0    0 -0.63116868367E+01 -0.17752837119E+02  0.28127482010E+02  0.33854923730E+02  0.00000000000E+00 0. -1.
</event>
<event>
 7    1  0.2700104E-013  0.7246155E+02  0.7816164E-02  0.1226708E+00
        -11   -1    0    0    0    0  0.00000000000E+00  0.00000000000E+00  0.45593999997E+02  0.45594000000E+02  0.51100000000E-03 0.  1.
         11   -1    0    0    0    0 -0.00000000000E+00 -0.00000000000E+00 -0.45593999997E+02  0.45594000000E+02  0.51100000000E-03 0. -1.
    9900012    2    1    2    0    0  0.10248659597E+02  0.15672066523E+02 -0.17720051968E+00  0.72461545646E+02  0.69999967891E+02 0.  0.
        -12    1    1    2    0    0 -0.10248659597E+02 -0.15672066523E+02  0.17720051968E+00  0.18726454354E+02  0.00000000000E+00 0.  1.
         11    1    3    3    0    0 -0.18661107472E+02  0.48894960306E+01 -0.20274389025E+02  0.27985620488E+02  0.51100000000E-03 0. -1.
        -11    1    3    3    0    0  0.14309217722E+02 -0.37581962432E+01 -0.11983935260E+01  0.14842974706E+02  0.51100000000E-03 0.  1.
        -12    1    3    3    0    0  0.14600549348E+02  0.14540766735E+02  0.21295582031E+02  0.29632950453E+02  0.00000000000E+00 0.  1.
</event>
<event>
 7    1  0.2700104E-013  0.7246160E+02  0.7816164E-02  0.1226708E+00
        -11   -1    0    0    0    0  0.00000000000E+00  0.00000000000E+00  0.45593999997E+02  0.45594000000E+02  0.51100000000E-03 0. -1.
         11   -1    0    0    0    0 -0.00000000000E+00 -0.00000000000E+00 -0.45593999997E+02  0.45594000000E+02  0.51100000000E-03 0.  1.
    9900012    2    1    2    0    0  0.14619728523E+02 -0.41658629094E+01  0.10935588716E+02  0.72461602150E+02  0.70000041498E+02 0.  0.
        -12    1    1    2    0    0 -0.14619728523E+02  0.41658629094E+01 -0.10935588716E+02  0.18726397850E+02  0.00000000000E+00 0.  1.
         11    1    3    3    0    0  0.68543262929E+01 -0.17782632559E+02  0.79468630187E+00  0.19074468177E+02  0.51100000000E-03 0. -1.
        -11    1    3    3    0    0  0.24925364014E+02 -0.42014330131E+01 -0.28650495930E+01  0.25438834880E+02  0.51100000000E-03 0.  1.
         12    1    3    3    0    0 -0.17159961784E+02  0.17818202663E+02  0.13005952007E+02  0.27948299093E+02  0.00000000000E+00 0. -1.
</event>
<event>
 7    1  0.2700104E-013  0.7246158E+02  0.7816164E-02  0.1226708E+00
        -11   -1    0    0    0    0  0.00000000000E+00  0.00000000000E+00  0.45593999997E+02  0.45594000000E+02  0.51100000000E-03 0.  1.
         11   -1    0    0    0    0 -0.00000000000E+00 -0.00000000000E+00 -0.45593999997E+02  0.45594000000E+02  0.51100000000E-03 0. -1.
    9900012    2    1    2    0    0  0.61724959037E+01  0.64459213294E+00 -0.17668154315E+02  0.72461577982E+02  0.70000010015E+02 0.  0.
        -12    1    1    2    0    0 -0.61724959037E+01 -0.64459213294E+00  0.17668154315E+02  0.18726422018E+02  0.00000000000E+00 0.  1.
         11    1    3    3    0    0 -0.22853340184E+01  0.13357139409E+02  0.44057093203E+00  0.13558393259E+02  0.51100000000E-03 0. -1.
        -11    1    3    3    0    0  0.51599052854E+01  0.10121667388E+02  0.14834159671E+02  0.18684888725E+02  0.51100000000E-03 0.  1.
         12    1    3    3    0    0  0.32979246366E+01 -0.22834214664E+02 -0.32942884918E+02  0.40218295998E+02  0.00000000000E+00 0. -1.
</event>
<event>
 7    1  0.2700104E-013  0.7246171E+02  0.7816164E-02  0.1226708E+00
        -11   -1    0    0    0    0  0.00000000000E+00  0.00000000000E+00  0.45593999997E+02  0.45594000000E+02  0.51100000000E-03 0.  1.
         11   -1    0    0    0    0 -0.00000000000E+00 -0.00000000000E+00 -0.45593999997E+02  0.45594000000E+02  0.51100000000E-03 0. -1.
    9900012    2    1    2    0    0  0.13442910808E+02 -0.35595853312E+01 -0.12541594246E+02  0.72461706054E+02  0.70000176852E+02 0.  0.
        -12    1    1    2    0    0 -0.13442910808E+02  0.35595853312E+01  0.12541594246E+02  0.18726293946E+02  0.00000000000E+00 0.  1.
         11    1    3    3    0    0  0.60116831395E+01 -0.40871302056E+01 -0.59883055768E+01  0.94183210515E+01  0.51100000000E-03 0. -1.
        -11    1    3    3    0    0  0.30674599926E+02 -0.18872307686E+01 -0.19432419406E+02  0.36360853192E+02  0.51100000000E-03 0.  1.
         12    1    3    3    0    0 -0.23243372257E+02  0.24147756430E+01  0.12879130737E+02  0.26682531811E+02  0.00000000000E+00 0. -1.
</event>
<event>
 7    1  0.2700104E-013  0.7246156E+02  0.7816164E-02  0.1226708E+00
        -11   -1    0    0    0    0  0.00000000000E+00  0.00000000000E+00  0.45593999997E+02  0.45594000000E+02  0.51100000000E-03 0.  1.
         11   -1    0    0    0    0 -0.00000000000E+00 -0.00000000000E+00 -0.45593999997E+02  0.45594000000E+02  0.51100000000E-03 0. -1.
    9900012    2    1    2    0    0  0.17274103310E+02 -0.89969246937E+00  0.71746423268E+01  0.72461559221E+02  0.69999985575E+02 0.  0.
        -12    1    1    2    0    0 -0.17274103310E+02  0.89969246937E+00 -0.71746423268E+01  0.18726440779E+02  0.00000000000E+00 0.  1.
         11    1    3    3    0    0  0.86305029353E+01 -0.20874417899E+02  0.80673900429E+01  0.23985614145E+02  0.51100000000E-03 0.  1.
        -11    1    3    3    0    0  0.24475148621E+02  0.39455965331E+01  0.47699586920E+01  0.25245853881E+02  0.51100000000E-03 0. -1.
        -12    1    3    3    0    0 -0.15831548246E+02  0.16029128897E+02 -0.56627064082E+01  0.23230091195E+02  0.00000000000E+00 0.  1.
</event>
<event>
 7    1  0.2700104E-013  0.7246160E+02  0.7816164E-02  0.1226708E+00
        -11   -1    0    0    0    0  0.00000000000E+00  0.00000000000E+00  0.45593999997E+02  0.45594000000E+02  0.51100000000E-03 0.  1.
         11   -1    0    0    0    0 -0.00000000000E+00 -0.00000000000E+00 -0.45593999997E+02  0.45594000000E+02  0.51100000000E-03 0. -1.
    9900012    2    1    2    0    0  0.58999290181E+01 -0.67654679777E+01 -0.16434642130E+02  0.72461596680E+02  0.70000034372E+02 0.  0.
        -12    1    1    2    0    0 -0.58999290181E+01  0.67654679777E+01  0.16434642130E+02  0.18726403320E+02  0.00000000000E+00 0.  1.
         11    1    3    3    0    0  0.11899756875E+00 -0.82354137969E+01  0.35703941453E+00  0.82440086264E+01  0.51100000000E-03 0. -1.
        -11    1    3    3    0    0  0.14744017448E+02 -0.24867250105E+02  0.44034352765E+01  0.29243057652E+02  0.51100000000E-03 0.  1.
         12    1    3    3    0    0 -0.89630859989E+01  0.26337195925E+02 -0.21195116821E+02  0.34974530402E+02  0.00000000000E+00 0. -1.
</event>
<event>
 7    1  0.2700104E-013  0.7246157E+02  0.7816164E-02  0.1226708E+00
        -11   -1    0    0    0    0  0.00000000000E+00  0.00000000000E+00  0.45593999997E+02  0.45594000000E+02  0.51100000000E-03 0.  1.
         11   -1    0    0    0    0 -0.00000000000E+00 -0.00000000000E+00 -0.45593999997E+02  0.45594000000E+02  0.51100000000E-03 0. -1.
    9900012    2    1    2    0    0 -0.16037932250E+02  0.25319985286E+01 -0.93302124947E+01  0.72461570746E+02  0.70000000588E+02 0.  0.
        -12    1    1    2    0    0  0.16037932250E+02 -0.25319985286E+01  0.93302124947E+01  0.18726429254E+02  0.00000000000E+00 0.  1.
         11    1    3    3    0    0  0.78851525791E+01 -0.16584984508E+02 -0.17313061197E+02  0.25238451430E+02  0.51100000000E-03 0. -1.
        -11    1    3    3    0    0  0.91665919592E+01  0.42732035476E+01  0.12214367899E+00  0.10114425147E+02  0.51100000000E-03 0.  1.
        -12    1    3    3    0    0 -0.33089676788E+02  0.14843779489E+02  0.78607050231E+01  0.37108694169E+02  0.00000000000E+00 0.  1.
</event>
<event>
 7    1  0.2700104E-013  0.7246156E+02  0.7816164E-02  0.1226708E+00
        -11   -1    0    0    0    0  0.00000000000E+00  0.00000000000E+00  0.45593999997E+02  0.45594000000E+02  0.51100000000E-03 0.  1.
         11   -1    0    0    0    0 -0.00000000000E+00 -0.00000000000E+00 -0.45593999997E+02  0.45594000000E+02  0.51100000000E-03 0. -1.
    9900012    2    1    2    0    0 -0.21467907518E+01 -0.61861751033E+01 -0.17544289184E+02  0.72461559977E+02  0.69999986560E+02 0.  0.
        -12    1    1    2    0    0  0.21467907518E+01  0.61861751033E+01  0.17544289184E+02  0.18726440023E+02  0.00000000000E+00 0.  1.
         11    1    3    3    0    0  0.89777870348E+01 -0.12653544097E+02 -0.79768950413E+01  0.17445449064E+02  0.51100000000E-03 0. -1.
        -11    1    3    3    0    0  0.91925778443E+01 -0.12260328016E+02 -0.20247188958E+02  0.25392278185E+02  0.51100000000E-03 0.  1.
        -12    1    3    3    0    0 -0.20317155631E+02  0.18727697010E+02  0.10679794815E+02  0.29623832728E+02  0.00000000000E+00 0.  1.
</event>
<event>
 7    1  0.2700104E-013  0.7246158E+02  0.7816164E-02  0.1226708E+00
        -11   -1    0    0    0    0  0.00000000000E+00  0.00000000000E+00  0.45593999997E+02  0.45594000000E+02  0.51100000000E-03 0. -1.
         11   -1    0    0    0    0 -0.00000000000E+00 -0.00000000000E+00 -0.45593999997E+02  0.45594000000E+02  0.51100000000E-03 0.  1.
    9900012    2    1    2    0    0 -0.11922153449E+02  0.12092823830E+02  0.78933303903E+01  0.72461580275E+02  0.70000013002E+02 0.  0.
        -12    1    1    2    0    0  0.11922153449E+02 -0.12092823830E+02 -0.78933303903E+01  0.18726419725E+02  0.00000000000E+00 0.  1.
         11    1    3    3    0    0  0.77974847075E+00  0.28118827115E+01 -0.57721010564E+01  0.64677540869E+01  0.51100000000E-03 0. -1.
        -11    1    3    3    0    0  0.18573765141E+02  0.55276006345E+01 -0.14130457144E+02  0.23983513914E+02  0.51100000000E-03 0.  1.
         12    1    3    3    0    0 -0.31275667061E+02  0.37533404839E+01  0.27795888591E+02  0.42010312275E+02  0.00000000000E+00 0. -1.
</event>
<event>
 7    1  0.2700104E-013  0.7246155E+02  0.7816164E-02  0.1226708E+00
        -11   -1    0    0    0    0  0.00000000000E+00  0.00000000000E+00  0.45593999997E+02  0.45594000000E+02  0.51100000000E-03 0.  1.
         11   -1    0    0    0    0 -0.00000000000E+00 -0.00000000000E+00 -0.45593999997E+02  0.45594000000E+02  0.51100000000E-03 0. -1.
    9900012    2    1    2    0    0 -0.16459865440E+02 -0.79314553105E+01 -0.41042221358E+01  0.72461553647E+02  0.69999978314E+02 0.  0.
        -12    1    1    2    0    0  0.16459865440E+02  0.79314553105E+01  0.41042221358E+01  0.18726446353E+02  0.00000000000E+00 0.  1.
         11    1    3    3    0    0 -0.12351896562E+02 -0.13106663563E+02  0.17007846305E+02  0.24771370866E+02  0.51100000000E-03 0. -1.
        -11    1    3    3    0    0 -0.14260559672E+02 -0.14670519286E+02 -0.95577762588E+01  0.22581824230E+02  0.51100000000E-03 0.  1.
        -12    1    3    3    0    0  0.10152590793E+02  0.19845727538E+02 -0.11554292182E+02  0.25108358551E+02  0.00000000000E+00 0.  1.
</event>
<event>
 7    1  0.2700104E-013  0.7246161E+02  0.7816164E-02  0.1226708E+00
        -11   -1    0    0    0    0  0.00000000000E+00  0.00000000000E+00  0.45593999997E+02  0.45594000000E+02  0.51100000000E-03 0. -1.
         11   -1    0    0    0    0 -0.00000000000E+00 -0.00000000000E+00 -0.45593999997E+02  0.45594000000E+02  0.51100000000E-03 0.  1.
    9900012    2    1    2    0    0  0.81840026102E+01  0.16325243314E+02 -0.41456229213E+01  0.72461610669E+02  0.70000052595E+02 0.  0.
        -12    1    1    2    0    0 -0.81840026102E+01 -0.16325243314E+02  0.41456229213E+01  0.18726389331E+02  0.00000000000E+00 0.  1.
         11    1    3    3    0    0  0.12975278343E+02 -0.21889046066E+01  0.24560290119E+02  0.27863183638E+02  0.51100000000E-03 0. -1.
        -11    1    3    3    0    0 -0.14738311526E+02  0.89214290787E+01 -0.64393508449E+01  0.18392252799E+02  0.51100000000E-03 0.  1.
        -12    1    3    3    0    0  0.99470357935E+01  0.95927188419E+01 -0.22266562196E+02  0.26206174232E+02  0.00000000000E+00 0.  1.
</event>
<event>
 7    1  0.2700104E-013  0.7246152E+02  0.7816164E-02  0.1226708E+00
        -11   -1    0    0    0    0  0.00000000000E+00  0.00000000000E+00  0.45593999997E+02  0.45594000000E+02  0.51100000000E-03 0. -1.
         11   -1    0    0    0    0 -0.00000000000E+00 -0.00000000000E+00 -0.45593999997E+02  0.45594000000E+02  0.51100000000E-03 0.  1.
    9900012    2    1    2    0    0 -0.17413298293E+00  0.14081778357E+02  0.12343186495E+02  0.72461519903E+02  0.69999934356E+02 0.  0.
        -12    1    1    2    0    0  0.17413298293E+00 -0.14081778357E+02 -0.12343186495E+02  0.18726480097E+02  0.00000000000E+00 0.  1.
         11    1    3    3    0    0  0.10501870282E+02  0.23867960563E+02  0.27425505907E+02  0.37843456441E+02  0.51100000000E-03 0. -1.
        -11    1    3    3    0    0  0.51425261146E+01 -0.40531512566E+01  0.51307902604E+01  0.83185707250E+01  0.51100000000E-03 0.  1.
        -12    1    3    3    0    0 -0.15818529379E+02 -0.57330309498E+01 -0.20213109673E+02  0.26299492737E+02  0.00000000000E+00 0.  1.
</event>
<event>
 7    1  0.2700104E-013  0.7246168E+02  0.7816164E-02  0.1226708E+00
        -11   -1    0    0    0    0  0.00000000000E+00  0.00000000000E+00  0.45593999997E+02  0.45594000000E+02  0.51100000000E-03 0. -1.
         11   -1    0    0    0    0 -0.00000000000E+00 -0.00000000000E+00 -0.45593999997E+02  0.45594000000E+02  0.51100000000E-03 0.  1.
    9900012    2    1    2    0    0 -0.42387644093E+01 -0.16121305493E+02  0.85329667286E+01  0.72461677998E+02  0.70000140304E+02 0.  0.
        -12    1    1    2    0    0  0.42387644093E+01  0.16121305493E+02 -0.85329667286E+01  0.18726322002E+02  0.00000000000E+00 0.  1.
         11    1    3    3    0    0 -0.56610304979E+01  0.61719829297E+01 -0.40034665919E+01  0.92826927449E+01  0.51100000000E-03 0. -1.
        -11    1    3    3    0    0 -0.15788457873E+02  0.13191425298E+02  0.11833731712E+02  0.23734496200E+02  0.51100000000E-03 0.  1.
         12    1    3    3    0    0  0.17210723961E+02 -0.35484713721E+02  0.70270160845E+00  0.39444489053E+02  0.00000000000E+00 0. -1.
</event>
<event>
 7    1  0.2700104E-013  0.7246157E+02  0.7816164E-02  0.1226708E+00
        -11   -1    0    0    0    0  0.00000000000E+00  0.00000000000E+00  0.45593999997E+02  0.45594000000E+02  0.51100000000E-03 0.  1.
         11   -1    0    0    0    0 -0.00000000000E+00 -0.00000000000E+00 -0.45593999997E+02  0.45594000000E+02  0.51100000000E-03 0. -1.
    9900012    2    1    2    0    0 -0.16188959703E+02 -0.92044233697E+01 -0.19685923577E+01  0.72461569969E+02  0.69999999576E+02 0.  0.
        -12    1    1    2    0    0  0.16188959703E+02  0.92044233697E+01  0.19685923577E+01  0.18726430031E+02  0.00000000000E+00 0.  1.
         11    1    3    3    0    0  0.18834725425E+02  0.49610909576E+01  0.63393470435E+01  0.20482837365E+02  0.51100000000E-03 0. -1.
        -11    1    3    3    0    0 -0.12940090404E+02 -0.19719261985E+02  0.69257808644E+01  0.24581734555E+02  0.51100000000E-03 0.  1.
        -12    1    3    3    0    0 -0.22083594724E+02  0.55537476574E+01 -0.15233720266E+02  0.27396998049E+02  0.00000000000E+00 0.  1.
</event>
<event>
 7    1  0.2700104E-013  0.7246156E+02  0.7816164E-02  0.1226708E+00
        -11   -1    0    0    0    0  0.00000000000E+00  0.00000000000E+00  0.45593999997E+02  0.45594000000E+02  0.51100000000E-03 0.  1.
         11   -1    0    0    0    0 -0.00000000000E+00 -0.00000000000E+00 -0.45593999997E+02  0.45594000000E+02  0.51100000000E-03 0. -1.
    9900012    2    1    2    0    0  0.34896224863E+01 -0.12960966997E+02 -0.13058150317E+02  0.72461563599E+02  0.69999991278E+02 0.  0.
        -12    1    1    2    0    0 -0.34896224863E+01  0.12960966997E+02  0.13058150317E+02  0.18726436401E+02  0.00000000000E+00 0.  1.
         11    1    3    3    0    0  0.61229672520E+01 -0.14092599318E+02  0.14521570709E+01  0.15433756637E+02  0.51100000000E-03 0. -1.
        -11    1    3    3    0    0  0.20823806134E+01 -0.22332908905E+01  0.20912579800E+02  0.21134329688E+02  0.51100000000E-03 0.  1.
         12    1    3    3    0    0 -0.47157253790E+01  0.33649232118E+01 -0.35422887188E+02  0.35893477273E+02  0.00000000000E+00 0. -1.
</event>
<event>
 7    1  0.2700104E-013  0.7246162E+02  0.7816164E-02  0.1226708E+00
        -11   -1    0    0    0    0  0.00000000000E+00  0.00000000000E+00  0.45593999997E+02  0.45594000000E+02  0.51100000000E-03 0. -1.
         11   -1    0    0    0    0 -0.00000000000E+00 -0.00000000000E+00 -0.45593999997E+02  0.45594000000E+02  0.51100000000E-03 0.  1.
    9900012    2    1    2    0    0 -0.72270875838E+01  0.16234191894E+02  0.59074235176E+01  0.72461616632E+02  0.70000060364E+02 0.  0.
        -12    1    1    2    0    0  0.72270875838E+01 -0.16234191894E+02 -0.59074235176E+01  0.18726383368E+02  0.00000000000E+00 0.  1.
         11    1    3    3    0    0  0.67726090643E+00 -0.13548870924E+01 -0.98092482989E+00  0.18046094180E+01  0.51100000000E-03 0. -1.
        -11    1    3    3    0    0  0.17857431862E+02 -0.15579425879E+02 -0.95588939309E+01  0.25553450586E+02  0.51100000000E-03 0.  1.
        -12    1    3    3    0    0 -0.25761780353E+02  0.33168504865E+02  0.16447242278E+02  0.45103556628E+02  0.00000000000E+00 0.  1.
</event>
<event>
 7    1  0.3730385E-013  0.7246156E+02  0.7816164E-02  0.1226708E+00
        -11   -1    0    0    0    0  0.00000000000E+00  0.00000000000E+00  0.45593999997E+02  0.45594000000E+02  0.51100000000E-03 0. -1.
         11   -1    0    0    0    0 -0.00000000000E+00 -0.00000000000E+00 -0.45593999997E+02  0.45594000000E+02  0.51100000000E-03 0.  1.
    9900012    2    1    2    0    0 -0.20840551631E+01  0.79835991906E+01  0.16810664129E+02  0.72461559591E+02  0.69999986056E+02 0.  0.
        -12    1    1    2    0    0  0.20840551631E+01 -0.79835991906E+01 -0.16810664129E+02  0.18726440409E+02  0.00000000000E+00 0.  1.
         11    1    3    3    0    0  0.20921245061E+01  0.30808100883E+01  0.33909989724E+02  0.34113864910E+02  0.51100000000E-03 0. -1.
        -11    1    3    3    0    0 -0.91150240763E+01  0.17839136697E+02 -0.70457739475E+01  0.21235851591E+02  0.51100000000E-03 0.  1.
        -12    1    3    3    0    0  0.49388444070E+01 -0.12936347595E+02 -0.10053551648E+02  0.17111843089E+02  0.00000000000E+00 0.  1.
</event>
<event>
 7    1  0.2700104E-013  0.7246148E+02  0.7816164E-02  0.1226708E+00
        -11   -1    0    0    0    0  0.00000000000E+00  0.00000000000E+00  0.45593999997E+02  0.45594000000E+02  0.51100000000E-03 0.  1.
         11   -1    0    0    0    0 -0.00000000000E+00 -0.00000000000E+00 -0.45593999997E+02  0.45594000000E+02  0.51100000000E-03 0. -1.
    9900012    2    1    2    0    0  0.10056282853E+01 -0.15138613396E+02 -0.10976966081E+02  0.72461476347E+02  0.69999877615E+02 0.  0.
        -12    1    1    2    0    0 -0.10056282853E+01  0.15138613396E+02  0.10976966081E+02  0.18726523653E+02  0.00000000000E+00 0.  1.
         11    1    3    3    0    0  0.81381038916E+01 -0.14212143551E+02 -0.12873023470E+01  0.16427748076E+02  0.51100000000E-03 0. -1.
        -11    1    3    3    0    0  0.17194728527E+02  0.84006206707E+01 -0.20303403669E+02  0.27900847973E+02  0.51100000000E-03 0.  1.
         12    1    3    3    0    0 -0.24327204134E+02 -0.93270905162E+01  0.10613739935E+02  0.28132880298E+02  0.00000000000E+00 0. -1.
</event>
<event>
 7    1  0.2700104E-013  0.7246156E+02  0.7816164E-02  0.1226708E+00
        -11   -1    0    0    0    0  0.00000000000E+00  0.00000000000E+00  0.45593999997E+02  0.45594000000E+02  0.51100000000E-03 0.  1.
         11   -1    0    0    0    0 -0.00000000000E+00 -0.00000000000E+00 -0.45593999997E+02  0.45594000000E+02  0.51100000000E-03 0. -1.
    9900012    2    1    2    0    0  0.17889785096E+02 -0.54000217493E+01 -0.12145208141E+01  0.72461555957E+02  0.69999981323E+02 0.  0.
        -12    1    1    2    0    0 -0.17889785096E+02  0.54000217493E+01  0.12145208141E+01  0.18726444043E+02  0.00000000000E+00 0.  1.
         11    1    3    3    0    0  0.45842608696E+01 -0.27896372764E+01 -0.14573880099E+02  0.15530470220E+02  0.51100000000E-03 0. -1.
        -11    1    3    3    0    0 -0.19143915961E+02 -0.98956305283E+01  0.14246851896E+01  0.21597285710E+02  0.51100000000E-03 0.  1.
        -12    1    3    3    0    0  0.32449440188E+02  0.72852460554E+01  0.11934674096E+02  0.35333800027E+02  0.00000000000E+00 0.  1.
</event>
<event>
 7    1  0.2700104E-013  0.7246156E+02  0.7816164E-02  0.1226708E+00
        -11   -1    0    0    0    0  0.00000000000E+00  0.00000000000E+00  0.45593999997E+02  0.45594000000E+02  0.51100000000E-03 0.  1.
         11   -1    0    0    0    0 -0.00000000000E+00 -0.00000000000E+00 -0.45593999997E+02  0.45594000000E+02  0.51100000000E-03 0. -1.
    9900012    2    1    2    0    0 -0.71274424697E+01 -0.17047512609E+02 -0.30432520057E+01  0.72461561335E+02  0.69999988329E+02 0.  0.
        -12    1    1    2    0    0  0.71274424697E+01  0.17047512609E+02  0.30432520057E+01  0.18726438665E+02  0.00000000000E+00 0.  1.
         11    1    3    3    0    0 -0.64227826540E+01 -0.25758451689E+02 -0.84532561809E+01  0.27860500907E+02  0.51100000000E-03 0. -1.
        -11    1    3    3    0    0 -0.18392145694E+01  0.93171083038E+01 -0.18426506603E+02  0.20729866455E+02  0.51100000000E-03 0.  1.
        -12    1    3    3    0    0  0.11345547537E+01 -0.60616922333E+00  0.23836510778E+02  0.23871193973E+02  0.00000000000E+00 0.  1.
</event>
<event>
 7    1  0.2700104E-013  0.7246161E+02  0.7816164E-02  0.1226708E+00
        -11   -1    0    0    0    0  0.00000000000E+00  0.00000000000E+00  0.45593999997E+02  0.45594000000E+02  0.51100000000E-03 0.  1.
         11   -1    0    0    0    0 -0.00000000000E+00 -0.00000000000E+00 -0.45593999997E+02  0.45594000000E+02  0.51100000000E-03 0. -1.
    9900012    2    1    2    0    0  0.10109759650E+02  0.12326795128E+02 -0.98244807967E+01  0.72461613770E+02  0.70000056635E+02 0.  0.
        -12    1    1    2    0    0 -0.10109759650E+02 -0.12326795128E+02  0.98244807967E+01  0.18726386230E+02  0.00000000000E+00 0.  1.
         11    1    3    3    0    0  0.12349469434E+02 -0.25071860383E+02 -0.16609177317E+02  0.32511111174E+02  0.51100000000E-03 0. -1.
        -11    1    3    3    0    0  0.45984033804E+01  0.13391221158E+02  0.30989520515E+00  0.14162138012E+02  0.51100000000E-03 0.  1.
        -12    1    3    3    0    0 -0.68381131639E+01  0.24007434353E+02  0.64748013154E+01  0.25788364584E+02  0.00000000000E+00 0.  1.
</event>
<event>
 7    1  0.2700104E-013  0.7246161E+02  0.7816164E-02  0.1226708E+00
        -11   -1    0    0    0    0  0.00000000000E+00  0.00000000000E+00  0.45593999997E+02  0.45594000000E+02  0.51100000000E-03 0. -1.
         11   -1    0    0    0    0 -0.00000000000E+00 -0.00000000000E+00 -0.45593999997E+02  0.45594000000E+02  0.51100000000E-03 0.  1.
    9900012    2    1    2    0    0 -0.12073388571E+02  0.12573605833E+02  0.68421809136E+01  0.72461609133E+02  0.70000050595E+02 0.  0.
        -12    1    1    2    0    0  0.12073388571E+02 -0.12573605833E+02 -0.68421809136E+01  0.18726390867E+02  0.00000000000E+00 0.  1.
         11    1    3    3    0    0  0.50849448648E+01  0.22604965247E+00  0.15330820598E+02  0.16153693794E+02  0.51100000000E-03 0. -1.
        -11    1    3    3    0    0  0.14202766812E+02 -0.21381617845E+01 -0.15421659366E+02  0.21074104934E+02  0.51100000000E-03 0.  1.
        -12    1    3    3    0    0 -0.31361100248E+02  0.14485717965E+02  0.69330196809E+01  0.35233810405E+02  0.00000000000E+00 0.  1.
</event>
<event>
 7    1  0.2700104E-013  0.7246158E+02  0.7816164E-02  0.1226708E+00
        -11   -1    0    0    0    0  0.00000000000E+00  0.00000000000E+00  0.45593999997E+02  0.45594000000E+02  0.51100000000E-03 0. -1.
         11   -1    0    0    0    0 -0.00000000000E+00 -0.00000000000E+00 -0.45593999997E+02  0.45594000000E+02  0.51100000000E-03 0.  1.
    9900012    2    1    2    0    0 -0.73298380101E+01  0.55010683966E+01  0.16330666625E+02  0.72461576124E+02  0.70000007594E+02 0.  0.
        -12    1    1    2    0    0  0.73298380101E+01 -0.55010683966E+01 -0.16330666625E+02  0.18726423876E+02  0.00000000000E+00 0.  1.
         11    1    3    3    0    0 -0.65845136744E+01 -0.22534243260E+02  0.30803138798E+02  0.38729592041E+02  0.51100000000E-03 0. -1.
        -11    1    3    3    0    0 -0.18327006334E+01  0.17176127183E+01  0.15017521375E+01  0.29264731000E+01  0.51100000000E-03 0.  1.
        -12    1    3    3    0    0  0.10873762977E+01  0.26317698938E+02 -0.15974224310E+02  0.30805510983E+02  0.00000000000E+00 0.  1.
</event>
<event>
 7    1  0.2700104E-013  0.7246165E+02  0.7816164E-02  0.1226708E+00
        -11   -1    0    0    0    0  0.00000000000E+00  0.00000000000E+00  0.45593999997E+02  0.45594000000E+02  0.51100000000E-03 0.  1.
         11   -1    0    0    0    0 -0.00000000000E+00 -0.00000000000E+00 -0.45593999997E+02  0.45594000000E+02  0.51100000000E-03 0. -1.
    9900012    2    1    2    0    0  0.78848236467E+01 -0.14973522831E+02  0.80186921330E+01  0.72461648154E+02  0.70000101427E+02 0.  0.
        -12    1    1    2    0    0 -0.78848236467E+01  0.14973522831E+02 -0.80186921330E+01  0.18726351846E+02  0.00000000000E+00 0.  1.
         11    1    3    3    0    0 -0.57608931327E+01 -0.80474483544E+01 -0.30585394820E+01  0.10358763378E+02  0.51100000000E-03 0. -1.
        -11    1    3    3    0    0  0.10430844140E+01 -0.31688866251E+02  0.12963092059E+02  0.34253671706E+02  0.51100000000E-03 0.  1.
        -12    1    3    3    0    0  0.12602632365E+02  0.24762791774E+02 -0.18858604441E+01  0.27849213070E+02  0.00000000000E+00 0.  1.
</event>
<event>
 7    1  0.2700104E-013  0.7246163E+02  0.7816164E-02  0.1226708E+00
        -11   -1    0    0    0    0  0.00000000000E+00  0.00000000000E+00  0.45593999997E+02  0.45594000000E+02  0.51100000000E-03 0.  1.
         11   -1    0    0    0    0 -0.00000000000E+00 -0.00000000000E+00 -0.45593999997E+02  0.45594000000E+02  0.51100000000E-03 0. -1.
    9900012    2    1    2    0    0  0.16142277714E+02  0.46870900856E+01 -0.82543816855E+01  0.72461634621E+02  0.70000083798E+02 0.  0.
        -12    1    1    2    0    0 -0.16142277714E+02 -0.46870900856E+01  0.82543816855E+01  0.18726365379E+02  0.00000000000E+00 0.  1.
         11    1    3    3    0    0  0.71179741132E+01  0.10752822053E+02  0.16189609516E+02  0.20697637404E+02  0.51100000000E-03 0. -1.
        -11    1    3    3    0    0  0.25491430097E+02 -0.24270994403E+01 -0.23687529695E+02  0.34882701779E+02  0.51100000000E-03 0.  1.
         12    1    3    3    0    0 -0.16467126495E+02 -0.36386325268E+01 -0.75646150654E+00  0.16881295439E+02  0.00000000000E+00 0. -1.
</event>
<event>
 7    1  0.2700104E-013  0.7246147E+02  0.7816164E-02  0.1226708E+00
        -11   -1    0    0    0    0  0.00000000000E+00  0.00000000000E+00  0.45593999997E+02  0.45594000000E+02  0.51100000000E-03 0.  1.
         11   -1    0    0    0    0 -0.00000000000E+00 -0.00000000000E+00 -0.45593999997E+02  0.45594000000E+02  0.51100000000E-03 0. -1.
    9900012    2    1    2    0    0  0.10077204497E+02  0.15726467650E+02  0.13458225853E+01  0.72461466053E+02  0.69999864207E+02 0.  0.
        -12    1    1    2    0    0 -0.10077204497E+02 -0.15726467650E+02 -0.13458225853E+01  0.18726533947E+02  0.00000000000E+00 0.  1.
         11    1    3    3    0    0  0.19297434688E+02  0.16723093466E+02 -0.14380989220E+02  0.29306410421E+02  0.51100000000E-03 0. -1.
        -11    1    3    3    0    0  0.28154709454E+01 -0.18607254248E+02  0.64387997232E+01  0.19890071127E+02  0.51100000000E-03 0.  1.
         12    1    3    3    0    0 -0.12035701136E+02  0.17610628432E+02  0.92880120816E+01  0.23264984505E+02  0.00000000000E+00 0. -1.
</event>
<event>
 7    1  0.2700104E-013  0.7246163E+02  0.7816164E-02  0.1226708E+00
        -11   -1    0    0    0    0  0.00000000000E+00  0.00000000000E+00  0.45593999997E+02  0.45594000000E+02  0.51100000000E-03 0.  1.
         11   -1    0    0    0    0 -0.00000000000E+00 -0.00000000000E+00 -0.45593999997E+02  0.45594000000E+02  0.51100000000E-03 0. -1.
    9900012    2    1    2    0    0 -0.17448128581E+02 -0.30400784054E+01 -0.60825789678E+01  0.72461627298E+02  0.70000074258E+02 0.  0.
        -12    1    1    2    0    0  0.17448128581E+02  0.30400784054E+01  0.60825789678E+01  0.18726372702E+02  0.00000000000E+00 0.  1.
         11    1    3    3    0    0  0.49425327189E+00 -0.90356523801E+01 -0.94160116507E+01  0.13059424792E+02  0.51100000000E-03 0. -1.
        -11    1    3    3    0    0 -0.69310656465E+01 -0.97004754327E+01  0.26661631347E+02  0.29205846691E+02  0.51100000000E-03 0.  1.
         12    1    3    3    0    0 -0.11011316206E+02  0.15696049407E+02 -0.23328198664E+02  0.30196355815E+02  0.00000000000E+00 0. -1.
</event>
<event>
 8    1  0.2700104E-013  0.7246152E+02  0.7816164E-02  0.1226708E+00
        -11   -1    0    0    0    0  0.00000000000E+00  0.00000000000E+00  0.45593999997E+02  0.45594000000E+02  0.51100000000E-03 0. -1.
         11   -1    0    0    0    0 -0.00000000000E+00 -0.00000000000E+00 -0.45593999997E+02  0.45594000000E+02  0.51100000000E-03 0.  1.
    9900012    2    1    2    0    0 -0.90623209360E+01  0.50017567233E+01  0.15605703980E+02  0.72461515338E+02  0.69999928409E+02 0.  0.
         23    2    3    3    0    0  0.19427504738E+00  0.23244762539E+01  0.86552943611E+01  0.60580412957E+02  0.59913532536E+02 0.  0.
        -12    1    1    2    0    0  0.90623209360E+01 -0.50017567233E+01 -0.15605703980E+02  0.18726484662E+02  0.00000000000E+00 0.  1.
         11    1    4    4    0    0 -0.77473472242E+01  0.11232079112E+02  0.31764836038E+02  0.34571459312E+02  0.51100000000E-03 0. -1.
        -11    1    4    4    0    0  0.79416222716E+01 -0.89076028580E+01 -0.23109541677E+02  0.26008953646E+02  0.51100000000E-03 0.  1.
         12    1    3    3    0    0 -0.92565959834E+01  0.26772804694E+01  0.69504096192E+01  0.11881102381E+02  0.00000000000E+00 0. -1.
</event>
<event>
 7    1  0.2700104E-013  0.7246157E+02  0.7816164E-02  0.1226708E+00
        -11   -1    0    0    0    0  0.00000000000E+00  0.00000000000E+00  0.45593999997E+02  0.45594000000E+02  0.51100000000E-03 0. -1.
         11   -1    0    0    0    0 -0.00000000000E+00 -0.00000000000E+00 -0.45593999997E+02  0.45594000000E+02  0.51100000000E-03 0.  1.
    9900012    2    1    2    0    0  0.59778955461E+01 -0.17983728565E+01  0.17655309297E+02  0.72461566104E+02  0.69999994541E+02 0.  0.
        -12    1    1    2    0    0 -0.59778955461E+01  0.17983728565E+01 -0.17655309297E+02  0.18726433896E+02  0.00000000000E+00 0.  1.
         11    1    3    3    0    0 -0.14554974576E+02 -0.21481473718E+02  0.14814931615E+02  0.29879477857E+02  0.51100000000E-03 0. -1.
        -11    1    3    3    0    0 -0.78794267205E+01  0.50009408722E+01  0.48878624193E+01  0.10534988104E+02  0.51100000000E-03 0.  1.
        -12    1    3    3    0    0  0.28412296843E+02  0.14682159989E+02 -0.20474847370E+01  0.32047100143E+02  0.00000000000E+00 0.  1.
</event>
<event>
 7    1  0.2700104E-013  0.7246156E+02  0.7816164E-02  0.1226708E+00
        -11   -1    0    0    0    0  0.00000000000E+00  0.00000000000E+00  0.45593999997E+02  0.45594000000E+02  0.51100000000E-03 0.  1.
         11   -1    0    0    0    0 -0.00000000000E+00 -0.00000000000E+00 -0.45593999997E+02  0.45594000000E+02  0.51100000000E-03 0. -1.
    9900012    2    1    2    0    0 -0.11037832550E+02 -0.11713171074E+02 -0.95732689257E+01  0.72461558749E+02  0.69999984960E+02 0.  0.
        -12    1    1    2    0    0  0.11037832550E+02  0.11713171074E+02  0.95732689257E+01  0.18726441251E+02  0.00000000000E+00 0.  1.
         11    1    3    3    0    0 -0.21730858445E+02 -0.13203819021E+01 -0.27618696534E+02  0.35167684252E+02  0.51100000000E-03 0. -1.
        -11    1    3    3    0    0 -0.67190231947E+01 -0.16050433231E+01  0.16310282041E+02  0.17712897484E+02  0.51100000000E-03 0.  1.
        -12    1    3    3    0    0  0.17412049090E+02 -0.87877458491E+01  0.17351455670E+01  0.19580977013E+02  0.00000000000E+00 0.  1.
</event>
<event>
 7    1  0.2700104E-013  0.7246146E+02  0.7816164E-02  0.1226708E+00
        -11   -1    0    0    0    0  0.00000000000E+00  0.00000000000E+00  0.45593999997E+02  0.45594000000E+02  0.51100000000E-03 0.  1.
         11   -1    0    0    0    0 -0.00000000000E+00 -0.00000000000E+00 -0.45593999997E+02  0.45594000000E+02  0.51100000000E-03 0. -1.
    9900012    2    1    2    0    0  0.63099546339E+01 -0.17557797453E+02 -0.16098563010E+01  0.72461456908E+02  0.69999852293E+02 0.  0.
        -12    1    1    2    0    0 -0.63099546339E+01  0.17557797453E+02  0.16098563010E+01  0.18726543092E+02  0.00000000000E+00 0.  1.
         11    1    3    3    0    0  0.22807075578E+02 -0.88274336634E+01 -0.17987949044E+02  0.30358731735E+02  0.51100000000E-03 0. -1.
        -11    1    3    3    0    0  0.72762233219E+01 -0.10964376891E+02  0.12035540328E+02  0.17832981177E+02  0.51100000000E-03 0.  1.
        -12    1    3    3    0    0 -0.23773344266E+02  0.22340131011E+01  0.43425524153E+01  0.24269743995E+02  0.00000000000E+00 0.  1.
</event>
<event>
 7    1  0.2700104E-013  0.7246157E+02  0.7816164E-02  0.1226708E+00
        -11   -1    0    0    0    0  0.00000000000E+00  0.00000000000E+00  0.45593999997E+02  0.45594000000E+02  0.51100000000E-03 0.  1.
         11   -1    0    0    0    0 -0.00000000000E+00 -0.00000000000E+00 -0.45593999997E+02  0.45594000000E+02  0.51100000000E-03 0. -1.
    9900012    2    1    2    0    0 -0.15094818702E+02  0.73530467700E+01 -0.82920691242E+01  0.72461567910E+02  0.69999996894E+02 0.  0.
        -12    1    1    2    0    0  0.15094818702E+02 -0.73530467700E+01  0.82920691242E+01  0.18726432090E+02  0.00000000000E+00 0.  1.
         11    1    3    3    0    0 -0.72369473632E+01 -0.10238072188E+02 -0.23466073175E+02  0.26605415234E+02  0.51100000000E-03 0. -1.
        -11    1    3    3    0    0 -0.24921899213E+01 -0.33093051911E+01  0.22645300518E+02  0.23021123936E+02  0.51100000000E-03 0.  1.
         12    1    3    3    0    0 -0.53656814177E+01  0.20900424149E+02 -0.74712964675E+01  0.22835028741E+02  0.00000000000E+00 0. -1.
</event>
<event>
 7    1  0.2700104E-013  0.7246164E+02  0.7816164E-02  0.1226708E+00
        -11   -1    0    0    0    0  0.00000000000E+00  0.00000000000E+00  0.45593999997E+02  0.45594000000E+02  0.51100000000E-03 0.  1.
         11   -1    0    0    0    0 -0.00000000000E+00 -0.00000000000E+00 -0.45593999997E+02  0.45594000000E+02  0.51100000000E-03 0. -1.
    9900012    2    1    2    0    0 -0.17741859808E+02 -0.59918648570E+01  0.25976561279E-01  0.72461635999E+02  0.70000085592E+02 0.  0.
        -12    1    1    2    0    0  0.17741859808E+02  0.59918648570E+01 -0.25976561279E-01  0.18726364001E+02  0.00000000000E+00 0.  1.
         11    1    3    3    0    0 -0.19686626727E+02  0.17123512253E+01 -0.17977457518E+02  0.26714872219E+02  0.51100000000E-03 0. -1.
        -11    1    3    3    0    0 -0.41848542927E+01 -0.45274212185E+01 -0.12784926619E+02  0.14193833071E+02  0.51100000000E-03 0.  1.
        -12    1    3    3    0    0  0.61296212118E+01 -0.31767948638E+01  0.30788360698E+02  0.31552930708E+02  0.00000000000E+00 0.  1.
</event>
<event>
 7    1  0.2700104E-013  0.7246154E+02  0.7816164E-02  0.1226708E+00
        -11   -1    0    0    0    0  0.00000000000E+00  0.00000000000E+00  0.45593999997E+02  0.45594000000E+02  0.51100000000E-03 0.  1.
         11   -1    0    0    0    0 -0.00000000000E+00 -0.00000000000E+00 -0.45593999997E+02  0.45594000000E+02  0.51100000000E-03 0. -1.
    9900012    2    1    2    0    0  0.64279350113E+00 -0.17829805534E+02 -0.56890438042E+01  0.72461538288E+02  0.69999958306E+02 0.  0.
        -12    1    1    2    0    0 -0.64279350113E+00  0.17829805534E+02  0.56890438042E+01  0.18726461712E+02  0.00000000000E+00 0.  1.
         11    1    3    3    0    0 -0.54429376394E+01 -0.67550790924E+01  0.16042281160E+02  0.18237638245E+02  0.51100000000E-03 0. -1.
        -11    1    3    3    0    0  0.65781255681E+00 -0.29104923892E+02 -0.60835740000E+01  0.29741203490E+02  0.51100000000E-03 0.  1.
         12    1    3    3    0    0  0.54279185837E+01  0.18030197451E+02 -0.15647750964E+02  0.24482696553E+02  0.00000000000E+00 0. -1.
</event>
<event>
 7    1  0.2700104E-013  0.7246157E+02  0.7816164E-02  0.1226708E+00
        -11   -1    0    0    0    0  0.00000000000E+00  0.00000000000E+00  0.45593999997E+02  0.45594000000E+02  0.51100000000E-03 0.  1.
         11   -1    0    0    0    0 -0.00000000000E+00 -0.00000000000E+00 -0.45593999997E+02  0.45594000000E+02  0.51100000000E-03 0. -1.
    9900012    2    1    2    0    0  0.28562225525E+01  0.33214550003E+01 -0.18206842927E+02  0.72461569482E+02  0.69999998941E+02 0.  0.
        -12    1    1    2    0    0 -0.28562225525E+01 -0.33214550003E+01  0.18206842927E+02  0.18726430518E+02  0.00000000000E+00 0.  1.
         11    1    3    3    0    0  0.43738017002E+01  0.33754432839E+02 -0.68229334579E+01  0.34713747980E+02  0.51100000000E-03 0. -1.
        -11    1    3    3    0    0 -0.62589913143E+01 -0.54412728080E+01  0.26363323493E+01  0.87024519856E+01  0.51100000000E-03 0.  1.
        -12    1    3    3    0    0  0.47414121666E+01 -0.24991705031E+02 -0.14020241818E+02  0.29045369516E+02  0.00000000000E+00 0.  1.
</event>
<event>
 7    1  0.2700104E-013  0.7246160E+02  0.7816164E-02  0.1226708E+00
        -11   -1    0    0    0    0  0.00000000000E+00  0.00000000000E+00  0.45593999997E+02  0.45594000000E+02  0.51100000000E-03 0. -1.
         11   -1    0    0    0    0 -0.00000000000E+00 -0.00000000000E+00 -0.45593999997E+02  0.45594000000E+02  0.51100000000E-03 0.  1.
    9900012    2    1    2    0    0  0.13432617330E+02  0.97402083527E+01 -0.86816609178E+01  0.72461598760E+02  0.70000037082E+02 0.  0.
        -12    1    1    2    0    0 -0.13432617330E+02 -0.97402083527E+01  0.86816609178E+01  0.18726401240E+02  0.00000000000E+00 0.  1.
         11    1    3    3    0    0 -0.14351854283E+02  0.12637424398E+01  0.78620353565E+01  0.16412932904E+02  0.51100000000E-03 0. -1.
        -11    1    3    3    0    0  0.22024633410E+02 -0.62985216661E+00  0.12316682540E+02  0.25242461442E+02  0.51100000000E-03 0.  1.
        -12    1    3    3    0    0  0.57598382026E+01  0.91063180796E+01 -0.28860378815E+02  0.30806204414E+02  0.00000000000E+00 0.  1.
</event>
<event>
 7    1  0.2700104E-013  0.7246155E+02  0.7816164E-02  0.1226708E+00
        -11   -1    0    0    0    0  0.00000000000E+00  0.00000000000E+00  0.45593999997E+02  0.45594000000E+02  0.51100000000E-03 0. -1.
         11   -1    0    0    0    0 -0.00000000000E+00 -0.00000000000E+00 -0.45593999997E+02  0.45594000000E+02  0.51100000000E-03 0.  1.
    9900012    2    1    2    0    0  0.16555791597E+02 -0.33165265790E+01  0.80985310862E+01  0.72461553735E+02  0.69999978429E+02 0.  0.
        -12    1    1    2    0    0 -0.16555791597E+02  0.33165265790E+01 -0.80985310862E+01  0.18726446265E+02  0.00000000000E+00 0.  1.
         11    1    3    3    0    0 -0.85265117068E+01 -0.38173426964E+01  0.22699500929E+02  0.24546707515E+02  0.51100000000E-03 0. -1.
        -11    1    3    3    0    0  0.84526809032E+01  0.20065055119E+01  0.13012130233E+02  0.15645747419E+02  0.51100000000E-03 0.  1.
        -12    1    3    3    0    0  0.16629622400E+02 -0.15056893945E+01 -0.27613100075E+02  0.32269098802E+02  0.00000000000E+00 0.  1.
</event>
<event>
 7    1  0.2700104E-013  0.7246159E+02  0.7816164E-02  0.1226708E+00
        -11   -1    0    0    0    0  0.00000000000E+00  0.00000000000E+00  0.45593999997E+02  0.45594000000E+02  0.51100000000E-03 0.  1.
         11   -1    0    0    0    0 -0.00000000000E+00 -0.00000000000E+00 -0.45593999997E+02  0.45594000000E+02  0.51100000000E-03 0. -1.
    9900012    2    1    2    0    0 -0.12605161199E+02  0.80539841937E+01 -0.11265957374E+02  0.72461586948E+02  0.70000021694E+02 0.  0.
        -12    1    1    2    0    0  0.12605161199E+02 -0.80539841937E+01  0.11265957374E+02  0.18726413052E+02  0.00000000000E+00 0.  1.
         11    1    3    3    0    0  0.70722677165E+01  0.45044185860E+01 -0.34988597744E+01  0.90856357748E+01  0.51100000000E-03 0. -1.
        -11    1    3    3    0    0 -0.10891536779E+02  0.29736212433E+02  0.64382743514E+01  0.32315929202E+02  0.51100000000E-03 0.  1.
         12    1    3    3    0    0 -0.87858921367E+01 -0.26186646825E+02 -0.14205371951E+02  0.31060021971E+02  0.00000000000E+00 0. -1.
</event>
<event>
 7    1  0.2700104E-013  0.7246154E+02  0.7816164E-02  0.1226708E+00
        -11   -1    0    0    0    0  0.00000000000E+00  0.00000000000E+00  0.45593999997E+02  0.45594000000E+02  0.51100000000E-03 0. -1.
         11   -1    0    0    0    0 -0.00000000000E+00 -0.00000000000E+00 -0.45593999997E+02  0.45594000000E+02  0.51100000000E-03 0.  1.
    9900012    2    1    2    0    0 -0.11392928368E+02  0.12500613674E+02  0.80384157579E+01  0.72461540460E+02  0.69999961135E+02 0.  0.
        -12    1    1    2    0    0  0.11392928368E+02 -0.12500613674E+02 -0.80384157579E+01  0.18726459540E+02  0.00000000000E+00 0.  1.
         11    1    3    3    0    0  0.50386132227E+01 -0.64884018675E+01 -0.51520827419E+01  0.96969551326E+01  0.51100000000E-03 0.  1.
        -11    1    3    3    0    0 -0.27391346710E+02  0.27830542946E+02 -0.54239445795E+01  0.39423903540E+02  0.51100000000E-03 0. -1.
         12    1    3    3    0    0  0.10959805120E+02 -0.88415274054E+01  0.18614443079E+02  0.23340681787E+02  0.00000000000E+00 0. -1.
</event>
<event>
 7    1  0.2700104E-013  0.7246158E+02  0.7816164E-02  0.1226708E+00
        -11   -1    0    0    0    0  0.00000000000E+00  0.00000000000E+00  0.45593999997E+02  0.45594000000E+02  0.51100000000E-03 0. -1.
         11   -1    0    0    0    0 -0.00000000000E+00 -0.00000000000E+00 -0.45593999997E+02  0.45594000000E+02  0.51100000000E-03 0.  1.
    9900012    2    1    2    0    0 -0.11725493393E+02 -0.89294341532E+01 -0.11552351127E+02  0.72461579996E+02  0.70000012639E+02 0.  0.
        -12    1    1    2    0    0  0.11725493393E+02  0.89294341532E+01  0.11552351127E+02  0.18726420004E+02  0.00000000000E+00 0.  1.
         11    1    3    3    0    0  0.54324907103E+01  0.82808568735E+01  0.15660046226E+01  0.10026809892E+02  0.51100000000E-03 0. -1.
        -11    1    3    3    0    0 -0.54795521333E+00  0.17165258386E+02 -0.16868776788E+02  0.24072847379E+02  0.51100000000E-03 0.  1.
         12    1    3    3    0    0 -0.16610028890E+02 -0.34375549413E+02  0.37504210382E+01  0.38361922725E+02  0.00000000000E+00 0. -1.
</event>
<event>
 7    1  0.2700104E-013  0.7246159E+02  0.7816164E-02  0.1226708E+00
        -11   -1    0    0    0    0  0.00000000000E+00  0.00000000000E+00  0.45593999997E+02  0.45594000000E+02  0.51100000000E-03 0.  1.
         11   -1    0    0    0    0 -0.00000000000E+00 -0.00000000000E+00 -0.45593999997E+02  0.45594000000E+02  0.51100000000E-03 0. -1.
    9900012    2    1    2    0    0 -0.64196968004E+00 -0.18585419748E+02 -0.22019215510E+01  0.72461590553E+02  0.70000026391E+02 0.  0.
        -12    1    1    2    0    0  0.64196968004E+00  0.18585419748E+02  0.22019215510E+01  0.18726409447E+02  0.00000000000E+00 0.  1.
         11    1    3    3    0    0  0.18262045468E+02 -0.29007002803E+02 -0.16924157275E+02  0.38227419688E+02  0.51100000000E-03 0. -1.
        -11    1    3    3    0    0  0.46453623358E+01  0.30908776680E+01  0.56875371647E+01  0.79674961720E+01  0.51100000000E-03 0.  1.
         12    1    3    3    0    0 -0.23549377483E+02  0.73307053879E+01  0.90346985594E+01  0.26266674693E+02  0.00000000000E+00 0. -1.
</event>
<event>
 7    1  0.2700104E-013  0.7246162E+02  0.7816164E-02  0.1226708E+00
        -11   -1    0    0    0    0  0.00000000000E+00  0.00000000000E+00  0.45593999997E+02  0.45594000000E+02  0.51100000000E-03 0.  1.
         11   -1    0    0    0    0 -0.00000000000E+00 -0.00000000000E+00 -0.45593999997E+02  0.45594000000E+02  0.51100000000E-03 0. -1.
    9900012    2    1    2    0    0  0.15672043261E+02  0.83090775377E+01 -0.60019802928E+01  0.72461615487E+02  0.70000058872E+02 0.  0.
        -12    1    1    2    0    0 -0.15672043261E+02 -0.83090775377E+01  0.60019802928E+01  0.18726384513E+02  0.00000000000E+00 0.  1.
         11    1    3    3    0    0  0.26609320702E+01  0.34980292325E+01 -0.43829017747E+01  0.62069796376E+01  0.51100000000E-03 0. -1.
        -11    1    3    3    0    0  0.28447575180E+02  0.20995864571E+02  0.14983067091E+02  0.38400301593E+02  0.51100000000E-03 0.  1.
         12    1    3    3    0    0 -0.15436463989E+02 -0.16184816266E+02 -0.16602145609E+02  0.27854334256E+02  0.00000000000E+00 0. -1.
</event>
<event>
 7    1  0.2700104E-013  0.7246157E+02  0.7816164E-02  0.1226708E+00
        -11   -1    0    0    0    0  0.00000000000E+00  0.00000000000E+00  0.45593999997E+02  0.45594000000E+02  0.51100000000E-03 0. -1.
         11   -1    0    0    0    0 -0.00000000000E+00 -0.00000000000E+00 -0.45593999997E+02  0.45594000000E+02  0.51100000000E-03 0.  1.
    9900012    2    1    2    0    0  0.12888895617E+02 -0.83016336164E+00  0.13559732495E+02  0.72461570902E+02  0.70000000791E+02 0.  0.
        -12    1    1    2    0    0 -0.12888895617E+02  0.83016336164E+00 -0.13559732495E+02  0.18726429098E+02  0.00000000000E+00 0.  1.
         11    1    3    3    0    0 -0.46902847173E+01  0.18845852695E+02 -0.63744797189E+01  0.20440130295E+02  0.51100000000E-03 0. -1.
        -11    1    3    3    0    0 -0.67775145280E+01  0.40479003516E+01 -0.54475203271E+01  0.95914377655E+01  0.51100000000E-03 0.  1.
        -12    1    3    3    0    0  0.24356694862E+02 -0.23723916408E+02  0.25381732541E+02  0.42430002842E+02  0.00000000000E+00 0.  1.
</event>
<event>
 7    1  0.2700104E-013  0.7246157E+02  0.7816164E-02  0.1226708E+00
        -11   -1    0    0    0    0  0.00000000000E+00  0.00000000000E+00  0.45593999997E+02  0.45594000000E+02  0.51100000000E-03 0. -1.
         11   -1    0    0    0    0 -0.00000000000E+00 -0.00000000000E+00 -0.45593999997E+02  0.45594000000E+02  0.51100000000E-03 0.  1.
    9900012    2    1    2    0    0 -0.15950689937E+02  0.78351854800E+01 -0.59046190017E+01  0.72461570374E+02  0.70000000104E+02 0.  0.
        -12    1    1    2    0    0  0.15950689937E+02 -0.78351854800E+01  0.59046190017E+01  0.18726429626E+02  0.00000000000E+00 0.  1.
         11    1    3    3    0    0 -0.32073506224E+01  0.65183134218E+01  0.88105019611E+01  0.11419301771E+02  0.51100000000E-03 0. -1.
        -11    1    3    3    0    0 -0.23715200560E+02 -0.95401568584E+01  0.13479842246E+02  0.28898641451E+02  0.51100000000E-03 0.  1.
         12    1    3    3    0    0  0.10971861245E+02  0.10857028917E+02 -0.28194963209E+02  0.32143627151E+02  0.00000000000E+00 0. -1.
</event>
<event>
 7    1  0.2700104E-013  0.7246156E+02  0.7816164E-02  0.1226708E+00
        -11   -1    0    0    0    0  0.00000000000E+00  0.00000000000E+00  0.45593999997E+02  0.45594000000E+02  0.51100000000E-03 0. -1.
         11   -1    0    0    0    0 -0.00000000000E+00 -0.00000000000E+00 -0.45593999997E+02  0.45594000000E+02  0.51100000000E-03 0.  1.
    9900012    2    1    2    0    0  0.40042208787E+00  0.12898805775E+02  0.13569821909E+02  0.72461558937E+02  0.69999985205E+02 0.  0.
        -12    1    1    2    0    0 -0.40042208787E+00 -0.12898805775E+02 -0.13569821909E+02  0.18726441063E+02  0.00000000000E+00 0.  1.
         11    1    3    3    0    0  0.11233099076E+02 -0.11285902976E+02 -0.10557019156E+02  0.19105098130E+02  0.51100000000E-03 0. -1.
        -11    1    3    3    0    0  0.16826935647E+01  0.33830317626E+01 -0.10447869911E+02  0.11110101146E+02  0.51100000000E-03 0.  1.
         12    1    3    3    0    0 -0.12515370553E+02  0.20801676988E+02  0.34574710975E+02  0.42246359661E+02  0.00000000000E+00 0. -1.
</event>
<event>
 7    1  0.2700104E-013  0.7246158E+02  0.7816164E-02  0.1226708E+00
        -11   -1    0    0    0    0  0.00000000000E+00  0.00000000000E+00  0.45593999997E+02  0.45594000000E+02  0.51100000000E-03 0.  1.
         11   -1    0    0    0    0 -0.00000000000E+00 -0.00000000000E+00 -0.45593999997E+02  0.45594000000E+02  0.51100000000E-03 0. -1.
    9900012    2    1    2    0    0  0.73023560396E+01  0.15150290452E+02 -0.82354773419E+01  0.72461580386E+02  0.70000013146E+02 0.  0.
        -12    1    1    2    0    0 -0.73023560396E+01 -0.15150290452E+02  0.82354773419E+01  0.18726419614E+02  0.00000000000E+00 0.  1.
         11    1    3    3    0    0  0.13378327592E+02  0.34672563308E+02 -0.21125131434E+02  0.42748537681E+02  0.51100000000E-03 0. -1.
        -11    1    3    3    0    0  0.20974390294E+01  0.20901721311E+01 -0.50673170094E+00  0.30041383619E+01  0.51100000000E-03 0.  1.
        -12    1    3    3    0    0 -0.81734105815E+01 -0.21612444987E+02  0.13396385793E+02  0.26708904343E+02  0.00000000000E+00 0.  1.
</event>
<event>
 7    1  0.2700104E-013  0.7246158E+02  0.7816164E-02  0.1226708E+00
        -11   -1    0    0    0    0  0.00000000000E+00  0.00000000000E+00  0.45593999997E+02  0.45594000000E+02  0.51100000000E-03 0.  1.
         11   -1    0    0    0    0 -0.00000000000E+00 -0.00000000000E+00 -0.45593999997E+02  0.45594000000E+02  0.51100000000E-03 0. -1.
    9900012    2    1    2    0    0  0.12154807584E+01 -0.12403242115E+02 -0.13977156616E+02  0.72461582417E+02  0.70000015792E+02 0.  0.
        -12    1    1    2    0    0 -0.12154807584E+01  0.12403242115E+02  0.13977156616E+02  0.18726417583E+02  0.00000000000E+00 0.  1.
         11    1    3    3    0    0 -0.15001798127E+02 -0.19065936462E+02 -0.27827437025E+02  0.36917883632E+02  0.51100000000E-03 0. -1.
        -11    1    3    3    0    0 -0.75569501218E+01 -0.12107194361E+01  0.25367008383E+01  0.80627655367E+01  0.51100000000E-03 0.  1.
         12    1    3    3    0    0  0.23774229007E+02  0.78734137831E+01  0.11313579572E+02  0.27480933248E+02  0.00000000000E+00 0. -1.
</event>
<event>
 7    1  0.2700104E-013  0.7246158E+02  0.7816164E-02  0.1226708E+00
        -11   -1    0    0    0    0  0.00000000000E+00  0.00000000000E+00  0.45593999997E+02  0.45594000000E+02  0.51100000000E-03 0. -1.
         11   -1    0    0    0    0 -0.00000000000E+00 -0.00000000000E+00 -0.45593999997E+02  0.45594000000E+02  0.51100000000E-03 0.  1.
    9900012    2    1    2    0    0  0.62056036246E+01 -0.16948713213E+02  0.49910500076E+01  0.72461575459E+02  0.70000006728E+02 0.  0.
        -12    1    1    2    0    0 -0.62056036246E+01  0.16948713213E+02 -0.49910500076E+01  0.18726424541E+02  0.00000000000E+00 0.  1.
         11    1    3    3    0    0  0.19087338313E+02 -0.15136266515E+02  0.25025216577E+02  0.34924125084E+02  0.51100000000E-03 0. -1.
        -11    1    3    3    0    0 -0.68233583053E+01 -0.10657877274E+02  0.22080051413E+01  0.12846161042E+02  0.51100000000E-03 0.  1.
        -12    1    3    3    0    0 -0.60583763834E+01  0.88454305765E+01 -0.22242171711E+02  0.24691289333E+02  0.00000000000E+00 0.  1.
</event>
<event>
 7    1  0.2700104E-013  0.7246155E+02  0.7816164E-02  0.1226708E+00
        -11   -1    0    0    0    0  0.00000000000E+00  0.00000000000E+00  0.45593999997E+02  0.45594000000E+02  0.51100000000E-03 0.  1.
         11   -1    0    0    0    0 -0.00000000000E+00 -0.00000000000E+00 -0.45593999997E+02  0.45594000000E+02  0.51100000000E-03 0. -1.
    9900012    2    1    2    0    0 -0.11029379960E+02  0.54498953732E+01 -0.14118479945E+02  0.72461546576E+02  0.69999969103E+02 0.  0.
        -12    1    1    2    0    0  0.11029379960E+02 -0.54498953732E+01  0.14118479945E+02  0.18726453424E+02  0.00000000000E+00 0.  1.
         11    1    3    3    0    0 -0.18671708917E+01 -0.50949044655E+01 -0.10004247049E+01  0.55177195019E+01  0.51100000000E-03 0. -1.
        -11    1    3    3    0    0 -0.18065903457E+00 -0.24882556793E+02  0.61439591187E+01  0.25630499491E+02  0.51100000000E-03 0.  1.
         12    1    3    3    0    0 -0.89815500338E+01  0.35427356631E+02 -0.19262014358E+02  0.41313327584E+02  0.00000000000E+00 0. -1.
</event>
<event>
 7    1  0.2700104E-013  0.7246167E+02  0.7816164E-02  0.1226708E+00
        -11   -1    0    0    0    0  0.00000000000E+00  0.00000000000E+00  0.45593999997E+02  0.45594000000E+02  0.51100000000E-03 0.  1.
         11   -1    0    0    0    0 -0.00000000000E+00 -0.00000000000E+00 -0.45593999997E+02  0.45594000000E+02  0.51100000000E-03 0. -1.
    9900012    2    1    2    0    0  0.22238888259E+01 -0.88928706913E+01 -0.16329313257E+02  0.72461673556E+02  0.70000134518E+02 0.  0.
        -12    1    1    2    0    0 -0.22238888259E+01  0.88928706913E+01  0.16329313257E+02  0.18726326444E+02  0.00000000000E+00 0.  1.
         11    1    3    3    0    0  0.10171727346E+02 -0.12896200394E+02  0.57560349116E+01  0.17404251204E+02  0.51100000000E-03 0. -1.
        -11    1    3    3    0    0  0.20824978985E+02  0.57395117088E+01 -0.99186975095E+01  0.23769777132E+02  0.51100000000E-03 0.  1.
         12    1    3    3    0    0 -0.28772817505E+02 -0.17361820058E+01 -0.12166650659E+02  0.31287645220E+02  0.00000000000E+00 0. -1.
</event>
