<event>
 7    1  0.2297343E-008  0.4614232E+02  0.7816164E-02  0.1320468E+00
        -11   -1    0    0    0    0  0.00000000000E+00  0.00000000000E+00  0.45593999997E+02  0.45594000000E+02  0.51100000000E-03 0. -1.
         11   -1    0    0    0    0 -0.00000000000E+00 -0.00000000000E+00 -0.45593999997E+02  0.45594000000E+02  0.51100000000E-03 0.  1.
    9900012    2    1    2    0    0  0.16658646477E+02 -0.21270481072E+02 -0.36043995156E+02  0.46142318139E+02  0.10000003447E+02 0.  0.
         12    1    1    2    0    0 -0.16658646477E+02  0.21270481072E+02  0.36043995156E+02  0.45045681861E+02  0.00000000000E+00 0. -1.
         11    1    3    3    0    0  0.51299532345E+01 -0.40781934018E+01 -0.54826608000E+01  0.85444514932E+01  0.51100000000E-03 0. -1.
        -11    1    3    3    0    0  0.54028960958E+01 -0.12013574991E+02 -0.14157777394E+02  0.19338043627E+02  0.51100000000E-03 0.  1.
        -12    1    3    3    0    0  0.61257971469E+01 -0.51787126789E+01 -0.16403556962E+02  0.18259823019E+02  0.00000000000E+00 0.  1.
</event>
<event>
 7    1  0.2297343E-008  0.4614232E+02  0.7816164E-02  0.1320468E+00
        -11   -1    0    0    0    0  0.00000000000E+00  0.00000000000E+00  0.45593999997E+02  0.45594000000E+02  0.51100000000E-03 0.  1.
         11   -1    0    0    0    0 -0.00000000000E+00 -0.00000000000E+00 -0.45593999997E+02  0.45594000000E+02  0.51100000000E-03 0. -1.
    9900012    2    1    2    0    0  0.72526952758E+01  0.38648661798E+02  0.21972544711E+02  0.46142319090E+02  0.10000012116E+02 0.  0.
         12    1    1    2    0    0 -0.72526952758E+01 -0.38648661798E+02 -0.21972544711E+02  0.45045680910E+02  0.00000000000E+00 0. -1.
         11    1    3    3    0    0 -0.60311592181E+00  0.17177069166E+01 -0.19391245583E+00  0.18308107952E+01  0.51100000000E-03 0. -1.
        -11    1    3    3    0    0  0.27332108401E+01  0.17680352634E+02  0.14264316556E+02  0.22880909900E+02  0.51100000000E-03 0.  1.
         12    1    3    3    0    0  0.51226003575E+01  0.19250602248E+02  0.79021406112E+01  0.21430598395E+02  0.00000000000E+00 0. -1.
</event>
<event>
 7    1  0.2297343E-008  0.4614232E+02  0.7816164E-02  0.1320468E+00
        -11   -1    0    0    0    0  0.00000000000E+00  0.00000000000E+00  0.45593999997E+02  0.45594000000E+02  0.51100000000E-03 0. -1.
         11   -1    0    0    0    0 -0.00000000000E+00 -0.00000000000E+00 -0.45593999997E+02  0.45594000000E+02  0.51100000000E-03 0.  1.
    9900012    2    1    2    0    0 -0.21893667047E+01 -0.25077350473E+02 -0.37355676909E+02  0.46142318401E+02  0.10000005838E+02 0.  0.
         12    1    1    2    0    0  0.21893667047E+01  0.25077350473E+02  0.37355676909E+02  0.45045681599E+02  0.00000000000E+00 0. -1.
         11    1    3    3    0    0  0.39240988692E+01 -0.90293304491E+01 -0.14387802188E+02  0.17433766442E+02  0.51100000000E-03 0.  1.
        -11    1    3    3    0    0 -0.16868106804E+01 -0.62152119282E+01 -0.84916476878E+01  0.10657498313E+02  0.51100000000E-03 0. -1.
        -12    1    3    3    0    0 -0.44266548935E+01 -0.98328080963E+01 -0.14476227033E+02  0.18051053646E+02  0.00000000000E+00 0.  1.
</event>
<event>
 7    1  0.2297343E-008  0.4614232E+02  0.7816164E-02  0.1320468E+00
        -11   -1    0    0    0    0  0.00000000000E+00  0.00000000000E+00  0.45593999997E+02  0.45594000000E+02  0.51100000000E-03 0.  1.
         11   -1    0    0    0    0 -0.00000000000E+00 -0.00000000000E+00 -0.45593999997E+02  0.45594000000E+02  0.51100000000E-03 0. -1.
    9900012    2    1    2    0    0 -0.32827682908E+01 -0.33675846202E+02  0.29736750231E+02  0.46142317639E+02  0.99999988841E+01 0.  0.
         12    1    1    2    0    0  0.32827682908E+01  0.33675846202E+02 -0.29736750231E+02  0.45045682361E+02  0.00000000000E+00 0. -1.
         11    1    3    3    0    0 -0.93981340747E+00 -0.52382586750E+00  0.13152423466E+01  0.16992661568E+01  0.51100000000E-03 0. -1.
        -11    1    3    3    0    0  0.20618701015E+01 -0.40512708552E+01  0.55177830198E+01  0.71491281687E+01  0.51100000000E-03 0.  1.
        -12    1    3    3    0    0 -0.44048249848E+01 -0.29100749480E+02  0.22903724865E+02  0.37293923313E+02  0.00000000000E+00 0.  1.
</event>
<event>
 7    1  0.2297343E-008  0.4614232E+02  0.7816164E-02  0.1320468E+00
        -11   -1    0    0    0    0  0.00000000000E+00  0.00000000000E+00  0.45593999997E+02  0.45594000000E+02  0.51100000000E-03 0. -1.
         11   -1    0    0    0    0 -0.00000000000E+00 -0.00000000000E+00 -0.45593999997E+02  0.45594000000E+02  0.51100000000E-03 0.  1.
    9900012    2    1    2    0    0  0.32159807374E+02  0.28352469417E+02  0.13820190480E+02  0.46142318772E+02  0.10000009219E+02 0.  0.
         12    1    1    2    0    0 -0.32159807374E+02 -0.28352469417E+02 -0.13820190480E+02  0.45045681228E+02  0.00000000000E+00 0. -1.
         11    1    3    3    0    0  0.14481070536E+02  0.14364939171E+02  0.69768850307E+01  0.21557592775E+02  0.51100000000E-03 0. -1.
        -11    1    3    3    0    0  0.36134176016E+01  0.70209723152E+01  0.27790459792E+01  0.83710176101E+01  0.51100000000E-03 0.  1.
         12    1    3    3    0    0  0.14065319236E+02  0.69665579312E+01  0.40642594703E+01  0.16213708387E+02  0.00000000000E+00 0. -1.
</event>
<event>
 7    1  0.2297343E-008  0.4614232E+02  0.7816164E-02  0.1320468E+00
        -11   -1    0    0    0    0  0.00000000000E+00  0.00000000000E+00  0.45593999997E+02  0.45594000000E+02  0.51100000000E-03 0.  1.
         11   -1    0    0    0    0 -0.00000000000E+00 -0.00000000000E+00 -0.45593999997E+02  0.45594000000E+02  0.51100000000E-03 0. -1.
    9900012    2    1    2    0    0  0.26362057156E+02  0.36359766913E+02  0.34817917649E+01  0.46142316729E+02  0.99999905877E+01 0.  0.
         12    1    1    2    0    0 -0.26362057156E+02 -0.36359766913E+02 -0.34817917649E+01  0.45045683271E+02  0.00000000000E+00 0. -1.
         11    1    3    3    0    0  0.13278144830E+02  0.12840480506E+02  0.16390343270E+01  0.18543826562E+02  0.51100000000E-03 0. -1.
        -11    1    3    3    0    0  0.52539039409E+01  0.47278828807E+01  0.15648565755E+01  0.72391407996E+01  0.51100000000E-03 0.  1.
        -12    1    3    3    0    0  0.78300083850E+01  0.18791403526E+02  0.27790086248E+00  0.20359349367E+02  0.00000000000E+00 0.  1.
</event>
<event>
 7    1  0.2297343E-008  0.4614232E+02  0.7816164E-02  0.1320468E+00
        -11   -1    0    0    0    0  0.00000000000E+00  0.00000000000E+00  0.45593999997E+02  0.45594000000E+02  0.51100000000E-03 0. -1.
         11   -1    0    0    0    0 -0.00000000000E+00 -0.00000000000E+00 -0.45593999997E+02  0.45594000000E+02  0.51100000000E-03 0.  1.
    9900012    2    1    2    0    0 -0.35871436056E+02  0.20212633292E+02  0.18270271685E+02  0.46142319887E+02  0.10000019388E+02 0.  0.
         12    1    1    2    0    0  0.35871436056E+02 -0.20212633292E+02 -0.18270271685E+02  0.45045680113E+02  0.00000000000E+00 0. -1.
         11    1    3    3    0    0 -0.46445006204E+00  0.23606361842E+01  0.22385356960E+01  0.32862378760E+01  0.51100000000E-03 0. -1.
        -11    1    3    3    0    0 -0.21054403541E+02  0.92479547464E+01  0.98521730631E+01  0.25017551635E+02  0.51100000000E-03 0.  1.
         12    1    3    3    0    0 -0.14352582453E+02  0.86040423617E+01  0.61795629264E+01  0.17838530377E+02  0.00000000000E+00 0. -1.
</event>
<event>
 7    1  0.2297343E-008  0.4614232E+02  0.7816164E-02  0.1320468E+00
        -11   -1    0    0    0    0  0.00000000000E+00  0.00000000000E+00  0.45593999997E+02  0.45594000000E+02  0.51100000000E-03 0. -1.
         11   -1    0    0    0    0 -0.00000000000E+00 -0.00000000000E+00 -0.45593999997E+02  0.45594000000E+02  0.51100000000E-03 0.  1.
    9900012    2    1    2    0    0 -0.77445552553E+00  0.21767344695E+02 -0.39429638553E+02  0.46142317934E+02  0.10000001575E+02 0.  0.
         12    1    1    2    0    0  0.77445552553E+00 -0.21767344695E+02  0.39429638553E+02  0.45045682066E+02  0.00000000000E+00 0. -1.
         11    1    3    3    0    0 -0.26956893296E+01  0.18912065137E+02 -0.36702866331E+02  0.41376724687E+02  0.51100000000E-03 0. -1.
        -11    1    3    3    0    0  0.10542129296E+01  0.12010102136E+01 -0.23788064659E+01  0.28657478775E+01  0.51100000000E-03 0.  1.
         12    1    3    3    0    0  0.86702087452E+00  0.16542693435E+01 -0.34796575616E+00  0.18998453688E+01  0.00000000000E+00 0. -1.
</event>
<event>
 7    1  0.2297343E-008  0.4614232E+02  0.7816164E-02  0.1320468E+00
        -11   -1    0    0    0    0  0.00000000000E+00  0.00000000000E+00  0.45593999997E+02  0.45594000000E+02  0.51100000000E-03 0. -1.
         11   -1    0    0    0    0 -0.00000000000E+00 -0.00000000000E+00 -0.45593999997E+02  0.45594000000E+02  0.51100000000E-03 0.  1.
    9900012    2    1    2    0    0  0.10211778738E+02 -0.24580293355E+02 -0.36340642302E+02  0.46142317306E+02  0.99999958534E+01 0.  0.
         12    1    1    2    0    0 -0.10211778738E+02  0.24580293355E+02  0.36340642302E+02  0.45045682694E+02  0.00000000000E+00 0. -1.
         11    1    3    3    0    0 -0.57159777139E-01 -0.48218937469E+01 -0.63480854252E+01  0.79719580640E+01  0.51100000000E-03 0.  1.
        -11    1    3    3    0    0 -0.62562121536E+00 -0.44088480276E-01 -0.27570804031E+01  0.28275145109E+01  0.51100000000E-03 0. -1.
        -12    1    3    3    0    0  0.10894559731E+02 -0.19714311127E+02 -0.27235476474E+02  0.35342844731E+02  0.00000000000E+00 0.  1.
</event>
<event>
 7    1  0.2297343E-008  0.4614232E+02  0.7816164E-02  0.1320468E+00
        -11   -1    0    0    0    0  0.00000000000E+00  0.00000000000E+00  0.45593999997E+02  0.45594000000E+02  0.51100000000E-03 0. -1.
         11   -1    0    0    0    0 -0.00000000000E+00 -0.00000000000E+00 -0.45593999997E+02  0.45594000000E+02  0.51100000000E-03 0.  1.
    9900012    2    1    2    0    0 -0.38558501431E+02  0.91088003153E+00 -0.23270704686E+02  0.46142318391E+02  0.10000005746E+02 0.  0.
         12    1    1    2    0    0  0.38558501431E+02 -0.91088003153E+00  0.23270704686E+02  0.45045681609E+02  0.00000000000E+00 0. -1.
         11    1    3    3    0    0 -0.49513546232E+01 -0.24603579438E+00 -0.24609544661E+01  0.55346854800E+01  0.51100000000E-03 0. -1.
        -11    1    3    3    0    0 -0.28055645392E+02 -0.16223586247E+01 -0.14013822240E+02  0.31402842227E+02  0.51100000000E-03 0.  1.
         12    1    3    3    0    0 -0.55515014152E+01  0.27792744506E+01 -0.67959279799E+01  0.92047906843E+01  0.00000000000E+00 0. -1.
</event>
<event>
 7    1  0.2297343E-008  0.4614232E+02  0.7816164E-02  0.1320468E+00
        -11   -1    0    0    0    0  0.00000000000E+00  0.00000000000E+00  0.45593999997E+02  0.45594000000E+02  0.51100000000E-03 0.  1.
         11   -1    0    0    0    0 -0.00000000000E+00 -0.00000000000E+00 -0.45593999997E+02  0.45594000000E+02  0.51100000000E-03 0. -1.
    9900012    2    1    2    0    0  0.26676208684E+02  0.29144288002E+00  0.36296121100E+02  0.46142318125E+02  0.10000003317E+02 0.  0.
         12    1    1    2    0    0 -0.26676208684E+02 -0.29144288002E+00 -0.36296121100E+02  0.45045681875E+02  0.00000000000E+00 0. -1.
         11    1    3    3    0    0  0.47484998282E+01 -0.26973677915E+01  0.59827946973E+01  0.81004861751E+01  0.51100000000E-03 0. -1.
        -11    1    3    3    0    0  0.80650260196E+00 -0.63671938957E+00  0.14648510002E+00  0.10379384248E+01  0.51100000000E-03 0.  1.
        -12    1    3    3    0    0  0.21121206253E+02  0.36255300611E+01  0.30166841303E+02  0.37003893525E+02  0.00000000000E+00 0.  1.
</event>
<event>
 7    1  0.2297343E-008  0.4614232E+02  0.7816164E-02  0.1320468E+00
        -11   -1    0    0    0    0  0.00000000000E+00  0.00000000000E+00  0.45593999997E+02  0.45594000000E+02  0.51100000000E-03 0.  1.
         11   -1    0    0    0    0 -0.00000000000E+00 -0.00000000000E+00 -0.45593999997E+02  0.45594000000E+02  0.51100000000E-03 0. -1.
    9900012    2    1    2    0    0  0.28354143149E+01 -0.44253512174E+02  0.79183711904E+01  0.46142317450E+02  0.99999971662E+01 0.  0.
         12    1    1    2    0    0 -0.28354143149E+01  0.44253512174E+02 -0.79183711904E+01  0.45045682550E+02  0.00000000000E+00 0. -1.
         11    1    3    3    0    0  0.82651928956E+00 -0.18267827421E+01  0.53003859929E+00  0.20739359924E+01  0.51100000000E-03 0. -1.
        -11    1    3    3    0    0  0.39152573503E+01 -0.39210502358E+02  0.52291656732E+01  0.39750935954E+02  0.51100000000E-03 0.  1.
         12    1    3    3    0    0 -0.19063623249E+01 -0.32162270737E+01  0.21591669179E+01  0.43174455043E+01  0.00000000000E+00 0. -1.
</event>
<event>
 7    1  0.2297343E-008  0.4614232E+02  0.7816164E-02  0.1320468E+00
        -11   -1    0    0    0    0  0.00000000000E+00  0.00000000000E+00  0.45593999997E+02  0.45594000000E+02  0.51100000000E-03 0.  1.
         11   -1    0    0    0    0 -0.00000000000E+00 -0.00000000000E+00 -0.45593999997E+02  0.45594000000E+02  0.51100000000E-03 0. -1.
    9900012    2    1    2    0    0  0.21013502116E+02 -0.13500141348E+02  0.37487229936E+02  0.46142317678E+02  0.99999992419E+01 0.  0.
         12    1    1    2    0    0 -0.21013502116E+02  0.13500141348E+02 -0.37487229936E+02  0.45045682322E+02  0.00000000000E+00 0. -1.
         11    1    3    3    0    0  0.84788301179E+01 -0.58304544356E+01  0.11341806801E+02  0.15314089619E+02  0.51100000000E-03 0.  1.
        -11    1    3    3    0    0  0.17792507025E+01 -0.18230950677E+01  0.78152889009E+00  0.26646193640E+01  0.51100000000E-03 0. -1.
        -12    1    3    3    0    0  0.10755421296E+02 -0.58465918447E+01  0.25363894245E+02  0.28163608695E+02  0.00000000000E+00 0.  1.
</event>
<event>
 7    1  0.2297343E-008  0.4614232E+02  0.7816164E-02  0.1320468E+00
        -11   -1    0    0    0    0  0.00000000000E+00  0.00000000000E+00  0.45593999997E+02  0.45594000000E+02  0.51100000000E-03 0.  1.
         11   -1    0    0    0    0 -0.00000000000E+00 -0.00000000000E+00 -0.45593999997E+02  0.45594000000E+02  0.51100000000E-03 0. -1.
    9900012    2    1    2    0    0 -0.27887643427E+02 -0.14826137014E+01  0.35343948231E+02  0.46142317900E+02  0.10000001266E+02 0.  0.
         12    1    1    2    0    0  0.27887643427E+02  0.14826137014E+01 -0.35343948231E+02  0.45045682100E+02  0.00000000000E+00 0. -1.
         11    1    3    3    0    0 -0.12733762245E+02 -0.19618680592E+01  0.10436907716E+02  0.16580912825E+02  0.51100000000E-03 0. -1.
        -11    1    3    3    0    0 -0.70270880636E+01 -0.21904886613E+01  0.11067509875E+02  0.13291650850E+02  0.51100000000E-03 0.  1.
         12    1    3    3    0    0 -0.81267931188E+01  0.26697430191E+01  0.13839530641E+02  0.16269754225E+02  0.00000000000E+00 0. -1.
</event>
<event>
 7    1  0.2297343E-008  0.4614232E+02  0.7816164E-02  0.1320468E+00
        -11   -1    0    0    0    0  0.00000000000E+00  0.00000000000E+00  0.45593999997E+02  0.45594000000E+02  0.51100000000E-03 0. -1.
         11   -1    0    0    0    0 -0.00000000000E+00 -0.00000000000E+00 -0.45593999997E+02  0.45594000000E+02  0.51100000000E-03 0.  1.
    9900012    2    1    2    0    0  0.13394620230E+02 -0.10747660434E+02 -0.41643552225E+02  0.46142317655E+02  0.99999990364E+01 0.  0.
         12    1    1    2    0    0 -0.13394620230E+02  0.10747660434E+02  0.41643552225E+02  0.45045682345E+02  0.00000000000E+00 0. -1.
         11    1    3    3    0    0  0.14003405845E+01 -0.24471453191E+01 -0.29991837848E+01  0.41163791859E+01  0.51100000000E-03 0. -1.
        -11    1    3    3    0    0  0.12376614516E+02 -0.92396816386E+01 -0.36996717038E+02  0.40091263082E+02  0.51100000000E-03 0.  1.
         12    1    3    3    0    0 -0.38233486965E+00  0.93916652331E+00 -0.16476514025E+01  0.19346753876E+01  0.00000000000E+00 0. -1.
</event>
<event>
 7    1  0.2297343E-008  0.4614232E+02  0.7816164E-02  0.1320468E+00
        -11   -1    0    0    0    0  0.00000000000E+00  0.00000000000E+00  0.45593999997E+02  0.45594000000E+02  0.51100000000E-03 0. -1.
         11   -1    0    0    0    0 -0.00000000000E+00 -0.00000000000E+00 -0.45593999997E+02  0.45594000000E+02  0.51100000000E-03 0.  1.
    9900012    2    1    2    0    0  0.32936490366E+02 -0.13764374148E+02 -0.27474405269E+02  0.46142319428E+02  0.10000015202E+02 0.  0.
         12    1    1    2    0    0 -0.32936490366E+02  0.13764374148E+02  0.27474405269E+02  0.45045680572E+02  0.00000000000E+00 0. -1.
         11    1    3    3    0    0  0.71259432106E+01 -0.64543291357E+01 -0.51094492684E+01  0.10887786888E+02  0.51100000000E-03 0. -1.
        -11    1    3    3    0    0  0.23444673748E+02 -0.75863242696E+01 -0.21554794451E+02  0.32738573689E+02  0.51100000000E-03 0.  1.
        -12    1    3    3    0    0  0.23658734071E+01  0.27627925704E+00 -0.81016154898E+00  0.25159588513E+01  0.00000000000E+00 0.  1.
</event>
<event>
 7    1  0.2297343E-008  0.4614232E+02  0.7816164E-02  0.1320468E+00
        -11   -1    0    0    0    0  0.00000000000E+00  0.00000000000E+00  0.45593999997E+02  0.45594000000E+02  0.51100000000E-03 0.  1.
         11   -1    0    0    0    0 -0.00000000000E+00 -0.00000000000E+00 -0.45593999997E+02  0.45594000000E+02  0.51100000000E-03 0. -1.
    9900012    2    1    2    0    0 -0.42027577370E+02 -0.44820426123E+01  0.15579074288E+02  0.46142317396E+02  0.99999966726E+01 0.  0.
         12    1    1    2    0    0  0.42027577370E+02  0.44820426123E+01 -0.15579074288E+02  0.45045682604E+02  0.00000000000E+00 0. -1.
         11    1    3    3    0    0 -0.43044890885E+01  0.57972108818E+00  0.23884702525E+01  0.49567623769E+01  0.51100000000E-03 0. -1.
        -11    1    3    3    0    0 -0.33764792874E+02 -0.19638619834E+01  0.10154535679E+02  0.35313348565E+02  0.51100000000E-03 0.  1.
         12    1    3    3    0    0 -0.39582954071E+01 -0.30979017171E+01  0.30360683568E+01  0.58722064546E+01  0.00000000000E+00 0. -1.
</event>
<event>
 7    1  0.2297343E-008  0.4614231E+02  0.7816164E-02  0.1320468E+00
        -11   -1    0    0    0    0  0.00000000000E+00  0.00000000000E+00  0.45593999997E+02  0.45594000000E+02  0.51100000000E-03 0.  1.
         11   -1    0    0    0    0 -0.00000000000E+00 -0.00000000000E+00 -0.45593999997E+02  0.45594000000E+02  0.51100000000E-03 0. -1.
    9900012    2    1    2    0    0  0.26389603116E+02  0.24969966082E+02 -0.26630886455E+02  0.46142306841E+02  0.99999004230E+01 0.  0.
         12    1    1    2    0    0 -0.26389603116E+02 -0.24969966082E+02  0.26630886455E+02  0.45045693159E+02  0.00000000000E+00 0. -1.
         11    1    3    3    0    0  0.96505141964E+01  0.49542373193E+01 -0.78818219634E+01  0.13408952584E+02  0.51100000000E-03 0. -1.
        -11    1    3    3    0    0  0.13363196926E+02  0.12406233586E+02 -0.10638358378E+02  0.21110763442E+02  0.51100000000E-03 0.  1.
        -12    1    3    3    0    0  0.33758919945E+01  0.76094951765E+01 -0.81107061139E+01  0.11622590816E+02  0.00000000000E+00 0.  1.
</event>
<event>
 7    1  0.2297343E-008  0.4614232E+02  0.7816164E-02  0.1320468E+00
        -11   -1    0    0    0    0  0.00000000000E+00  0.00000000000E+00  0.45593999997E+02  0.45594000000E+02  0.51100000000E-03 0. -1.
         11   -1    0    0    0    0 -0.00000000000E+00 -0.00000000000E+00 -0.45593999997E+02  0.45594000000E+02  0.51100000000E-03 0.  1.
    9900012    2    1    2    0    0 -0.37494854067E+02  0.95296065212E+00  0.24946769763E+02  0.46142317220E+02  0.99999950647E+01 0.  0.
         12    1    1    2    0    0  0.37494854067E+02 -0.95296065212E+00 -0.24946769763E+02  0.45045682780E+02  0.00000000000E+00 0. -1.
         11    1    3    3    0    0 -0.41948393175E+01  0.13474983220E+01  0.42906070337E+01  0.61499380164E+01  0.51100000000E-03 0. -1.
        -11    1    3    3    0    0 -0.75755771253E+01 -0.17738750983E+01  0.84470558192E+01  0.11484282908E+02  0.51100000000E-03 0.  1.
        -12    1    3    3    0    0 -0.25724437624E+02  0.13793374285E+01  0.12209106910E+02  0.28508096295E+02  0.00000000000E+00 0.  1.
</event>
<event>
 7    1  0.2297343E-008  0.4614232E+02  0.7816164E-02  0.1320468E+00
        -11   -1    0    0    0    0  0.00000000000E+00  0.00000000000E+00  0.45593999997E+02  0.45594000000E+02  0.51100000000E-03 0.  1.
         11   -1    0    0    0    0 -0.00000000000E+00 -0.00000000000E+00 -0.45593999997E+02  0.45594000000E+02  0.51100000000E-03 0. -1.
    9900012    2    1    2    0    0  0.15323288319E+02  0.41281501439E+02  0.94946309481E+01  0.46142317157E+02  0.99999944870E+01 0.  0.
         12    1    1    2    0    0 -0.15323288319E+02 -0.41281501439E+02 -0.94946309481E+01  0.45045682843E+02  0.00000000000E+00 0. -1.
         11    1    3    3    0    0  0.74872127351E+00  0.10155371416E+02  0.36302353415E+01  0.10810678103E+02  0.51100000000E-03 0. -1.
        -11    1    3    3    0    0  0.13785721887E+01  0.87447567455E+01  0.17965604541E+01  0.90332088177E+01  0.51100000000E-03 0.  1.
        -12    1    3    3    0    0  0.13195994857E+02  0.22381373277E+02  0.40678351526E+01  0.26298430236E+02  0.00000000000E+00 0.  1.
</event>
<event>
 7    1  0.2297343E-008  0.4614231E+02  0.7816164E-02  0.1320468E+00
        -11   -1    0    0    0    0  0.00000000000E+00  0.00000000000E+00  0.45593999997E+02  0.45594000000E+02  0.51100000000E-03 0.  1.
         11   -1    0    0    0    0 -0.00000000000E+00 -0.00000000000E+00 -0.45593999997E+02  0.45594000000E+02  0.51100000000E-03 0. -1.
    9900012    2    1    2    0    0  0.37678450997E+02 -0.21024152068E+02  0.12939599330E+02  0.46142313520E+02  0.99999613236E+01 0.  0.
         12    1    1    2    0    0 -0.37678450997E+02  0.21024152068E+02 -0.12939599330E+02  0.45045686480E+02  0.00000000000E+00 0. -1.
         11    1    3    3    0    0  0.99570544021E+01 -0.22397902128E+01  0.36985986310E+01  0.10855377684E+02  0.51100000000E-03 0. -1.
        -11    1    3    3    0    0  0.20607794049E+02 -0.12572771317E+02  0.92253025209E+01  0.25843025385E+02  0.51100000000E-03 0.  1.
         12    1    3    3    0    0  0.71136025451E+01 -0.62115905374E+01  0.15698177908E-01  0.94439104510E+01  0.00000000000E+00 0. -1.
</event>
<event>
 7    1  0.2297343E-008  0.4614232E+02  0.7816164E-02  0.1320468E+00
        -11   -1    0    0    0    0  0.00000000000E+00  0.00000000000E+00  0.45593999997E+02  0.45594000000E+02  0.51100000000E-03 0.  1.
         11   -1    0    0    0    0 -0.00000000000E+00 -0.00000000000E+00 -0.45593999997E+02  0.45594000000E+02  0.51100000000E-03 0. -1.
    9900012    2    1    2    0    0  0.24270523129E+02 -0.22339242426E+02  0.30675942091E+02  0.46142317984E+02  0.10000002031E+02 0.  0.
         12    1    1    2    0    0 -0.24270523129E+02  0.22339242426E+02 -0.30675942091E+02  0.45045682016E+02  0.00000000000E+00 0. -1.
         11    1    3    3    0    0  0.38497791678E+01 -0.84593137298E+01  0.83579888299E+01  0.12499470627E+02  0.51100000000E-03 0. -1.
        -11    1    3    3    0    0  0.26125499966E+01 -0.23594888849E+01  0.56950880288E+01  0.66952694643E+01  0.51100000000E-03 0.  1.
        -12    1    3    3    0    0  0.17808193965E+02 -0.11520439811E+02  0.16622865232E+02  0.26947577892E+02  0.00000000000E+00 0.  1.
</event>
<event>
 7    1  0.2297343E-008  0.4614232E+02  0.7816164E-02  0.1320468E+00
        -11   -1    0    0    0    0  0.00000000000E+00  0.00000000000E+00  0.45593999997E+02  0.45594000000E+02  0.51100000000E-03 0.  1.
         11   -1    0    0    0    0 -0.00000000000E+00 -0.00000000000E+00 -0.45593999997E+02  0.45594000000E+02  0.51100000000E-03 0. -1.
    9900012    2    1    2    0    0  0.12730805980E+02  0.17468479914E+02  0.39520784515E+02  0.46142316299E+02  0.99999866664E+01 0.  0.
         12    1    1    2    0    0 -0.12730805980E+02 -0.17468479914E+02 -0.39520784515E+02  0.45045683701E+02  0.00000000000E+00 0. -1.
         11    1    3    3    0    0  0.52338288741E+01  0.93782072035E+01  0.15995574720E+02  0.19266607016E+02  0.51100000000E-03 0. -1.
        -11    1    3    3    0    0  0.57608103494E+01  0.87761527947E+01  0.22286829243E+02  0.24635554626E+02  0.51100000000E-03 0.  1.
         12    1    3    3    0    0  0.17361667562E+01 -0.68588008389E+00  0.12383805526E+01  0.22401546572E+01  0.00000000000E+00 0. -1.
</event>
<event>
 7    1  0.2297343E-008  0.4614232E+02  0.7816164E-02  0.1320468E+00
        -11   -1    0    0    0    0  0.00000000000E+00  0.00000000000E+00  0.45593999997E+02  0.45594000000E+02  0.51100000000E-03 0.  1.
         11   -1    0    0    0    0 -0.00000000000E+00 -0.00000000000E+00 -0.45593999997E+02  0.45594000000E+02  0.51100000000E-03 0. -1.
    9900012    2    1    2    0    0 -0.27376906060E+02  0.28841867682E+02  0.21160465994E+02  0.46142316101E+02  0.99999848662E+01 0.  0.
         12    1    1    2    0    0  0.27376906060E+02 -0.28841867682E+02 -0.21160465994E+02  0.45045683899E+02  0.00000000000E+00 0. -1.
         11    1    3    3    0    0 -0.25769251183E+00 -0.33279046513E+00  0.63554262952E-01  0.42566927279E+00  0.51100000000E-03 0. -1.
        -11    1    3    3    0    0 -0.18035699903E+02  0.14702148854E+02  0.98965751849E+01  0.25286001119E+02  0.51100000000E-03 0.  1.
        -12    1    3    3    0    0 -0.90835136446E+01  0.14472509293E+02  0.11200336546E+02  0.20430645710E+02  0.00000000000E+00 0.  1.
</event>
<event>
 7    1  0.2297343E-008  0.4614233E+02  0.7816164E-02  0.1320468E+00
        -11   -1    0    0    0    0  0.00000000000E+00  0.00000000000E+00  0.45593999997E+02  0.45594000000E+02  0.51100000000E-03 0.  1.
         11   -1    0    0    0    0 -0.00000000000E+00 -0.00000000000E+00 -0.45593999997E+02  0.45594000000E+02  0.51100000000E-03 0. -1.
    9900012    2    1    2    0    0  0.32362170857E+02  0.10320214479E+01  0.31316728120E+02  0.46142327278E+02  0.10000086782E+02 0.  0.
         12    1    1    2    0    0 -0.32362170857E+02 -0.10320214479E+01 -0.31316728120E+02  0.45045672722E+02  0.00000000000E+00 0. -1.
         11    1    3    3    0    0  0.30634179016E+01 -0.22427241270E+01  0.47558357666E+01  0.60854182148E+01  0.51100000000E-03 0. -1.
        -11    1    3    3    0    0  0.12005830193E+01  0.49633085961E+00  0.10273040467E-01  0.12991727002E+01  0.51100000000E-03 0.  1.
        -12    1    3    3    0    0  0.28098169936E+02  0.27784147153E+01  0.26550619313E+02  0.38757736363E+02  0.00000000000E+00 0.  1.
</event>
<event>
 7    1  0.2297343E-008  0.4614232E+02  0.7816164E-02  0.1320468E+00
        -11   -1    0    0    0    0  0.00000000000E+00  0.00000000000E+00  0.45593999997E+02  0.45594000000E+02  0.51100000000E-03 0.  1.
         11   -1    0    0    0    0 -0.00000000000E+00 -0.00000000000E+00 -0.45593999997E+02  0.45594000000E+02  0.51100000000E-03 0. -1.
    9900012    2    1    2    0    0  0.31498599121E+02  0.28726656502E+02  0.14550977506E+02  0.46142317779E+02  0.10000000163E+02 0.  0.
         12    1    1    2    0    0 -0.31498599121E+02 -0.28726656502E+02 -0.14550977506E+02  0.45045682221E+02  0.00000000000E+00 0. -1.
         11    1    3    3    0    0  0.36299213219E+01  0.34328466586E+01  0.75976704802E+00  0.50535147386E+01  0.51100000000E-03 0. -1.
        -11    1    3    3    0    0  0.20528640178E+02  0.13040746229E+02  0.72440167166E+01  0.25376404557E+02  0.51100000000E-03 0.  1.
         12    1    3    3    0    0  0.73400376208E+01  0.12253063615E+02  0.65471937419E+01  0.15712398484E+02  0.00000000000E+00 0. -1.
</event>
<event>
 7    1  0.2297343E-008  0.4614232E+02  0.7816164E-02  0.1320468E+00
        -11   -1    0    0    0    0  0.00000000000E+00  0.00000000000E+00  0.45593999997E+02  0.45594000000E+02  0.51100000000E-03 0.  1.
         11   -1    0    0    0    0 -0.00000000000E+00 -0.00000000000E+00 -0.45593999997E+02  0.45594000000E+02  0.51100000000E-03 0. -1.
    9900012    2    1    2    0    0  0.34741093509E+02 -0.17453497902E+02  0.22749624692E+02  0.46142316624E+02  0.99999896269E+01 0.  0.
         12    1    1    2    0    0 -0.34741093509E+02  0.17453497902E+02 -0.22749624692E+02  0.45045683376E+02  0.00000000000E+00 0. -1.
         11    1    3    3    0    0  0.15171320990E+02 -0.88921865713E+01  0.12585696508E+02  0.21624979062E+02  0.51100000000E-03 0. -1.
        -11    1    3    3    0    0  0.16179247478E+02 -0.47184108172E+01  0.95092344107E+01  0.19350891167E+02  0.51100000000E-03 0.  1.
         12    1    3    3    0    0  0.33905250412E+01 -0.38429005136E+01  0.65469377310E+00  0.51664463947E+01  0.00000000000E+00 0. -1.
</event>
<event>
 7    1  0.2297343E-008  0.4614232E+02  0.7816164E-02  0.1320468E+00
        -11   -1    0    0    0    0  0.00000000000E+00  0.00000000000E+00  0.45593999997E+02  0.45594000000E+02  0.51100000000E-03 0.  1.
         11   -1    0    0    0    0 -0.00000000000E+00 -0.00000000000E+00 -0.45593999997E+02  0.45594000000E+02  0.51100000000E-03 0. -1.
    9900012    2    1    2    0    0 -0.26594642754E+02  0.22888480185E+02  0.28248112728E+02  0.46142318508E+02  0.10000006814E+02 0.  0.
         12    1    1    2    0    0  0.26594642754E+02 -0.22888480185E+02 -0.28248112728E+02  0.45045681492E+02  0.00000000000E+00 0. -1.
         11    1    3    3    0    0 -0.12572940625E+02  0.11596724704E+02  0.88784952983E+01  0.19271495501E+02  0.51100000000E-03 0. -1.
        -11    1    3    3    0    0 -0.76502378364E+01  0.89940566332E+01  0.11413586070E+02  0.16422214860E+02  0.51100000000E-03 0.  1.
        -12    1    3    3    0    0 -0.63714642917E+01  0.22976988476E+01  0.79560313593E+01  0.10448608147E+02  0.00000000000E+00 0.  1.
</event>
<event>
 7    1  0.2297343E-008  0.4614232E+02  0.7816164E-02  0.1320468E+00
        -11   -1    0    0    0    0  0.00000000000E+00  0.00000000000E+00  0.45593999997E+02  0.45594000000E+02  0.51100000000E-03 0.  1.
         11   -1    0    0    0    0 -0.00000000000E+00 -0.00000000000E+00 -0.45593999997E+02  0.45594000000E+02  0.51100000000E-03 0. -1.
    9900012    2    1    2    0    0 -0.35854895638E+02  0.55404655100E+01  0.26699127655E+02  0.46142315225E+02  0.99999768766E+01 0.  0.
         12    1    1    2    0    0  0.35854895638E+02 -0.55404655100E+01 -0.26699127655E+02  0.45045684775E+02  0.00000000000E+00 0. -1.
         11    1    3    3    0    0 -0.15464022999E+02 -0.20870694886E+01  0.10582267067E+02  0.18854077620E+02  0.51100000000E-03 0. -1.
        -11    1    3    3    0    0 -0.83380589177E+01  0.14547236178E+01  0.66874368767E+01  0.10787087631E+02  0.51100000000E-03 0.  1.
         12    1    3    3    0    0 -0.12052813722E+02  0.61728113809E+01  0.94294237111E+01  0.16501149974E+02  0.00000000000E+00 0. -1.
</event>
<event>
 7    1  0.2297343E-008  0.4614232E+02  0.7816164E-02  0.1320468E+00
        -11   -1    0    0    0    0  0.00000000000E+00  0.00000000000E+00  0.45593999997E+02  0.45594000000E+02  0.51100000000E-03 0. -1.
         11   -1    0    0    0    0 -0.00000000000E+00 -0.00000000000E+00 -0.45593999997E+02  0.45594000000E+02  0.51100000000E-03 0.  1.
    9900012    2    1    2    0    0  0.23989381624E+02 -0.37396899839E+02 -0.74225998555E+01  0.46142317222E+02  0.99999950873E+01 0.  0.
         12    1    1    2    0    0 -0.23989381624E+02  0.37396899839E+02  0.74225998555E+01  0.45045682778E+02  0.00000000000E+00 0. -1.
         11    1    3    3    0    0  0.70560208509E+00 -0.41028379554E+00  0.92189029525E-01  0.82140499977E+00  0.51100000000E-03 0. -1.
        -11    1    3    3    0    0  0.16822572909E+02 -0.32874748820E+02 -0.73907829011E+01  0.37661276417E+02  0.51100000000E-03 0.  1.
        -12    1    3    3    0    0  0.64612066302E+01 -0.41118672241E+01 -0.12400598396E+00  0.76596358053E+01  0.00000000000E+00 0.  1.
</event>
<event>
 7    1  0.2297343E-008  0.4614232E+02  0.7816164E-02  0.1320468E+00
        -11   -1    0    0    0    0  0.00000000000E+00  0.00000000000E+00  0.45593999997E+02  0.45594000000E+02  0.51100000000E-03 0.  1.
         11   -1    0    0    0    0 -0.00000000000E+00 -0.00000000000E+00 -0.45593999997E+02  0.45594000000E+02  0.51100000000E-03 0. -1.
    9900012    2    1    2    0    0 -0.94021333165E+01  0.26467597136E+02  0.35216186058E+02  0.46142316860E+02  0.99999917829E+01 0.  0.
         12    1    1    2    0    0  0.94021333165E+01 -0.26467597136E+02 -0.35216186058E+02  0.45045683140E+02  0.00000000000E+00 0. -1.
         11    1    3    3    0    0 -0.15888029964E+01  0.89560207757E-01  0.28917385728E+01  0.33006769346E+01  0.51100000000E-03 0. -1.
        -11    1    3    3    0    0 -0.31342654080E+01  0.52612128394E+01  0.10228477013E+02  0.11921649318E+02  0.51100000000E-03 0.  1.
         12    1    3    3    0    0 -0.46790649121E+01  0.21116824089E+02  0.22095970473E+02  0.30919990608E+02  0.00000000000E+00 0. -1.
</event>
<event>
 7    1  0.2297343E-008  0.4614232E+02  0.7816164E-02  0.1320468E+00
        -11   -1    0    0    0    0  0.00000000000E+00  0.00000000000E+00  0.45593999997E+02  0.45594000000E+02  0.51100000000E-03 0.  1.
         11   -1    0    0    0    0 -0.00000000000E+00 -0.00000000000E+00 -0.45593999997E+02  0.45594000000E+02  0.51100000000E-03 0. -1.
    9900012    2    1    2    0    0  0.17275977987E+01  0.14626302705E+02  0.42569946102E+02  0.46142316121E+02  0.99999850456E+01 0.  0.
         12    1    1    2    0    0 -0.17275977987E+01 -0.14626302705E+02 -0.42569946102E+02  0.45045683879E+02  0.00000000000E+00 0. -1.
         11    1    3    3    0    0 -0.93021752543E-01  0.12506652866E+02  0.35949468398E+02  0.38062964904E+02  0.51100000000E-03 0. -1.
        -11    1    3    3    0    0  0.39888257787E+00  0.64675279223E+00  0.58388270650E+01  0.58880640487E+01  0.51100000000E-03 0.  1.
         12    1    3    3    0    0  0.14217369733E+01  0.14728970468E+01  0.78165063944E+00  0.21912871683E+01  0.00000000000E+00 0. -1.
</event>
<event>
 7    1  0.2297343E-008  0.4614232E+02  0.7816164E-02  0.1320468E+00
        -11   -1    0    0    0    0  0.00000000000E+00  0.00000000000E+00  0.45593999997E+02  0.45594000000E+02  0.51100000000E-03 0.  1.
         11   -1    0    0    0    0 -0.00000000000E+00 -0.00000000000E+00 -0.45593999997E+02  0.45594000000E+02  0.51100000000E-03 0. -1.
    9900012    2    1    2    0    0  0.23001929315E+02  0.38542708770E+02  0.38058348406E+01  0.46142317295E+02  0.99999957454E+01 0.  0.
         12    1    1    2    0    0 -0.23001929315E+02 -0.38542708770E+02 -0.38058348406E+01  0.45045682705E+02  0.00000000000E+00 0. -1.
         11    1    3    3    0    0 -0.43761341175E+00  0.76035308740E-01 -0.46441960975E+00  0.64262952107E+00  0.51100000000E-03 0. -1.
        -11    1    3    3    0    0  0.14349381608E+02  0.23660913576E+02  0.49569209675E+01  0.28112535451E+02  0.51100000000E-03 0.  1.
         12    1    3    3    0    0  0.90901611190E+01  0.14805759886E+02 -0.68666651718E+00  0.17387152322E+02  0.00000000000E+00 0. -1.
</event>
<event>
 7    1  0.2297343E-008  0.4614231E+02  0.7816164E-02  0.1320468E+00
        -11   -1    0    0    0    0  0.00000000000E+00  0.00000000000E+00  0.45593999997E+02  0.45594000000E+02  0.51100000000E-03 0. -1.
         11   -1    0    0    0    0 -0.00000000000E+00 -0.00000000000E+00 -0.45593999997E+02  0.45594000000E+02  0.51100000000E-03 0.  1.
    9900012    2    1    2    0    0  0.17369097506E+02 -0.38106249271E+02 -0.16593443467E+02  0.46142310442E+02  0.99999332562E+01 0.  0.
         12    1    1    2    0    0 -0.17369097506E+02  0.38106249271E+02  0.16593443467E+02  0.45045689558E+02  0.00000000000E+00 0. -1.
         11    1    3    3    0    0  0.52712560663E+00 -0.15731746243E+01  0.96875164759E+00  0.19212547514E+01  0.51100000000E-03 0. -1.
        -11    1    3    3    0    0  0.96049464801E+01 -0.14499426190E+02 -0.75956483035E+01  0.18978467539E+02  0.51100000000E-03 0.  1.
         12    1    3    3    0    0  0.72370254197E+01 -0.22033648457E+02 -0.99665468110E+01  0.25242588151E+02  0.00000000000E+00 0. -1.
</event>
<event>
 7    1  0.2297343E-008  0.4614232E+02  0.7816164E-02  0.1320468E+00
        -11   -1    0    0    0    0  0.00000000000E+00  0.00000000000E+00  0.45593999997E+02  0.45594000000E+02  0.51100000000E-03 0.  1.
         11   -1    0    0    0    0 -0.00000000000E+00 -0.00000000000E+00 -0.45593999997E+02  0.45594000000E+02  0.51100000000E-03 0. -1.
    9900012    2    1    2    0    0 -0.39689494188E+02 -0.21261864035E+02  0.13381812924E+01  0.46142317185E+02  0.99999947433E+01 0.  0.
         12    1    1    2    0    0  0.39689494188E+02  0.21261864035E+02 -0.13381812924E+01  0.45045682815E+02  0.00000000000E+00 0. -1.
         11    1    3    3    0    0 -0.15445910004E+01  0.71668309797E+00  0.44771098741E+00  0.17606366492E+01  0.51100000000E-03 0. -1.
        -11    1    3    3    0    0 -0.16436525712E+02 -0.12116719970E+02  0.19633795877E+01  0.20514120502E+02  0.51100000000E-03 0.  1.
        -12    1    3    3    0    0 -0.21708377476E+02 -0.98618271631E+01 -0.10729092828E+01  0.23867560033E+02  0.00000000000E+00 0.  1.
</event>
<event>
 7    1  0.2297343E-008  0.4614232E+02  0.7816164E-02  0.1320468E+00
        -11   -1    0    0    0    0  0.00000000000E+00  0.00000000000E+00  0.45593999997E+02  0.45594000000E+02  0.51100000000E-03 0.  1.
         11   -1    0    0    0    0 -0.00000000000E+00 -0.00000000000E+00 -0.45593999997E+02  0.45594000000E+02  0.51100000000E-03 0. -1.
    9900012    2    1    2    0    0  0.24815786657E+02 -0.13043639591E+02  0.35258384714E+02  0.46142317701E+02  0.99999994512E+01 0.  0.
         12    1    1    2    0    0 -0.24815786657E+02  0.13043639591E+02 -0.35258384714E+02  0.45045682299E+02  0.00000000000E+00 0. -1.
         11    1    3    3    0    0  0.52531588847E+01 -0.95567298305E+00  0.63743435821E+01  0.83151214953E+01  0.51100000000E-03 0. -1.
        -11    1    3    3    0    0  0.61048754186E+01 -0.76542074112E+01  0.82864761237E+01  0.12826616147E+02  0.51100000000E-03 0.  1.
        -12    1    3    3    0    0  0.13457752353E+02 -0.44337591973E+01  0.20597565008E+02  0.25000580059E+02  0.00000000000E+00 0.  1.
</event>
<event>
 7    1  0.2297343E-008  0.4614232E+02  0.7816164E-02  0.1320468E+00
        -11   -1    0    0    0    0  0.00000000000E+00  0.00000000000E+00  0.45593999997E+02  0.45594000000E+02  0.51100000000E-03 0. -1.
         11   -1    0    0    0    0 -0.00000000000E+00 -0.00000000000E+00 -0.45593999997E+02  0.45594000000E+02  0.51100000000E-03 0.  1.
    9900012    2    1    2    0    0 -0.38951869256E+02  0.38378270542E+01 -0.22296556969E+02  0.46142317768E+02  0.10000000063E+02 0.  0.
         12    1    1    2    0    0  0.38951869256E+02 -0.38378270542E+01  0.22296556969E+02  0.45045682232E+02  0.00000000000E+00 0. -1.
         11    1    3    3    0    0 -0.35982400999E+01 -0.17089604081E+01 -0.23972131237E+01  0.46491406211E+01  0.51100000000E-03 0. -1.
        -11    1    3    3    0    0 -0.25279754085E+02  0.19241809124E+01 -0.16547814133E+02  0.30275379298E+02  0.51100000000E-03 0.  1.
         12    1    3    3    0    0 -0.10073875071E+02  0.36226065499E+01 -0.33515297125E+01  0.11217797849E+02  0.00000000000E+00 0. -1.
</event>
<event>
 7    1  0.2297343E-008  0.4614232E+02  0.7816164E-02  0.1320468E+00
        -11   -1    0    0    0    0  0.00000000000E+00  0.00000000000E+00  0.45593999997E+02  0.45594000000E+02  0.51100000000E-03 0. -1.
         11   -1    0    0    0    0 -0.00000000000E+00 -0.00000000000E+00 -0.45593999997E+02  0.45594000000E+02  0.51100000000E-03 0.  1.
    9900012    2    1    2    0    0 -0.76348427950E+01  0.40367007772E+02 -0.18475048620E+02  0.46142316938E+02  0.99999924952E+01 0.  0.
         12    1    1    2    0    0  0.76348427950E+01 -0.40367007772E+02  0.18475048620E+02  0.45045683062E+02  0.00000000000E+00 0. -1.
         11    1    3    3    0    0 -0.92235245359E+00  0.29093614524E+01 -0.39141383621E+01  0.49634259829E+01  0.51100000000E-03 0. -1.
        -11    1    3    3    0    0 -0.42972520389E-02  0.27803033535E+00  0.44762087757E+00  0.52695734639E+00  0.51100000000E-03 0.  1.
        -12    1    3    3    0    0 -0.67081930893E+01  0.37179615984E+02 -0.15008531136E+02  0.40651933609E+02  0.00000000000E+00 0.  1.
</event>
<event>
 7    1  0.2297343E-008  0.4614232E+02  0.7816164E-02  0.1320468E+00
        -11   -1    0    0    0    0  0.00000000000E+00  0.00000000000E+00  0.45593999997E+02  0.45594000000E+02  0.51100000000E-03 0. -1.
         11   -1    0    0    0    0 -0.00000000000E+00 -0.00000000000E+00 -0.45593999997E+02  0.45594000000E+02  0.51100000000E-03 0.  1.
    9900012    2    1    2    0    0 -0.39474864253E+02  0.23552590226E+01 -0.21570847054E+02  0.46142316572E+02  0.99999891533E+01 0.  0.
         12    1    1    2    0    0  0.39474864253E+02 -0.23552590226E+01  0.21570847054E+02  0.45045683428E+02  0.00000000000E+00 0. -1.
         11    1    3    3    0    0 -0.48110701626E+01  0.84723399468E+00 -0.26608708293E+00  0.48923413769E+01  0.51100000000E-03 0. -1.
        -11    1    3    3    0    0 -0.30690968210E+02  0.34609917023E+01 -0.18305224544E+02  0.35902579839E+02  0.51100000000E-03 0.  1.
         12    1    3    3    0    0 -0.39728258811E+01 -0.19529666744E+01 -0.29995354270E+01  0.53473953558E+01  0.00000000000E+00 0. -1.
</event>
<event>
 7    1  0.2297343E-008  0.4614232E+02  0.7816164E-02  0.1320468E+00
        -11   -1    0    0    0    0  0.00000000000E+00  0.00000000000E+00  0.45593999997E+02  0.45594000000E+02  0.51100000000E-03 0.  1.
         11   -1    0    0    0    0 -0.00000000000E+00 -0.00000000000E+00 -0.45593999997E+02  0.45594000000E+02  0.51100000000E-03 0. -1.
    9900012    2    1    2    0    0 -0.20225501416E+02  0.12207996804E+02  0.38353714029E+02  0.46142317928E+02  0.10000001526E+02 0.  0.
         12    1    1    2    0    0  0.20225501416E+02 -0.12207996804E+02 -0.38353714029E+02  0.45045682072E+02  0.00000000000E+00 0. -1.
         11    1    3    3    0    0 -0.48206118816E+01  0.21284866383E+00  0.36677527607E+01  0.60610241743E+01  0.51100000000E-03 0. -1.
        -11    1    3    3    0    0 -0.81246886651E+01  0.90987431539E+01  0.22496772737E+02  0.25591062438E+02  0.51100000000E-03 0.  1.
        -12    1    3    3    0    0 -0.72802008690E+01  0.28964049863E+01  0.12189188531E+02  0.14490231316E+02  0.00000000000E+00 0.  1.
</event>
<event>
 7    1  0.2297343E-008  0.4614232E+02  0.7816164E-02  0.1320468E+00
        -11   -1    0    0    0    0  0.00000000000E+00  0.00000000000E+00  0.45593999997E+02  0.45594000000E+02  0.51100000000E-03 0. -1.
         11   -1    0    0    0    0 -0.00000000000E+00 -0.00000000000E+00 -0.45593999997E+02  0.45594000000E+02  0.51100000000E-03 0.  1.
    9900012    2    1    2    0    0 -0.25925106646E+02 -0.21821933803E+02 -0.29678367509E+02  0.46142318214E+02  0.10000004133E+02 0.  0.
         12    1    1    2    0    0  0.25925106646E+02  0.21821933803E+02  0.29678367509E+02  0.45045681786E+02  0.00000000000E+00 0. -1.
         11    1    3    3    0    0 -0.45775605065E+01 -0.43496487408E+01 -0.85371320110E+01  0.10618668824E+02  0.51100000000E-03 0. -1.
        -11    1    3    3    0    0 -0.79162434076E+01 -0.22339129192E+01 -0.65150385409E+01  0.10492997859E+02  0.51100000000E-03 0.  1.
        -12    1    3    3    0    0 -0.13431302732E+02 -0.15238372143E+02 -0.14626196957E+02  0.25030651531E+02  0.00000000000E+00 0.  1.
</event>
<event>
 7    1  0.2297343E-008  0.4614232E+02  0.7816164E-02  0.1320468E+00
        -11   -1    0    0    0    0  0.00000000000E+00  0.00000000000E+00  0.45593999997E+02  0.45594000000E+02  0.51100000000E-03 0. -1.
         11   -1    0    0    0    0 -0.00000000000E+00 -0.00000000000E+00 -0.45593999997E+02  0.45594000000E+02  0.51100000000E-03 0.  1.
    9900012    2    1    2    0    0  0.23442855156E+02  0.37285746709E+02 -0.94508631582E+01  0.46142321185E+02  0.10000031218E+02 0.  0.
         12    1    1    2    0    0 -0.23442855156E+02 -0.37285746709E+02  0.94508631582E+01  0.45045678815E+02  0.00000000000E+00 0. -1.
         11    1    3    3    0    0  0.10227881035E+02  0.13272859422E+02 -0.51197456429E+01  0.17521134193E+02  0.51100000000E-03 0.  1.
        -11    1    3    3    0    0  0.11220227491E+02  0.21573635126E+02 -0.14640329509E+01  0.24361006347E+02  0.51100000000E-03 0. -1.
         12    1    3    3    0    0  0.19947466300E+01  0.24392521605E+01 -0.28670845645E+01  0.42601806440E+01  0.00000000000E+00 0. -1.
</event>
<event>
 7    1  0.2297343E-008  0.4614232E+02  0.7816164E-02  0.1320468E+00
        -11   -1    0    0    0    0  0.00000000000E+00  0.00000000000E+00  0.45593999997E+02  0.45594000000E+02  0.51100000000E-03 0.  1.
         11   -1    0    0    0    0 -0.00000000000E+00 -0.00000000000E+00 -0.45593999997E+02  0.45594000000E+02  0.51100000000E-03 0. -1.
    9900012    2    1    2    0    0  0.12593759493E+02  0.30432004901E+02  0.30731150748E+02  0.46142319555E+02  0.10000016356E+02 0.  0.
         12    1    1    2    0    0 -0.12593759493E+02 -0.30432004901E+02 -0.30731150748E+02  0.45045680445E+02  0.00000000000E+00 0. -1.
         11    1    3    3    0    0  0.48717039738E+01  0.76867075101E+01  0.62149544650E+01  0.11020191977E+02  0.51100000000E-03 0. -1.
        -11    1    3    3    0    0  0.64133938797E+01  0.76305290110E+01  0.10227749615E+02  0.14281577521E+02  0.51100000000E-03 0.  1.
         12    1    3    3    0    0  0.13086616399E+01  0.15114768379E+02  0.14288446669E+02  0.20840550057E+02  0.00000000000E+00 0. -1.
</event>
<event>
 7    1  0.2297343E-008  0.4614232E+02  0.7816164E-02  0.1320468E+00
        -11   -1    0    0    0    0  0.00000000000E+00  0.00000000000E+00  0.45593999997E+02  0.45594000000E+02  0.51100000000E-03 0.  1.
         11   -1    0    0    0    0 -0.00000000000E+00 -0.00000000000E+00 -0.45593999997E+02  0.45594000000E+02  0.51100000000E-03 0. -1.
    9900012    2    1    2    0    0  0.10484199818E+02 -0.16160694468E+02  0.40718877894E+02  0.46142317538E+02  0.99999979686E+01 0.  0.
         12    1    1    2    0    0 -0.10484199818E+02  0.16160694468E+02 -0.40718877894E+02  0.45045682462E+02  0.00000000000E+00 0. -1.
         11    1    3    3    0    0  0.31017861820E+01 -0.10299979387E+02  0.15773227910E+02  0.19092023776E+02  0.51100000000E-03 0. -1.
        -11    1    3    3    0    0  0.25594891470E+01 -0.49136446785E+01  0.12772663403E+02  0.13922493289E+02  0.51100000000E-03 0.  1.
        -12    1    3    3    0    0  0.48229244889E+01 -0.94707040253E+00  0.12172986580E+02  0.13127800473E+02  0.00000000000E+00 0.  1.
</event>
<event>
 7    1  0.2297343E-008  0.4614231E+02  0.7816164E-02  0.1320468E+00
        -11   -1    0    0    0    0  0.00000000000E+00  0.00000000000E+00  0.45593999997E+02  0.45594000000E+02  0.51100000000E-03 0.  1.
         11   -1    0    0    0    0 -0.00000000000E+00 -0.00000000000E+00 -0.45593999997E+02  0.45594000000E+02  0.51100000000E-03 0. -1.
    9900012    2    1    2    0    0  0.14889106412E+02 -0.41671462865E+02  0.84212588375E+01  0.46142313109E+02  0.99999575787E+01 0.  0.
         12    1    1    2    0    0 -0.14889106412E+02  0.41671462865E+02 -0.84212588375E+01  0.45045686891E+02  0.00000000000E+00 0. -1.
         11    1    3    3    0    0  0.32746712036E+01 -0.55569121431E+01 -0.45893758428E+00  0.64663256974E+01  0.51100000000E-03 0. -1.
        -11    1    3    3    0    0  0.84835768611E+01 -0.14598831134E+02  0.48033923458E+01  0.17554757906E+02  0.51100000000E-03 0.  1.
         12    1    3    3    0    0  0.31308583475E+01 -0.21515719588E+02  0.40768040760E+01  0.22121229506E+02  0.00000000000E+00 0. -1.
</event>
<event>
 7    1  0.2297343E-008  0.4614232E+02  0.7816164E-02  0.1320468E+00
        -11   -1    0    0    0    0  0.00000000000E+00  0.00000000000E+00  0.45593999997E+02  0.45594000000E+02  0.51100000000E-03 0.  1.
         11   -1    0    0    0    0 -0.00000000000E+00 -0.00000000000E+00 -0.45593999997E+02  0.45594000000E+02  0.51100000000E-03 0. -1.
    9900012    2    1    2    0    0 -0.19562507213E+02  0.12733874965E+02  0.38526227582E+02  0.46142317945E+02  0.10000001675E+02 0.  0.
         12    1    1    2    0    0  0.19562507213E+02 -0.12733874965E+02 -0.38526227582E+02  0.45045682055E+02  0.00000000000E+00 0. -1.
         11    1    3    3    0    0 -0.17822118145E+02  0.92919939088E+01  0.28215962725E+02  0.34642598036E+02  0.51100000000E-03 0. -1.
        -11    1    3    3    0    0 -0.27016372107E+01  0.28114960726E+01  0.72741422613E+01  0.82532720592E+01  0.51100000000E-03 0.  1.
         12    1    3    3    0    0  0.96124814210E+00  0.63038498388E+00  0.30361225964E+01  0.32464478494E+01  0.00000000000E+00 0. -1.
</event>
<event>
 7    1  0.2297343E-008  0.4614232E+02  0.7816164E-02  0.1320468E+00
        -11   -1    0    0    0    0  0.00000000000E+00  0.00000000000E+00  0.45593999997E+02  0.45594000000E+02  0.51100000000E-03 0.  1.
         11   -1    0    0    0    0 -0.00000000000E+00 -0.00000000000E+00 -0.45593999997E+02  0.45594000000E+02  0.51100000000E-03 0. -1.
    9900012    2    1    2    0    0 -0.29045695941E+02  0.18739864039E+02  0.28883879846E+02  0.46142317944E+02  0.10000001672E+02 0.  0.
         12    1    1    2    0    0  0.29045695941E+02 -0.18739864039E+02 -0.28883879846E+02  0.45045682056E+02  0.00000000000E+00 0. -1.
         11    1    3    3    0    0 -0.31544132823E+01  0.13469362537E+00  0.19249868280E+01  0.36978426248E+01  0.51100000000E-03 0. -1.
        -11    1    3    3    0    0 -0.10586575648E+02  0.11210369549E+02  0.15999600030E+02  0.22220152357E+02  0.51100000000E-03 0.  1.
        -12    1    3    3    0    0 -0.15304707011E+02  0.73948008648E+01  0.10959292988E+02  0.20224322963E+02  0.00000000000E+00 0.  1.
</event>
<event>
 7    1  0.2297343E-008  0.4614232E+02  0.7816164E-02  0.1320468E+00
        -11   -1    0    0    0    0  0.00000000000E+00  0.00000000000E+00  0.45593999997E+02  0.45594000000E+02  0.51100000000E-03 0.  1.
         11   -1    0    0    0    0 -0.00000000000E+00 -0.00000000000E+00 -0.45593999997E+02  0.45594000000E+02  0.51100000000E-03 0. -1.
    9900012    2    1    2    0    0  0.21674808656E+02 -0.78144675888E+01  0.38707236306E+02  0.46142319004E+02  0.10000011330E+02 0.  0.
         12    1    1    2    0    0 -0.21674808656E+02  0.78144675888E+01 -0.38707236306E+02  0.45045680996E+02  0.00000000000E+00 0. -1.
         11    1    3    3    0    0  0.85158184214E+01 -0.11659044889E+01  0.10602691479E+02  0.13649013280E+02  0.51100000000E-03 0. -1.
        -11    1    3    3    0    0  0.86216896308E+01 -0.30735098217E+01  0.10320644560E+02  0.13794770716E+02  0.51100000000E-03 0.  1.
         12    1    3    3    0    0  0.45373006042E+01 -0.35750532782E+01  0.17783900267E+02  0.18698535008E+02  0.00000000000E+00 0. -1.
</event>
<event>
 7    1  0.2297343E-008  0.4614232E+02  0.7816164E-02  0.1320468E+00
        -11   -1    0    0    0    0  0.00000000000E+00  0.00000000000E+00  0.45593999997E+02  0.45594000000E+02  0.51100000000E-03 0. -1.
         11   -1    0    0    0    0 -0.00000000000E+00 -0.00000000000E+00 -0.45593999997E+02  0.45594000000E+02  0.51100000000E-03 0.  1.
    9900012    2    1    2    0    0  0.21185162466E+02  0.39655479079E+02 -0.27830447015E+01  0.46142317992E+02  0.10000002106E+02 0.  0.
         12    1    1    2    0    0 -0.21185162466E+02 -0.39655479079E+02  0.27830447015E+01  0.45045682008E+02  0.00000000000E+00 0. -1.
         11    1    3    3    0    0  0.13416603835E+02  0.27396315199E+02  0.16300328006E+01  0.30548655489E+02  0.51100000000E-03 0. -1.
        -11    1    3    3    0    0  0.15772665281E+01  0.49710853103E+00 -0.30817209016E+00  0.16822178487E+01  0.51100000000E-03 0.  1.
        -12    1    3    3    0    0  0.61912921031E+01  0.11762055349E+02 -0.41049054120E+01  0.13911444655E+02  0.00000000000E+00 0.  1.
</event>
<event>
 7    1  0.2297343E-008  0.4614232E+02  0.7816164E-02  0.1320468E+00
        -11   -1    0    0    0    0  0.00000000000E+00  0.00000000000E+00  0.45593999997E+02  0.45594000000E+02  0.51100000000E-03 0. -1.
         11   -1    0    0    0    0 -0.00000000000E+00 -0.00000000000E+00 -0.45593999997E+02  0.45594000000E+02  0.51100000000E-03 0.  1.
    9900012    2    1    2    0    0  0.23555077327E+02 -0.12407958308E+02 -0.36336130731E+02  0.46142317702E+02  0.99999994572E+01 0.  0.
         12    1    1    2    0    0 -0.23555077327E+02  0.12407958308E+02  0.36336130731E+02  0.45045682298E+02  0.00000000000E+00 0. -1.
         11    1    3    3    0    0  0.76497419193E+01 -0.88802704489E+01 -0.13754077799E+02  0.18070761219E+02  0.51100000000E-03 0. -1.
        -11    1    3    3    0    0  0.12617559343E+02 -0.39575170736E+01 -0.16507127338E+02  0.21150650070E+02  0.51100000000E-03 0.  1.
         12    1    3    3    0    0  0.32877760649E+01  0.42982921412E+00 -0.60749255939E+01  0.69209064130E+01  0.00000000000E+00 0. -1.
</event>
<event>
 7    1  0.2297343E-008  0.4614231E+02  0.7816164E-02  0.1320468E+00
        -11   -1    0    0    0    0  0.00000000000E+00  0.00000000000E+00  0.45593999997E+02  0.45594000000E+02  0.51100000000E-03 0.  1.
         11   -1    0    0    0    0 -0.00000000000E+00 -0.00000000000E+00 -0.45593999997E+02  0.45594000000E+02  0.51100000000E-03 0. -1.
    9900012    2    1    2    0    0  0.20376226591E+02  0.19569630092E+02  0.35084936376E+02  0.46142314385E+02  0.99999692126E+01 0.  0.
         12    1    1    2    0    0 -0.20376226591E+02 -0.19569630092E+02 -0.35084936376E+02  0.45045685615E+02  0.00000000000E+00 0. -1.
         11    1    3    3    0    0  0.46360074476E+01  0.75483057051E+01  0.65532253942E+01  0.11018813339E+02  0.51100000000E-03 0. -1.
        -11    1    3    3    0    0  0.13689409460E+02  0.11343804395E+02  0.22248423120E+02  0.28479363777E+02  0.51100000000E-03 0.  1.
        -12    1    3    3    0    0  0.20508096829E+01  0.67751999124E+00  0.62832878620E+01  0.66441372691E+01  0.00000000000E+00 0.  1.
</event>
<event>
 7    1  0.2297343E-008  0.4614232E+02  0.7816164E-02  0.1320468E+00
        -11   -1    0    0    0    0  0.00000000000E+00  0.00000000000E+00  0.45593999997E+02  0.45594000000E+02  0.51100000000E-03 0.  1.
         11   -1    0    0    0    0 -0.00000000000E+00 -0.00000000000E+00 -0.45593999997E+02  0.45594000000E+02  0.51100000000E-03 0. -1.
    9900012    2    1    2    0    0 -0.42157941623E+01 -0.26662210325E+02  0.36061988271E+02  0.46142318987E+02  0.10000011183E+02 0.  0.
         12    1    1    2    0    0  0.42157941623E+01  0.26662210325E+02 -0.36061988271E+02  0.45045681013E+02  0.00000000000E+00 0. -1.
         11    1    3    3    0    0 -0.12516784694E+01 -0.76280136065E+00  0.58304591884E+00  0.15775004631E+01  0.51100000000E-03 0. -1.
        -11    1    3    3    0    0 -0.28490179882E+01 -0.10711632659E+02  0.10139569644E+02  0.15022211906E+02  0.51100000000E-03 0.  1.
        -12    1    3    3    0    0 -0.11509770474E+00 -0.15187776305E+02  0.25339372708E+02  0.29542606618E+02  0.00000000000E+00 0.  1.
</event>
<event>
 7    1  0.2297343E-008  0.4614232E+02  0.7816164E-02  0.1320468E+00
        -11   -1    0    0    0    0  0.00000000000E+00  0.00000000000E+00  0.45593999997E+02  0.45594000000E+02  0.51100000000E-03 0.  1.
         11   -1    0    0    0    0 -0.00000000000E+00 -0.00000000000E+00 -0.45593999997E+02  0.45594000000E+02  0.51100000000E-03 0. -1.
    9900012    2    1    2    0    0 -0.23965687176E+02 -0.23926008159E+02  0.29703627670E+02  0.46142317355E+02  0.99999962940E+01 0.  0.
         12    1    1    2    0    0  0.23965687176E+02  0.23926008159E+02 -0.29703627670E+02  0.45045682645E+02  0.00000000000E+00 0. -1.
         11    1    3    3    0    0  0.14604993419E+00 -0.29205625709E+00 -0.56253474664E+00  0.65044065285E+00  0.51100000000E-03 0. -1.
        -11    1    3    3    0    0 -0.46239989578E+01 -0.67238365853E+01  0.71393822663E+01  0.10842606891E+02  0.51100000000E-03 0.  1.
        -12    1    3    3    0    0 -0.19487738152E+02 -0.16910115317E+02  0.23126780150E+02  0.34649269811E+02  0.00000000000E+00 0.  1.
</event>
<event>
 7    1  0.2297343E-008  0.4614232E+02  0.7816164E-02  0.1320468E+00
        -11   -1    0    0    0    0  0.00000000000E+00  0.00000000000E+00  0.45593999997E+02  0.45594000000E+02  0.51100000000E-03 0.  1.
         11   -1    0    0    0    0 -0.00000000000E+00 -0.00000000000E+00 -0.45593999997E+02  0.45594000000E+02  0.51100000000E-03 0. -1.
    9900012    2    1    2    0    0  0.44459724157E+02 -0.92741001876E+00  0.71823597815E+01  0.46142318148E+02  0.10000003531E+02 0.  0.
         12    1    1    2    0    0 -0.44459724157E+02  0.92741001876E+00 -0.71823597815E+01  0.45045681852E+02  0.00000000000E+00 0. -1.
         11    1    3    3    0    0  0.13841729436E+02  0.10874579700E+01  0.32882085517E+00  0.13888274264E+02  0.51100000000E-03 0. -1.
        -11    1    3    3    0    0  0.10078558141E+02 -0.17725713464E+01  0.56229727544E+01  0.11676350724E+02  0.51100000000E-03 0.  1.
        -12    1    3    3    0    0  0.20539436580E+02 -0.24229664237E+00  0.12305661720E+01  0.20577693160E+02  0.00000000000E+00 0.  1.
</event>
<event>
 7    1  0.2297343E-008  0.4614232E+02  0.7816164E-02  0.1320468E+00
        -11   -1    0    0    0    0  0.00000000000E+00  0.00000000000E+00  0.45593999997E+02  0.45594000000E+02  0.51100000000E-03 0.  1.
         11   -1    0    0    0    0 -0.00000000000E+00 -0.00000000000E+00 -0.45593999997E+02  0.45594000000E+02  0.51100000000E-03 0. -1.
    9900012    2    1    2    0    0 -0.26848703674E+02 -0.65271911159E+01  0.35576064903E+02  0.46142317556E+02  0.99999981331E+01 0.  0.
         12    1    1    2    0    0  0.26848703674E+02  0.65271911159E+01 -0.35576064903E+02  0.45045682444E+02  0.00000000000E+00 0. -1.
         11    1    3    3    0    0 -0.14971185993E+01 -0.90455035245E+00  0.62767599523E+01  0.65159259665E+01  0.51100000000E-03 0. -1.
        -11    1    3    3    0    0 -0.20023253880E+02 -0.49711377873E+01  0.19169951918E+02  0.28162563159E+02  0.51100000000E-03 0.  1.
         12    1    3    3    0    0 -0.53283311938E+01 -0.65150297618E+00  0.10129353033E+02  0.11463828431E+02  0.00000000000E+00 0. -1.
</event>
<event>
 7    1  0.2297343E-008  0.4614232E+02  0.7816164E-02  0.1320468E+00
        -11   -1    0    0    0    0  0.00000000000E+00  0.00000000000E+00  0.45593999997E+02  0.45594000000E+02  0.51100000000E-03 0.  1.
         11   -1    0    0    0    0 -0.00000000000E+00 -0.00000000000E+00 -0.45593999997E+02  0.45594000000E+02  0.51100000000E-03 0. -1.
    9900012    2    1    2    0    0 -0.77823538899E+01 -0.43307425701E+02  0.96444459819E+01  0.46142317729E+02  0.99999997089E+01 0.  0.
         12    1    1    2    0    0  0.77823538899E+01  0.43307425701E+02 -0.96444459819E+01  0.45045682271E+02  0.00000000000E+00 0. -1.
         11    1    3    3    0    0 -0.20221597684E+01 -0.23547186861E+02  0.22017252163E+01  0.23736190372E+02  0.51100000000E-03 0. -1.
        -11    1    3    3    0    0 -0.57694070597E+01 -0.19842939463E+02  0.67951249585E+01  0.21753207300E+02  0.51100000000E-03 0.  1.
         12    1    3    3    0    0  0.92129381728E-02  0.82700623325E-01  0.64759580703E+00  0.65292005683E+00  0.00000000000E+00 0. -1.
</event>
<event>
 7    1  0.2297343E-008  0.4614232E+02  0.7816164E-02  0.1320468E+00
        -11   -1    0    0    0    0  0.00000000000E+00  0.00000000000E+00  0.45593999997E+02  0.45594000000E+02  0.51100000000E-03 0.  1.
         11   -1    0    0    0    0 -0.00000000000E+00 -0.00000000000E+00 -0.45593999997E+02  0.45594000000E+02  0.51100000000E-03 0. -1.
    9900012    2    1    2    0    0 -0.21075240445E+02 -0.23461384790E+01  0.39742211944E+02  0.46142317235E+02  0.99999952037E+01 0.  0.
         12    1    1    2    0    0  0.21075240445E+02  0.23461384790E+01 -0.39742211944E+02  0.45045682765E+02  0.00000000000E+00 0. -1.
         11    1    3    3    0    0 -0.50228874274E+01 -0.24619262877E+00  0.15221902598E+02  0.16031105011E+02  0.51100000000E-03 0. -1.
        -11    1    3    3    0    0 -0.11309636511E+02  0.15932686921E+01  0.17065949109E+02  0.20535165020E+02  0.51100000000E-03 0.  1.
         12    1    3    3    0    0 -0.47427165068E+01 -0.36932145424E+01  0.74543602368E+01  0.95760472043E+01  0.00000000000E+00 0. -1.
</event>
<event>
 7    1  0.2297343E-008  0.4614232E+02  0.7816164E-02  0.1320468E+00
        -11   -1    0    0    0    0  0.00000000000E+00  0.00000000000E+00  0.45593999997E+02  0.45594000000E+02  0.51100000000E-03 0.  1.
         11   -1    0    0    0    0 -0.00000000000E+00 -0.00000000000E+00 -0.45593999997E+02  0.45594000000E+02  0.51100000000E-03 0. -1.
    9900012    2    1    2    0    0 -0.16019491837E+02  0.42094639723E+02 -0.72846692926E+00  0.46142317896E+02  0.10000001230E+02 0.  0.
         12    1    1    2    0    0  0.16019491837E+02 -0.42094639723E+02  0.72846692926E+00  0.45045682104E+02  0.00000000000E+00 0. -1.
         11    1    3    3    0    0 -0.76460193399E+01  0.26042762069E+02 -0.29790227900E+01  0.27304974730E+02  0.51100000000E-03 0.  1.
        -11    1    3    3    0    0 -0.47536595690E+01  0.98141686085E+01 -0.95201730419E+00  0.10946301749E+02  0.51100000000E-03 0. -1.
         12    1    3    3    0    0 -0.36198129276E+01  0.62377090457E+01  0.32025731650E+01  0.78910414171E+01  0.00000000000E+00 0. -1.
</event>
<event>
 7    1  0.2297343E-008  0.4614232E+02  0.7816164E-02  0.1320468E+00
        -11   -1    0    0    0    0  0.00000000000E+00  0.00000000000E+00  0.45593999997E+02  0.45594000000E+02  0.51100000000E-03 0.  1.
         11   -1    0    0    0    0 -0.00000000000E+00 -0.00000000000E+00 -0.45593999997E+02  0.45594000000E+02  0.51100000000E-03 0. -1.
    9900012    2    1    2    0    0  0.88245344130E+01 -0.11893884459E+02  0.42541468936E+02  0.46142317917E+02  0.10000001421E+02 0.  0.
         12    1    1    2    0    0 -0.88245344130E+01  0.11893884459E+02 -0.42541468936E+02  0.45045682083E+02  0.00000000000E+00 0. -1.
         11    1    3    3    0    0 -0.22956171016E+00  0.11686444443E+01  0.30453333170E+01  0.32699363433E+01  0.51100000000E-03 0. -1.
        -11    1    3    3    0    0  0.16854467281E+01 -0.44680574227E+01  0.71120284282E+01  0.85665171704E+01  0.51100000000E-03 0.  1.
        -12    1    3    3    0    0  0.73686493951E+01 -0.85944714801E+01  0.32384107190E+02  0.34305864403E+02  0.00000000000E+00 0.  1.
</event>
<event>
 7    1  0.2297343E-008  0.4614231E+02  0.7816164E-02  0.1320468E+00
        -11   -1    0    0    0    0  0.00000000000E+00  0.00000000000E+00  0.45593999997E+02  0.45594000000E+02  0.51100000000E-03 0. -1.
         11   -1    0    0    0    0 -0.00000000000E+00 -0.00000000000E+00 -0.45593999997E+02  0.45594000000E+02  0.51100000000E-03 0.  1.
    9900012    2    1    2    0    0 -0.94222948018E+01  0.38855557580E+02 -0.20750417153E+02  0.46142314233E+02  0.99999678257E+01 0.  0.
         12    1    1    2    0    0  0.94222948018E+01 -0.38855557580E+02  0.20750417153E+02  0.45045685767E+02  0.00000000000E+00 0. -1.
         11    1    3    3    0    0 -0.10375422681E+01  0.46512718504E+00 -0.20233944668E+01  0.23209831291E+01  0.51100000000E-03 0. -1.
        -11    1    3    3    0    0 -0.14094604555E+01  0.84512391230E+01 -0.18994970556E+01  0.87759962862E+01  0.51100000000E-03 0.  1.
        -12    1    3    3    0    0 -0.69752920783E+01  0.29939191272E+02 -0.16827525631E+02  0.35045334817E+02  0.00000000000E+00 0.  1.
</event>
<event>
 7    1  0.2297343E-008  0.4614232E+02  0.7816164E-02  0.1320468E+00
        -11   -1    0    0    0    0  0.00000000000E+00  0.00000000000E+00  0.45593999997E+02  0.45594000000E+02  0.51100000000E-03 0.  1.
         11   -1    0    0    0    0 -0.00000000000E+00 -0.00000000000E+00 -0.45593999997E+02  0.45594000000E+02  0.51100000000E-03 0. -1.
    9900012    2    1    2    0    0 -0.44003124950E+02 -0.33822507705E+01  0.90221361932E+01  0.46142316887E+02  0.99999920257E+01 0.  0.
         12    1    1    2    0    0  0.44003124950E+02  0.33822507705E+01 -0.90221361932E+01  0.45045683113E+02  0.00000000000E+00 0. -1.
         11    1    3    3    0    0 -0.86020673304E+00  0.16463662713E+00 -0.83852175585E+00  0.12125097273E+01  0.51100000000E-03 0. -1.
        -11    1    3    3    0    0 -0.58603722448E+01  0.20208485907E+00  0.37601602264E+01  0.69658887679E+01  0.51100000000E-03 0.  1.
         12    1    3    3    0    0 -0.37282545972E+02 -0.37489722567E+01  0.61004977227E+01  0.37963918391E+02  0.00000000000E+00 0. -1.
</event>
<event>
 7    1  0.2297343E-008  0.4614231E+02  0.7816164E-02  0.1320468E+00
        -11   -1    0    0    0    0  0.00000000000E+00  0.00000000000E+00  0.45593999997E+02  0.45594000000E+02  0.51100000000E-03 0. -1.
         11   -1    0    0    0    0 -0.00000000000E+00 -0.00000000000E+00 -0.45593999997E+02  0.45594000000E+02  0.51100000000E-03 0.  1.
    9900012    2    1    2    0    0  0.14680202378E+02  0.38100779856E+02 -0.19024627338E+02  0.46142309720E+02  0.99999266710E+01 0.  0.
         12    1    1    2    0    0 -0.14680202378E+02 -0.38100779856E+02  0.19024627338E+02  0.45045690280E+02  0.00000000000E+00 0. -1.
         11    1    3    3    0    0  0.13952475218E+01  0.34407323333E+01  0.63662924686E+00  0.37670481409E+01  0.51100000000E-03 0. -1.
        -11    1    3    3    0    0  0.29428910736E+01  0.13006003951E+02 -0.91798732727E+01  0.16189095720E+02  0.51100000000E-03 0.  1.
        -12    1    3    3    0    0  0.10342063782E+02  0.21654043571E+02 -0.10481383312E+02  0.26186165859E+02  0.00000000000E+00 0.  1.
</event>
<event>
 7    1  0.2297343E-008  0.4614232E+02  0.7816164E-02  0.1320468E+00
        -11   -1    0    0    0    0  0.00000000000E+00  0.00000000000E+00  0.45593999997E+02  0.45594000000E+02  0.51100000000E-03 0.  1.
         11   -1    0    0    0    0 -0.00000000000E+00 -0.00000000000E+00 -0.45593999997E+02  0.45594000000E+02  0.51100000000E-03 0. -1.
    9900012    2    1    2    0    0  0.75443222523E-01 -0.43650229712E+02  0.11124982685E+02  0.46142317795E+02  0.10000000309E+02 0.  0.
         12    1    1    2    0    0 -0.75443222523E-01  0.43650229712E+02 -0.11124982685E+02  0.45045682205E+02  0.00000000000E+00 0. -1.
         11    1    3    3    0    0  0.29057556308E+01 -0.84495414183E+01  0.15600540356E+01  0.90703877988E+01  0.51100000000E-03 0. -1.
        -11    1    3    3    0    0 -0.20732667066E+01 -0.22439414016E+02  0.90304801122E+01  0.24277053107E+02  0.51100000000E-03 0.  1.
        -12    1    3    3    0    0 -0.75704570163E+00 -0.12761274277E+02  0.53444853689E+00  0.12794876890E+02  0.00000000000E+00 0.  1.
</event>
<event>
 7    1  0.2297343E-008  0.4614232E+02  0.7816164E-02  0.1320468E+00
        -11   -1    0    0    0    0  0.00000000000E+00  0.00000000000E+00  0.45593999997E+02  0.45594000000E+02  0.51100000000E-03 0. -1.
         11   -1    0    0    0    0 -0.00000000000E+00 -0.00000000000E+00 -0.45593999997E+02  0.45594000000E+02  0.51100000000E-03 0.  1.
    9900012    2    1    2    0    0  0.34976866602E+02  0.77625939444E+01 -0.27303377772E+02  0.46142317634E+02  0.99999988434E+01 0.  0.
         12    1    1    2    0    0 -0.34976866602E+02 -0.77625939444E+01  0.27303377772E+02  0.45045682366E+02  0.00000000000E+00 0. -1.
         11    1    3    3    0    0  0.19326838244E+01  0.44919595691E+00 -0.36497693478E+01  0.41542580958E+01  0.51100000000E-03 0. -1.
        -11    1    3    3    0    0  0.64858981541E+01  0.84346455836E-01 -0.15050968885E+01  0.66587766214E+01  0.51100000000E-03 0.  1.
        -12    1    3    3    0    0  0.26558284623E+02  0.72290515316E+01 -0.22148511536E+02  0.35329282917E+02  0.00000000000E+00 0.  1.
</event>
<event>
 7    1  0.2297343E-008  0.4614232E+02  0.7816164E-02  0.1320468E+00
        -11   -1    0    0    0    0  0.00000000000E+00  0.00000000000E+00  0.45593999997E+02  0.45594000000E+02  0.51100000000E-03 0.  1.
         11   -1    0    0    0    0 -0.00000000000E+00 -0.00000000000E+00 -0.45593999997E+02  0.45594000000E+02  0.51100000000E-03 0. -1.
    9900012    2    1    2    0    0  0.23925353591E+02 -0.23601866549E+02  0.29994046260E+02  0.46142318075E+02  0.10000002859E+02 0.  0.
         12    1    1    2    0    0 -0.23925353591E+02  0.23601866549E+02 -0.29994046260E+02  0.45045681925E+02  0.00000000000E+00 0. -1.
         11    1    3    3    0    0  0.76972525973E+01 -0.82457550094E+01  0.55110544088E+01  0.12554357577E+02  0.51100000000E-03 0. -1.
        -11    1    3    3    0    0  0.75268018757E+01 -0.79268384666E+01  0.80991758277E+01  0.13604564083E+02  0.51100000000E-03 0.  1.
         12    1    3    3    0    0  0.87012991176E+01 -0.74292730734E+01  0.16383816024E+02  0.19983396414E+02  0.00000000000E+00 0. -1.
</event>
<event>
 7    1  0.2297343E-008  0.4614232E+02  0.7816164E-02  0.1320468E+00
        -11   -1    0    0    0    0  0.00000000000E+00  0.00000000000E+00  0.45593999997E+02  0.45594000000E+02  0.51100000000E-03 0.  1.
         11   -1    0    0    0    0 -0.00000000000E+00 -0.00000000000E+00 -0.45593999997E+02  0.45594000000E+02  0.51100000000E-03 0. -1.
    9900012    2    1    2    0    0  0.20741096922E+02  0.38190989819E+02  0.11847729295E+02  0.46142317695E+02  0.99999993978E+01 0.  0.
         12    1    1    2    0    0 -0.20741096922E+02 -0.38190989819E+02 -0.11847729295E+02  0.45045682305E+02  0.00000000000E+00 0. -1.
         11    1    3    3    0    0  0.26587523478E+01  0.84811092169E+01  0.27582295903E+01  0.93062349170E+01  0.51100000000E-03 0. -1.
        -11    1    3    3    0    0  0.59027120394E+01  0.80022444795E+01 -0.96618415474E+00  0.99905674620E+01  0.51100000000E-03 0.  1.
        -12    1    3    3    0    0  0.12179632535E+02  0.21707636122E+02  0.10055683860E+02  0.26845515316E+02  0.00000000000E+00 0.  1.
</event>
<event>
 7    1  0.2297343E-008  0.4614232E+02  0.7816164E-02  0.1320468E+00
        -11   -1    0    0    0    0  0.00000000000E+00  0.00000000000E+00  0.45593999997E+02  0.45594000000E+02  0.51100000000E-03 0.  1.
         11   -1    0    0    0    0 -0.00000000000E+00 -0.00000000000E+00 -0.45593999997E+02  0.45594000000E+02  0.51100000000E-03 0. -1.
    9900012    2    1    2    0    0 -0.15535553040E+02 -0.25087301329E+02  0.34035091673E+02  0.46142316950E+02  0.99999926040E+01 0.  0.
         12    1    1    2    0    0  0.15535553040E+02  0.25087301329E+02 -0.34035091673E+02  0.45045683050E+02  0.00000000000E+00 0. -1.
         11    1    3    3    0    0 -0.80669315941E+01 -0.11707634959E+02  0.19366968899E+02  0.24025477858E+02  0.51100000000E-03 0.  1.
        -11    1    3    3    0    0 -0.31967173416E+00 -0.20475402227E+01  0.55114562764E+01  0.58881883062E+01  0.51100000000E-03 0. -1.
         12    1    3    3    0    0 -0.71489497121E+01 -0.11332126147E+02  0.91566664977E+01  0.16228650786E+02  0.00000000000E+00 0. -1.
</event>
<event>
 7    1  0.2297343E-008  0.4614232E+02  0.7816164E-02  0.1320468E+00
        -11   -1    0    0    0    0  0.00000000000E+00  0.00000000000E+00  0.45593999997E+02  0.45594000000E+02  0.51100000000E-03 0.  1.
         11   -1    0    0    0    0 -0.00000000000E+00 -0.00000000000E+00 -0.45593999997E+02  0.45594000000E+02  0.51100000000E-03 0. -1.
    9900012    2    1    2    0    0 -0.30010609480E+00  0.73856713120E+01  0.44435069319E+02  0.46142316636E+02  0.99999897379E+01 0.  0.
         12    1    1    2    0    0  0.30010609480E+00 -0.73856713120E+01 -0.44435069319E+02  0.45045683364E+02  0.00000000000E+00 0. -1.
         11    1    3    3    0    0 -0.67928495211E+00  0.33691715408E+01  0.12213810209E+02  0.12688179736E+02  0.51100000000E-03 0. -1.
        -11    1    3    3    0    0 -0.20199999906E+01  0.27746267887E+01  0.29200788400E+02  0.29401785612E+02  0.51100000000E-03 0.  1.
         12    1    3    3    0    0  0.23991788479E+01  0.12418729825E+01  0.30204707098E+01  0.40523512875E+01  0.00000000000E+00 0. -1.
</event>
<event>
 7    1  0.2297343E-008  0.4614232E+02  0.7816164E-02  0.1320468E+00
        -11   -1    0    0    0    0  0.00000000000E+00  0.00000000000E+00  0.45593999997E+02  0.45594000000E+02  0.51100000000E-03 0.  1.
         11   -1    0    0    0    0 -0.00000000000E+00 -0.00000000000E+00 -0.45593999997E+02  0.45594000000E+02  0.51100000000E-03 0. -1.
    9900012    2    1    2    0    0 -0.40537140953E+02  0.33832712526E+01  0.19349603674E+02  0.46142317817E+02  0.10000000511E+02 0.  0.
         12    1    1    2    0    0  0.40537140953E+02 -0.33832712526E+01 -0.19349603674E+02  0.45045682183E+02  0.00000000000E+00 0. -1.
         11    1    3    3    0    0 -0.17254036313E+02 -0.20598203485E+00  0.10343221956E+02  0.20117813956E+02  0.51100000000E-03 0. -1.
        -11    1    3    3    0    0 -0.21920300165E+02  0.38989464441E+01  0.98994565414E+01  0.24365971821E+02  0.51100000000E-03 0.  1.
        -12    1    3    3    0    0 -0.13628044748E+01 -0.30969315658E+00 -0.89307482353E+00  0.16585320402E+01  0.00000000000E+00 0.  1.
</event>
<event>
 7    1  0.2297343E-008  0.4614232E+02  0.7816164E-02  0.1320468E+00
        -11   -1    0    0    0    0  0.00000000000E+00  0.00000000000E+00  0.45593999997E+02  0.45594000000E+02  0.51100000000E-03 0.  1.
         11   -1    0    0    0    0 -0.00000000000E+00 -0.00000000000E+00 -0.45593999997E+02  0.45594000000E+02  0.51100000000E-03 0. -1.
    9900012    2    1    2    0    0  0.31699122474E+02  0.69271451283E+01  0.31245700250E+02  0.46142317750E+02  0.99999998945E+01 0.  0.
         12    1    1    2    0    0 -0.31699122474E+02 -0.69271451283E+01 -0.31245700250E+02  0.45045682250E+02  0.00000000000E+00 0. -1.
         11    1    3    3    0    0  0.15123297059E+02  0.37861704971E-01  0.10524094431E+02  0.18424768962E+02  0.51100000000E-03 0. -1.
        -11    1    3    3    0    0  0.46828512688E+00  0.78266906303E+00  0.24098198540E+01  0.25766439048E+01  0.51100000000E-03 0.  1.
        -12    1    3    3    0    0  0.16107540289E+02  0.61066143603E+01  0.18311785965E+02  0.25140904883E+02  0.00000000000E+00 0.  1.
</event>
<event>
 7    1  0.2297343E-008  0.4614232E+02  0.7816164E-02  0.1320468E+00
        -11   -1    0    0    0    0  0.00000000000E+00  0.00000000000E+00  0.45593999997E+02  0.45594000000E+02  0.51100000000E-03 0.  1.
         11   -1    0    0    0    0 -0.00000000000E+00 -0.00000000000E+00 -0.45593999997E+02  0.45594000000E+02  0.51100000000E-03 0. -1.
    9900012    2    1    2    0    0 -0.16196002043E+02  0.19531161630E+02  0.37220111661E+02  0.46142317978E+02  0.10000001977E+02 0.  0.
         12    1    1    2    0    0  0.16196002043E+02 -0.19531161630E+02 -0.37220111661E+02  0.45045682022E+02  0.00000000000E+00 0. -1.
         11    1    3    3    0    0 -0.10740899891E+02  0.14024125401E+02  0.18335257358E+02  0.25460256997E+02  0.51100000000E-03 0. -1.
        -11    1    3    3    0    0 -0.41822061545E+01  0.43770971811E+01  0.10447765694E+02  0.12075000468E+02  0.51100000000E-03 0.  1.
         12    1    3    3    0    0 -0.12728959976E+01  0.11299390487E+01  0.84370886091E+01  0.86070605129E+01  0.00000000000E+00 0. -1.
</event>
<event>
 7    1  0.2297343E-008  0.4614232E+02  0.7816164E-02  0.1320468E+00
        -11   -1    0    0    0    0  0.00000000000E+00  0.00000000000E+00  0.45593999997E+02  0.45594000000E+02  0.51100000000E-03 0. -1.
         11   -1    0    0    0    0 -0.00000000000E+00 -0.00000000000E+00 -0.45593999997E+02  0.45594000000E+02  0.51100000000E-03 0.  1.
    9900012    2    1    2    0    0  0.11736079027E+02 -0.42023776991E+02 -0.11197326770E+02  0.46142317517E+02  0.99999977758E+01 0.  0.
         12    1    1    2    0    0 -0.11736079027E+02  0.42023776991E+02  0.11197326770E+02  0.45045682483E+02  0.00000000000E+00 0. -1.
         11    1    3    3    0    0  0.42284750056E+01 -0.11158837080E+02 -0.66142735487E+01  0.13643616114E+02  0.51100000000E-03 0. -1.
        -11    1    3    3    0    0  0.73857593233E+00 -0.12479423582E+02 -0.29093038519E+01  0.12835324558E+02  0.51100000000E-03 0.  1.
         12    1    3    3    0    0  0.67690280892E+01 -0.18385516329E+02 -0.16737493696E+01  0.19663376844E+02  0.00000000000E+00 0. -1.
</event>
<event>
 7    1  0.2297343E-008  0.4614232E+02  0.7816164E-02  0.1320468E+00
        -11   -1    0    0    0    0  0.00000000000E+00  0.00000000000E+00  0.45593999997E+02  0.45594000000E+02  0.51100000000E-03 0.  1.
         11   -1    0    0    0    0 -0.00000000000E+00 -0.00000000000E+00 -0.45593999997E+02  0.45594000000E+02  0.51100000000E-03 0. -1.
    9900012    2    1    2    0    0  0.28585815185E+02  0.10320841621E+02  0.33248230178E+02  0.46142318614E+02  0.10000007775E+02 0.  0.
         12    1    1    2    0    0 -0.28585815185E+02 -0.10320841621E+02 -0.33248230178E+02  0.45045681386E+02  0.00000000000E+00 0. -1.
         11    1    3    3    0    0  0.15506870806E+02  0.66889483383E+01  0.13898086720E+02  0.21871485701E+02  0.51100000000E-03 0.  1.
        -11    1    3    3    0    0  0.82492817382E+01  0.44769193152E+01  0.15114452040E+02  0.17791574312E+02  0.51100000000E-03 0. -1.
         12    1    3    3    0    0  0.48296626412E+01 -0.84502603219E+00  0.42356914183E+01  0.64792586006E+01  0.00000000000E+00 0. -1.
</event>
<event>
 7    1  0.2297343E-008  0.4614232E+02  0.7816164E-02  0.1320468E+00
        -11   -1    0    0    0    0  0.00000000000E+00  0.00000000000E+00  0.45593999997E+02  0.45594000000E+02  0.51100000000E-03 0.  1.
         11   -1    0    0    0    0 -0.00000000000E+00 -0.00000000000E+00 -0.45593999997E+02  0.45594000000E+02  0.51100000000E-03 0. -1.
    9900012    2    1    2    0    0  0.52238933905E+01 -0.12964858960E+02  0.42822153289E+02  0.46142318272E+02  0.10000004660E+02 0.  0.
         12    1    1    2    0    0 -0.52238933905E+01  0.12964858960E+02 -0.42822153289E+02  0.45045681728E+02  0.00000000000E+00 0. -1.
         11    1    3    3    0    0  0.42662119347E+01 -0.21093927182E+01  0.71500115001E+01  0.85891074405E+01  0.51100000000E-03 0. -1.
        -11    1    3    3    0    0  0.16630157550E+01 -0.14917819363E+01  0.91163359378E+01  0.93860862951E+01  0.51100000000E-03 0.  1.
        -12    1    3    3    0    0 -0.70533429912E+00 -0.93636843052E+01  0.26555805851E+02  0.28167124537E+02  0.00000000000E+00 0.  1.
</event>
<event>
 7    1  0.2297343E-008  0.4614232E+02  0.7816164E-02  0.1320468E+00
        -11   -1    0    0    0    0  0.00000000000E+00  0.00000000000E+00  0.45593999997E+02  0.45594000000E+02  0.51100000000E-03 0.  1.
         11   -1    0    0    0    0 -0.00000000000E+00 -0.00000000000E+00 -0.45593999997E+02  0.45594000000E+02  0.51100000000E-03 0. -1.
    9900012    2    1    2    0    0  0.68039244725E+01 -0.17573453633E+02  0.40914470438E+02  0.46142317054E+02  0.99999935514E+01 0.  0.
         12    1    1    2    0    0 -0.68039244725E+01  0.17573453633E+02 -0.40914470438E+02  0.45045682946E+02  0.00000000000E+00 0. -1.
         11    1    3    3    0    0  0.43855339732E+01 -0.54343015500E+01  0.11963297960E+02  0.13852257575E+02  0.51100000000E-03 0. -1.
        -11    1    3    3    0    0  0.43689981530E+01 -0.58336002497E+01  0.18990118196E+02  0.20340688929E+02  0.51100000000E-03 0.  1.
        -12    1    3    3    0    0 -0.19506076537E+01 -0.63055518337E+01  0.99610542818E+01  0.11949370550E+02  0.00000000000E+00 0.  1.
</event>
<event>
 7    1  0.2297343E-008  0.4614232E+02  0.7816164E-02  0.1320468E+00
        -11   -1    0    0    0    0  0.00000000000E+00  0.00000000000E+00  0.45593999997E+02  0.45594000000E+02  0.51100000000E-03 0.  1.
         11   -1    0    0    0    0 -0.00000000000E+00 -0.00000000000E+00 -0.45593999997E+02  0.45594000000E+02  0.51100000000E-03 0. -1.
    9900012    2    1    2    0    0  0.32114423056E+01  0.16154934449E+02  0.41926342619E+02  0.46142317919E+02  0.10000001443E+02 0.  0.
         12    1    1    2    0    0 -0.32114423056E+01 -0.16154934449E+02 -0.41926342619E+02  0.45045682081E+02  0.00000000000E+00 0. -1.
         11    1    3    3    0    0  0.64949425590E-01  0.72410586358E+01  0.29990971227E+02  0.30852803827E+02  0.51100000000E-03 0.  1.
        -11    1    3    3    0    0  0.21398462604E+01  0.73217943397E+01  0.10125653134E+02  0.12677399813E+02  0.51100000000E-03 0. -1.
        -12    1    3    3    0    0  0.10066466196E+01  0.15920814734E+01  0.18097182578E+01  0.26121142792E+01  0.00000000000E+00 0.  1.
</event>
<event>
 7    1  0.2297343E-008  0.4614232E+02  0.7816164E-02  0.1320468E+00
        -11   -1    0    0    0    0  0.00000000000E+00  0.00000000000E+00  0.45593999997E+02  0.45594000000E+02  0.51100000000E-03 0.  1.
         11   -1    0    0    0    0 -0.00000000000E+00 -0.00000000000E+00 -0.45593999997E+02  0.45594000000E+02  0.51100000000E-03 0. -1.
    9900012    2    1    2    0    0  0.42138033706E+01  0.94130408929E+01  0.43849196602E+02  0.46142317407E+02  0.99999967672E+01 0.  0.
         12    1    1    2    0    0 -0.42138033706E+01 -0.94130408929E+01 -0.43849196602E+02  0.45045682593E+02  0.00000000000E+00 0. -1.
         11    1    3    3    0    0  0.21936015022E+01  0.12361303095E+01  0.37525782388E+01  0.45190429730E+01  0.51100000000E-03 0. -1.
        -11    1    3    3    0    0  0.28458312226E+01  0.63243487312E+01  0.15960871743E+02  0.17402458714E+02  0.51100000000E-03 0.  1.
         12    1    3    3    0    0 -0.82562935416E+00  0.18525618523E+01  0.24135746619E+02  0.24220815720E+02  0.00000000000E+00 0. -1.
</event>
<event>
 7    1  0.2297343E-008  0.4614232E+02  0.7816164E-02  0.1320468E+00
        -11   -1    0    0    0    0  0.00000000000E+00  0.00000000000E+00  0.45593999997E+02  0.45594000000E+02  0.51100000000E-03 0.  1.
         11   -1    0    0    0    0 -0.00000000000E+00 -0.00000000000E+00 -0.45593999997E+02  0.45594000000E+02  0.51100000000E-03 0. -1.
    9900012    2    1    2    0    0 -0.34845536488E+02 -0.18125061915E+02  0.22054120325E+02  0.46142317567E+02  0.99999982294E+01 0.  0.
         12    1    1    2    0    0  0.34845536488E+02  0.18125061915E+02 -0.22054120325E+02  0.45045682433E+02  0.00000000000E+00 0. -1.
         11    1    3    3    0    0 -0.15533759112E+02 -0.83776111874E+01  0.12267795584E+02  0.21493739789E+02  0.51100000000E-03 0. -1.
        -11    1    3    3    0    0 -0.13162593155E+02 -0.85651538696E+01  0.41972246401E+01  0.16255227292E+02  0.51100000000E-03 0.  1.
         12    1    3    3    0    0 -0.61491842204E+01 -0.11822968579E+01  0.55891001013E+01  0.83933504859E+01  0.00000000000E+00 0. -1.
</event>
<event>
 7    1  0.2297343E-008  0.4614232E+02  0.7816164E-02  0.1320468E+00
        -11   -1    0    0    0    0  0.00000000000E+00  0.00000000000E+00  0.45593999997E+02  0.45594000000E+02  0.51100000000E-03 0.  1.
         11   -1    0    0    0    0 -0.00000000000E+00 -0.00000000000E+00 -0.45593999997E+02  0.45594000000E+02  0.51100000000E-03 0. -1.
    9900012    2    1    2    0    0  0.16087185648E+02  0.14119439929E+02  0.39635304737E+02  0.46142317548E+02  0.99999980587E+01 0.  0.
         12    1    1    2    0    0 -0.16087185648E+02 -0.14119439929E+02 -0.39635304737E+02  0.45045682452E+02  0.00000000000E+00 0. -1.
         11    1    3    3    0    0  0.29866844699E+00  0.21535353251E+00 -0.18401794744E-01  0.36867176779E+00  0.51100000000E-03 0. -1.
        -11    1    3    3    0    0  0.64331487574E+01  0.84503519778E+01  0.27584923746E+02  0.29558786677E+02  0.51100000000E-03 0.  1.
        -12    1    3    3    0    0  0.93553684435E+01  0.54537344186E+01  0.12068782786E+02  0.16214859104E+02  0.00000000000E+00 0.  1.
</event>
<event>
 7    1  0.2297343E-008  0.4614232E+02  0.7816164E-02  0.1320468E+00
        -11   -1    0    0    0    0  0.00000000000E+00  0.00000000000E+00  0.45593999997E+02  0.45594000000E+02  0.51100000000E-03 0.  1.
         11   -1    0    0    0    0 -0.00000000000E+00 -0.00000000000E+00 -0.45593999997E+02  0.45594000000E+02  0.51100000000E-03 0. -1.
    9900012    2    1    2    0    0 -0.54944688048E+00 -0.43776308319E+02  0.10604080338E+02  0.46142316725E+02  0.99999905476E+01 0.  0.
         12    1    1    2    0    0  0.54944688048E+00  0.43776308319E+02 -0.10604080338E+02  0.45045683275E+02  0.00000000000E+00 0. -1.
         11    1    3    3    0    0  0.10511155475E+01 -0.32486468618E+01  0.31940852525E+01  0.46755460845E+01  0.51100000000E-03 0. -1.
        -11    1    3    3    0    0  0.43024858505E-01 -0.23856836534E+02  0.63194167765E+01  0.24679658207E+02  0.51100000000E-03 0.  1.
        -12    1    3    3    0    0 -0.16435872865E+01 -0.16670824923E+02  0.10905783091E+01  0.16787112433E+02  0.00000000000E+00 0.  1.
</event>
<event>
 7    1  0.2297343E-008  0.4614232E+02  0.7816164E-02  0.1320468E+00
        -11   -1    0    0    0    0  0.00000000000E+00  0.00000000000E+00  0.45593999997E+02  0.45594000000E+02  0.51100000000E-03 0.  1.
         11   -1    0    0    0    0 -0.00000000000E+00 -0.00000000000E+00 -0.45593999997E+02  0.45594000000E+02  0.51100000000E-03 0. -1.
    9900012    2    1    2    0    0 -0.72498607830E+01  0.35414076115E+02  0.26877423701E+02  0.46142321259E+02  0.10000031900E+02 0.  0.
         12    1    1    2    0    0  0.72498607830E+01 -0.35414076115E+02 -0.26877423701E+02  0.45045678741E+02  0.00000000000E+00 0. -1.
         11    1    3    3    0    0  0.24494282000E+00  0.14938731359E+02  0.13323124353E+02  0.20018275010E+02  0.51100000000E-03 0. -1.
        -11    1    3    3    0    0 -0.24055489949E+01  0.21357023280E+01  0.27904932369E+01  0.42584907147E+01  0.51100000000E-03 0.  1.
         12    1    3    3    0    0 -0.50892546081E+01  0.18339642427E+02  0.10763806111E+02  0.21865555534E+02  0.00000000000E+00 0. -1.
</event>
<event>
 7    1  0.2297343E-008  0.4614232E+02  0.7816164E-02  0.1320468E+00
        -11   -1    0    0    0    0  0.00000000000E+00  0.00000000000E+00  0.45593999997E+02  0.45594000000E+02  0.51100000000E-03 0.  1.
         11   -1    0    0    0    0 -0.00000000000E+00 -0.00000000000E+00 -0.45593999997E+02  0.45594000000E+02  0.51100000000E-03 0. -1.
    9900012    2    1    2    0    0 -0.31275606294E+02  0.14911554003E+02  0.28785333678E+02  0.46142318445E+02  0.10000006234E+02 0.  0.
         12    1    1    2    0    0  0.31275606294E+02 -0.14911554003E+02 -0.28785333678E+02  0.45045681555E+02  0.00000000000E+00 0. -1.
         11    1    3    3    0    0 -0.56881635791E+01  0.59405437768E+01  0.46331966431E+01  0.94399034244E+01  0.51100000000E-03 0. -1.
        -11    1    3    3    0    0 -0.14500982365E+02  0.61522975195E+01  0.10692135185E+02  0.19038146164E+02  0.51100000000E-03 0.  1.
        -12    1    3    3    0    0 -0.11086460350E+02  0.28187127070E+01  0.13460001850E+02  0.17664268856E+02  0.00000000000E+00 0.  1.
</event>
<event>
 7    1  0.2297343E-008  0.4614232E+02  0.7816164E-02  0.1320468E+00
        -11   -1    0    0    0    0  0.00000000000E+00  0.00000000000E+00  0.45593999997E+02  0.45594000000E+02  0.51100000000E-03 0.  1.
         11   -1    0    0    0    0 -0.00000000000E+00 -0.00000000000E+00 -0.45593999997E+02  0.45594000000E+02  0.51100000000E-03 0. -1.
    9900012    2    1    2    0    0  0.43645915322E+01  0.42819802468E+01  0.44628786286E+02  0.46142316750E+02  0.99999907834E+01 0.  0.
         12    1    1    2    0    0 -0.43645915322E+01 -0.42819802468E+01 -0.44628786286E+02  0.45045683250E+02  0.00000000000E+00 0. -1.
         11    1    3    3    0    0  0.41018469680E+01  0.12026808218E+00  0.24141390759E+02  0.24487677738E+02  0.51100000000E-03 0.  1.
        -11    1    3    3    0    0  0.92599943332E+00  0.43155398086E+01  0.20503894133E+02  0.20973579419E+02  0.51100000000E-03 0. -1.
        -12    1    3    3    0    0 -0.66325486906E+00 -0.15382764399E+00 -0.16498605849E-01  0.68105959312E+00  0.00000000000E+00 0.  1.
</event>
<event>
 7    1  0.2297343E-008  0.4614232E+02  0.7816164E-02  0.1320468E+00
        -11   -1    0    0    0    0  0.00000000000E+00  0.00000000000E+00  0.45593999997E+02  0.45594000000E+02  0.51100000000E-03 0.  1.
         11   -1    0    0    0    0 -0.00000000000E+00 -0.00000000000E+00 -0.45593999997E+02  0.45594000000E+02  0.51100000000E-03 0. -1.
    9900012    2    1    2    0    0  0.28935856200E+01  0.19531155247E+01  0.44910199257E+02  0.46142317684E+02  0.99999992997E+01 0.  0.
         12    1    1    2    0    0 -0.28935856200E+01 -0.19531155247E+01 -0.44910199257E+02  0.45045682316E+02  0.00000000000E+00 0. -1.
         11    1    3    3    0    0  0.23463940824E+01  0.17168330955E+01  0.82167111459E+01  0.87159292897E+01  0.51100000000E-03 0. -1.
        -11    1    3    3    0    0  0.17901812261E+01  0.24030846183E+01  0.31715900240E+02  0.31857148222E+02  0.51100000000E-03 0.  1.
         12    1    3    3    0    0 -0.12429896885E+01 -0.21668021892E+01  0.49775878707E+01  0.55692401729E+01  0.00000000000E+00 0. -1.
</event>
<event>
 7    1  0.2297343E-008  0.4614232E+02  0.7816164E-02  0.1320468E+00
        -11   -1    0    0    0    0  0.00000000000E+00  0.00000000000E+00  0.45593999997E+02  0.45594000000E+02  0.51100000000E-03 0. -1.
         11   -1    0    0    0    0 -0.00000000000E+00 -0.00000000000E+00 -0.45593999997E+02  0.45594000000E+02  0.51100000000E-03 0.  1.
    9900012    2    1    2    0    0 -0.98881814723E+01  0.43946103475E+02 -0.27791409383E+00  0.46142318967E+02  0.10000010999E+02 0.  0.
         12    1    1    2    0    0  0.98881814723E+01 -0.43946103475E+02  0.27791409383E+00  0.45045681033E+02  0.00000000000E+00 0. -1.
         11    1    3    3    0    0 -0.70721040259E+01  0.21896207791E+02 -0.40005105443E+01  0.23355141958E+02  0.51100000000E-03 0. -1.
        -11    1    3    3    0    0 -0.33154479873E+01  0.13119722681E+02  0.24708161297E+01  0.13755880604E+02  0.51100000000E-03 0.  1.
         12    1    3    3    0    0  0.49937054087E+00  0.89301730022E+01  0.12517803208E+01  0.90312964052E+01  0.00000000000E+00 0. -1.
</event>
<event>
 7    1  0.2297343E-008  0.4614232E+02  0.7816164E-02  0.1320468E+00
        -11   -1    0    0    0    0  0.00000000000E+00  0.00000000000E+00  0.45593999997E+02  0.45594000000E+02  0.51100000000E-03 0. -1.
         11   -1    0    0    0    0 -0.00000000000E+00 -0.00000000000E+00 -0.45593999997E+02  0.45594000000E+02  0.51100000000E-03 0.  1.
    9900012    2    1    2    0    0  0.42463522013E+02 -0.24033459039E+01 -0.14838691677E+02  0.46142317144E+02  0.99999943715E+01 0.  0.
         12    1    1    2    0    0 -0.42463522013E+02  0.24033459039E+01  0.14838691677E+02  0.45045682856E+02  0.00000000000E+00 0. -1.
         11    1    3    3    0    0  0.37149874338E+01 -0.13876384817E+01 -0.28613844028E+01  0.48902140190E+01  0.51100000000E-03 0. -1.
        -11    1    3    3    0    0  0.27717638509E+02  0.84430654649E+00 -0.53254997355E+01  0.28237232261E+02  0.51100000000E-03 0.  1.
        -12    1    3    3    0    0  0.11030896070E+02 -0.18600139687E+01 -0.66518075387E+01  0.13014870864E+02  0.00000000000E+00 0.  1.
</event>
<event>
 7    1  0.2297343E-008  0.4614232E+02  0.7816164E-02  0.1320468E+00
        -11   -1    0    0    0    0  0.00000000000E+00  0.00000000000E+00  0.45593999997E+02  0.45594000000E+02  0.51100000000E-03 0.  1.
         11   -1    0    0    0    0 -0.00000000000E+00 -0.00000000000E+00 -0.45593999997E+02  0.45594000000E+02  0.51100000000E-03 0. -1.
    9900012    2    1    2    0    0 -0.10793328376E+02 -0.40204670546E+02  0.17210524679E+02  0.46142316180E+02  0.99999855813E+01 0.  0.
         12    1    1    2    0    0  0.10793328376E+02  0.40204670546E+02 -0.17210524679E+02  0.45045683820E+02  0.00000000000E+00 0. -1.
         11    1    3    3    0    0 -0.24995201564E+01 -0.15556225667E+02  0.46047524544E+01  0.16414856181E+02  0.51100000000E-03 0. -1.
        -11    1    3    3    0    0 -0.67946477338E+01 -0.21227199928E+02  0.77411798539E+01  0.23594217944E+02  0.51100000000E-03 0.  1.
         12    1    3    3    0    0 -0.14991604854E+01 -0.34212449508E+01  0.48645923702E+01  0.61332420548E+01  0.00000000000E+00 0. -1.
</event>
<event>
 7    1  0.2297343E-008  0.4614232E+02  0.7816164E-02  0.1320468E+00
        -11   -1    0    0    0    0  0.00000000000E+00  0.00000000000E+00  0.45593999997E+02  0.45594000000E+02  0.51100000000E-03 0.  1.
         11   -1    0    0    0    0 -0.00000000000E+00 -0.00000000000E+00 -0.45593999997E+02  0.45594000000E+02  0.51100000000E-03 0. -1.
    9900012    2    1    2    0    0  0.30013434807E+02  0.13251596222E+02  0.30865877807E+02  0.46142317808E+02  0.10000000425E+02 0.  0.
         12    1    1    2    0    0 -0.30013434807E+02 -0.13251596222E+02 -0.30865877807E+02  0.45045682192E+02  0.00000000000E+00 0. -1.
         11    1    3    3    0    0  0.11581566946E+01  0.23393920083E+01  0.38742230274E+01  0.46715828393E+01  0.51100000000E-03 0. -1.
        -11    1    3    3    0    0  0.14153123553E+01  0.16097015444E+01  0.47697125492E+00  0.21958483472E+01  0.51100000000E-03 0.  1.
        -12    1    3    3    0    0  0.27439965757E+02  0.93025026695E+01  0.26514683525E+02  0.39274886621E+02  0.00000000000E+00 0.  1.
</event>
<event>
 7    1  0.2297343E-008  0.4614232E+02  0.7816164E-02  0.1320468E+00
        -11   -1    0    0    0    0  0.00000000000E+00  0.00000000000E+00  0.45593999997E+02  0.45594000000E+02  0.51100000000E-03 0.  1.
         11   -1    0    0    0    0 -0.00000000000E+00 -0.00000000000E+00 -0.45593999997E+02  0.45594000000E+02  0.51100000000E-03 0. -1.
    9900012    2    1    2    0    0  0.12274721177E+02 -0.40656796831E+02 -0.15015645372E+02  0.46142317471E+02  0.99999973590E+01 0.  0.
         12    1    1    2    0    0 -0.12274721177E+02  0.40656796831E+02  0.15015645372E+02  0.45045682529E+02  0.00000000000E+00 0. -1.
         11    1    3    3    0    0  0.46025560036E+01 -0.17909391747E+02 -0.10137646390E+02  0.21087951753E+02  0.51100000000E-03 0. -1.
        -11    1    3    3    0    0  0.84844316196E+01 -0.20907671595E+02 -0.45090621969E+01  0.23009736061E+02  0.51100000000E-03 0.  1.
         12    1    3    3    0    0 -0.81226644577E+00 -0.18397334884E+01 -0.36893678478E+00  0.20446296580E+01  0.00000000000E+00 0. -1.
</event>
<event>
 7    1  0.2297343E-008  0.4614232E+02  0.7816164E-02  0.1320468E+00
        -11   -1    0    0    0    0  0.00000000000E+00  0.00000000000E+00  0.45593999997E+02  0.45594000000E+02  0.51100000000E-03 0. -1.
         11   -1    0    0    0    0 -0.00000000000E+00 -0.00000000000E+00 -0.45593999997E+02  0.45594000000E+02  0.51100000000E-03 0.  1.
    9900012    2    1    2    0    0 -0.36494551438E+02  0.17442847956E+02 -0.19824437153E+02  0.46142317212E+02  0.99999949886E+01 0.  0.
         12    1    1    2    0    0  0.36494551438E+02 -0.17442847956E+02  0.19824437153E+02  0.45045682788E+02  0.00000000000E+00 0. -1.
         11    1    3    3    0    0 -0.46374098050E+01  0.51693851928E+01 -0.18345466222E+01  0.71828736966E+01  0.51100000000E-03 0. -1.
        -11    1    3    3    0    0 -0.78435698386E+01  0.62966157835E+00 -0.42073836793E+01  0.89230117787E+01  0.51100000000E-03 0.  1.
        -12    1    3    3    0    0 -0.24013571794E+02  0.11643801184E+02 -0.13782506852E+02  0.30036431736E+02  0.00000000000E+00 0.  1.
</event>
<event>
 7    1  0.2297343E-008  0.4614232E+02  0.7816164E-02  0.1320468E+00
        -11   -1    0    0    0    0  0.00000000000E+00  0.00000000000E+00  0.45593999997E+02  0.45594000000E+02  0.51100000000E-03 0.  1.
         11   -1    0    0    0    0 -0.00000000000E+00 -0.00000000000E+00 -0.45593999997E+02  0.45594000000E+02  0.51100000000E-03 0. -1.
    9900012    2    1    2    0    0 -0.65044265475E+01 -0.43382793181E+02 -0.10234217196E+02  0.46142317515E+02  0.99999977578E+01 0.  0.
         12    1    1    2    0    0  0.65044265475E+01  0.43382793181E+02  0.10234217196E+02  0.45045682485E+02  0.00000000000E+00 0. -1.
         11    1    3    3    0    0  0.66589095625E+00 -0.30744928070E+01 -0.18297103091E+01  0.36391972827E+01  0.51100000000E-03 0. -1.
        -11    1    3    3    0    0 -0.38702272744E+01 -0.34063714968E+02 -0.89109238542E+01  0.35422025644E+02  0.51100000000E-03 0.  1.
        -12    1    3    3    0    0 -0.33000902293E+01 -0.62445854064E+01  0.50641696779E+00  0.70810945881E+01  0.00000000000E+00 0.  1.
</event>
<event>
 7    1  0.2297343E-008  0.4614232E+02  0.7816164E-02  0.1320468E+00
        -11   -1    0    0    0    0  0.00000000000E+00  0.00000000000E+00  0.45593999997E+02  0.45594000000E+02  0.51100000000E-03 0.  1.
         11   -1    0    0    0    0 -0.00000000000E+00 -0.00000000000E+00 -0.45593999997E+02  0.45594000000E+02  0.51100000000E-03 0. -1.
    9900012    2    1    2    0    0 -0.90701582639E+00 -0.11591600684E+02  0.43519255799E+02  0.46142317527E+02  0.99999978670E+01 0.  0.
         12    1    1    2    0    0  0.90701582639E+00  0.11591600684E+02 -0.43519255799E+02  0.45045682473E+02  0.00000000000E+00 0. -1.
         11    1    3    3    0    0 -0.65319110653E+00  0.41146144410E+00  0.28240897325E+01  0.29277025498E+01  0.51100000000E-03 0. -1.
        -11    1    3    3    0    0  0.12035775182E+01  0.75451800371E+00  0.72784792765E+01  0.74158045484E+01  0.51100000000E-03 0.  1.
        -12    1    3    3    0    0 -0.14574022381E+01 -0.12757580132E+02  0.33416686790E+02  0.35798810429E+02  0.00000000000E+00 0.  1.
</event>
<event>
 7    1  0.2297343E-008  0.4614232E+02  0.7816164E-02  0.1320468E+00
        -11   -1    0    0    0    0  0.00000000000E+00  0.00000000000E+00  0.45593999997E+02  0.45594000000E+02  0.51100000000E-03 0. -1.
         11   -1    0    0    0    0 -0.00000000000E+00 -0.00000000000E+00 -0.45593999997E+02  0.45594000000E+02  0.51100000000E-03 0.  1.
    9900012    2    1    2    0    0  0.43548319830E+02 -0.31008674547E+01  0.11092428683E+02  0.46142317487E+02  0.99999974974E+01 0.  0.
         12    1    1    2    0    0 -0.43548319830E+02  0.31008674547E+01 -0.11092428683E+02  0.45045682513E+02  0.00000000000E+00 0. -1.
         11    1    3    3    0    0  0.39554853646E+01 -0.24681046581E+01  0.27288972820E+01  0.54022482089E+01  0.51100000000E-03 0. -1.
        -11    1    3    3    0    0  0.12377868819E+02  0.14257656907E+01  0.11653375985E+01  0.12514090310E+02  0.51100000000E-03 0.  1.
         12    1    3    3    0    0  0.27214965647E+02 -0.20585284873E+01  0.71981938027E+01  0.28225978968E+02  0.00000000000E+00 0. -1.
</event>
<event>
 7    1  0.2297343E-008  0.4614232E+02  0.7816164E-02  0.1320468E+00
        -11   -1    0    0    0    0  0.00000000000E+00  0.00000000000E+00  0.45593999997E+02  0.45594000000E+02  0.51100000000E-03 0. -1.
         11   -1    0    0    0    0 -0.00000000000E+00 -0.00000000000E+00 -0.45593999997E+02  0.45594000000E+02  0.51100000000E-03 0.  1.
    9900012    2    1    2    0    0  0.38683118198E+02  0.14428100405E+02 -0.18015543138E+02  0.46142317528E+02  0.99999978715E+01 0.  0.
         12    1    1    2    0    0 -0.38683118198E+02 -0.14428100405E+02  0.18015543138E+02  0.45045682472E+02  0.00000000000E+00 0. -1.
         11    1    3    3    0    0  0.12810386324E+01  0.13273214120E+01  0.61568561811E+00  0.19447136422E+01  0.51100000000E-03 0. -1.
        -11    1    3    3    0    0  0.16969555583E+02  0.60975175957E+01 -0.11775904111E+02  0.21536421602E+02  0.51100000000E-03 0.  1.
        -12    1    3    3    0    0  0.20432523983E+02  0.70032613974E+01 -0.68553246452E+01  0.22661182284E+02  0.00000000000E+00 0.  1.
</event>
<event>
 7    1  0.2297343E-008  0.4614232E+02  0.7816164E-02  0.1320468E+00
        -11   -1    0    0    0    0  0.00000000000E+00  0.00000000000E+00  0.45593999997E+02  0.45594000000E+02  0.51100000000E-03 0. -1.
         11   -1    0    0    0    0 -0.00000000000E+00 -0.00000000000E+00 -0.45593999997E+02  0.45594000000E+02  0.51100000000E-03 0.  1.
    9900012    2    1    2    0    0 -0.16581486832E+02 -0.33110390003E+02 -0.25648977190E+02  0.46142315827E+02  0.99999823671E+01 0.  0.
         12    1    1    2    0    0  0.16581486832E+02  0.33110390003E+02  0.25648977190E+02  0.45045684173E+02  0.00000000000E+00 0. -1.
         11    1    3    3    0    0 -0.28203715890E+01 -0.85377755877E+01 -0.98082473494E+01  0.13306007072E+02  0.51100000000E-03 0. -1.
        -11    1    3    3    0    0 -0.13504827724E+02 -0.19735919924E+02 -0.13402117675E+02  0.27413567180E+02  0.51100000000E-03 0.  1.
        -12    1    3    3    0    0 -0.25628751833E+00 -0.48366944908E+01 -0.24386121660E+01  0.54227415747E+01  0.00000000000E+00 0.  1.
</event>
<event>
 7    1  0.2297343E-008  0.4614232E+02  0.7816164E-02  0.1320468E+00
        -11   -1    0    0    0    0  0.00000000000E+00  0.00000000000E+00  0.45593999997E+02  0.45594000000E+02  0.51100000000E-03 0. -1.
         11   -1    0    0    0    0 -0.00000000000E+00 -0.00000000000E+00 -0.45593999997E+02  0.45594000000E+02  0.51100000000E-03 0.  1.
    9900012    2    1    2    0    0 -0.25493642311E+02  0.27356040474E+02 -0.25116419397E+02  0.46142320162E+02  0.10000021896E+02 0.  0.
         12    1    1    2    0    0  0.25493642311E+02 -0.27356040474E+02  0.25116419397E+02  0.45045679838E+02  0.00000000000E+00 0. -1.
         11    1    3    3    0    0 -0.37141832937E+01  0.63506752598E+00 -0.16443886258E+01  0.41112628857E+01  0.51100000000E-03 0. -1.
        -11    1    3    3    0    0 -0.20961789553E+02  0.24815708289E+02 -0.23247253021E+02  0.39945597661E+02  0.51100000000E-03 0.  1.
        -12    1    3    3    0    0 -0.81766946379E+00  0.19052646589E+01 -0.22477775054E+00  0.20854596159E+01  0.00000000000E+00 0.  1.
</event>
<event>
 7    1  0.2297343E-008  0.4614232E+02  0.7816164E-02  0.1320468E+00
        -11   -1    0    0    0    0  0.00000000000E+00  0.00000000000E+00  0.45593999997E+02  0.45594000000E+02  0.51100000000E-03 0.  1.
         11   -1    0    0    0    0 -0.00000000000E+00 -0.00000000000E+00 -0.45593999997E+02  0.45594000000E+02  0.51100000000E-03 0. -1.
    9900012    2    1    2    0    0  0.66759269613E+01  0.52248413056E+01  0.44240779024E+02  0.46142317675E+02  0.99999992148E+01 0.  0.
         12    1    1    2    0    0 -0.66759269613E+01 -0.52248413056E+01 -0.44240779024E+02  0.45045682325E+02  0.00000000000E+00 0. -1.
         11    1    3    3    0    0  0.10071450521E+01 -0.94182524133E-01  0.41352641168E+01  0.42571846426E+01  0.51100000000E-03 0. -1.
        -11    1    3    3    0    0  0.48993063590E+01  0.86067217688E+00  0.77112303856E+01  0.91764390542E+01  0.51100000000E-03 0.  1.
         12    1    3    3    0    0  0.76947555013E+00  0.44583516529E+01  0.32394284522E+02  0.32708693978E+02  0.00000000000E+00 0. -1.
</event>
<event>
 7    1  0.2297343E-008  0.4614231E+02  0.7816164E-02  0.1320468E+00
        -11   -1    0    0    0    0  0.00000000000E+00  0.00000000000E+00  0.45593999997E+02  0.45594000000E+02  0.51100000000E-03 0. -1.
         11   -1    0    0    0    0 -0.00000000000E+00 -0.00000000000E+00 -0.45593999997E+02  0.45594000000E+02  0.51100000000E-03 0.  1.
    9900012    2    1    2    0    0 -0.32146501448E+02 -0.29162517963E+02  0.12052540614E+02  0.46142314918E+02  0.99999740710E+01 0.  0.
         12    1    1    2    0    0  0.32146501448E+02  0.29162517963E+02 -0.12052540614E+02  0.45045685082E+02  0.00000000000E+00 0. -1.
         11    1    3    3    0    0 -0.14620653794E+02 -0.12418015124E+02  0.75906457777E+01  0.20629796911E+02  0.51100000000E-03 0.  1.
        -11    1    3    3    0    0 -0.91193820321E+01 -0.48276238688E+01  0.35055758876E+01  0.10897620999E+02  0.51100000000E-03 0. -1.
         12    1    3    3    0    0 -0.84064656223E+01 -0.11916878970E+02  0.95631894853E+00  0.14614897008E+02  0.00000000000E+00 0. -1.
</event>
<event>
 7    1  0.2297343E-008  0.4614232E+02  0.7816164E-02  0.1320468E+00
        -11   -1    0    0    0    0  0.00000000000E+00  0.00000000000E+00  0.45593999997E+02  0.45594000000E+02  0.51100000000E-03 0.  1.
         11   -1    0    0    0    0 -0.00000000000E+00 -0.00000000000E+00 -0.45593999997E+02  0.45594000000E+02  0.51100000000E-03 0. -1.
    9900012    2    1    2    0    0 -0.68423444765E+01  0.27575692339E+02  0.34955358312E+02  0.46142316959E+02  0.99999926865E+01 0.  0.
         12    1    1    2    0    0  0.68423444765E+01 -0.27575692339E+02 -0.34955358312E+02  0.45045683041E+02  0.00000000000E+00 0. -1.
         11    1    3    3    0    0 -0.66366070861E+01  0.15007757205E+02  0.17796763416E+02  0.24207480627E+02  0.51100000000E-03 0. -1.
        -11    1    3    3    0    0 -0.21989293187E+01  0.30636806291E+01  0.32912835747E+01  0.50053947872E+01  0.51100000000E-03 0.  1.
        -12    1    3    3    0    0  0.19931919284E+01  0.95042545050E+01  0.13867311320E+02  0.16929441545E+02  0.00000000000E+00 0.  1.
</event>
<event>
 7    1  0.2297343E-008  0.4614231E+02  0.7816164E-02  0.1320468E+00
        -11   -1    0    0    0    0  0.00000000000E+00  0.00000000000E+00  0.45593999997E+02  0.45594000000E+02  0.51100000000E-03 0.  1.
         11   -1    0    0    0    0 -0.00000000000E+00 -0.00000000000E+00 -0.45593999997E+02  0.45594000000E+02  0.51100000000E-03 0. -1.
    9900012    2    1    2    0    0  0.13735089701E+02 -0.42900558362E+02 -0.57565909408E-01  0.46142313073E+02  0.99999572506E+01 0.  0.
         12    1    1    2    0    0 -0.13735089701E+02  0.42900558362E+02  0.57565909408E-01  0.45045686927E+02  0.00000000000E+00 0. -1.
         11    1    3    3    0    0  0.38948480436E+01 -0.67427240308E+01  0.91570267817E+00  0.78404515364E+01  0.51100000000E-03 0. -1.
        -11    1    3    3    0    0  0.40140406991E+01 -0.13777022271E+02  0.34432635634E+01  0.14757199247E+02  0.51100000000E-03 0.  1.
        -12    1    3    3    0    0  0.58262009580E+01 -0.22380812061E+02 -0.44165321510E+01  0.23544662290E+02  0.00000000000E+00 0.  1.
</event>
<event>
 7    1  0.2297343E-008  0.4614232E+02  0.7816164E-02  0.1320468E+00
        -11   -1    0    0    0    0  0.00000000000E+00  0.00000000000E+00  0.45593999997E+02  0.45594000000E+02  0.51100000000E-03 0. -1.
         11   -1    0    0    0    0 -0.00000000000E+00 -0.00000000000E+00 -0.45593999997E+02  0.45594000000E+02  0.51100000000E-03 0.  1.
    9900012    2    1    2    0    0  0.37387480787E+02  0.97627743578E+01  0.23151197847E+02  0.46142318248E+02  0.10000004437E+02 0.  0.
         12    1    1    2    0    0 -0.37387480787E+02 -0.97627743578E+01 -0.23151197847E+02  0.45045681752E+02  0.00000000000E+00 0. -1.
         11    1    3    3    0    0 -0.26878408502E+00  0.86343589859E+00 -0.13058131172E+00  0.91368384872E+00  0.51100000000E-03 0. -1.
        -11    1    3    3    0    0  0.14207578844E+02  0.40154077276E+01  0.76639601497E+01  0.16634755221E+02  0.51100000000E-03 0.  1.
         12    1    3    3    0    0  0.23448686028E+02  0.48839307316E+01  0.15617819009E+02  0.28593879178E+02  0.00000000000E+00 0. -1.
</event>
<event>
 7    1  0.2297343E-008  0.4614232E+02  0.7816164E-02  0.1320468E+00
        -11   -1    0    0    0    0  0.00000000000E+00  0.00000000000E+00  0.45593999997E+02  0.45594000000E+02  0.51100000000E-03 0.  1.
         11   -1    0    0    0    0 -0.00000000000E+00 -0.00000000000E+00 -0.45593999997E+02  0.45594000000E+02  0.51100000000E-03 0. -1.
    9900012    2    1    2    0    0  0.25347251062E+02  0.28199025742E+02  0.24319648301E+02  0.46142317824E+02  0.10000000574E+02 0.  0.
         12    1    1    2    0    0 -0.25347251062E+02 -0.28199025742E+02 -0.24319648301E+02  0.45045682176E+02  0.00000000000E+00 0. -1.
         11    1    3    3    0    0  0.31910050667E+01  0.65942310765E+01  0.76655984930E+01  0.10603197506E+02  0.51100000000E-03 0. -1.
        -11    1    3    3    0    0  0.14384539222E+02  0.17306074832E+02  0.12350653139E+02  0.25670095986E+02  0.51100000000E-03 0.  1.
         12    1    3    3    0    0  0.77717067738E+01  0.42987198344E+01  0.43033966687E+01  0.98690243328E+01  0.00000000000E+00 0. -1.
</event>
<event>
 7    1  0.2297343E-008  0.4614232E+02  0.7816164E-02  0.1320468E+00
        -11   -1    0    0    0    0  0.00000000000E+00  0.00000000000E+00  0.45593999997E+02  0.45594000000E+02  0.51100000000E-03 0.  1.
         11   -1    0    0    0    0 -0.00000000000E+00 -0.00000000000E+00 -0.45593999997E+02  0.45594000000E+02  0.51100000000E-03 0. -1.
    9900012    2    1    2    0    0  0.33810096566E+02  0.77483903953E+01  0.28739405675E+02  0.46142316278E+02  0.99999864723E+01 0.  0.
         12    1    1    2    0    0 -0.33810096566E+02 -0.77483903953E+01 -0.28739405675E+02  0.45045683722E+02  0.00000000000E+00 0. -1.
         11    1    3    3    0    0  0.77733257578E+01 -0.19583129967E+01  0.87574930531E+01  0.11872374150E+02  0.51100000000E-03 0. -1.
        -11    1    3    3    0    0  0.79240178950E+01  0.30584486084E+01  0.71007783216E+01  0.11070917781E+02  0.51100000000E-03 0.  1.
        -12    1    3    3    0    0  0.18112752913E+02  0.66482547836E+01  0.12881134300E+02  0.23199024346E+02  0.00000000000E+00 0.  1.
</event>
<event>
 7    1  0.2297343E-008  0.4614232E+02  0.7816164E-02  0.1320468E+00
        -11   -1    0    0    0    0  0.00000000000E+00  0.00000000000E+00  0.45593999997E+02  0.45594000000E+02  0.51100000000E-03 0. -1.
         11   -1    0    0    0    0 -0.00000000000E+00 -0.00000000000E+00 -0.45593999997E+02  0.45594000000E+02  0.51100000000E-03 0.  1.
    9900012    2    1    2    0    0 -0.26176847019E+02  0.34472461188E+02  0.12471390997E+02  0.46142317703E+02  0.99999994712E+01 0.  0.
         12    1    1    2    0    0  0.26176847019E+02 -0.34472461188E+02 -0.12471390997E+02  0.45045682297E+02  0.00000000000E+00 0. -1.
         11    1    3    3    0    0 -0.79763112692E+01  0.11035252339E+02  0.54382797586E+01  0.14661965170E+02  0.51100000000E-03 0. -1.
        -11    1    3    3    0    0 -0.18094981455E+02  0.21095070379E+02  0.80348973051E+01  0.28930778128E+02  0.51100000000E-03 0.  1.
        -12    1    3    3    0    0 -0.10555429441E+00  0.23421384706E+01 -0.10017860667E+01  0.25495744053E+01  0.00000000000E+00 0.  1.
</event>
<event>
 7    1  0.2297343E-008  0.4614232E+02  0.7816164E-02  0.1320468E+00
        -11   -1    0    0    0    0  0.00000000000E+00  0.00000000000E+00  0.45593999997E+02  0.45594000000E+02  0.51100000000E-03 0. -1.
         11   -1    0    0    0    0 -0.00000000000E+00 -0.00000000000E+00 -0.45593999997E+02  0.45594000000E+02  0.51100000000E-03 0.  1.
    9900012    2    1    2    0    0  0.20215573549E+01  0.22260105349E+02 -0.39109006104E+02  0.46142319378E+02  0.10000014743E+02 0.  0.
         12    1    1    2    0    0 -0.20215573549E+01 -0.22260105349E+02  0.39109006104E+02  0.45045680622E+02  0.00000000000E+00 0. -1.
         11    1    3    3    0    0 -0.37418318410E+00  0.42788104688E+01 -0.11991108312E+02  0.12737146890E+02  0.51100000000E-03 0. -1.
        -11    1    3    3    0    0 -0.23929073073E+00  0.14986187178E+02 -0.24189240398E+02  0.28456324736E+02  0.51100000000E-03 0.  1.
        -12    1    3    3    0    0  0.26350312697E+01  0.29951077026E+01 -0.29286573933E+01  0.49488477517E+01  0.00000000000E+00 0.  1.
</event>
<event>
 7    1  0.2297343E-008  0.4614232E+02  0.7816164E-02  0.1320468E+00
        -11   -1    0    0    0    0  0.00000000000E+00  0.00000000000E+00  0.45593999997E+02  0.45594000000E+02  0.51100000000E-03 0.  1.
         11   -1    0    0    0    0 -0.00000000000E+00 -0.00000000000E+00 -0.45593999997E+02  0.45594000000E+02  0.51100000000E-03 0. -1.
    9900012    2    1    2    0    0 -0.28791497463E+02 -0.25870281254E+02  0.23041086430E+02  0.46142318273E+02  0.10000004669E+02 0.  0.
         12    1    1    2    0    0  0.28791497463E+02  0.25870281254E+02 -0.23041086430E+02  0.45045681727E+02  0.00000000000E+00 0. -1.
         11    1    3    3    0    0 -0.22816277385E+01 -0.13752918871E+01 -0.62653591908E+00  0.27367499760E+01  0.51100000000E-03 0. -1.
        -11    1    3    3    0    0 -0.18485372423E+02 -0.19650866826E+02  0.16745780194E+02  0.31753530752E+02  0.51100000000E-03 0.  1.
         12    1    3    3    0    0 -0.80244973014E+01 -0.48441225410E+01  0.69218421550E+01  0.11652037545E+02  0.00000000000E+00 0. -1.
</event>
<event>
 7    1  0.2297343E-008  0.4614232E+02  0.7816164E-02  0.1320468E+00
        -11   -1    0    0    0    0  0.00000000000E+00  0.00000000000E+00  0.45593999997E+02  0.45594000000E+02  0.51100000000E-03 0.  1.
         11   -1    0    0    0    0 -0.00000000000E+00 -0.00000000000E+00 -0.45593999997E+02  0.45594000000E+02  0.51100000000E-03 0. -1.
    9900012    2    1    2    0    0  0.43353551060E+02  0.11484994987E+02  0.42045385595E+01  0.46142316035E+02  0.99999842598E+01 0.  0.
         12    1    1    2    0    0 -0.43353551060E+02 -0.11484994987E+02 -0.42045385595E+01  0.45045683965E+02  0.00000000000E+00 0. -1.
         11    1    3    3    0    0  0.57844467662E+01  0.25477056117E+01  0.17524207667E+01  0.65590858418E+01  0.51100000000E-03 0. -1.
        -11    1    3    3    0    0  0.27566781503E+02  0.78293341152E+01  0.52590459582E+01  0.29135605018E+02  0.51100000000E-03 0.  1.
        -12    1    3    3    0    0  0.10002322791E+02  0.11079552600E+01 -0.28069281654E+01  0.10447625175E+02  0.00000000000E+00 0.  1.
</event>
<event>
 7    1  0.2297343E-008  0.4614232E+02  0.7816164E-02  0.1320468E+00
        -11   -1    0    0    0    0  0.00000000000E+00  0.00000000000E+00  0.45593999997E+02  0.45594000000E+02  0.51100000000E-03 0.  1.
         11   -1    0    0    0    0 -0.00000000000E+00 -0.00000000000E+00 -0.45593999997E+02  0.45594000000E+02  0.51100000000E-03 0. -1.
    9900012    2    1    2    0    0  0.23319964701E+02  0.15551145278E+02  0.35262652459E+02  0.46142317282E+02  0.99999956319E+01 0.  0.
         12    1    1    2    0    0 -0.23319964701E+02 -0.15551145278E+02 -0.35262652459E+02  0.45045682718E+02  0.00000000000E+00 0. -1.
         11    1    3    3    0    0 -0.27869406693E+00  0.14849958164E+01  0.28082832927E+01  0.31889399917E+01  0.51100000000E-03 0. -1.
        -11    1    3    3    0    0  0.11458929538E+01 -0.34219596327E+00  0.29112622352E+01  0.31473189864E+01  0.51100000000E-03 0.  1.
        -12    1    3    3    0    0  0.22452765814E+02  0.14408345425E+02  0.29543106931E+02  0.39806058304E+02  0.00000000000E+00 0.  1.
</event>
<event>
 7    1  0.2297343E-008  0.4614232E+02  0.7816164E-02  0.1320468E+00
        -11   -1    0    0    0    0  0.00000000000E+00  0.00000000000E+00  0.45593999997E+02  0.45594000000E+02  0.51100000000E-03 0.  1.
         11   -1    0    0    0    0 -0.00000000000E+00 -0.00000000000E+00 -0.45593999997E+02  0.45594000000E+02  0.51100000000E-03 0. -1.
    9900012    2    1    2    0    0 -0.25083161833E+02  0.33946645401E+02 -0.15734475488E+02  0.46142318072E+02  0.10000002833E+02 0.  0.
         12    1    1    2    0    0  0.25083161833E+02 -0.33946645401E+02  0.15734475488E+02  0.45045681928E+02  0.00000000000E+00 0. -1.
         11    1    3    3    0    0 -0.46111208922E+01  0.47819855702E+01 -0.83694416934E+00  0.66955431206E+01  0.51100000000E-03 0. -1.
        -11    1    3    3    0    0 -0.15727254337E+02  0.16389348098E+02 -0.11201566650E+02  0.25326514875E+02  0.51100000000E-03 0.  1.
        -12    1    3    3    0    0 -0.47447866040E+01  0.12775311733E+02 -0.36959646687E+01  0.14120260076E+02  0.00000000000E+00 0.  1.
</event>
<event>
 7    1  0.2297343E-008  0.4614232E+02  0.7816164E-02  0.1320468E+00
        -11   -1    0    0    0    0  0.00000000000E+00  0.00000000000E+00  0.45593999997E+02  0.45594000000E+02  0.51100000000E-03 0.  1.
         11   -1    0    0    0    0 -0.00000000000E+00 -0.00000000000E+00 -0.45593999997E+02  0.45594000000E+02  0.51100000000E-03 0. -1.
    9900012    2    1    2    0    0  0.15014371708E+02 -0.26418187016E+02  0.33252993715E+02  0.46142317033E+02  0.99999933599E+01 0.  0.
         12    1    1    2    0    0 -0.15014371708E+02  0.26418187016E+02 -0.33252993715E+02  0.45045682967E+02  0.00000000000E+00 0. -1.
         11    1    3    3    0    0  0.81331136575E+01 -0.89834772300E+01  0.14330499522E+02  0.18767355107E+02  0.51100000000E-03 0.  1.
        -11    1    3    3    0    0  0.42656903926E+01 -0.33773751548E+01  0.60363571784E+01  0.81265235931E+01  0.51100000000E-03 0. -1.
        -12    1    3    3    0    0  0.26155676581E+01 -0.14057334631E+02  0.12886137014E+02  0.19248438333E+02  0.00000000000E+00 0.  1.
</event>
<event>
 7    1  0.2297343E-008  0.4614232E+02  0.7816164E-02  0.1320468E+00
        -11   -1    0    0    0    0  0.00000000000E+00  0.00000000000E+00  0.45593999997E+02  0.45594000000E+02  0.51100000000E-03 0. -1.
         11   -1    0    0    0    0 -0.00000000000E+00 -0.00000000000E+00 -0.45593999997E+02  0.45594000000E+02  0.51100000000E-03 0.  1.
    9900012    2    1    2    0    0 -0.54814780569E+01 -0.20048033280E+02 -0.39964270194E+02  0.46142321714E+02  0.10000036044E+02 0.  0.
         12    1    1    2    0    0  0.54814780569E+01  0.20048033280E+02  0.39964270194E+02  0.45045678286E+02  0.00000000000E+00 0. -1.
         11    1    3    3    0    0 -0.19946747371E+01 -0.36799813061E+01 -0.11789035923E+02  0.12510090247E+02  0.51100000000E-03 0. -1.
        -11    1    3    3    0    0 -0.12971712872E+01 -0.16029022178E+02 -0.23735375239E+02  0.28670197825E+02  0.51100000000E-03 0.  1.
        -12    1    3    3    0    0 -0.21896320326E+01 -0.33902979617E+00 -0.44398590318E+01  0.49620336419E+01  0.00000000000E+00 0.  1.
</event>
<event>
 7    1  0.2297343E-008  0.4614232E+02  0.7816164E-02  0.1320468E+00
        -11   -1    0    0    0    0  0.00000000000E+00  0.00000000000E+00  0.45593999997E+02  0.45594000000E+02  0.51100000000E-03 0.  1.
         11   -1    0    0    0    0 -0.00000000000E+00 -0.00000000000E+00 -0.45593999997E+02  0.45594000000E+02  0.51100000000E-03 0. -1.
    9900012    2    1    2    0    0  0.16221996218E+02 -0.17691398370E+02  0.38117902942E+02  0.46142320270E+02  0.10000022880E+02 0.  0.
         12    1    1    2    0    0 -0.16221996218E+02  0.17691398370E+02 -0.38117902942E+02  0.45045679730E+02  0.00000000000E+00 0. -1.
         11    1    3    3    0    0  0.12531897189E+02 -0.84543952460E+01  0.18806585702E+02  0.24129088507E+02  0.51100000000E-03 0. -1.
        -11    1    3    3    0    0  0.36827184236E+01 -0.44492655702E+01  0.10831864821E+02  0.12275490819E+02  0.51100000000E-03 0.  1.
         12    1    3    3    0    0  0.73806054542E-02 -0.47877375540E+01  0.84794524197E+01  0.97377409442E+01  0.00000000000E+00 0. -1.
</event>
<event>
 7    1  0.2297343E-008  0.4614232E+02  0.7816164E-02  0.1320468E+00
        -11   -1    0    0    0    0  0.00000000000E+00  0.00000000000E+00  0.45593999997E+02  0.45594000000E+02  0.51100000000E-03 0.  1.
         11   -1    0    0    0    0 -0.00000000000E+00 -0.00000000000E+00 -0.45593999997E+02  0.45594000000E+02  0.51100000000E-03 0. -1.
    9900012    2    1    2    0    0 -0.48136603587E+00 -0.66123777320E+01  0.44555116094E+02  0.46142316270E+02  0.99999864047E+01 0.  0.
         12    1    1    2    0    0  0.48136603587E+00  0.66123777320E+01 -0.44555116094E+02  0.45045683730E+02  0.00000000000E+00 0. -1.
         11    1    3    3    0    0  0.39661344828E+00 -0.18267858531E+01  0.12591128096E+01  0.22538442956E+01  0.51100000000E-03 0. -1.
        -11    1    3    3    0    0 -0.79153811703E+00 -0.59481917500E+01  0.37398682528E+02  0.37877024339E+02  0.51100000000E-03 0.  1.
        -12    1    3    3    0    0 -0.86441367113E-01  0.11625998712E+01  0.58973207564E+01  0.60114476355E+01  0.00000000000E+00 0.  1.
</event>
<event>
 7    1  0.2297343E-008  0.4614232E+02  0.7816164E-02  0.1320468E+00
        -11   -1    0    0    0    0  0.00000000000E+00  0.00000000000E+00  0.45593999997E+02  0.45594000000E+02  0.51100000000E-03 0. -1.
         11   -1    0    0    0    0 -0.00000000000E+00 -0.00000000000E+00 -0.45593999997E+02  0.45594000000E+02  0.51100000000E-03 0.  1.
    9900012    2    1    2    0    0 -0.10109342997E+02 -0.36929144863E+02 -0.23730842156E+02  0.46142318458E+02  0.10000006356E+02 0.  0.
         12    1    1    2    0    0  0.10109342997E+02  0.36929144863E+02  0.23730842156E+02  0.45045681542E+02  0.00000000000E+00 0. -1.
         11    1    3    3    0    0 -0.26973280015E+01 -0.18833571782E+02 -0.15978413610E+02  0.24845295453E+02  0.51100000000E-03 0. -1.
        -11    1    3    3    0    0 -0.44108158156E+01 -0.74680406467E+01 -0.45740868307E+01  0.98055697365E+01  0.51100000000E-03 0.  1.
         12    1    3    3    0    0 -0.30011991796E+01 -0.10627532434E+02 -0.31783417155E+01  0.11491453268E+02  0.00000000000E+00 0. -1.
</event>
<event>
 7    1  0.2297343E-008  0.4614232E+02  0.7816164E-02  0.1320468E+00
        -11   -1    0    0    0    0  0.00000000000E+00  0.00000000000E+00  0.45593999997E+02  0.45594000000E+02  0.51100000000E-03 0. -1.
         11   -1    0    0    0    0 -0.00000000000E+00 -0.00000000000E+00 -0.45593999997E+02  0.45594000000E+02  0.51100000000E-03 0.  1.
    9900012    2    1    2    0    0  0.20689648802E+02  0.58435998258E+00 -0.40008879378E+02  0.46142317930E+02  0.10000001538E+02 0.  0.
         12    1    1    2    0    0 -0.20689648802E+02 -0.58435998258E+00  0.40008879378E+02  0.45045682070E+02  0.00000000000E+00 0. -1.
         11    1    3    3    0    0  0.11715031864E+01 -0.85543168701E+00 -0.81869113642E+01  0.83144272823E+01  0.51100000000E-03 0. -1.
        -11    1    3    3    0    0  0.16165750218E+02 -0.11640160799E+01 -0.25294614438E+02  0.30041703237E+02  0.51100000000E-03 0.  1.
         12    1    3    3    0    0  0.33523953970E+01  0.26038077495E+01 -0.65273535753E+01  0.77861874104E+01  0.00000000000E+00 0. -1.
</event>
<event>
 7    1  0.2297343E-008  0.4614232E+02  0.7816164E-02  0.1320468E+00
        -11   -1    0    0    0    0  0.00000000000E+00  0.00000000000E+00  0.45593999997E+02  0.45594000000E+02  0.51100000000E-03 0. -1.
         11   -1    0    0    0    0 -0.00000000000E+00 -0.00000000000E+00 -0.45593999997E+02  0.45594000000E+02  0.51100000000E-03 0.  1.
    9900012    2    1    2    0    0  0.20993439104E+02 -0.25430341885E+01 -0.39773382655E+02  0.46142317897E+02  0.10000001237E+02 0.  0.
         12    1    1    2    0    0 -0.20993439104E+02  0.25430341885E+01  0.39773382655E+02  0.45045682103E+02  0.00000000000E+00 0. -1.
         11    1    3    3    0    0  0.33697697247E+01 -0.21090629314E+00 -0.44293409279E+01  0.55694605465E+01  0.51100000000E-03 0. -1.
        -11    1    3    3    0    0  0.94117971121E+01 -0.37430939554E+01 -0.11550159967E+02  0.15362254807E+02  0.51100000000E-03 0.  1.
        -12    1    3    3    0    0  0.82118722673E+01  0.14109660600E+01 -0.23793881760E+02  0.25210602543E+02  0.00000000000E+00 0.  1.
</event>
<event>
 7    1  0.2297343E-008  0.4614232E+02  0.7816164E-02  0.1320468E+00
        -11   -1    0    0    0    0  0.00000000000E+00  0.00000000000E+00  0.45593999997E+02  0.45594000000E+02  0.51100000000E-03 0. -1.
         11   -1    0    0    0    0 -0.00000000000E+00 -0.00000000000E+00 -0.45593999997E+02  0.45594000000E+02  0.51100000000E-03 0.  1.
    9900012    2    1    2    0    0 -0.14522535131E+02  0.29079300001E+02 -0.31186596006E+02  0.46142317791E+02  0.10000000274E+02 0.  0.
         12    1    1    2    0    0  0.14522535131E+02 -0.29079300001E+02  0.31186596006E+02  0.45045682209E+02  0.00000000000E+00 0. -1.
         11    1    3    3    0    0 -0.82756827315E+01  0.79174582987E+01 -0.10554883554E+02  0.15574936201E+02  0.51100000000E-03 0. -1.
        -11    1    3    3    0    0  0.11510601657E+00  0.65258632231E+01 -0.49334387446E+01  0.81816232075E+01  0.51100000000E-03 0.  1.
         12    1    3    3    0    0 -0.63619584166E+01  0.14635978480E+02 -0.15698273708E+02  0.22385758382E+02  0.00000000000E+00 0. -1.
</event>
<event>
 7    1  0.2297343E-008  0.4614232E+02  0.7816164E-02  0.1320468E+00
        -11   -1    0    0    0    0  0.00000000000E+00  0.00000000000E+00  0.45593999997E+02  0.45594000000E+02  0.51100000000E-03 0.  1.
         11   -1    0    0    0    0 -0.00000000000E+00 -0.00000000000E+00 -0.45593999997E+02  0.45594000000E+02  0.51100000000E-03 0. -1.
    9900012    2    1    2    0    0  0.61400280172E+01  0.11377597668E+02  0.43150478751E+02  0.46142317752E+02  0.99999999175E+01 0.  0.
         12    1    1    2    0    0 -0.61400280172E+01 -0.11377597668E+02 -0.43150478751E+02  0.45045682248E+02  0.00000000000E+00 0. -1.
         11    1    3    3    0    0  0.23738318177E+01 -0.32359435601E+00  0.25148284348E+01  0.34733489780E+01  0.51100000000E-03 0. -1.
        -11    1    3    3    0    0  0.53384582978E+00  0.82274104275E+01  0.27045275331E+02  0.28274055098E+02  0.51100000000E-03 0.  1.
        -12    1    3    3    0    0  0.32323503698E+01  0.34737815967E+01  0.13590374985E+02  0.14394913676E+02  0.00000000000E+00 0.  1.
</event>
<event>
 7    1  0.2297343E-008  0.4614232E+02  0.7816164E-02  0.1320468E+00
        -11   -1    0    0    0    0  0.00000000000E+00  0.00000000000E+00  0.45593999997E+02  0.45594000000E+02  0.51100000000E-03 0.  1.
         11   -1    0    0    0    0 -0.00000000000E+00 -0.00000000000E+00 -0.45593999997E+02  0.45594000000E+02  0.51100000000E-03 0. -1.
    9900012    2    1    2    0    0 -0.23893066151E+02  0.20848473573E+01  0.38129887776E+02  0.46142317184E+02  0.99999947342E+01 0.  0.
         12    1    1    2    0    0  0.23893066151E+02 -0.20848473573E+01 -0.38129887776E+02  0.45045682816E+02  0.00000000000E+00 0. -1.
         11    1    3    3    0    0 -0.18249471407E+02 -0.13621978543E+00  0.22948194229E+02  0.29320323687E+02  0.51100000000E-03 0.  1.
        -11    1    3    3    0    0 -0.36314059464E+01  0.30446647285E+01  0.77996554664E+01  0.91264296476E+01  0.51100000000E-03 0. -1.
        -12    1    3    3    0    0 -0.20121887978E+01 -0.82359758579E+00  0.73820380799E+01  0.76955638491E+01  0.00000000000E+00 0.  1.
</event>
<event>
 7    1  0.2297343E-008  0.4614232E+02  0.7816164E-02  0.1320468E+00
        -11   -1    0    0    0    0  0.00000000000E+00  0.00000000000E+00  0.45593999997E+02  0.45594000000E+02  0.51100000000E-03 0.  1.
         11   -1    0    0    0    0 -0.00000000000E+00 -0.00000000000E+00 -0.45593999997E+02  0.45594000000E+02  0.51100000000E-03 0. -1.
    9900012    2    1    2    0    0  0.18308313188E+02  0.21860551894E+02  0.34871699641E+02  0.46142317668E+02  0.99999991543E+01 0.  0.
         12    1    1    2    0    0 -0.18308313188E+02 -0.21860551894E+02 -0.34871699641E+02  0.45045682332E+02  0.00000000000E+00 0. -1.
         11    1    3    3    0    0  0.37480874950E+01  0.51647680398E+01  0.14907738709E+02  0.16216154367E+02  0.51100000000E-03 0. -1.
        -11    1    3    3    0    0  0.39817314506E+01  0.44342925826E+01  0.69164156265E+01  0.91298379740E+01  0.51100000000E-03 0.  1.
        -12    1    3    3    0    0  0.10578494242E+02  0.12261491271E+02  0.13047545305E+02  0.20796325328E+02  0.00000000000E+00 0.  1.
</event>
<event>
 7    1  0.2297343E-008  0.4614232E+02  0.7816164E-02  0.1320468E+00
        -11   -1    0    0    0    0  0.00000000000E+00  0.00000000000E+00  0.45593999997E+02  0.45594000000E+02  0.51100000000E-03 0. -1.
         11   -1    0    0    0    0 -0.00000000000E+00 -0.00000000000E+00 -0.45593999997E+02  0.45594000000E+02  0.51100000000E-03 0.  1.
    9900012    2    1    2    0    0  0.37372430967E+02  0.14012896462E+02 -0.20881897893E+02  0.46142317374E+02  0.99999964720E+01 0.  0.
         12    1    1    2    0    0 -0.37372430967E+02 -0.14012896462E+02  0.20881897893E+02  0.45045682626E+02  0.00000000000E+00 0. -1.
         11    1    3    3    0    0  0.35445972691E+01 -0.67100942233E+00 -0.45922467956E+00  0.36366620701E+01  0.51100000000E-03 0. -1.
        -11    1    3    3    0    0  0.48034642648E+01  0.24277072036E+01 -0.94332637708E+00  0.54641464224E+01  0.51100000000E-03 0.  1.
        -12    1    3    3    0    0  0.29024369433E+02  0.12256198681E+02 -0.19479346836E+02  0.37041508882E+02  0.00000000000E+00 0.  1.
</event>
<event>
 7    1  0.2297343E-008  0.4614232E+02  0.7816164E-02  0.1320468E+00
        -11   -1    0    0    0    0  0.00000000000E+00  0.00000000000E+00  0.45593999997E+02  0.45594000000E+02  0.51100000000E-03 0.  1.
         11   -1    0    0    0    0 -0.00000000000E+00 -0.00000000000E+00 -0.45593999997E+02  0.45594000000E+02  0.51100000000E-03 0. -1.
    9900012    2    1    2    0    0  0.31330929443E+02  0.25367726719E+02  0.20098877084E+02  0.46142316981E+02  0.99999928832E+01 0.  0.
         12    1    1    2    0    0 -0.31330929443E+02 -0.25367726719E+02 -0.20098877084E+02  0.45045683019E+02  0.00000000000E+00 0. -1.
         11    1    3    3    0    0  0.74672433621E+00  0.13790469326E+01 -0.76237141995E+00  0.17437253567E+01  0.51100000000E-03 0. -1.
        -11    1    3    3    0    0  0.66817037927E+01  0.37202891330E+01  0.59680469429E+01  0.97006856139E+01  0.51100000000E-03 0.  1.
        -12    1    3    3    0    0  0.23902501314E+02  0.20268390654E+02  0.14893201561E+02  0.34697906010E+02  0.00000000000E+00 0.  1.
</event>
<event>
 7    1  0.2297343E-008  0.4614232E+02  0.7816164E-02  0.1320468E+00
        -11   -1    0    0    0    0  0.00000000000E+00  0.00000000000E+00  0.45593999997E+02  0.45594000000E+02  0.51100000000E-03 0. -1.
         11   -1    0    0    0    0 -0.00000000000E+00 -0.00000000000E+00 -0.45593999997E+02  0.45594000000E+02  0.51100000000E-03 0.  1.
    9900012    2    1    2    0    0 -0.19363058397E+02  0.28010619431E+02 -0.29488821735E+02  0.46142318312E+02  0.10000005026E+02 0.  0.
         12    1    1    2    0    0  0.19363058397E+02 -0.28010619431E+02  0.29488821735E+02  0.45045681688E+02  0.00000000000E+00 0. -1.
         11    1    3    3    0    0 -0.16534272609E+01  0.58470633642E+01 -0.83775690819E+01  0.10349185266E+02  0.51100000000E-03 0. -1.
        -11    1    3    3    0    0 -0.18667687062E+01  0.28508176747E+00 -0.12405741504E+01  0.22594515928E+01  0.51100000000E-03 0.  1.
         12    1    3    3    0    0 -0.15842862430E+02  0.21878474299E+02 -0.19870678502E+02  0.33533681453E+02  0.00000000000E+00 0. -1.
</event>
<event>
 7    1  0.2297343E-008  0.4614232E+02  0.7816164E-02  0.1320468E+00
        -11   -1    0    0    0    0  0.00000000000E+00  0.00000000000E+00  0.45593999997E+02  0.45594000000E+02  0.51100000000E-03 0.  1.
         11   -1    0    0    0    0 -0.00000000000E+00 -0.00000000000E+00 -0.45593999997E+02  0.45594000000E+02  0.51100000000E-03 0. -1.
    9900012    2    1    2    0    0  0.24330258404E+02  0.10039817011E+01  0.37896490032E+02  0.46142318631E+02  0.10000007930E+02 0.  0.
         12    1    1    2    0    0 -0.24330258404E+02 -0.10039817011E+01 -0.37896490032E+02  0.45045681369E+02  0.00000000000E+00 0. -1.
         11    1    3    3    0    0  0.19954699511E+01 -0.26194211107E+01  0.39745261174E+01  0.51614073081E+01  0.51100000000E-03 0. -1.
        -11    1    3    3    0    0  0.50219514069E+01  0.21107272143E+01  0.10337789747E+02  0.11685249780E+02  0.51100000000E-03 0.  1.
        -12    1    3    3    0    0  0.17312837046E+02  0.15126755975E+01  0.23584174167E+02  0.29295661542E+02  0.00000000000E+00 0.  1.
</event>
<event>
 7    1  0.2297343E-008  0.4614232E+02  0.7816164E-02  0.1320468E+00
        -11   -1    0    0    0    0  0.00000000000E+00  0.00000000000E+00  0.45593999997E+02  0.45594000000E+02  0.51100000000E-03 0. -1.
         11   -1    0    0    0    0 -0.00000000000E+00 -0.00000000000E+00 -0.45593999997E+02  0.45594000000E+02  0.51100000000E-03 0.  1.
    9900012    2    1    2    0    0 -0.35524683639E+02 -0.68098901074E+01 -0.26846522425E+02  0.46142317441E+02  0.99999970775E+01 0.  0.
         12    1    1    2    0    0  0.35524683639E+02  0.68098901074E+01  0.26846522425E+02  0.45045682559E+02  0.00000000000E+00 0. -1.
         11    1    3    3    0    0 -0.14984726382E+02 -0.26654788244E+01 -0.81009244101E+01  0.17241571235E+02  0.51100000000E-03 0. -1.
        -11    1    3    3    0    0 -0.12535264456E+02 -0.56300512687E+01 -0.10327222252E+02  0.17189585567E+02  0.51100000000E-03 0.  1.
         12    1    3    3    0    0 -0.80046928016E+01  0.14856399858E+01 -0.84183757624E+01  0.11711160638E+02  0.00000000000E+00 0. -1.
</event>
<event>
 7    1  0.2297343E-008  0.4614232E+02  0.7816164E-02  0.1320468E+00
        -11   -1    0    0    0    0  0.00000000000E+00  0.00000000000E+00  0.45593999997E+02  0.45594000000E+02  0.51100000000E-03 0.  1.
         11   -1    0    0    0    0 -0.00000000000E+00 -0.00000000000E+00 -0.45593999997E+02  0.45594000000E+02  0.51100000000E-03 0. -1.
    9900012    2    1    2    0    0  0.19045704061E+02  0.40068154398E+02  0.78049790115E+01  0.46142317216E+02  0.99999950312E+01 0.  0.
         12    1    1    2    0    0 -0.19045704061E+02 -0.40068154398E+02 -0.78049790115E+01  0.45045682784E+02  0.00000000000E+00 0. -1.
         11    1    3    3    0    0  0.65447920210E+01  0.11480017474E+02  0.35395320870E+01  0.13680401729E+02  0.51100000000E-03 0. -1.
        -11    1    3    3    0    0  0.46167417009E+01  0.61946019995E+01  0.40435817331E+01  0.87199742751E+01  0.51100000000E-03 0.  1.
        -12    1    3    3    0    0  0.78841703395E+01  0.22393534925E+02  0.22186519146E+00  0.23741941212E+02  0.00000000000E+00 0.  1.
</event>
<event>
 7    1  0.2297343E-008  0.4614232E+02  0.7816164E-02  0.1320468E+00
        -11   -1    0    0    0    0  0.00000000000E+00  0.00000000000E+00  0.45593999997E+02  0.45594000000E+02  0.51100000000E-03 0. -1.
         11   -1    0    0    0    0 -0.00000000000E+00 -0.00000000000E+00 -0.45593999997E+02  0.45594000000E+02  0.51100000000E-03 0.  1.
    9900012    2    1    2    0    0  0.27801274931E+02  0.32163959025E+02 -0.14889005718E+02  0.46142316087E+02  0.99999847314E+01 0.  0.
         12    1    1    2    0    0 -0.27801274931E+02 -0.32163959025E+02  0.14889005718E+02  0.45045683913E+02  0.00000000000E+00 0. -1.
         11    1    3    3    0    0  0.26873700846E+01  0.52102823032E+01 -0.51873393217E+01  0.78279939416E+01  0.51100000000E-03 0. -1.
        -11    1    3    3    0    0  0.97519397678E+01  0.13430736997E+02 -0.45363129775E+01  0.17206486022E+02  0.51100000000E-03 0.  1.
         12    1    3    3    0    0  0.15361965079E+02  0.13522939724E+02 -0.51653534189E+01  0.21107836123E+02  0.00000000000E+00 0. -1.
</event>
<event>
 7    1  0.2297343E-008  0.4614232E+02  0.7816164E-02  0.1320468E+00
        -11   -1    0    0    0    0  0.00000000000E+00  0.00000000000E+00  0.45593999997E+02  0.45594000000E+02  0.51100000000E-03 0. -1.
         11   -1    0    0    0    0 -0.00000000000E+00 -0.00000000000E+00 -0.45593999997E+02  0.45594000000E+02  0.51100000000E-03 0.  1.
    9900012    2    1    2    0    0 -0.97738665476E+01 -0.43182640903E+02 -0.82972300151E+01  0.46142323530E+02  0.10000052609E+02 0.  0.
         12    1    1    2    0    0  0.97738665476E+01  0.43182640903E+02  0.82972300151E+01  0.45045676470E+02  0.00000000000E+00 0. -1.
         11    1    3    3    0    0 -0.60268447021E+01 -0.19614940846E+02 -0.19194549663E+01  0.20609538304E+02  0.51100000000E-03 0. -1.
        -11    1    3    3    0    0  0.10629184169E+01 -0.32067984500E+01  0.69337691044E+00  0.34487858241E+01  0.51100000000E-03 0.  1.
        -12    1    3    3    0    0 -0.48099402624E+01 -0.20360901607E+02 -0.70711519592E+01  0.22083999403E+02  0.00000000000E+00 0.  1.
</event>
<event>
 7    1  0.2297343E-008  0.4614232E+02  0.7816164E-02  0.1320468E+00
        -11   -1    0    0    0    0  0.00000000000E+00  0.00000000000E+00  0.45593999997E+02  0.45594000000E+02  0.51100000000E-03 0.  1.
         11   -1    0    0    0    0 -0.00000000000E+00 -0.00000000000E+00 -0.45593999997E+02  0.45594000000E+02  0.51100000000E-03 0. -1.
    9900012    2    1    2    0    0 -0.17522531776E+02 -0.42132193163E+01  0.41283449219E+02  0.46142317452E+02  0.99999971787E+01 0.  0.
         12    1    1    2    0    0  0.17522531776E+02  0.42132193163E+01 -0.41283449219E+02  0.45045682548E+02  0.00000000000E+00 0. -1.
         11    1    3    3    0    0 -0.79008969262E+01 -0.11756081793E+01  0.11371732873E+02  0.13896853443E+02  0.51100000000E-03 0. -1.
        -11    1    3    3    0    0 -0.21759063449E+00 -0.25165490260E+01  0.47705546845E+01  0.53980141667E+01  0.51100000000E-03 0.  1.
        -12    1    3    3    0    0 -0.94040442153E+01 -0.52106211098E+00  0.25141161662E+02  0.26847449842E+02  0.00000000000E+00 0.  1.
</event>
<event>
 7    1  0.2297343E-008  0.4614232E+02  0.7816164E-02  0.1320468E+00
        -11   -1    0    0    0    0  0.00000000000E+00  0.00000000000E+00  0.45593999997E+02  0.45594000000E+02  0.51100000000E-03 0.  1.
         11   -1    0    0    0    0 -0.00000000000E+00 -0.00000000000E+00 -0.45593999997E+02  0.45594000000E+02  0.51100000000E-03 0. -1.
    9900012    2    1    2    0    0  0.10133727216E+02 -0.41065287629E+02  0.15493969659E+02  0.46142319062E+02  0.10000011865E+02 0.  0.
         12    1    1    2    0    0 -0.10133727216E+02  0.41065287629E+02 -0.15493969659E+02  0.45045680938E+02  0.00000000000E+00 0. -1.
         11    1    3    3    0    0  0.30934877310E+01 -0.80125071912E+01  0.53804587703E+01  0.10135051784E+02  0.51100000000E-03 0. -1.
        -11    1    3    3    0    0  0.69880235934E+01 -0.16739224968E+02  0.67224726081E+01  0.19344915727E+02  0.51100000000E-03 0.  1.
         12    1    3    3    0    0  0.52215891392E-01 -0.16313555470E+02  0.33910382806E+01  0.16662351551E+02  0.00000000000E+00 0. -1.
</event>
<event>
 7    1  0.2297343E-008  0.4614232E+02  0.7816164E-02  0.1320468E+00
        -11   -1    0    0    0    0  0.00000000000E+00  0.00000000000E+00  0.45593999997E+02  0.45594000000E+02  0.51100000000E-03 0. -1.
         11   -1    0    0    0    0 -0.00000000000E+00 -0.00000000000E+00 -0.45593999997E+02  0.45594000000E+02  0.51100000000E-03 0.  1.
    9900012    2    1    2    0    0 -0.51673859648E+01  0.35425178057E+02 -0.27339869684E+02  0.46142316607E+02  0.99999894736E+01 0.  0.
         12    1    1    2    0    0  0.51673859648E+01 -0.35425178057E+02  0.27339869684E+02  0.45045683393E+02  0.00000000000E+00 0. -1.
         11    1    3    3    0    0 -0.38779994941E+01  0.18112679193E+02 -0.97232956366E+01  0.20920098133E+02  0.51100000000E-03 0. -1.
        -11    1    3    3    0    0 -0.22188935978E+01  0.13709139309E+02 -0.11357148917E+02  0.17940145517E+02  0.51100000000E-03 0.  1.
        -12    1    3    3    0    0  0.92950712707E+00  0.36033595549E+01 -0.62594251302E+01  0.72820729563E+01  0.00000000000E+00 0.  1.
</event>
<event>
 7    1  0.2297343E-008  0.4614232E+02  0.7816164E-02  0.1320468E+00
        -11   -1    0    0    0    0  0.00000000000E+00  0.00000000000E+00  0.45593999997E+02  0.45594000000E+02  0.51100000000E-03 0.  1.
         11   -1    0    0    0    0 -0.00000000000E+00 -0.00000000000E+00 -0.45593999997E+02  0.45594000000E+02  0.51100000000E-03 0. -1.
    9900012    2    1    2    0    0  0.47807584546E+01 -0.33779435751E+02  0.29414410125E+02  0.46142318142E+02  0.10000003473E+02 0.  0.
         12    1    1    2    0    0 -0.47807584546E+01  0.33779435751E+02 -0.29414410125E+02  0.45045681858E+02  0.00000000000E+00 0. -1.
         11    1    3    3    0    0  0.33808935916E+01 -0.58384194155E+01  0.98867666603E+01  0.11969366650E+02  0.51100000000E-03 0. -1.
        -11    1    3    3    0    0  0.62265696190E+00 -0.13411966673E+02  0.10559135142E+02  0.17081097358E+02  0.51100000000E-03 0.  1.
         12    1    3    3    0    0  0.77720790115E+00 -0.14529049662E+02  0.89685083224E+01  0.17091854134E+02  0.00000000000E+00 0. -1.
</event>
<event>
 7    1  0.2297343E-008  0.4614232E+02  0.7816164E-02  0.1320468E+00
        -11   -1    0    0    0    0  0.00000000000E+00  0.00000000000E+00  0.45593999997E+02  0.45594000000E+02  0.51100000000E-03 0.  1.
         11   -1    0    0    0    0 -0.00000000000E+00 -0.00000000000E+00 -0.45593999997E+02  0.45594000000E+02  0.51100000000E-03 0. -1.
    9900012    2    1    2    0    0 -0.12926668684E+02  0.43044427011E+02 -0.30318439554E+01  0.46142317213E+02  0.99999950040E+01 0.  0.
         12    1    1    2    0    0  0.12926668684E+02 -0.43044427011E+02  0.30318439554E+01  0.45045682787E+02  0.00000000000E+00 0. -1.
         11    1    3    3    0    0 -0.11664630891E+02  0.31291745597E+02 -0.24276976043E+01  0.33483289448E+02  0.51100000000E-03 0. -1.
        -11    1    3    3    0    0 -0.16371907520E-01  0.11167743942E+02 -0.10385096046E+01  0.11215938447E+02  0.51100000000E-03 0.  1.
        -12    1    3    3    0    0 -0.12456658855E+01  0.58493747196E+00  0.43436325350E+00  0.14430893182E+01  0.00000000000E+00 0.  1.
</event>
<event>
 7    1  0.2297343E-008  0.4614232E+02  0.7816164E-02  0.1320468E+00
        -11   -1    0    0    0    0  0.00000000000E+00  0.00000000000E+00  0.45593999997E+02  0.45594000000E+02  0.51100000000E-03 0.  1.
         11   -1    0    0    0    0 -0.00000000000E+00 -0.00000000000E+00 -0.45593999997E+02  0.45594000000E+02  0.51100000000E-03 0. -1.
    9900012    2    1    2    0    0 -0.30831283440E+02 -0.31584899738E+02  0.89966426007E+01  0.46142317542E+02  0.99999980025E+01 0.  0.
         12    1    1    2    0    0  0.30831283440E+02  0.31584899738E+02 -0.89966426007E+01  0.45045682458E+02  0.00000000000E+00 0. -1.
         11    1    3    3    0    0 -0.29619165854E+02 -0.30754196841E+02  0.87629516820E+01  0.43587898913E+02  0.51100000000E-03 0. -1.
        -11    1    3    3    0    0 -0.71481087383E+00 -0.23985836977E-01  0.10723193754E+01  0.12889526794E+01  0.51100000000E-03 0.  1.
         12    1    3    3    0    0 -0.49730671222E+00 -0.80671706013E+00 -0.83862845676E+00  0.12654659496E+01  0.00000000000E+00 0. -1.
</event>
<event>
 7    1  0.2297343E-008  0.4614232E+02  0.7816164E-02  0.1320468E+00
        -11   -1    0    0    0    0  0.00000000000E+00  0.00000000000E+00  0.45593999997E+02  0.45594000000E+02  0.51100000000E-03 0.  1.
         11   -1    0    0    0    0 -0.00000000000E+00 -0.00000000000E+00 -0.45593999997E+02  0.45594000000E+02  0.51100000000E-03 0. -1.
    9900012    2    1    2    0    0  0.12935751949E+02 -0.43111132766E+02 -0.17916598688E+01  0.46142317721E+02  0.99999996368E+01 0.  0.
         12    1    1    2    0    0 -0.12935751949E+02  0.43111132766E+02  0.17916598688E+01  0.45045682279E+02  0.00000000000E+00 0. -1.
         11    1    3    3    0    0  0.86769644527E+01 -0.24925686351E+02  0.28351388471E+01  0.26544633445E+02  0.51100000000E-03 0. -1.
        -11    1    3    3    0    0  0.32930082060E+01 -0.63119050778E+01 -0.13996686741E+01  0.72555579671E+01  0.51100000000E-03 0.  1.
         12    1    3    3    0    0  0.96577929064E+00 -0.11873541337E+02 -0.32271300418E+01  0.12342126309E+02  0.00000000000E+00 0. -1.
</event>
<event>
 7    1  0.2297343E-008  0.4614232E+02  0.7816164E-02  0.1320468E+00
        -11   -1    0    0    0    0  0.00000000000E+00  0.00000000000E+00  0.45593999997E+02  0.45594000000E+02  0.51100000000E-03 0.  1.
         11   -1    0    0    0    0 -0.00000000000E+00 -0.00000000000E+00 -0.45593999997E+02  0.45594000000E+02  0.51100000000E-03 0. -1.
    9900012    2    1    2    0    0 -0.10465243384E+02 -0.16944212520E+01  0.43780373413E+02  0.46142317869E+02  0.10000000988E+02 0.  0.
         12    1    1    2    0    0  0.10465243384E+02  0.16944212520E+01 -0.43780373413E+02  0.45045682131E+02  0.00000000000E+00 0. -1.
         11    1    3    3    0    0 -0.71054467980E+01  0.19511143359E+01  0.17945121681E+02  0.19399010639E+02  0.51100000000E-03 0. -1.
        -11    1    3    3    0    0  0.10547273656E+01 -0.13028787979E+01  0.99576283112E+01  0.10097737609E+02  0.51100000000E-03 0.  1.
        -12    1    3    3    0    0 -0.44145239513E+01 -0.23426567899E+01  0.15877623420E+02  0.16645569622E+02  0.00000000000E+00 0.  1.
</event>
<event>
 7    1  0.2297343E-008  0.4614232E+02  0.7816164E-02  0.1320468E+00
        -11   -1    0    0    0    0  0.00000000000E+00  0.00000000000E+00  0.45593999997E+02  0.45594000000E+02  0.51100000000E-03 0. -1.
         11   -1    0    0    0    0 -0.00000000000E+00 -0.00000000000E+00 -0.45593999997E+02  0.45594000000E+02  0.51100000000E-03 0.  1.
    9900012    2    1    2    0    0 -0.12816764391E+02  0.36647072081E+02 -0.22843733256E+02  0.46142317736E+02  0.99999997719E+01 0.  0.
         12    1    1    2    0    0  0.12816764391E+02 -0.36647072081E+02  0.22843733256E+02  0.45045682264E+02  0.00000000000E+00 0. -1.
         11    1    3    3    0    0 -0.92317577793E+00  0.35293204002E+01 -0.44712254351E+01  0.57706336877E+01  0.51100000000E-03 0. -1.
        -11    1    3    3    0    0 -0.73836345482E+01  0.19325854496E+02 -0.14772806753E+02  0.25421300729E+02  0.51100000000E-03 0.  1.
         12    1    3    3    0    0 -0.45099540647E+01  0.13791897184E+02 -0.35997010680E+01  0.14950383319E+02  0.00000000000E+00 0. -1.
</event>
<event>
 7    1  0.2297343E-008  0.4614232E+02  0.7816164E-02  0.1320468E+00
        -11   -1    0    0    0    0  0.00000000000E+00  0.00000000000E+00  0.45593999997E+02  0.45594000000E+02  0.51100000000E-03 0.  1.
         11   -1    0    0    0    0 -0.00000000000E+00 -0.00000000000E+00 -0.45593999997E+02  0.45594000000E+02  0.51100000000E-03 0. -1.
    9900012    2    1    2    0    0  0.29497141043E+02  0.32766247807E+02 -0.92414886843E+01  0.46142318318E+02  0.10000005081E+02 0.  0.
         12    1    1    2    0    0 -0.29497141043E+02 -0.32766247807E+02  0.92414886843E+01  0.45045681682E+02  0.00000000000E+00 0. -1.
         11    1    3    3    0    0  0.24414518012E+02  0.26525408665E+02 -0.98598236030E+01  0.37374886172E+02  0.51100000000E-03 0. -1.
        -11    1    3    3    0    0  0.46142513721E+01  0.36679068595E+01  0.13594939415E+01  0.60492214782E+01  0.51100000000E-03 0.  1.
         12    1    3    3    0    0  0.46837165904E+00  0.25729322826E+01 -0.74115902278E+00  0.27182106686E+01  0.00000000000E+00 0. -1.
</event>
<event>
 7    1  0.2297343E-008  0.4614232E+02  0.7816164E-02  0.1320468E+00
        -11   -1    0    0    0    0  0.00000000000E+00  0.00000000000E+00  0.45593999997E+02  0.45594000000E+02  0.51100000000E-03 0. -1.
         11   -1    0    0    0    0 -0.00000000000E+00 -0.00000000000E+00 -0.45593999997E+02  0.45594000000E+02  0.51100000000E-03 0.  1.
    9900012    2    1    2    0    0 -0.23160067076E+02 -0.37474995352E+02 -0.93994425419E+01  0.46142317591E+02  0.99999984496E+01 0.  0.
         12    1    1    2    0    0  0.23160067076E+02  0.37474995352E+02  0.93994425419E+01  0.45045682409E+02  0.00000000000E+00 0. -1.
         11    1    3    3    0    0 -0.13809727034E+01 -0.86132325953E+00  0.13649094906E+01  0.21241331275E+01  0.51100000000E-03 0. -1.
        -11    1    3    3    0    0 -0.13497671557E+02 -0.20264827431E+02 -0.57601147472E+01  0.25020577341E+02  0.51100000000E-03 0.  1.
         12    1    3    3    0    0 -0.82814228155E+01 -0.16348844661E+02 -0.50042372853E+01  0.18997607123E+02  0.00000000000E+00 0. -1.
</event>
<event>
 7    1  0.2297343E-008  0.4614232E+02  0.7816164E-02  0.1320468E+00
        -11   -1    0    0    0    0  0.00000000000E+00  0.00000000000E+00  0.45593999997E+02  0.45594000000E+02  0.51100000000E-03 0.  1.
         11   -1    0    0    0    0 -0.00000000000E+00 -0.00000000000E+00 -0.45593999997E+02  0.45594000000E+02  0.51100000000E-03 0. -1.
    9900012    2    1    2    0    0 -0.35083843240E+02  0.22028185809E+02 -0.17691705075E+02  0.46142318132E+02  0.10000003378E+02 0.  0.
         12    1    1    2    0    0  0.35083843240E+02 -0.22028185809E+02  0.17691705075E+02  0.45045681868E+02  0.00000000000E+00 0. -1.
         11    1    3    3    0    0 -0.31096681623E+01  0.94187579074E-01  0.67061551044E+00  0.31825513042E+01  0.51100000000E-03 0. -1.
        -11    1    3    3    0    0 -0.32330462411E+01  0.23392475641E+01 -0.26521165067E+01  0.47914913534E+01  0.51100000000E-03 0.  1.
         12    1    3    3    0    0 -0.28741128837E+02  0.19594750665E+02 -0.15710204079E+02  0.38168275474E+02  0.00000000000E+00 0. -1.
</event>
<event>
 7    1  0.2297343E-008  0.4614232E+02  0.7816164E-02  0.1320468E+00
        -11   -1    0    0    0    0  0.00000000000E+00  0.00000000000E+00  0.45593999997E+02  0.45594000000E+02  0.51100000000E-03 0.  1.
         11   -1    0    0    0    0 -0.00000000000E+00 -0.00000000000E+00 -0.45593999997E+02  0.45594000000E+02  0.51100000000E-03 0. -1.
    9900012    2    1    2    0    0 -0.18605578551E+02  0.17475554213E+02  0.37115373629E+02  0.46142317544E+02  0.99999980216E+01 0.  0.
         12    1    1    2    0    0  0.18605578551E+02 -0.17475554213E+02 -0.37115373629E+02  0.45045682456E+02  0.00000000000E+00 0. -1.
         11    1    3    3    0    0 -0.49637751979E+01 -0.70609457199E-01  0.77767459807E+01  0.92261491545E+01  0.51100000000E-03 0. -1.
        -11    1    3    3    0    0 -0.76784820224E+01  0.10389273856E+02  0.19262531139E+02  0.23193559528E+02  0.51100000000E-03 0.  1.
         12    1    3    3    0    0 -0.59633213312E+01  0.71568898141E+01  0.10076096509E+02  0.13722608862E+02  0.00000000000E+00 0. -1.
</event>
<event>
 7    1  0.2297343E-008  0.4614232E+02  0.7816164E-02  0.1320468E+00
        -11   -1    0    0    0    0  0.00000000000E+00  0.00000000000E+00  0.45593999997E+02  0.45594000000E+02  0.51100000000E-03 0.  1.
         11   -1    0    0    0    0 -0.00000000000E+00 -0.00000000000E+00 -0.45593999997E+02  0.45594000000E+02  0.51100000000E-03 0. -1.
    9900012    2    1    2    0    0 -0.17306193541E+02 -0.40852733914E+02  0.77886706607E+01  0.46142316591E+02  0.99999893275E+01 0.  0.
         12    1    1    2    0    0  0.17306193541E+02  0.40852733914E+02 -0.77886706607E+01  0.45045683409E+02  0.00000000000E+00 0. -1.
         11    1    3    3    0    0 -0.53900404238E+01 -0.16586256444E+02  0.12662083598E+01  0.17485986460E+02  0.51100000000E-03 0. -1.
        -11    1    3    3    0    0 -0.82964285476E+00 -0.38702495641E+01 -0.12889573215E+01  0.41627575227E+01  0.51100000000E-03 0.  1.
         12    1    3    3    0    0 -0.11086510263E+02 -0.20396227906E+02  0.78114196225E+01  0.24493572608E+02  0.00000000000E+00 0. -1.
</event>
<event>
 7    1  0.2297343E-008  0.4614232E+02  0.7816164E-02  0.1320468E+00
        -11   -1    0    0    0    0  0.00000000000E+00  0.00000000000E+00  0.45593999997E+02  0.45594000000E+02  0.51100000000E-03 0. -1.
         11   -1    0    0    0    0 -0.00000000000E+00 -0.00000000000E+00 -0.45593999997E+02  0.45594000000E+02  0.51100000000E-03 0.  1.
    9900012    2    1    2    0    0  0.54396037559E+00 -0.22953777342E+02 -0.38754892472E+02  0.46142317880E+02  0.10000001081E+02 0.  0.
         12    1    1    2    0    0 -0.54396037559E+00  0.22953777342E+02  0.38754892472E+02  0.45045682120E+02  0.00000000000E+00 0. -1.
         11    1    3    3    0    0  0.96157629183E+00 -0.84732281128E+01 -0.77156350754E+01  0.11500054282E+02  0.51100000000E-03 0. -1.
        -11    1    3    3    0    0 -0.22725499137E+01 -0.10773696014E+02 -0.19686962881E+02  0.22556895102E+02  0.51100000000E-03 0.  1.
         12    1    3    3    0    0  0.18549339974E+01 -0.37068532155E+01 -0.11352294516E+02  0.12085368496E+02  0.00000000000E+00 0. -1.
</event>
<event>
 7    1  0.2297343E-008  0.4614232E+02  0.7816164E-02  0.1320468E+00
        -11   -1    0    0    0    0  0.00000000000E+00  0.00000000000E+00  0.45593999997E+02  0.45594000000E+02  0.51100000000E-03 0. -1.
         11   -1    0    0    0    0 -0.00000000000E+00 -0.00000000000E+00 -0.45593999997E+02  0.45594000000E+02  0.51100000000E-03 0.  1.
    9900012    2    1    2    0    0 -0.15449354445E+02  0.42230869566E+02 -0.26428301596E+01  0.46142318206E+02  0.10000004056E+02 0.  0.
         12    1    1    2    0    0  0.15449354445E+02 -0.42230869566E+02  0.26428301596E+01  0.45045681794E+02  0.00000000000E+00 0. -1.
         11    1    3    3    0    0 -0.12007214170E+01  0.11733143488E+01 -0.63711750956E+00  0.17956384560E+01  0.51100000000E-03 0. -1.
        -11    1    3    3    0    0 -0.11094384483E+02  0.33700268842E+02  0.17115794391E+01  0.35520740301E+02  0.51100000000E-03 0.  1.
        -12    1    3    3    0    0 -0.31542485443E+01  0.73572863754E+01 -0.37172920892E+01  0.88259394494E+01  0.00000000000E+00 0.  1.
</event>
<event>
 7    1  0.2297343E-008  0.4614232E+02  0.7816164E-02  0.1320468E+00
        -11   -1    0    0    0    0  0.00000000000E+00  0.00000000000E+00  0.45593999997E+02  0.45594000000E+02  0.51100000000E-03 0.  1.
         11   -1    0    0    0    0 -0.00000000000E+00 -0.00000000000E+00 -0.45593999997E+02  0.45594000000E+02  0.51100000000E-03 0. -1.
    9900012    2    1    2    0    0  0.16181051358E+02  0.39462465299E+02  0.14491406430E+02  0.46142318178E+02  0.10000003804E+02 0.  0.
         12    1    1    2    0    0 -0.16181051358E+02 -0.39462465299E+02 -0.14491406430E+02  0.45045681822E+02  0.00000000000E+00 0. -1.
         11    1    3    3    0    0 -0.21759088768E-01 -0.37181201289E+00  0.59519250963E+00  0.70211965898E+00  0.51100000000E-03 0. -1.
        -11    1    3    3    0    0  0.11230005558E+02  0.32312736275E+02  0.10217606325E+02  0.35701896724E+02  0.51100000000E-03 0.  1.
         12    1    3    3    0    0  0.49728048885E+01  0.75215410361E+01  0.36786075945E+01  0.97383017951E+01  0.00000000000E+00 0. -1.
</event>
<event>
 7    1  0.2297343E-008  0.4614232E+02  0.7816164E-02  0.1320468E+00
        -11   -1    0    0    0    0  0.00000000000E+00  0.00000000000E+00  0.45593999997E+02  0.45594000000E+02  0.51100000000E-03 0.  1.
         11   -1    0    0    0    0 -0.00000000000E+00 -0.00000000000E+00 -0.45593999997E+02  0.45594000000E+02  0.51100000000E-03 0. -1.
    9900012    2    1    2    0    0 -0.25388117797E+02  0.18494934851E+02  0.32287680413E+02  0.46142318222E+02  0.10000004200E+02 0.  0.
         12    1    1    2    0    0  0.25388117797E+02 -0.18494934851E+02 -0.32287680413E+02  0.45045681778E+02  0.00000000000E+00 0. -1.
         11    1    3    3    0    0 -0.72897307216E+01  0.86402801602E+00  0.77757022400E+01  0.10693374771E+02  0.51100000000E-03 0. -1.
        -11    1    3    3    0    0 -0.60181105982E+01  0.33879882858E+01  0.59176449802E+01  0.90947590496E+01  0.51100000000E-03 0.  1.
        -12    1    3    3    0    0 -0.12080276477E+02  0.14242918549E+02  0.18594333193E+02  0.26354184401E+02  0.00000000000E+00 0.  1.
</event>
<event>
 7    1  0.2297343E-008  0.4614232E+02  0.7816164E-02  0.1320468E+00
        -11   -1    0    0    0    0  0.00000000000E+00  0.00000000000E+00  0.45593999997E+02  0.45594000000E+02  0.51100000000E-03 0.  1.
         11   -1    0    0    0    0 -0.00000000000E+00 -0.00000000000E+00 -0.45593999997E+02  0.45594000000E+02  0.51100000000E-03 0. -1.
    9900012    2    1    2    0    0  0.25423679465E+02  0.27347718980E+02  0.25196275316E+02  0.46142317624E+02  0.99999987529E+01 0.  0.
         12    1    1    2    0    0 -0.25423679465E+02 -0.27347718980E+02 -0.25196275316E+02  0.45045682376E+02  0.00000000000E+00 0. -1.
         11    1    3    3    0    0  0.18789325602E+02  0.18946725199E+02  0.15255763606E+02  0.30736874854E+02  0.51100000000E-03 0. -1.
        -11    1    3    3    0    0  0.22622791428E+01  0.98681761088E-02  0.24742365266E+01  0.33525886941E+01  0.51100000000E-03 0.  1.
        -12    1    3    3    0    0  0.43720747195E+01  0.83911256044E+01  0.74662751834E+01  0.12052854076E+02  0.00000000000E+00 0.  1.
</event>
<event>
 7    1  0.2297343E-008  0.4614232E+02  0.7816164E-02  0.1320468E+00
        -11   -1    0    0    0    0  0.00000000000E+00  0.00000000000E+00  0.45593999997E+02  0.45594000000E+02  0.51100000000E-03 0. -1.
         11   -1    0    0    0    0 -0.00000000000E+00 -0.00000000000E+00 -0.45593999997E+02  0.45594000000E+02  0.51100000000E-03 0.  1.
    9900012    2    1    2    0    0 -0.26023786769E+01 -0.22078460408E+02 -0.39177579197E+02  0.46142317627E+02  0.99999987741E+01 0.  0.
         12    1    1    2    0    0  0.26023786769E+01  0.22078460408E+02  0.39177579197E+02  0.45045682373E+02  0.00000000000E+00 0. -1.
         11    1    3    3    0    0 -0.63490711391E+00  0.28262824815E-02 -0.47252117625E+01  0.47676767396E+01  0.51100000000E-03 0. -1.
        -11    1    3    3    0    0 -0.35948313461E+01 -0.15942036227E+02 -0.22110954858E+02  0.27494829631E+02  0.51100000000E-03 0.  1.
         12    1    3    3    0    0  0.16273597830E+01 -0.61392504635E+01 -0.12341412576E+02  0.13879811256E+02  0.00000000000E+00 0. -1.
</event>
<event>
 7    1  0.2297343E-008  0.4614232E+02  0.7816164E-02  0.1320468E+00
        -11   -1    0    0    0    0  0.00000000000E+00  0.00000000000E+00  0.45593999997E+02  0.45594000000E+02  0.51100000000E-03 0.  1.
         11   -1    0    0    0    0 -0.00000000000E+00 -0.00000000000E+00 -0.45593999997E+02  0.45594000000E+02  0.51100000000E-03 0. -1.
    9900012    2    1    2    0    0 -0.34967673879E+02  0.18017419731E+02  0.21948754839E+02  0.46142317974E+02  0.10000001938E+02 0.  0.
         12    1    1    2    0    0  0.34967673879E+02 -0.18017419731E+02 -0.21948754839E+02  0.45045682026E+02  0.00000000000E+00 0. -1.
         11    1    3    3    0    0 -0.46233461431E+00  0.62930759285E+00  0.20188378753E+01  0.21645988011E+01  0.51100000000E-03 0. -1.
        -11    1    3    3    0    0 -0.14511532378E+01  0.26214513932E+01  0.13676786598E+01  0.32936906813E+01  0.51100000000E-03 0.  1.
        -12    1    3    3    0    0 -0.33054186026E+02  0.14766660745E+02  0.18562238304E+02  0.40684028491E+02  0.00000000000E+00 0.  1.
</event>
<event>
 7    1  0.2297343E-008  0.4614232E+02  0.7816164E-02  0.1320468E+00
        -11   -1    0    0    0    0  0.00000000000E+00  0.00000000000E+00  0.45593999997E+02  0.45594000000E+02  0.51100000000E-03 0.  1.
         11   -1    0    0    0    0 -0.00000000000E+00 -0.00000000000E+00 -0.45593999997E+02  0.45594000000E+02  0.51100000000E-03 0. -1.
    9900012    2    1    2    0    0  0.38556210484E+02  0.23163706399E+02  0.24443393141E+01  0.46142318123E+02  0.10000003301E+02 0.  0.
         12    1    1    2    0    0 -0.38556210484E+02 -0.23163706399E+02 -0.24443393141E+01  0.45045681877E+02  0.00000000000E+00 0. -1.
         11    1    3    3    0    0  0.89569716792E+01  0.62975501085E+01 -0.26148781554E+01  0.11257178468E+02  0.51100000000E-03 0. -1.
        -11    1    3    3    0    0  0.16311491244E+02  0.67582510976E+01  0.89748157146E+00  0.17678919026E+02  0.51100000000E-03 0.  1.
         12    1    3    3    0    0  0.13287747561E+02  0.10107905193E+02  0.41617358980E+01  0.17206220629E+02  0.00000000000E+00 0. -1.
</event>
<event>
 7    1  0.2297343E-008  0.4614232E+02  0.7816164E-02  0.1320468E+00
        -11   -1    0    0    0    0  0.00000000000E+00  0.00000000000E+00  0.45593999997E+02  0.45594000000E+02  0.51100000000E-03 0.  1.
         11   -1    0    0    0    0 -0.00000000000E+00 -0.00000000000E+00 -0.45593999997E+02  0.45594000000E+02  0.51100000000E-03 0. -1.
    9900012    2    1    2    0    0 -0.89829687498E+01 -0.43444242589E+02  0.78113738399E+01  0.46142317599E+02  0.99999985212E+01 0.  0.
         12    1    1    2    0    0  0.89829687498E+01  0.43444242589E+02 -0.78113738399E+01  0.45045682401E+02  0.00000000000E+00 0. -1.
         11    1    3    3    0    0  0.48601952919E+00 -0.50208616240E+01  0.33330010439E+01  0.60460038579E+01  0.51100000000E-03 0. -1.
        -11    1    3    3    0    0 -0.28483245909E+01 -0.19328475066E+02  0.36072280918E+01  0.19867435570E+02  0.51100000000E-03 0.  1.
        -12    1    3    3    0    0 -0.66206636880E+01 -0.19094905899E+02  0.87114470414E+00  0.20228878171E+02  0.00000000000E+00 0.  1.
</event>
<event>
 7    1  0.2297343E-008  0.4614232E+02  0.7816164E-02  0.1320468E+00
        -11   -1    0    0    0    0  0.00000000000E+00  0.00000000000E+00  0.45593999997E+02  0.45594000000E+02  0.51100000000E-03 0. -1.
         11   -1    0    0    0    0 -0.00000000000E+00 -0.00000000000E+00 -0.45593999997E+02  0.45594000000E+02  0.51100000000E-03 0.  1.
    9900012    2    1    2    0    0  0.12400798550E+02  0.16887708142E+02 -0.39876546857E+02  0.46142317851E+02  0.10000000822E+02 0.  0.
         12    1    1    2    0    0 -0.12400798550E+02 -0.16887708142E+02  0.39876546857E+02  0.45045682149E+02  0.00000000000E+00 0. -1.
         11    1    3    3    0    0  0.11986354664E+00 -0.56228138674E+00 -0.22595661222E+01  0.23315589097E+01  0.51100000000E-03 0. -1.
        -11    1    3    3    0    0  0.94186731202E+01  0.11156990157E+02 -0.30878944035E+02  0.34156976121E+02  0.51100000000E-03 0.  1.
         12    1    3    3    0    0  0.28622618833E+01  0.62929993719E+01 -0.67380367001E+01  0.96537828210E+01  0.00000000000E+00 0. -1.
</event>
<event>
 7    1  0.2297343E-008  0.4614232E+02  0.7816164E-02  0.1320468E+00
        -11   -1    0    0    0    0  0.00000000000E+00  0.00000000000E+00  0.45593999997E+02  0.45594000000E+02  0.51100000000E-03 0.  1.
         11   -1    0    0    0    0 -0.00000000000E+00 -0.00000000000E+00 -0.45593999997E+02  0.45594000000E+02  0.51100000000E-03 0. -1.
    9900012    2    1    2    0    0 -0.24070822290E+02 -0.35315421797E+02  0.14231303134E+02  0.46142317728E+02  0.99999997024E+01 0.  0.
         12    1    1    2    0    0  0.24070822290E+02  0.35315421797E+02 -0.14231303134E+02  0.45045682272E+02  0.00000000000E+00 0. -1.
         11    1    3    3    0    0 -0.16053956902E+01 -0.54588558539E+01  0.30299059923E+01  0.64464512050E+01  0.51100000000E-03 0. -1.
        -11    1    3    3    0    0 -0.21645238080E+02 -0.30179576352E+02  0.11270418428E+02  0.38811666959E+02  0.51100000000E-03 0.  1.
         12    1    3    3    0    0 -0.82018851960E+00  0.32301040876E+00 -0.69021286489E-01  0.88419956448E+00  0.00000000000E+00 0. -1.
</event>
<event>
 7    1  0.2297343E-008  0.4614232E+02  0.7816164E-02  0.1320468E+00
        -11   -1    0    0    0    0  0.00000000000E+00  0.00000000000E+00  0.45593999997E+02  0.45594000000E+02  0.51100000000E-03 0.  1.
         11   -1    0    0    0    0 -0.00000000000E+00 -0.00000000000E+00 -0.45593999997E+02  0.45594000000E+02  0.51100000000E-03 0. -1.
    9900012    2    1    2    0    0 -0.33520917485E+02 -0.51228411943E+01  0.29651611462E+02  0.46142317929E+02  0.10000001535E+02 0.  0.
         12    1    1    2    0    0  0.33520917485E+02  0.51228411943E+01 -0.29651611462E+02  0.45045682071E+02  0.00000000000E+00 0. -1.
         11    1    3    3    0    0 -0.54816809274E+01  0.12036983631E+00  0.26824449736E+01  0.61040008179E+01  0.51100000000E-03 0. -1.
        -11    1    3    3    0    0 -0.22685671263E+02 -0.61660973942E+01  0.24847657345E+02  0.34206235009E+02  0.51100000000E-03 0.  1.
        -12    1    3    3    0    0 -0.53535652944E+01  0.92288636365E+00  0.21215091431E+01  0.58320821021E+01  0.00000000000E+00 0.  1.
</event>
<event>
 7    1  0.2297343E-008  0.4614232E+02  0.7816164E-02  0.1320468E+00
        -11   -1    0    0    0    0  0.00000000000E+00  0.00000000000E+00  0.45593999997E+02  0.45594000000E+02  0.51100000000E-03 0. -1.
         11   -1    0    0    0    0 -0.00000000000E+00 -0.00000000000E+00 -0.45593999997E+02  0.45594000000E+02  0.51100000000E-03 0.  1.
    9900012    2    1    2    0    0 -0.30664264807E+02  0.88389038120E+01 -0.31791354877E+02  0.46142316503E+02  0.99999885317E+01 0.  0.
         12    1    1    2    0    0  0.30664264807E+02 -0.88389038120E+01  0.31791354877E+02  0.45045683497E+02  0.00000000000E+00 0. -1.
         11    1    3    3    0    0 -0.11624801137E+02  0.10692650008E+01 -0.17173028960E+02  0.20765169227E+02  0.51100000000E-03 0. -1.
        -11    1    3    3    0    0 -0.69671960280E+01  0.19483510529E+01 -0.63746537437E+01  0.96423079670E+01  0.51100000000E-03 0.  1.
         12    1    3    3    0    0 -0.12072267642E+02  0.58212877583E+01 -0.82436721738E+01  0.15734839309E+02  0.00000000000E+00 0. -1.
</event>
<event>
 7    1  0.2297343E-008  0.4614232E+02  0.7816164E-02  0.1320468E+00
        -11   -1    0    0    0    0  0.00000000000E+00  0.00000000000E+00  0.45593999997E+02  0.45594000000E+02  0.51100000000E-03 0.  1.
         11   -1    0    0    0    0 -0.00000000000E+00 -0.00000000000E+00 -0.45593999997E+02  0.45594000000E+02  0.51100000000E-03 0. -1.
    9900012    2    1    2    0    0  0.28687697339E+02 -0.15968565741E+02  0.30840467840E+02  0.46142317332E+02  0.99999960873E+01 0.  0.
         12    1    1    2    0    0 -0.28687697339E+02  0.15968565741E+02 -0.30840467840E+02  0.45045682668E+02  0.00000000000E+00 0. -1.
         11    1    3    3    0    0  0.50756621940E+01 -0.43694233056E+01  0.72053982219E+01  0.98372745478E+01  0.51100000000E-03 0. -1.
        -11    1    3    3    0    0  0.17857497737E+02 -0.12406785578E+02  0.18445965151E+02  0.28514420640E+02  0.51100000000E-03 0.  1.
         12    1    3    3    0    0  0.57545374081E+01  0.80764314306E+00  0.51891044674E+01  0.77906221447E+01  0.00000000000E+00 0. -1.
</event>
<event>
 7    1  0.2297343E-008  0.4614232E+02  0.7816164E-02  0.1320468E+00
        -11   -1    0    0    0    0  0.00000000000E+00  0.00000000000E+00  0.45593999997E+02  0.45594000000E+02  0.51100000000E-03 0.  1.
         11   -1    0    0    0    0 -0.00000000000E+00 -0.00000000000E+00 -0.45593999997E+02  0.45594000000E+02  0.51100000000E-03 0. -1.
    9900012    2    1    2    0    0 -0.99918065041E+01  0.34954532303E+02  0.26598077762E+02  0.46142320225E+02  0.10000022472E+02 0.  0.
         12    1    1    2    0    0  0.99918065041E+01 -0.34954532303E+02 -0.26598077762E+02  0.45045679775E+02  0.00000000000E+00 0. -1.
         11    1    3    3    0    0 -0.38884276436E+01  0.51695057715E+01  0.42725760259E+01  0.77523264650E+01  0.51100000000E-03 0. -1.
        -11    1    3    3    0    0 -0.54166902770E+01  0.10341027665E+02  0.68970285196E+01  0.13558996622E+02  0.51100000000E-03 0.  1.
        -12    1    3    3    0    0 -0.68668858359E+00  0.19443998866E+02  0.15428473216E+02  0.24830997138E+02  0.00000000000E+00 0.  1.
</event>
<event>
 7    1  0.2297343E-008  0.4614232E+02  0.7816164E-02  0.1320468E+00
        -11   -1    0    0    0    0  0.00000000000E+00  0.00000000000E+00  0.45593999997E+02  0.45594000000E+02  0.51100000000E-03 0. -1.
         11   -1    0    0    0    0 -0.00000000000E+00 -0.00000000000E+00 -0.45593999997E+02  0.45594000000E+02  0.51100000000E-03 0.  1.
    9900012    2    1    2    0    0 -0.89661076925E+01 -0.42805363016E+02  0.10789949875E+02  0.46142320869E+02  0.10000028336E+02 0.  0.
         12    1    1    2    0    0  0.89661076925E+01  0.42805363016E+02 -0.10789949875E+02  0.45045679131E+02  0.00000000000E+00 0. -1.
         11    1    3    3    0    0 -0.96289153825E+00 -0.96589133983E+01  0.47617180296E+01  0.10811832731E+02  0.51100000000E-03 0. -1.
        -11    1    3    3    0    0 -0.38461380686E+00  0.27558417117E+00  0.33935536504E+00  0.58226861562E+00  0.51100000000E-03 0.  1.
        -12    1    3    3    0    0 -0.76186023474E+01 -0.33422033789E+02  0.56888764802E+01  0.34748219522E+02  0.00000000000E+00 0.  1.
</event>
<event>
 7    1  0.2297343E-008  0.4614232E+02  0.7816164E-02  0.1320468E+00
        -11   -1    0    0    0    0  0.00000000000E+00  0.00000000000E+00  0.45593999997E+02  0.45594000000E+02  0.51100000000E-03 0. -1.
         11   -1    0    0    0    0 -0.00000000000E+00 -0.00000000000E+00 -0.45593999997E+02  0.45594000000E+02  0.51100000000E-03 0.  1.
    9900012    2    1    2    0    0 -0.29241815474E+02  0.29304833854E+02 -0.17755464371E+02  0.46142316806E+02  0.99999912893E+01 0.  0.
         12    1    1    2    0    0  0.29241815474E+02 -0.29304833854E+02  0.17755464371E+02  0.45045683194E+02  0.00000000000E+00 0. -1.
         11    1    3    3    0    0 -0.13697530063E+00  0.95105350008E+00 -0.16675560466E+01  0.19245800640E+01  0.51100000000E-03 0. -1.
        -11    1    3    3    0    0 -0.54383978470E+01  0.25592472928E+01 -0.97843263205E+00  0.60896016720E+01  0.51100000000E-03 0.  1.
        -12    1    3    3    0    0 -0.23666442326E+02  0.25794533061E+02 -0.15109475692E+02  0.38128135070E+02  0.00000000000E+00 0.  1.
</event>
<event>
 7    1  0.2297343E-008  0.4614232E+02  0.7816164E-02  0.1320468E+00
        -11   -1    0    0    0    0  0.00000000000E+00  0.00000000000E+00  0.45593999997E+02  0.45594000000E+02  0.51100000000E-03 0.  1.
         11   -1    0    0    0    0 -0.00000000000E+00 -0.00000000000E+00 -0.45593999997E+02  0.45594000000E+02  0.51100000000E-03 0. -1.
    9900012    2    1    2    0    0 -0.13700954300E+02  0.15691673155E+02  0.39939564993E+02  0.46142316445E+02  0.99999879945E+01 0.  0.
         12    1    1    2    0    0  0.13700954300E+02 -0.15691673155E+02 -0.39939564993E+02  0.45045683555E+02  0.00000000000E+00 0. -1.
         11    1    3    3    0    0  0.90599870339E+00  0.59766170405E+00  0.22452791961E+00  0.11083529270E+01  0.51100000000E-03 0. -1.
        -11    1    3    3    0    0 -0.59213986661E+01  0.61129269844E+01  0.19396282900E+02  0.21181280157E+02  0.51100000000E-03 0.  1.
         12    1    3    3    0    0 -0.86855543376E+01  0.89810844670E+01  0.20318754173E+02  0.23852683360E+02  0.00000000000E+00 0. -1.
</event>
<event>
 7    1  0.2297343E-008  0.4614232E+02  0.7816164E-02  0.1320468E+00
        -11   -1    0    0    0    0  0.00000000000E+00  0.00000000000E+00  0.45593999997E+02  0.45594000000E+02  0.51100000000E-03 0.  1.
         11   -1    0    0    0    0 -0.00000000000E+00 -0.00000000000E+00 -0.45593999997E+02  0.45594000000E+02  0.51100000000E-03 0. -1.
    9900012    2    1    2    0    0  0.24652147029E+02 -0.35079639780E+02  0.13813183230E+02  0.46142317508E+02  0.99999976948E+01 0.  0.
         12    1    1    2    0    0 -0.24652147029E+02  0.35079639780E+02 -0.13813183230E+02  0.45045682492E+02  0.00000000000E+00 0. -1.
         11    1    3    3    0    0  0.13401983001E+02 -0.21017069794E+02  0.54520519473E+01  0.25515784170E+02  0.51100000000E-03 0. -1.
        -11    1    3    3    0    0  0.88823730954E+01 -0.12255084111E+02  0.89590336855E+01  0.17588289377E+02  0.51100000000E-03 0.  1.
        -12    1    3    3    0    0  0.23677909324E+01 -0.18074858747E+01 -0.59790240326E+00  0.30382439617E+01  0.00000000000E+00 0.  1.
</event>
<event>
 7    1  0.2297343E-008  0.4614232E+02  0.7816164E-02  0.1320468E+00
        -11   -1    0    0    0    0  0.00000000000E+00  0.00000000000E+00  0.45593999997E+02  0.45594000000E+02  0.51100000000E-03 0.  1.
         11   -1    0    0    0    0 -0.00000000000E+00 -0.00000000000E+00 -0.45593999997E+02  0.45594000000E+02  0.51100000000E-03 0. -1.
    9900012    2    1    2    0    0 -0.37646592848E+02  0.23463335234E+02  0.78306627437E+01  0.46142319493E+02  0.10000015790E+02 0.  0.
         12    1    1    2    0    0  0.37646592848E+02 -0.23463335234E+02 -0.78306627437E+01  0.45045680507E+02  0.00000000000E+00 0. -1.
         11    1    3    3    0    0 -0.14339046612E+02  0.79693446127E+01  0.60759426682E+01  0.17493878668E+02  0.51100000000E-03 0. -1.
        -11    1    3    3    0    0 -0.10814755767E+02  0.57715843090E+01  0.34314704740E+01  0.12729694326E+02  0.51100000000E-03 0.  1.
         12    1    3    3    0    0 -0.12492790468E+02  0.97224063127E+01 -0.16767503986E+01  0.15918746499E+02  0.00000000000E+00 0. -1.
</event>
<event>
 7    1  0.2297343E-008  0.4614232E+02  0.7816164E-02  0.1320468E+00
        -11   -1    0    0    0    0  0.00000000000E+00  0.00000000000E+00  0.45593999997E+02  0.45594000000E+02  0.51100000000E-03 0.  1.
         11   -1    0    0    0    0 -0.00000000000E+00 -0.00000000000E+00 -0.45593999997E+02  0.45594000000E+02  0.51100000000E-03 0. -1.
    9900012    2    1    2    0    0  0.28915366123E+02 -0.85870432935E+01  0.33455609129E+02  0.46142317713E+02  0.99999995604E+01 0.  0.
         12    1    1    2    0    0 -0.28915366123E+02  0.85870432935E+01 -0.33455609129E+02  0.45045682287E+02  0.00000000000E+00 0. -1.
         11    1    3    3    0    0  0.14607330453E+02 -0.28446974168E+01  0.10719098789E+02  0.18340269504E+02  0.51100000000E-03 0. -1.
        -11    1    3    3    0    0  0.89908213703E+00 -0.16279694058E+01  0.17079918305E+01  0.25250484014E+01  0.51100000000E-03 0.  1.
        -12    1    3    3    0    0  0.13408953532E+02 -0.41143764710E+01  0.21028518510E+02  0.25276999808E+02  0.00000000000E+00 0.  1.
</event>
<event>
 7    1  0.2297343E-008  0.4614232E+02  0.7816164E-02  0.1320468E+00
        -11   -1    0    0    0    0  0.00000000000E+00  0.00000000000E+00  0.45593999997E+02  0.45594000000E+02  0.51100000000E-03 0.  1.
         11   -1    0    0    0    0 -0.00000000000E+00 -0.00000000000E+00 -0.45593999997E+02  0.45594000000E+02  0.51100000000E-03 0. -1.
    9900012    2    1    2    0    0 -0.97461090259E+01  0.43687949183E+02 -0.50487238482E+01  0.46142321434E+02  0.10000033493E+02 0.  0.
         12    1    1    2    0    0  0.97461090259E+01 -0.43687949183E+02  0.50487238482E+01  0.45045678566E+02  0.00000000000E+00 0. -1.
         11    1    3    3    0    0 -0.14531449582E+01  0.20908880740E+02 -0.93722597692E+00  0.20980260172E+02  0.51100000000E-03 0. -1.
        -11    1    3    3    0    0 -0.78836242845E+01  0.22783287282E+02 -0.34083629446E+01  0.24348442444E+02  0.51100000000E-03 0.  1.
         12    1    3    3    0    0 -0.40933978312E+00 -0.42188388231E-02 -0.70313492677E+00  0.81361881854E+00  0.00000000000E+00 0. -1.
</event>
<event>
 7    1  0.2297343E-008  0.4614232E+02  0.7816164E-02  0.1320468E+00
        -11   -1    0    0    0    0  0.00000000000E+00  0.00000000000E+00  0.45593999997E+02  0.45594000000E+02  0.51100000000E-03 0.  1.
         11   -1    0    0    0    0 -0.00000000000E+00 -0.00000000000E+00 -0.45593999997E+02  0.45594000000E+02  0.51100000000E-03 0. -1.
    9900012    2    1    2    0    0  0.36835133800E+02  0.20620558457E+02 -0.15718746308E+02  0.46142317647E+02  0.99999989620E+01 0.  0.
         12    1    1    2    0    0 -0.36835133800E+02 -0.20620558457E+02  0.15718746308E+02  0.45045682353E+02  0.00000000000E+00 0. -1.
         11    1    3    3    0    0  0.50069637168E+01  0.56774154171E+01 -0.28958891912E+01  0.81048692740E+01  0.51100000000E-03 0. -1.
        -11    1    3    3    0    0  0.28243278530E+02  0.12320762137E+02 -0.13317298877E+02  0.33568354314E+02  0.51100000000E-03 0.  1.
        -12    1    3    3    0    0  0.35848915532E+01  0.26223809036E+01  0.49444176072E+00  0.44690940588E+01  0.00000000000E+00 0.  1.
</event>
<event>
 7    1  0.2297343E-008  0.4614232E+02  0.7816164E-02  0.1320468E+00
        -11   -1    0    0    0    0  0.00000000000E+00  0.00000000000E+00  0.45593999997E+02  0.45594000000E+02  0.51100000000E-03 0.  1.
         11   -1    0    0    0    0 -0.00000000000E+00 -0.00000000000E+00 -0.45593999997E+02  0.45594000000E+02  0.51100000000E-03 0. -1.
    9900012    2    1    2    0    0  0.36202331030E+01  0.83956063434E+01  0.44108062503E+02  0.46142317949E+02  0.10000001718E+02 0.  0.
         12    1    1    2    0    0 -0.36202331030E+01 -0.83956063434E+01 -0.44108062503E+02  0.45045682051E+02  0.00000000000E+00 0. -1.
         11    1    3    3    0    0  0.49622524546E+01  0.42422503326E+01  0.20884290444E+02  0.21880910057E+02  0.51100000000E-03 0. -1.
        -11    1    3    3    0    0  0.17637254401E+01  0.23925433055E+01  0.15069125985E+02  0.15359477501E+02  0.51100000000E-03 0.  1.
         12    1    3    3    0    0 -0.31057447918E+01  0.17608127053E+01  0.81546460748E+01  0.89019303918E+01  0.00000000000E+00 0. -1.
</event>
<event>
 7    1  0.2297343E-008  0.4614232E+02  0.7816164E-02  0.1320468E+00
        -11   -1    0    0    0    0  0.00000000000E+00  0.00000000000E+00  0.45593999997E+02  0.45594000000E+02  0.51100000000E-03 0. -1.
         11   -1    0    0    0    0 -0.00000000000E+00 -0.00000000000E+00 -0.45593999997E+02  0.45594000000E+02  0.51100000000E-03 0.  1.
    9900012    2    1    2    0    0 -0.48557948445E+01 -0.26634836232E+02 -0.36001670990E+02  0.46142316980E+02  0.99999928728E+01 0.  0.
         12    1    1    2    0    0  0.48557948445E+01  0.26634836232E+02  0.36001670990E+02  0.45045683020E+02  0.00000000000E+00 0. -1.
         11    1    3    3    0    0  0.90815682231E+00 -0.12953200400E+01 -0.18007294418E+01  0.23969208588E+01  0.51100000000E-03 0. -1.
        -11    1    3    3    0    0 -0.21268029442E+01 -0.13324999425E+02 -0.24151227803E+02  0.27665153264E+02  0.51100000000E-03 0.  1.
         12    1    3    3    0    0 -0.36371487226E+01 -0.12014516767E+02 -0.10049713745E+02  0.16080242857E+02  0.00000000000E+00 0. -1.
</event>
<event>
 7    1  0.2297343E-008  0.4614232E+02  0.7816164E-02  0.1320468E+00
        -11   -1    0    0    0    0  0.00000000000E+00  0.00000000000E+00  0.45593999997E+02  0.45594000000E+02  0.51100000000E-03 0.  1.
         11   -1    0    0    0    0 -0.00000000000E+00 -0.00000000000E+00 -0.45593999997E+02  0.45594000000E+02  0.51100000000E-03 0. -1.
    9900012    2    1    2    0    0  0.16933307237E+02  0.19979905466E+02  0.36649419742E+02  0.46142317811E+02  0.10000000459E+02 0.  0.
         12    1    1    2    0    0 -0.16933307237E+02 -0.19979905466E+02 -0.36649419742E+02  0.45045682189E+02  0.00000000000E+00 0. -1.
         11    1    3    3    0    0  0.10179337470E+02  0.15552129866E+02  0.23889154156E+02  0.30268454556E+02  0.51100000000E-03 0. -1.
        -11    1    3    3    0    0  0.39055319417E+01  0.19325046133E+00  0.79553969339E+01  0.88644721290E+01  0.51100000000E-03 0.  1.
        -12    1    3    3    0    0  0.28484378250E+01  0.42345251386E+01  0.48048686524E+01  0.70093911261E+01  0.00000000000E+00 0.  1.
</event>
<event>
 7    1  0.2297343E-008  0.4614232E+02  0.7816164E-02  0.1320468E+00
        -11   -1    0    0    0    0  0.00000000000E+00  0.00000000000E+00  0.45593999997E+02  0.45594000000E+02  0.51100000000E-03 0.  1.
         11   -1    0    0    0    0 -0.00000000000E+00 -0.00000000000E+00 -0.45593999997E+02  0.45594000000E+02  0.51100000000E-03 0. -1.
    9900012    2    1    2    0    0 -0.85452183105E+01 -0.38466596658E+02  0.21826902151E+02  0.46142317943E+02  0.10000001663E+02 0.  0.
         12    1    1    2    0    0  0.85452183105E+01  0.38466596658E+02 -0.21826902151E+02  0.45045682057E+02  0.00000000000E+00 0. -1.
         11    1    3    3    0    0 -0.88413969984E+01 -0.19594650203E+02  0.96164835331E+01  0.23549891152E+02  0.51100000000E-03 0. -1.
        -11    1    3    3    0    0 -0.88258677881E+00 -0.44374111975E+01  0.30315674497E+01  0.54460975956E+01  0.51100000000E-03 0.  1.
         12    1    3    3    0    0  0.11787654667E+01 -0.14434535258E+02  0.91788511685E+01  0.17146329196E+02  0.00000000000E+00 0. -1.
</event>
<event>
 7    1  0.2297343E-008  0.4614232E+02  0.7816164E-02  0.1320468E+00
        -11   -1    0    0    0    0  0.00000000000E+00  0.00000000000E+00  0.45593999997E+02  0.45594000000E+02  0.51100000000E-03 0.  1.
         11   -1    0    0    0    0 -0.00000000000E+00 -0.00000000000E+00 -0.45593999997E+02  0.45594000000E+02  0.51100000000E-03 0. -1.
    9900012    2    1    2    0    0  0.13523107637E+02  0.41087896713E+02 -0.12570748910E+02  0.46142318469E+02  0.10000006455E+02 0.  0.
         12    1    1    2    0    0 -0.13523107637E+02 -0.41087896713E+02  0.12570748910E+02  0.45045681531E+02  0.00000000000E+00 0. -1.
         11    1    3    3    0    0  0.14053586986E+01  0.30879191740E+01  0.10521801266E+01  0.35520925068E+01  0.51100000000E-03 0. -1.
        -11    1    3    3    0    0  0.25566935958E+01  0.12077895499E+02 -0.69473787694E+01  0.14166097340E+02  0.51100000000E-03 0.  1.
        -12    1    3    3    0    0  0.95610553429E+01  0.25922082040E+02 -0.66755502672E+01  0.28424128622E+02  0.00000000000E+00 0.  1.
</event>
<event>
 7    1  0.2297343E-008  0.4614232E+02  0.7816164E-02  0.1320468E+00
        -11   -1    0    0    0    0  0.00000000000E+00  0.00000000000E+00  0.45593999997E+02  0.45594000000E+02  0.51100000000E-03 0. -1.
         11   -1    0    0    0    0 -0.00000000000E+00 -0.00000000000E+00 -0.45593999997E+02  0.45594000000E+02  0.51100000000E-03 0.  1.
    9900012    2    1    2    0    0 -0.15663863675E+02 -0.12038375026E+02 -0.40482519429E+02  0.46142317878E+02  0.10000001070E+02 0.  0.
         12    1    1    2    0    0  0.15663863675E+02  0.12038375026E+02  0.40482519429E+02  0.45045682122E+02  0.00000000000E+00 0. -1.
         11    1    3    3    0    0 -0.11163244854E+00 -0.13180679200E+01 -0.81340984624E+00  0.15528685341E+01  0.51100000000E-03 0. -1.
        -11    1    3    3    0    0 -0.29978880036E+01  0.51107551721E+00 -0.31818329244E+01  0.44014306409E+01  0.51100000000E-03 0.  1.
        -12    1    3    3    0    0 -0.12554343222E+02 -0.11231382623E+02 -0.36487276658E+02  0.40188018703E+02  0.00000000000E+00 0.  1.
</event>
<event>
 7    1  0.2297343E-008  0.4614232E+02  0.7816164E-02  0.1320468E+00
        -11   -1    0    0    0    0  0.00000000000E+00  0.00000000000E+00  0.45593999997E+02  0.45594000000E+02  0.51100000000E-03 0.  1.
         11   -1    0    0    0    0 -0.00000000000E+00 -0.00000000000E+00 -0.45593999997E+02  0.45594000000E+02  0.51100000000E-03 0. -1.
    9900012    2    1    2    0    0  0.16210553826E+02  0.29438021475E+02  0.29995572484E+02  0.46142317274E+02  0.99999955538E+01 0.  0.
         12    1    1    2    0    0 -0.16210553826E+02 -0.29438021475E+02 -0.29995572484E+02  0.45045682726E+02  0.00000000000E+00 0. -1.
         11    1    3    3    0    0  0.34329495231E+01  0.12743242908E+02  0.13979242579E+02  0.19224843447E+02  0.51100000000E-03 0. -1.
        -11    1    3    3    0    0  0.10815969096E+02  0.14647799540E+02  0.15740749666E+02  0.24068951351E+02  0.51100000000E-03 0.  1.
         12    1    3    3    0    0  0.19616352072E+01  0.20469790271E+01  0.27558023874E+00  0.28485224751E+01  0.00000000000E+00 0. -1.
</event>
<event>
 7    1  0.2297343E-008  0.4614232E+02  0.7816164E-02  0.1320468E+00
        -11   -1    0    0    0    0  0.00000000000E+00  0.00000000000E+00  0.45593999997E+02  0.45594000000E+02  0.51100000000E-03 0. -1.
         11   -1    0    0    0    0 -0.00000000000E+00 -0.00000000000E+00 -0.45593999997E+02  0.45594000000E+02  0.51100000000E-03 0.  1.
    9900012    2    1    2    0    0  0.40020396367E+02  0.97891679662E+01 -0.18211350678E+02  0.46142320647E+02  0.10000026318E+02 0.  0.
         12    1    1    2    0    0 -0.40020396367E+02 -0.97891679662E+01  0.18211350678E+02  0.45045679353E+02  0.00000000000E+00 0. -1.
         11    1    3    3    0    0  0.23221134579E+01  0.17694064150E+01 -0.35687979399E+00  0.29411517168E+01  0.51100000000E-03 0. -1.
        -11    1    3    3    0    0  0.60180176542E+01  0.33297711189E+01 -0.57489957628E+01  0.89640875013E+01  0.51100000000E-03 0.  1.
         12    1    3    3    0    0  0.31680265255E+02  0.46899904323E+01 -0.12105475121E+02  0.34237081429E+02  0.00000000000E+00 0. -1.
</event>
<event>
 7    1  0.2297343E-008  0.4614232E+02  0.7816164E-02  0.1320468E+00
        -11   -1    0    0    0    0  0.00000000000E+00  0.00000000000E+00  0.45593999997E+02  0.45594000000E+02  0.51100000000E-03 0.  1.
         11   -1    0    0    0    0 -0.00000000000E+00 -0.00000000000E+00 -0.45593999997E+02  0.45594000000E+02  0.51100000000E-03 0. -1.
    9900012    2    1    2    0    0 -0.14902145627E+02 -0.59199254066E+01  0.42095059221E+02  0.46142317943E+02  0.10000001661E+02 0.  0.
         12    1    1    2    0    0  0.14902145627E+02  0.59199254066E+01 -0.42095059221E+02  0.45045682057E+02  0.00000000000E+00 0. -1.
         11    1    3    3    0    0 -0.20969540205E+00  0.11331719231E+01  0.51726421062E+01  0.52994601036E+01  0.51100000000E-03 0. -1.
        -11    1    3    3    0    0 -0.12444451881E+02 -0.39489554090E+01  0.32295565862E+02  0.34834784426E+02  0.51100000000E-03 0.  1.
         12    1    3    3    0    0 -0.22479983444E+01 -0.31041419206E+01  0.46268512534E+01  0.60080734134E+01  0.00000000000E+00 0. -1.
</event>
<event>
 7    1  0.2297343E-008  0.4614233E+02  0.7816164E-02  0.1320468E+00
        -11   -1    0    0    0    0  0.00000000000E+00  0.00000000000E+00  0.45593999997E+02  0.45594000000E+02  0.51100000000E-03 0. -1.
         11   -1    0    0    0    0 -0.00000000000E+00 -0.00000000000E+00 -0.45593999997E+02  0.45594000000E+02  0.51100000000E-03 0.  1.
    9900012    2    1    2    0    0  0.43697082762E+02 -0.31810141436E+01 -0.10467033087E+02  0.46142326795E+02  0.10000082375E+02 0.  0.
         12    1    1    2    0    0 -0.43697082762E+02  0.31810141436E+01  0.10467033087E+02  0.45045673205E+02  0.00000000000E+00 0. -1.
         11    1    3    3    0    0  0.11796876674E+02 -0.25609688987E+01 -0.54569859910E+01  0.13247775561E+02  0.51100000000E-03 0. -1.
        -11    1    3    3    0    0  0.21136736910E+02  0.47382747144E+00 -0.61431679457E+01  0.22016463665E+02  0.51100000000E-03 0.  1.
         12    1    3    3    0    0  0.10763469179E+02 -0.10938727164E+01  0.11331208497E+01  0.10878087568E+02  0.00000000000E+00 0. -1.
</event>
<event>
 7    1  0.2297343E-008  0.4614232E+02  0.7816164E-02  0.1320468E+00
        -11   -1    0    0    0    0  0.00000000000E+00  0.00000000000E+00  0.45593999997E+02  0.45594000000E+02  0.51100000000E-03 0. -1.
         11   -1    0    0    0    0 -0.00000000000E+00 -0.00000000000E+00 -0.45593999997E+02  0.45594000000E+02  0.51100000000E-03 0.  1.
    9900012    2    1    2    0    0 -0.27714439530E+01  0.10497905474E+02 -0.43717576441E+02  0.46142318622E+02  0.10000007852E+02 0.  0.
         12    1    1    2    0    0  0.27714439530E+01 -0.10497905474E+02  0.43717576441E+02  0.45045681378E+02  0.00000000000E+00 0. -1.
         11    1    3    3    0    0 -0.73958579805E+00  0.48862250035E+01 -0.10918950334E+02  0.11985226681E+02  0.51100000000E-03 0. -1.
        -11    1    3    3    0    0 -0.38908668287E+01  0.41377514159E+00 -0.11186023915E+02  0.11850619640E+02  0.51100000000E-03 0.  1.
         12    1    3    3    0    0  0.18590086737E+01  0.51979053293E+01 -0.21612602191E+02  0.22306472301E+02  0.00000000000E+00 0. -1.
</event>
<event>
 7    1  0.2297343E-008  0.4614232E+02  0.7816164E-02  0.1320468E+00
        -11   -1    0    0    0    0  0.00000000000E+00  0.00000000000E+00  0.45593999997E+02  0.45594000000E+02  0.51100000000E-03 0.  1.
         11   -1    0    0    0    0 -0.00000000000E+00 -0.00000000000E+00 -0.45593999997E+02  0.45594000000E+02  0.51100000000E-03 0. -1.
    9900012    2    1    2    0    0  0.30205124226E+02 -0.11025465090E+02  0.31546839508E+02  0.46142317711E+02  0.99999995445E+01 0.  0.
         12    1    1    2    0    0 -0.30205124226E+02  0.11025465090E+02 -0.31546839508E+02  0.45045682289E+02  0.00000000000E+00 0. -1.
         11    1    3    3    0    0  0.21471596109E+02 -0.82657886244E+01  0.16805079117E+02  0.28491461623E+02  0.51100000000E-03 0. -1.
        -11    1    3    3    0    0  0.72461881452E+01 -0.33058230672E+01  0.13332675079E+02  0.15530484017E+02  0.51100000000E-03 0.  1.
        -12    1    3    3    0    0  0.14873399713E+01  0.54614660146E+00  0.14090853120E+01  0.21203720704E+01  0.00000000000E+00 0.  1.
</event>
<event>
 7    1  0.2297343E-008  0.4614231E+02  0.7816164E-02  0.1320468E+00
        -11   -1    0    0    0    0  0.00000000000E+00  0.00000000000E+00  0.45593999997E+02  0.45594000000E+02  0.51100000000E-03 0. -1.
         11   -1    0    0    0    0 -0.00000000000E+00 -0.00000000000E+00 -0.45593999997E+02  0.45594000000E+02  0.51100000000E-03 0.  1.
    9900012    2    1    2    0    0 -0.13692167598E+02 -0.35691567932E+02 -0.23827518448E+02  0.46142310857E+02  0.99999370446E+01 0.  0.
         12    1    1    2    0    0  0.13692167598E+02  0.35691567932E+02  0.23827518448E+02  0.45045689143E+02  0.00000000000E+00 0. -1.
         11    1    3    3    0    0 -0.76749018456E-01 -0.10012327948E+01 -0.94386194604E+00  0.13781266834E+01  0.51100000000E-03 0. -1.
        -11    1    3    3    0    0 -0.49431596736E+01 -0.21056784894E+02 -0.17204212345E+02  0.27637075466E+02  0.51100000000E-03 0.  1.
         12    1    3    3    0    0 -0.86722589059E+01 -0.13633550244E+02 -0.56794441564E+01  0.17127108708E+02  0.00000000000E+00 0. -1.
</event>
<event>
 7    1  0.2297343E-008  0.4614231E+02  0.7816164E-02  0.1320468E+00
        -11   -1    0    0    0    0  0.00000000000E+00  0.00000000000E+00  0.45593999997E+02  0.45594000000E+02  0.51100000000E-03 0. -1.
         11   -1    0    0    0    0 -0.00000000000E+00 -0.00000000000E+00 -0.45593999997E+02  0.45594000000E+02  0.51100000000E-03 0.  1.
    9900012    2    1    2    0    0  0.71068479711E+01 -0.11632652854E+02 -0.42933533477E+02  0.46142309892E+02  0.99999282441E+01 0.  0.
         12    1    1    2    0    0 -0.71068479711E+01  0.11632652854E+02  0.42933533477E+02  0.45045690108E+02  0.00000000000E+00 0. -1.
         11    1    3    3    0    0  0.39580067080E+00  0.14322049177E+01 -0.22625859398E+01  0.27068735643E+01  0.51100000000E-03 0. -1.
        -11    1    3    3    0    0  0.82089050961E+00 -0.47708560873E+01 -0.97787582578E+01  0.10911417981E+02  0.51100000000E-03 0.  1.
         12    1    3    3    0    0  0.58901567907E+01 -0.82940016843E+01 -0.30892189279E+02  0.32524018347E+02  0.00000000000E+00 0. -1.
</event>
<event>
 7    1  0.2297343E-008  0.4614232E+02  0.7816164E-02  0.1320468E+00
        -11   -1    0    0    0    0  0.00000000000E+00  0.00000000000E+00  0.45593999997E+02  0.45594000000E+02  0.51100000000E-03 0.  1.
         11   -1    0    0    0    0 -0.00000000000E+00 -0.00000000000E+00 -0.45593999997E+02  0.45594000000E+02  0.51100000000E-03 0. -1.
    9900012    2    1    2    0    0  0.29208604212E+02 -0.10859881899E+00  0.34292260159E+02  0.46142318070E+02  0.10000002816E+02 0.  0.
         12    1    1    2    0    0 -0.29208604212E+02  0.10859881899E+00 -0.34292260159E+02  0.45045681930E+02  0.00000000000E+00 0. -1.
         11    1    3    3    0    0  0.21317159615E+01 -0.44218216153E+00  0.10337252098E+01  0.24100469031E+01  0.51100000000E-03 0. -1.
        -11    1    3    3    0    0  0.22184484195E+02 -0.13212560497E+01  0.21647390842E+02  0.31024290276E+02  0.51100000000E-03 0.  1.
         12    1    3    3    0    0  0.48924040549E+01  0.16548393922E+01  0.11611144107E+02  0.12707980891E+02  0.00000000000E+00 0. -1.
</event>
<event>
 7    1  0.2297343E-008  0.4614232E+02  0.7816164E-02  0.1320468E+00
        -11   -1    0    0    0    0  0.00000000000E+00  0.00000000000E+00  0.45593999997E+02  0.45594000000E+02  0.51100000000E-03 0.  1.
         11   -1    0    0    0    0 -0.00000000000E+00 -0.00000000000E+00 -0.45593999997E+02  0.45594000000E+02  0.51100000000E-03 0. -1.
    9900012    2    1    2    0    0 -0.35209573213E+02  0.28032960253E+02  0.18848197478E+01  0.46142318166E+02  0.10000003695E+02 0.  0.
         12    1    1    2    0    0  0.35209573213E+02 -0.28032960253E+02 -0.18848197478E+01  0.45045681834E+02  0.00000000000E+00 0. -1.
         11    1    3    3    0    0 -0.21341550347E+02  0.19129153892E+02  0.12760256060E+01  0.28688230016E+02  0.51100000000E-03 0. -1.
        -11    1    3    3    0    0 -0.97007859359E+01  0.32291766024E+01  0.15852384819E+01  0.10346294535E+02  0.51100000000E-03 0.  1.
         12    1    3    3    0    0 -0.41672369298E+01  0.56746297583E+01 -0.97644434009E+00  0.71077936149E+01  0.00000000000E+00 0. -1.
</event>
<event>
 7    1  0.2297343E-008  0.4614232E+02  0.7816164E-02  0.1320468E+00
        -11   -1    0    0    0    0  0.00000000000E+00  0.00000000000E+00  0.45593999997E+02  0.45594000000E+02  0.51100000000E-03 0.  1.
         11   -1    0    0    0    0 -0.00000000000E+00 -0.00000000000E+00 -0.45593999997E+02  0.45594000000E+02  0.51100000000E-03 0. -1.
    9900012    2    1    2    0    0 -0.44232174744E+02  0.71809266344E+01  0.45893854539E+01  0.46142318201E+02  0.10000004013E+02 0.  0.
         12    1    1    2    0    0  0.44232174744E+02 -0.71809266344E+01 -0.45893854539E+01  0.45045681799E+02  0.00000000000E+00 0. -1.
         11    1    3    3    0    0 -0.27372562257E+02  0.43078243331E+01 -0.28838225273E+00  0.27710966775E+02  0.51100000000E-03 0. -1.
        -11    1    3    3    0    0 -0.10412958771E+02 -0.41939852453E+00  0.18474629775E+01  0.10583889890E+02  0.51100000000E-03 0.  1.
         12    1    3    3    0    0 -0.64466537158E+01  0.32925008258E+01  0.30303047291E+01  0.78474615367E+01  0.00000000000E+00 0. -1.
</event>
<event>
 7    1  0.2297343E-008  0.4614232E+02  0.7816164E-02  0.1320468E+00
        -11   -1    0    0    0    0  0.00000000000E+00  0.00000000000E+00  0.45593999997E+02  0.45594000000E+02  0.51100000000E-03 0. -1.
         11   -1    0    0    0    0 -0.00000000000E+00 -0.00000000000E+00 -0.45593999997E+02  0.45594000000E+02  0.51100000000E-03 0.  1.
    9900012    2    1    2    0    0  0.67511325916E+01 -0.40325345017E+02 -0.18905086352E+02  0.46142317277E+02  0.99999955825E+01 0.  0.
         12    1    1    2    0    0 -0.67511325916E+01  0.40325345017E+02  0.18905086352E+02  0.45045682723E+02  0.00000000000E+00 0. -1.
         11    1    3    3    0    0  0.22115616832E+01 -0.10774575089E+02 -0.82142874796E+01  0.13727963887E+02  0.51100000000E-03 0.  1.
        -11    1    3    3    0    0  0.29294552852E+00 -0.23236113952E+01  0.91412368487E+00  0.25140822125E+01  0.51100000000E-03 0. -1.
        -12    1    3    3    0    0  0.42466253799E+01 -0.27227158533E+02 -0.11604922557E+02  0.29900271177E+02  0.00000000000E+00 0.  1.
</event>
<event>
 7    1  0.2297343E-008  0.4614232E+02  0.7816164E-02  0.1320468E+00
        -11   -1    0    0    0    0  0.00000000000E+00  0.00000000000E+00  0.45593999997E+02  0.45594000000E+02  0.51100000000E-03 0.  1.
         11   -1    0    0    0    0 -0.00000000000E+00 -0.00000000000E+00 -0.45593999997E+02  0.45594000000E+02  0.51100000000E-03 0. -1.
    9900012    2    1    2    0    0 -0.93750979087E+01  0.42891950363E+02  0.10074797346E+02  0.46142318650E+02  0.10000008104E+02 0.  0.
         12    1    1    2    0    0  0.93750979087E+01 -0.42891950363E+02 -0.10074797346E+02  0.45045681350E+02  0.00000000000E+00 0. -1.
         11    1    3    3    0    0 -0.20424490313E+01  0.57961381321E+01 -0.19065747140E+00  0.61484279148E+01  0.51100000000E-03 0. -1.
        -11    1    3    3    0    0 -0.76850366395E+01  0.37219150049E+02  0.95483291206E+01  0.39185399166E+02  0.51100000000E-03 0.  1.
        -12    1    3    3    0    0  0.35238776202E+00 -0.12333781825E+00  0.71712569679E+00  0.80849156906E+00  0.00000000000E+00 0.  1.
</event>
<event>
 7    1  0.2297343E-008  0.4614232E+02  0.7816164E-02  0.1320468E+00
        -11   -1    0    0    0    0  0.00000000000E+00  0.00000000000E+00  0.45593999997E+02  0.45594000000E+02  0.51100000000E-03 0. -1.
         11   -1    0    0    0    0 -0.00000000000E+00 -0.00000000000E+00 -0.45593999997E+02  0.45594000000E+02  0.51100000000E-03 0.  1.
    9900012    2    1    2    0    0 -0.31738327710E+02 -0.13397979751E+00 -0.31965201962E+02  0.46142317267E+02  0.99999954979E+01 0.  0.
         12    1    1    2    0    0  0.31738327710E+02  0.13397979751E+00  0.31965201962E+02  0.45045682733E+02  0.00000000000E+00 0. -1.
         11    1    3    3    0    0 -0.12974364521E+02  0.32977398620E+01 -0.17510120401E+02  0.22041178272E+02  0.51100000000E-03 0. -1.
        -11    1    3    3    0    0 -0.16292784113E+02 -0.19820001416E+01 -0.12537074685E+02  0.20653362454E+02  0.51100000000E-03 0.  1.
         12    1    3    3    0    0 -0.24711790757E+01 -0.14497195178E+01 -0.19180068758E+01  0.34477765415E+01  0.00000000000E+00 0. -1.
</event>
<event>
 7    1  0.2297343E-008  0.4614232E+02  0.7816164E-02  0.1320468E+00
        -11   -1    0    0    0    0  0.00000000000E+00  0.00000000000E+00  0.45593999997E+02  0.45594000000E+02  0.51100000000E-03 0.  1.
         11   -1    0    0    0    0 -0.00000000000E+00 -0.00000000000E+00 -0.45593999997E+02  0.45594000000E+02  0.51100000000E-03 0. -1.
    9900012    2    1    2    0    0  0.32663039267E+02  0.27193470060E+02  0.14924962047E+02  0.46142318296E+02  0.10000004875E+02 0.  0.
         12    1    1    2    0    0 -0.32663039267E+02 -0.27193470060E+02 -0.14924962047E+02  0.45045681704E+02  0.00000000000E+00 0. -1.
         11    1    3    3    0    0  0.20410615594E+01  0.56860407280E+00 -0.67956082477E+00  0.22250946175E+01  0.51100000000E-03 0.  1.
        -11    1    3    3    0    0  0.23221623647E+02  0.17060150607E+02  0.12643470829E+02  0.31466647397E+02  0.51100000000E-03 0. -1.
         12    1    3    3    0    0  0.74003540605E+01  0.95647153808E+01  0.29610520425E+01  0.12450576281E+02  0.00000000000E+00 0. -1.
</event>
<event>
 7    1  0.2297343E-008  0.4614232E+02  0.7816164E-02  0.1320468E+00
        -11   -1    0    0    0    0  0.00000000000E+00  0.00000000000E+00  0.45593999997E+02  0.45594000000E+02  0.51100000000E-03 0.  1.
         11   -1    0    0    0    0 -0.00000000000E+00 -0.00000000000E+00 -0.45593999997E+02  0.45594000000E+02  0.51100000000E-03 0. -1.
    9900012    2    1    2    0    0 -0.37762608562E+01 -0.17626649032E+01  0.44852496197E+02  0.46142317092E+02  0.99999938954E+01 0.  0.
         12    1    1    2    0    0  0.37762608562E+01  0.17626649032E+01 -0.44852496197E+02  0.45045682908E+02  0.00000000000E+00 0. -1.
         11    1    3    3    0    0 -0.19366502243E+01 -0.18178133770E+01  0.48048731121E+01  0.54901607854E+01  0.51100000000E-03 0. -1.
        -11    1    3    3    0    0 -0.15365181377E+01 -0.12407784477E+01  0.38726687155E+02  0.38777012745E+02  0.51100000000E-03 0.  1.
        -12    1    3    3    0    0 -0.30309249419E+00  0.12959269216E+01  0.13209359292E+01  0.18751435612E+01  0.00000000000E+00 0.  1.
</event>
<event>
 7    1  0.2297343E-008  0.4614232E+02  0.7816164E-02  0.1320468E+00
        -11   -1    0    0    0    0  0.00000000000E+00  0.00000000000E+00  0.45593999997E+02  0.45594000000E+02  0.51100000000E-03 0.  1.
         11   -1    0    0    0    0 -0.00000000000E+00 -0.00000000000E+00 -0.45593999997E+02  0.45594000000E+02  0.51100000000E-03 0. -1.
    9900012    2    1    2    0    0 -0.25791109441E+02 -0.26410462743E+02  0.25815104284E+02  0.46142317880E+02  0.10000001081E+02 0.  0.
         12    1    1    2    0    0  0.25791109441E+02  0.26410462743E+02 -0.25815104284E+02  0.45045682120E+02  0.00000000000E+00 0. -1.
         11    1    3    3    0    0 -0.32183855573E+01 -0.19134676243E+01  0.35894069309E+01  0.51868300841E+01  0.51100000000E-03 0. -1.
        -11    1    3    3    0    0 -0.21923024370E+02 -0.23094696627E+02  0.22947132405E+02  0.39249903129E+02  0.51100000000E-03 0.  1.
        -12    1    3    3    0    0 -0.64969951391E+00 -0.14022984921E+01 -0.72143505204E+00  0.17055846662E+01  0.00000000000E+00 0.  1.
</event>
<event>
 7    1  0.2297343E-008  0.4614232E+02  0.7816164E-02  0.1320468E+00
        -11   -1    0    0    0    0  0.00000000000E+00  0.00000000000E+00  0.45593999997E+02  0.45594000000E+02  0.51100000000E-03 0.  1.
         11   -1    0    0    0    0 -0.00000000000E+00 -0.00000000000E+00 -0.45593999997E+02  0.45594000000E+02  0.51100000000E-03 0. -1.
    9900012    2    1    2    0    0  0.41179351090E+02  0.16520627323E+02 -0.77745384940E+01  0.46142317276E+02  0.99999955721E+01 0.  0.
         12    1    1    2    0    0 -0.41179351090E+02 -0.16520627323E+02  0.77745384940E+01  0.45045682724E+02  0.00000000000E+00 0. -1.
         11    1    3    3    0    0  0.14640323433E+02  0.95207952534E+01 -0.46780979512E+01  0.18079524694E+02  0.51100000000E-03 0. -1.
        -11    1    3    3    0    0  0.18460526837E+02  0.71606522277E+01 -0.25509070113E+01  0.19964296087E+02  0.51100000000E-03 0.  1.
         12    1    3    3    0    0  0.80785008205E+01 -0.16082015834E+00 -0.54553353148E+00  0.80984964941E+01  0.00000000000E+00 0. -1.
</event>
<event>
 7    1  0.2297343E-008  0.4614232E+02  0.7816164E-02  0.1320468E+00
        -11   -1    0    0    0    0  0.00000000000E+00  0.00000000000E+00  0.45593999997E+02  0.45594000000E+02  0.51100000000E-03 0. -1.
         11   -1    0    0    0    0 -0.00000000000E+00 -0.00000000000E+00 -0.45593999997E+02  0.45594000000E+02  0.51100000000E-03 0.  1.
    9900012    2    1    2    0    0 -0.15680162459E+02 -0.30036573477E+02 -0.29682490226E+02  0.46142317998E+02  0.10000002163E+02 0.  0.
         12    1    1    2    0    0  0.15680162459E+02  0.30036573477E+02  0.29682490226E+02  0.45045682002E+02  0.00000000000E+00 0. -1.
         11    1    3    3    0    0  0.54305795040E+00 -0.54898927602E+01 -0.33725005910E+01  0.64658792869E+01  0.51100000000E-03 0. -1.
        -11    1    3    3    0    0 -0.13236587911E+02 -0.21995210793E+02 -0.21648321614E+02  0.33580446488E+02  0.51100000000E-03 0.  1.
         12    1    3    3    0    0 -0.29866324980E+01 -0.25514699236E+01 -0.46616680215E+01  0.60959922238E+01  0.00000000000E+00 0. -1.
</event>
<event>
 7    1  0.2297343E-008  0.4614232E+02  0.7816164E-02  0.1320468E+00
        -11   -1    0    0    0    0  0.00000000000E+00  0.00000000000E+00  0.45593999997E+02  0.45594000000E+02  0.51100000000E-03 0.  1.
         11   -1    0    0    0    0 -0.00000000000E+00 -0.00000000000E+00 -0.45593999997E+02  0.45594000000E+02  0.51100000000E-03 0. -1.
    9900012    2    1    2    0    0  0.26366697680E+02  0.11231508876E+02  0.34752896261E+02  0.46142319445E+02  0.10000015351E+02 0.  0.
         12    1    1    2    0    0 -0.26366697680E+02 -0.11231508876E+02 -0.34752896261E+02  0.45045680555E+02  0.00000000000E+00 0. -1.
         11    1    3    3    0    0  0.15105684564E+02  0.71954468488E+01  0.16188463537E+02  0.23281376966E+02  0.51100000000E-03 0. -1.
        -11    1    3    3    0    0  0.84808304291E+01  0.44229652371E+01  0.99546713459E+01  0.13805165270E+02  0.51100000000E-03 0.  1.
         12    1    3    3    0    0  0.27801826871E+01 -0.38690321002E+00  0.86097613778E+01  0.90557772085E+01  0.00000000000E+00 0. -1.
</event>
<event>
 7    1  0.2297343E-008  0.4614231E+02  0.7816164E-02  0.1320468E+00
        -11   -1    0    0    0    0  0.00000000000E+00  0.00000000000E+00  0.45593999997E+02  0.45594000000E+02  0.51100000000E-03 0. -1.
         11   -1    0    0    0    0 -0.00000000000E+00 -0.00000000000E+00 -0.45593999997E+02  0.45594000000E+02  0.51100000000E-03 0.  1.
    9900012    2    1    2    0    0 -0.24251854163E+02 -0.37316282213E+02 -0.69611217767E+01  0.46142305811E+02  0.99998910301E+01 0.  0.
         12    1    1    2    0    0  0.24251854163E+02  0.37316282213E+02  0.69611217767E+01  0.45045694189E+02  0.00000000000E+00 0. -1.
         11    1    3    3    0    0 -0.60238903729E+01 -0.10656059018E+02 -0.49690454112E+00  0.12250949490E+02  0.51100000000E-03 0. -1.
        -11    1    3    3    0    0 -0.35520556248E+01 -0.11280176323E+02 -0.61246936279E+00  0.11842068908E+02  0.51100000000E-03 0.  1.
         12    1    3    3    0    0 -0.14675908165E+02 -0.15380046873E+02 -0.58517478728E+01  0.22049287413E+02  0.00000000000E+00 0. -1.
</event>
<event>
 7    1  0.2297343E-008  0.4614232E+02  0.7816164E-02  0.1320468E+00
        -11   -1    0    0    0    0  0.00000000000E+00  0.00000000000E+00  0.45593999997E+02  0.45594000000E+02  0.51100000000E-03 0. -1.
         11   -1    0    0    0    0 -0.00000000000E+00 -0.00000000000E+00 -0.45593999997E+02  0.45594000000E+02  0.51100000000E-03 0.  1.
    9900012    2    1    2    0    0 -0.11795787111E+02  0.36275082821E+02 -0.23960202010E+02  0.46142317547E+02  0.99999980511E+01 0.  0.
         12    1    1    2    0    0  0.11795787111E+02 -0.36275082821E+02  0.23960202010E+02  0.45045682453E+02  0.00000000000E+00 0. -1.
         11    1    3    3    0    0 -0.50938905219E+01  0.16525379535E+02 -0.65438594206E+01  0.18489401986E+02  0.51100000000E-03 0. -1.
        -11    1    3    3    0    0 -0.70046645907E+01  0.19332270626E+02 -0.17638968431E+02  0.27091238827E+02  0.51100000000E-03 0.  1.
         12    1    3    3    0    0  0.30276800165E+00  0.41743266020E+00  0.22262584190E+00  0.56167673453E+00  0.00000000000E+00 0. -1.
</event>
<event>
 7    1  0.2297343E-008  0.4614232E+02  0.7816164E-02  0.1320468E+00
        -11   -1    0    0    0    0  0.00000000000E+00  0.00000000000E+00  0.45593999997E+02  0.45594000000E+02  0.51100000000E-03 0.  1.
         11   -1    0    0    0    0 -0.00000000000E+00 -0.00000000000E+00 -0.45593999997E+02  0.45594000000E+02  0.51100000000E-03 0. -1.
    9900012    2    1    2    0    0  0.16978844840E+01  0.36364681363E+02  0.26529996347E+02  0.46142316871E+02  0.99999918823E+01 0.  0.
         12    1    1    2    0    0 -0.16978844840E+01 -0.36364681363E+02 -0.26529996347E+02  0.45045683129E+02  0.00000000000E+00 0. -1.
         11    1    3    3    0    0 -0.27967157915E+01  0.50512328010E+01  0.33612109427E+01  0.66808915042E+01  0.51100000000E-03 0. -1.
        -11    1    3    3    0    0  0.19499068759E+01  0.20846638212E+02  0.17506490019E+02  0.27292153719E+02  0.51100000000E-03 0.  1.
        -12    1    3    3    0    0  0.25446933996E+01  0.10466810350E+02  0.56622953862E+01  0.12169271648E+02  0.00000000000E+00 0.  1.
</event>
<event>
 7    1  0.2297343E-008  0.4614232E+02  0.7816164E-02  0.1320468E+00
        -11   -1    0    0    0    0  0.00000000000E+00  0.00000000000E+00  0.45593999997E+02  0.45594000000E+02  0.51100000000E-03 0. -1.
         11   -1    0    0    0    0 -0.00000000000E+00 -0.00000000000E+00 -0.45593999997E+02  0.45594000000E+02  0.51100000000E-03 0.  1.
    9900012    2    1    2    0    0  0.44519702830E+02 -0.38790081187E+01 -0.56624053628E+01  0.46142317870E+02  0.10000000996E+02 0.  0.
         12    1    1    2    0    0 -0.44519702830E+02  0.38790081187E+01  0.56624053628E+01  0.45045682130E+02  0.00000000000E+00 0. -1.
         11    1    3    3    0    0  0.34829181509E+01  0.23346803459E+00 -0.22526347420E+01  0.41544662366E+01  0.51100000000E-03 0. -1.
        -11    1    3    3    0    0  0.24679309855E+02 -0.28033573684E+01 -0.55169208535E+01  0.25443340257E+02  0.51100000000E-03 0.  1.
         12    1    3    3    0    0  0.16357474824E+02 -0.13091187848E+01  0.21071502326E+01  0.16544511377E+02  0.00000000000E+00 0. -1.
</event>
<event>
 7    1  0.2297343E-008  0.4614232E+02  0.7816164E-02  0.1320468E+00
        -11   -1    0    0    0    0  0.00000000000E+00  0.00000000000E+00  0.45593999997E+02  0.45594000000E+02  0.51100000000E-03 0.  1.
         11   -1    0    0    0    0 -0.00000000000E+00 -0.00000000000E+00 -0.45593999997E+02  0.45594000000E+02  0.51100000000E-03 0. -1.
    9900012    2    1    2    0    0  0.41554852444E+02  0.73587637571E+01  0.15752972973E+02  0.46142319595E+02  0.10000016720E+02 0.  0.
         12    1    1    2    0    0 -0.41554852444E+02 -0.73587637571E+01 -0.15752972973E+02  0.45045680405E+02  0.00000000000E+00 0. -1.
         11    1    3    3    0    0  0.69606946949E+01 -0.59515397352E+00  0.20594411217E+01  0.72833218302E+01  0.51100000000E-03 0. -1.
        -11    1    3    3    0    0  0.25578129957E+02  0.63237807179E+01  0.13699201668E+02  0.29696785369E+02  0.51100000000E-03 0.  1.
         12    1    3    3    0    0  0.90160277925E+01  0.16301370127E+01 -0.56698160007E-02  0.91622123956E+01  0.00000000000E+00 0. -1.
</event>
<event>
 7    1  0.2297343E-008  0.4614232E+02  0.7816164E-02  0.1320468E+00
        -11   -1    0    0    0    0  0.00000000000E+00  0.00000000000E+00  0.45593999997E+02  0.45594000000E+02  0.51100000000E-03 0.  1.
         11   -1    0    0    0    0 -0.00000000000E+00 -0.00000000000E+00 -0.45593999997E+02  0.45594000000E+02  0.51100000000E-03 0. -1.
    9900012    2    1    2    0    0  0.36719109722E+00 -0.32546145424E+02  0.31140440561E+02  0.46142318192E+02  0.10000003925E+02 0.  0.
         12    1    1    2    0    0 -0.36719109722E+00  0.32546145424E+02 -0.31140440561E+02  0.45045681808E+02  0.00000000000E+00 0. -1.
         11    1    3    3    0    0  0.43201049076E+00 -0.41965637372E+01  0.39972254454E+00  0.42376359728E+01  0.51100000000E-03 0. -1.
        -11    1    3    3    0    0  0.12695765549E+01 -0.17671096712E+02  0.19079596198E+02  0.26036713981E+02  0.51100000000E-03 0.  1.
         12    1    3    3    0    0 -0.13343959484E+01 -0.10678484975E+02  0.11661121819E+02  0.15867968237E+02  0.00000000000E+00 0. -1.
</event>
<event>
 7    1  0.2297343E-008  0.4614232E+02  0.7816164E-02  0.1320468E+00
        -11   -1    0    0    0    0  0.00000000000E+00  0.00000000000E+00  0.45593999997E+02  0.45594000000E+02  0.51100000000E-03 0. -1.
         11   -1    0    0    0    0 -0.00000000000E+00 -0.00000000000E+00 -0.45593999997E+02  0.45594000000E+02  0.51100000000E-03 0.  1.
    9900012    2    1    2    0    0  0.43037453267E+02  0.13257638692E+02  0.10611227024E+01  0.46142319311E+02  0.10000014129E+02 0.  0.
         12    1    1    2    0    0 -0.43037453267E+02 -0.13257638692E+02 -0.10611227024E+01  0.45045680689E+02  0.00000000000E+00 0. -1.
         11    1    3    3    0    0  0.12564613287E+02  0.47397401860E+01 -0.37175947700E+01  0.13933956912E+02  0.51100000000E-03 0. -1.
        -11    1    3    3    0    0  0.17783740705E+01  0.57569570407E+00  0.11987132538E+01  0.22205750616E+01  0.51100000000E-03 0.  1.
        -12    1    3    3    0    0  0.28694465909E+02  0.79422028015E+01  0.35800042186E+01  0.29987787337E+02  0.00000000000E+00 0.  1.
</event>
<event>
 7    1  0.2297343E-008  0.4614232E+02  0.7816164E-02  0.1320468E+00
        -11   -1    0    0    0    0  0.00000000000E+00  0.00000000000E+00  0.45593999997E+02  0.45594000000E+02  0.51100000000E-03 0.  1.
         11   -1    0    0    0    0 -0.00000000000E+00 -0.00000000000E+00 -0.45593999997E+02  0.45594000000E+02  0.51100000000E-03 0. -1.
    9900012    2    1    2    0    0  0.29284792686E+02 -0.15776241859E+02  0.30374738978E+02  0.46142315880E+02  0.99999828467E+01 0.  0.
         12    1    1    2    0    0 -0.29284792686E+02  0.15776241859E+02 -0.30374738978E+02  0.45045684120E+02  0.00000000000E+00 0. -1.
         11    1    3    3    0    0  0.17983007367E+01 -0.79937689488E-01  0.11003194389E+01  0.21097342730E+01  0.51100000000E-03 0. -1.
        -11    1    3    3    0    0  0.22147960495E+02 -0.13867020404E+02  0.18992783001E+02  0.32304058806E+02  0.51100000000E-03 0.  1.
        -12    1    3    3    0    0  0.53385314545E+01 -0.18292837649E+01  0.10281636538E+02  0.11728522801E+02  0.00000000000E+00 0.  1.
</event>
<event>
 7    1  0.2297343E-008  0.4614232E+02  0.7816164E-02  0.1320468E+00
        -11   -1    0    0    0    0  0.00000000000E+00  0.00000000000E+00  0.45593999997E+02  0.45594000000E+02  0.51100000000E-03 0.  1.
         11   -1    0    0    0    0 -0.00000000000E+00 -0.00000000000E+00 -0.45593999997E+02  0.45594000000E+02  0.51100000000E-03 0. -1.
    9900012    2    1    2    0    0  0.37428566163E+01 -0.37656610800E+02  0.24435306173E+02  0.46142317628E+02  0.99999987847E+01 0.  0.
         12    1    1    2    0    0 -0.37428566163E+01  0.37656610800E+02 -0.24435306173E+02  0.45045682372E+02  0.00000000000E+00 0. -1.
         11    1    3    3    0    0  0.14418461021E+01 -0.69271879018E+01  0.84942509975E+01  0.11055186687E+02  0.51100000000E-03 0. -1.
        -11    1    3    3    0    0  0.14228643025E+01 -0.97028216445E+01  0.77696275122E+01  0.12511450860E+02  0.51100000000E-03 0.  1.
         12    1    3    3    0    0  0.87814621169E+00 -0.21026601254E+02  0.81714276633E+01  0.22575680081E+02  0.00000000000E+00 0. -1.
</event>
<event>
 7    1  0.2297343E-008  0.4614232E+02  0.7816164E-02  0.1320468E+00
        -11   -1    0    0    0    0  0.00000000000E+00  0.00000000000E+00  0.45593999997E+02  0.45594000000E+02  0.51100000000E-03 0. -1.
         11   -1    0    0    0    0 -0.00000000000E+00 -0.00000000000E+00 -0.45593999997E+02  0.45594000000E+02  0.51100000000E-03 0.  1.
    9900012    2    1    2    0    0  0.21152007588E+02  0.33643216610E+02 -0.21209433628E+02  0.46142317369E+02  0.99999964249E+01 0.  0.
         12    1    1    2    0    0 -0.21152007588E+02 -0.33643216610E+02  0.21209433628E+02  0.45045682631E+02  0.00000000000E+00 0. -1.
         11    1    3    3    0    0  0.37888959421E+01  0.46788822954E+01 -0.60192287823E+01  0.85134474444E+01  0.51100000000E-03 0. -1.
        -11    1    3    3    0    0  0.73382104678E+01  0.17071313497E+02 -0.58282048936E+01  0.19474266351E+02  0.51100000000E-03 0.  1.
        -12    1    3    3    0    0  0.10024901178E+02  0.11893020817E+02 -0.93619999521E+01  0.18154603573E+02  0.00000000000E+00 0.  1.
</event>
<event>
 7    1  0.2297343E-008  0.4614232E+02  0.7816164E-02  0.1320468E+00
        -11   -1    0    0    0    0  0.00000000000E+00  0.00000000000E+00  0.45593999997E+02  0.45594000000E+02  0.51100000000E-03 0.  1.
         11   -1    0    0    0    0 -0.00000000000E+00 -0.00000000000E+00 -0.45593999997E+02  0.45594000000E+02  0.51100000000E-03 0. -1.
    9900012    2    1    2    0    0  0.23832813009E+02 -0.19286759935E+02  0.33001991266E+02  0.46142317496E+02  0.99999975829E+01 0.  0.
         12    1    1    2    0    0 -0.23832813009E+02  0.19286759935E+02 -0.33001991266E+02  0.45045682504E+02  0.00000000000E+00 0. -1.
         11    1    3    3    0    0  0.71117295082E+01 -0.21510167540E+01  0.88354188453E+01  0.11544184515E+02  0.51100000000E-03 0. -1.
        -11    1    3    3    0    0  0.88867701006E+01 -0.89594306682E+01  0.17093035274E+02  0.21246598218E+02  0.51100000000E-03 0.  1.
         12    1    3    3    0    0  0.78343134003E+01 -0.81763125127E+01  0.70735371471E+01  0.13351534763E+02  0.00000000000E+00 0. -1.
</event>
<event>
 7    1  0.2297343E-008  0.4614232E+02  0.7816164E-02  0.1320468E+00
        -11   -1    0    0    0    0  0.00000000000E+00  0.00000000000E+00  0.45593999997E+02  0.45594000000E+02  0.51100000000E-03 0. -1.
         11   -1    0    0    0    0 -0.00000000000E+00 -0.00000000000E+00 -0.45593999997E+02  0.45594000000E+02  0.51100000000E-03 0.  1.
    9900012    2    1    2    0    0 -0.43894122502E+02  0.50472002808E+01  0.87718514478E+01  0.46142316536E+02  0.99999888308E+01 0.  0.
         12    1    1    2    0    0  0.43894122502E+02 -0.50472002808E+01 -0.87718514478E+01  0.45045683464E+02  0.00000000000E+00 0. -1.
         11    1    3    3    0    0 -0.94329236524E+01  0.20434737888E+01  0.43825112939E+01  0.10600105625E+02  0.51100000000E-03 0. -1.
        -11    1    3    3    0    0  0.29379212094E+00 -0.16247341036E+00 -0.11263518810E+00  0.35411631722E+00  0.51100000000E-03 0.  1.
        -12    1    3    3    0    0 -0.34754990971E+02  0.31661999023E+01  0.45019753420E+01  0.35188094594E+02  0.00000000000E+00 0.  1.
</event>
<event>
 7    1  0.2297343E-008  0.4614232E+02  0.7816164E-02  0.1320468E+00
        -11   -1    0    0    0    0  0.00000000000E+00  0.00000000000E+00  0.45593999997E+02  0.45594000000E+02  0.51100000000E-03 0.  1.
         11   -1    0    0    0    0 -0.00000000000E+00 -0.00000000000E+00 -0.45593999997E+02  0.45594000000E+02  0.51100000000E-03 0. -1.
    9900012    2    1    2    0    0 -0.36119731245E+02  0.14547761961E+01  0.26876794787E+02  0.46142318109E+02  0.10000003175E+02 0.  0.
         12    1    1    2    0    0  0.36119731245E+02 -0.14547761961E+01 -0.26876794787E+02  0.45045681891E+02  0.00000000000E+00 0. -1.
         11    1    3    3    0    0 -0.25286655496E+01  0.16260529266E+01  0.70104996418E-01  0.30071768410E+01  0.51100000000E-03 0. -1.
        -11    1    3    3    0    0 -0.33083296896E+01  0.10646252818E+01  0.24337306305E+01  0.42428195070E+01  0.51100000000E-03 0.  1.
        -12    1    3    3    0    0 -0.30282736006E+02 -0.12359020122E+01  0.24372959160E+02  0.38892321761E+02  0.00000000000E+00 0.  1.
</event>
<event>
 7    1  0.2297343E-008  0.4614232E+02  0.7816164E-02  0.1320468E+00
        -11   -1    0    0    0    0  0.00000000000E+00  0.00000000000E+00  0.45593999997E+02  0.45594000000E+02  0.51100000000E-03 0.  1.
         11   -1    0    0    0    0 -0.00000000000E+00 -0.00000000000E+00 -0.45593999997E+02  0.45594000000E+02  0.51100000000E-03 0. -1.
    9900012    2    1    2    0    0  0.18764594116E+02 -0.30491187014E+02  0.27336623805E+02  0.46142317866E+02  0.10000000957E+02 0.  0.
         12    1    1    2    0    0 -0.18764594116E+02  0.30491187014E+02 -0.27336623805E+02  0.45045682134E+02  0.00000000000E+00 0. -1.
         11    1    3    3    0    0  0.10180590461E+02 -0.21423757069E+02  0.16427799391E+02  0.28852978740E+02  0.51100000000E-03 0. -1.
        -11    1    3    3    0    0  0.18353985673E+01 -0.37524804242E+01  0.62489173850E+01  0.75165661030E+01  0.51100000000E-03 0.  1.
         12    1    3    3    0    0  0.67486050878E+01 -0.53149495207E+01  0.46599070289E+01  0.97727730228E+01  0.00000000000E+00 0. -1.
</event>
<event>
 7    1  0.2297343E-008  0.4614232E+02  0.7816164E-02  0.1320468E+00
        -11   -1    0    0    0    0  0.00000000000E+00  0.00000000000E+00  0.45593999997E+02  0.45594000000E+02  0.51100000000E-03 0. -1.
         11   -1    0    0    0    0 -0.00000000000E+00 -0.00000000000E+00 -0.45593999997E+02  0.45594000000E+02  0.51100000000E-03 0.  1.
    9900012    2    1    2    0    0  0.28928974768E+01 -0.31837569647E+02 -0.31735055203E+02  0.46142318458E+02  0.10000006353E+02 0.  0.
         12    1    1    2    0    0 -0.28928974768E+01  0.31837569647E+02  0.31735055203E+02  0.45045681542E+02  0.00000000000E+00 0. -1.
         11    1    3    3    0    0  0.32810203519E+01 -0.32628823707E+01 -0.35370186665E+01  0.58242593712E+01  0.51100000000E-03 0. -1.
        -11    1    3    3    0    0  0.12668297758E+01 -0.17106260197E+02 -0.15373494747E+02  0.23034177576E+02  0.51100000000E-03 0.  1.
         12    1    3    3    0    0 -0.16549526508E+01 -0.11468427079E+02 -0.12824541790E+02  0.17283881511E+02  0.00000000000E+00 0. -1.
</event>
<event>
 7    1  0.2297343E-008  0.4614232E+02  0.7816164E-02  0.1320468E+00
        -11   -1    0    0    0    0  0.00000000000E+00  0.00000000000E+00  0.45593999997E+02  0.45594000000E+02  0.51100000000E-03 0. -1.
         11   -1    0    0    0    0 -0.00000000000E+00 -0.00000000000E+00 -0.45593999997E+02  0.45594000000E+02  0.51100000000E-03 0.  1.
    9900012    2    1    2    0    0 -0.14816334259E+02  0.40296268002E+02 -0.13630867782E+02  0.46142317274E+02  0.99999955589E+01 0.  0.
         12    1    1    2    0    0  0.14816334259E+02 -0.40296268002E+02  0.13630867782E+02  0.45045682726E+02  0.00000000000E+00 0. -1.
         11    1    3    3    0    0 -0.91927217014E+01  0.22537009984E+02 -0.54942990030E+01  0.24952159688E+02  0.51100000000E-03 0. -1.
        -11    1    3    3    0    0 -0.42677119292E+01  0.15450249789E+02 -0.89924664726E+01  0.18379010778E+02  0.51100000000E-03 0.  1.
         12    1    3    3    0    0 -0.13559006286E+01  0.23090082289E+01  0.85589769365E+00  0.28111468083E+01  0.00000000000E+00 0. -1.
</event>
<event>
 7    1  0.2297343E-008  0.4614232E+02  0.7816164E-02  0.1320468E+00
        -11   -1    0    0    0    0  0.00000000000E+00  0.00000000000E+00  0.45593999997E+02  0.45594000000E+02  0.51100000000E-03 0.  1.
         11   -1    0    0    0    0 -0.00000000000E+00 -0.00000000000E+00 -0.45593999997E+02  0.45594000000E+02  0.51100000000E-03 0. -1.
    9900012    2    1    2    0    0  0.13859453245E+02 -0.11232445145E+02  0.41362558228E+02  0.46142317728E+02  0.99999996984E+01 0.  0.
         12    1    1    2    0    0 -0.13859453245E+02  0.11232445145E+02 -0.41362558228E+02  0.45045682272E+02  0.00000000000E+00 0. -1.
         11    1    3    3    0    0  0.19936926228E+01 -0.13551162146E+01  0.21498783426E+01  0.32300351977E+01  0.51100000000E-03 0. -1.
        -11    1    3    3    0    0  0.25616374342E+01 -0.29072919396E+00  0.15346321748E+02  0.15561365662E+02  0.51100000000E-03 0.  1.
        -12    1    3    3    0    0  0.93041231883E+01 -0.95865997366E+01  0.23866358137E+02  0.27350916869E+02  0.00000000000E+00 0.  1.
</event>
<event>
 7    1  0.2297343E-008  0.4614232E+02  0.7816164E-02  0.1320468E+00
        -11   -1    0    0    0    0  0.00000000000E+00  0.00000000000E+00  0.45593999997E+02  0.45594000000E+02  0.51100000000E-03 0.  1.
         11   -1    0    0    0    0 -0.00000000000E+00 -0.00000000000E+00 -0.45593999997E+02  0.45594000000E+02  0.51100000000E-03 0. -1.
    9900012    2    1    2    0    0 -0.30434131281E+02  0.33042230343E+02  0.33298938045E+01  0.46142317347E+02  0.99999962276E+01 0.  0.
         12    1    1    2    0    0  0.30434131281E+02 -0.33042230343E+02 -0.33298938045E+01  0.45045682653E+02  0.00000000000E+00 0. -1.
         11    1    3    3    0    0 -0.19696766309E+01  0.12192450462E+00 -0.74620925004E-01  0.19748569971E+01  0.51100000000E-03 0. -1.
        -11    1    3    3    0    0 -0.23217805690E+02  0.26642537361E+02  0.53902812455E+01  0.35748376610E+02  0.51100000000E-03 0.  1.
        -12    1    3    3    0    0 -0.52466489600E+01  0.62777684776E+01 -0.19857665161E+01  0.84190837402E+01  0.00000000000E+00 0.  1.
</event>
<event>
 7    1  0.2297343E-008  0.4614232E+02  0.7816164E-02  0.1320468E+00
        -11   -1    0    0    0    0  0.00000000000E+00  0.00000000000E+00  0.45593999997E+02  0.45594000000E+02  0.51100000000E-03 0.  1.
         11   -1    0    0    0    0 -0.00000000000E+00 -0.00000000000E+00 -0.45593999997E+02  0.45594000000E+02  0.51100000000E-03 0. -1.
    9900012    2    1    2    0    0  0.43507375869E+01 -0.40271319517E+02  0.19708003328E+02  0.46142317761E+02  0.10000000002E+02 0.  0.
         12    1    1    2    0    0 -0.43507375869E+01  0.40271319517E+02 -0.19708003328E+02  0.45045682239E+02  0.00000000000E+00 0. -1.
         11    1    3    3    0    0  0.30596052619E+01 -0.71574431379E+01  0.64288417051E+01  0.10095552613E+02  0.51100000000E-03 0. -1.
        -11    1    3    3    0    0  0.22245026198E+01 -0.15861996234E+02  0.84395653727E+01  0.18104629253E+02  0.51100000000E-03 0.  1.
         12    1    3    3    0    0 -0.93337029480E+00 -0.17251880145E+02  0.48395962504E+01  0.17942135896E+02  0.00000000000E+00 0. -1.
</event>
<event>
 7    1  0.2297343E-008  0.4614232E+02  0.7816164E-02  0.1320468E+00
        -11   -1    0    0    0    0  0.00000000000E+00  0.00000000000E+00  0.45593999997E+02  0.45594000000E+02  0.51100000000E-03 0.  1.
         11   -1    0    0    0    0 -0.00000000000E+00 -0.00000000000E+00 -0.45593999997E+02  0.45594000000E+02  0.51100000000E-03 0. -1.
    9900012    2    1    2    0    0  0.24397493989E+02  0.13001219531E+02  0.35564646344E+02  0.46142317723E+02  0.99999996507E+01 0.  0.
         12    1    1    2    0    0 -0.24397493989E+02 -0.13001219531E+02 -0.35564646344E+02  0.45045682277E+02  0.00000000000E+00 0. -1.
         11    1    3    3    0    0  0.84499758146E+01  0.61363516003E+01  0.11624066678E+02  0.15626126475E+02  0.51100000000E-03 0. -1.
        -11    1    3    3    0    0  0.13865755863E+02  0.66190529900E+01  0.23908353205E+02  0.28419718531E+02  0.51100000000E-03 0.  1.
         12    1    3    3    0    0  0.20817623111E+01  0.24581494046E+00  0.32226460970E-01  0.20964727162E+01  0.00000000000E+00 0. -1.
</event>
<event>
 7    1  0.2297343E-008  0.4614232E+02  0.7816164E-02  0.1320468E+00
        -11   -1    0    0    0    0  0.00000000000E+00  0.00000000000E+00  0.45593999997E+02  0.45594000000E+02  0.51100000000E-03 0.  1.
         11   -1    0    0    0    0 -0.00000000000E+00 -0.00000000000E+00 -0.45593999997E+02  0.45594000000E+02  0.51100000000E-03 0. -1.
    9900012    2    1    2    0    0  0.56743038272E+01 -0.27510666413E+02  0.35214756389E+02  0.46142316989E+02  0.99999929585E+01 0.  0.
         12    1    1    2    0    0 -0.56743038272E+01  0.27510666413E+02 -0.35214756389E+02  0.45045683011E+02  0.00000000000E+00 0. -1.
         11    1    3    3    0    0 -0.22507677205E+01 -0.10309575816E+02  0.10211989245E+02  0.14684618941E+02  0.51100000000E-03 0. -1.
        -11    1    3    3    0    0  0.49489327272E+01 -0.11537753213E+02  0.14713863046E+02  0.19341909170E+02  0.51100000000E-03 0.  1.
         12    1    3    3    0    0  0.29761388205E+01 -0.56633373842E+01  0.10288904098E+02  0.12115788878E+02  0.00000000000E+00 0. -1.
</event>
<event>
 7    1  0.2297343E-008  0.4614232E+02  0.7816164E-02  0.1320468E+00
        -11   -1    0    0    0    0  0.00000000000E+00  0.00000000000E+00  0.45593999997E+02  0.45594000000E+02  0.51100000000E-03 0.  1.
         11   -1    0    0    0    0 -0.00000000000E+00 -0.00000000000E+00 -0.45593999997E+02  0.45594000000E+02  0.51100000000E-03 0. -1.
    9900012    2    1    2    0    0 -0.11596150808E+02 -0.39642855509E+02  0.17974614884E+02  0.46142317780E+02  0.10000000170E+02 0.  0.
         12    1    1    2    0    0  0.11596150808E+02  0.39642855509E+02 -0.17974614884E+02  0.45045682220E+02  0.00000000000E+00 0. -1.
         11    1    3    3    0    0 -0.14912605202E+01 -0.16121033160E+01  0.17729026512E+01  0.28223959879E+01  0.51100000000E-03 0. -1.
        -11    1    3    3    0    0 -0.10130559013E+00 -0.13358781969E+02  0.74465126406E+01  0.15294373779E+02  0.51100000000E-03 0.  1.
        -12    1    3    3    0    0 -0.10003584698E+02 -0.24671970224E+02  0.87551995926E+01  0.28025548013E+02  0.00000000000E+00 0.  1.
</event>
<event>
 7    1  0.2297343E-008  0.4614232E+02  0.7816164E-02  0.1320468E+00
        -11   -1    0    0    0    0  0.00000000000E+00  0.00000000000E+00  0.45593999997E+02  0.45594000000E+02  0.51100000000E-03 0.  1.
         11   -1    0    0    0    0 -0.00000000000E+00 -0.00000000000E+00 -0.45593999997E+02  0.45594000000E+02  0.51100000000E-03 0. -1.
    9900012    2    1    2    0    0 -0.16661782037E+01 -0.28557398775E+02  0.34796728339E+02  0.46142317879E+02  0.10000001077E+02 0.  0.
         12    1    1    2    0    0  0.16661782037E+01  0.28557398775E+02 -0.34796728339E+02  0.45045682121E+02  0.00000000000E+00 0. -1.
         11    1    3    3    0    0 -0.44472754883E+01 -0.15749162632E+02  0.18013093520E+02  0.24336925058E+02  0.51100000000E-03 0. -1.
        -11    1    3    3    0    0  0.19420572048E+01 -0.12562080081E+01  0.33038916842E+01  0.40330317713E+01  0.51100000000E-03 0.  1.
         12    1    3    3    0    0  0.83904007982E+00 -0.11552028135E+02  0.13479743135E+02  0.17772361050E+02  0.00000000000E+00 0. -1.
</event>
<event>
 7    1  0.2297343E-008  0.4614232E+02  0.7816164E-02  0.1320468E+00
        -11   -1    0    0    0    0  0.00000000000E+00  0.00000000000E+00  0.45593999997E+02  0.45594000000E+02  0.51100000000E-03 0. -1.
         11   -1    0    0    0    0 -0.00000000000E+00 -0.00000000000E+00 -0.45593999997E+02  0.45594000000E+02  0.51100000000E-03 0.  1.
    9900012    2    1    2    0    0 -0.14952941734E+02  0.38318244817E+02 -0.18363963694E+02  0.46142317467E+02  0.99999973187E+01 0.  0.
         12    1    1    2    0    0  0.14952941734E+02 -0.38318244817E+02  0.18363963694E+02  0.45045682533E+02  0.00000000000E+00 0. -1.
         11    1    3    3    0    0  0.70286289131E+00  0.25994018868E+01 -0.75397963319E+00  0.27963175716E+01  0.51100000000E-03 0. -1.
        -11    1    3    3    0    0 -0.26095836137E+00  0.64572242983E+01 -0.18776083097E+01  0.67297294248E+01  0.51100000000E-03 0.  1.
        -12    1    3    3    0    0 -0.15394846264E+02  0.29261618631E+02 -0.15732375751E+02  0.36616270471E+02  0.00000000000E+00 0.  1.
</event>
<event>
 7    1  0.2297343E-008  0.4614232E+02  0.7816164E-02  0.1320468E+00
        -11   -1    0    0    0    0  0.00000000000E+00  0.00000000000E+00  0.45593999997E+02  0.45594000000E+02  0.51100000000E-03 0.  1.
         11   -1    0    0    0    0 -0.00000000000E+00 -0.00000000000E+00 -0.45593999997E+02  0.45594000000E+02  0.51100000000E-03 0. -1.
    9900012    2    1    2    0    0 -0.39974072162E+02  0.20353240650E+02 -0.41149273363E+01  0.46142317886E+02  0.10000001135E+02 0.  0.
         12    1    1    2    0    0  0.39974072162E+02 -0.20353240650E+02  0.41149273363E+01  0.45045682114E+02  0.00000000000E+00 0. -1.
         11    1    3    3    0    0 -0.10111145381E+02  0.66784663746E+01  0.12224595788E+01  0.12179145361E+02  0.51100000000E-03 0. -1.
        -11    1    3    3    0    0 -0.27093040007E+02  0.12137899525E+02 -0.26440350029E+01  0.29805240195E+02  0.51100000000E-03 0.  1.
        -12    1    3    3    0    0 -0.27698867735E+01  0.15368747509E+01 -0.26933519122E+01  0.41579323300E+01  0.00000000000E+00 0.  1.
</event>
<event>
 7    1  0.2297343E-008  0.4614232E+02  0.7816164E-02  0.1320468E+00
        -11   -1    0    0    0    0  0.00000000000E+00  0.00000000000E+00  0.45593999997E+02  0.45594000000E+02  0.51100000000E-03 0.  1.
         11   -1    0    0    0    0 -0.00000000000E+00 -0.00000000000E+00 -0.45593999997E+02  0.45594000000E+02  0.51100000000E-03 0. -1.
    9900012    2    1    2    0    0 -0.30574851645E+02 -0.28453214893E+02  0.16873247138E+02  0.46142318078E+02  0.10000002887E+02 0.  0.
         12    1    1    2    0    0  0.30574851645E+02  0.28453214893E+02 -0.16873247138E+02  0.45045681922E+02  0.00000000000E+00 0. -1.
         11    1    3    3    0    0 -0.68461349655E+01 -0.56197041948E+01  0.59473295309E+01  0.10668709763E+02  0.51100000000E-03 0. -1.
        -11    1    3    3    0    0 -0.13295303698E+02 -0.97949114525E+01  0.85824048121E+01  0.18610831883E+02  0.51100000000E-03 0.  1.
        -12    1    3    3    0    0 -0.10433412982E+02 -0.13038599245E+02  0.23435127950E+01  0.16862776431E+02  0.00000000000E+00 0.  1.
</event>
<event>
 7    1  0.2297343E-008  0.4614232E+02  0.7816164E-02  0.1320468E+00
        -11   -1    0    0    0    0  0.00000000000E+00  0.00000000000E+00  0.45593999997E+02  0.45594000000E+02  0.51100000000E-03 0.  1.
         11   -1    0    0    0    0 -0.00000000000E+00 -0.00000000000E+00 -0.45593999997E+02  0.45594000000E+02  0.51100000000E-03 0. -1.
    9900012    2    1    2    0    0 -0.30511402127E+02 -0.10926116469E+02  0.31285585022E+02  0.46142317510E+02  0.99999977070E+01 0.  0.
         12    1    1    2    0    0  0.30511402127E+02  0.10926116469E+02 -0.31285585022E+02  0.45045682490E+02  0.00000000000E+00 0. -1.
         11    1    3    3    0    0 -0.35856588549E+00 -0.52208833577E+00 -0.45229707116E+00  0.77827927268E+00  0.51100000000E-03 0. -1.
        -11    1    3    3    0    0 -0.18480281472E+02 -0.34106819351E+01  0.17761766875E+02  0.25857956558E+02  0.51100000000E-03 0.  1.
        -12    1    3    3    0    0 -0.11672554769E+02 -0.69933461978E+01  0.13976115218E+02  0.19506081679E+02  0.00000000000E+00 0.  1.
</event>
<event>
 7    1  0.2297343E-008  0.4614232E+02  0.7816164E-02  0.1320468E+00
        -11   -1    0    0    0    0  0.00000000000E+00  0.00000000000E+00  0.45593999997E+02  0.45594000000E+02  0.51100000000E-03 0.  1.
         11   -1    0    0    0    0 -0.00000000000E+00 -0.00000000000E+00 -0.45593999997E+02  0.45594000000E+02  0.51100000000E-03 0. -1.
    9900012    2    1    2    0    0  0.89043049319E+01 -0.76237582646E+01  0.43493737009E+02  0.46142317683E+02  0.99999992878E+01 0.  0.
         12    1    1    2    0    0 -0.89043049319E+01  0.76237582646E+01 -0.43493737009E+02  0.45045682317E+02  0.00000000000E+00 0. -1.
         11    1    3    3    0    0 -0.21164930738E+00  0.11539521741E+01  0.40531273833E+01  0.42195074234E+01  0.51100000000E-03 0. -1.
        -11    1    3    3    0    0 -0.45613152881E+00  0.55374350065E+00  0.35901330516E+01  0.36611123208E+01  0.51100000000E-03 0.  1.
        -12    1    3    3    0    0  0.95720857681E+01 -0.93314539394E+01  0.35850476574E+02  0.38261697939E+02  0.00000000000E+00 0.  1.
</event>
<event>
 7    1  0.2297343E-008  0.4614232E+02  0.7816164E-02  0.1320468E+00
        -11   -1    0    0    0    0  0.00000000000E+00  0.00000000000E+00  0.45593999997E+02  0.45594000000E+02  0.51100000000E-03 0.  1.
         11   -1    0    0    0    0 -0.00000000000E+00 -0.00000000000E+00 -0.45593999997E+02  0.45594000000E+02  0.51100000000E-03 0. -1.
    9900012    2    1    2    0    0  0.40207216373E+02 -0.20000734842E+02 -0.35304482541E+01  0.46142315328E+02  0.99999778161E+01 0.  0.
         12    1    1    2    0    0 -0.40207216373E+02  0.20000734842E+02  0.35304482541E+01  0.45045684672E+02  0.00000000000E+00 0. -1.
         11    1    3    3    0    0  0.25022830500E+02 -0.10420943407E+02 -0.25754661940E+00  0.27107276481E+02  0.51100000000E-03 0. -1.
        -11    1    3    3    0    0  0.12909935852E+02 -0.97662355311E+01 -0.17292969232E+01  0.16279934529E+02  0.51100000000E-03 0.  1.
         12    1    3    3    0    0  0.22744500211E+01  0.18644409627E+00 -0.15436047115E+01  0.27551043183E+01  0.00000000000E+00 0. -1.
</event>
<event>
 7    1  0.2297343E-008  0.4614232E+02  0.7816164E-02  0.1320468E+00
        -11   -1    0    0    0    0  0.00000000000E+00  0.00000000000E+00  0.45593999997E+02  0.45594000000E+02  0.51100000000E-03 0. -1.
         11   -1    0    0    0    0 -0.00000000000E+00 -0.00000000000E+00 -0.45593999997E+02  0.45594000000E+02  0.51100000000E-03 0.  1.
    9900012    2    1    2    0    0  0.15195478256E+02  0.39441764436E+02 -0.15574277374E+02  0.46142318110E+02  0.10000003180E+02 0.  0.
         12    1    1    2    0    0 -0.15195478256E+02 -0.39441764436E+02  0.15574277374E+02  0.45045681890E+02  0.00000000000E+00 0. -1.
         11    1    3    3    0    0  0.24407682884E+00  0.22796373310E+01  0.68713177170E+00  0.23934222762E+01  0.51100000000E-03 0. -1.
        -11    1    3    3    0    0  0.11761104055E+02  0.20986482200E+02 -0.10903333136E+02  0.26412850612E+02  0.51100000000E-03 0.  1.
        -12    1    3    3    0    0  0.31902973723E+01  0.16175644904E+02 -0.53580760101E+01  0.17336045221E+02  0.00000000000E+00 0.  1.
</event>
<event>
 7    1  0.2297343E-008  0.4614232E+02  0.7816164E-02  0.1320468E+00
        -11   -1    0    0    0    0  0.00000000000E+00  0.00000000000E+00  0.45593999997E+02  0.45594000000E+02  0.51100000000E-03 0.  1.
         11   -1    0    0    0    0 -0.00000000000E+00 -0.00000000000E+00 -0.45593999997E+02  0.45594000000E+02  0.51100000000E-03 0. -1.
    9900012    2    1    2    0    0 -0.39199534182E+02  0.16090202649E+02  0.15284485186E+02  0.46142316647E+02  0.99999898363E+01 0.  0.
         12    1    1    2    0    0  0.39199534182E+02 -0.16090202649E+02 -0.15284485186E+02  0.45045683353E+02  0.00000000000E+00 0. -1.
         11    1    3    3    0    0 -0.96049288944E+01  0.67907345772E+01  0.20641158939E+01  0.11942751352E+02  0.51100000000E-03 0. -1.
        -11    1    3    3    0    0 -0.26449360933E+02  0.85686977715E+01  0.97586002800E+01  0.29465599518E+02  0.51100000000E-03 0.  1.
         12    1    3    3    0    0 -0.31452443542E+01  0.73077030048E+00  0.34617690122E+01  0.47339657765E+01  0.00000000000E+00 0. -1.
</event>
<event>
 7    1  0.2297343E-008  0.4614232E+02  0.7816164E-02  0.1320468E+00
        -11   -1    0    0    0    0  0.00000000000E+00  0.00000000000E+00  0.45593999997E+02  0.45594000000E+02  0.51100000000E-03 0. -1.
         11   -1    0    0    0    0 -0.00000000000E+00 -0.00000000000E+00 -0.45593999997E+02  0.45594000000E+02  0.51100000000E-03 0.  1.
    9900012    2    1    2    0    0  0.40934726844E+01 -0.44766600403E+02 -0.28824778324E+01  0.46142315315E+02  0.99999776965E+01 0.  0.
         12    1    1    2    0    0 -0.40934726844E+01  0.44766600403E+02  0.28824778324E+01  0.45045684685E+02  0.00000000000E+00 0. -1.
         11    1    3    3    0    0 -0.52589848251E+00 -0.14238177019E+02 -0.41072905451E+01  0.14828084499E+02  0.51100000000E-03 0. -1.
        -11    1    3    3    0    0  0.21856118036E+01 -0.40526928884E+01  0.10666205904E+01  0.47264043784E+01  0.51100000000E-03 0.  1.
        -12    1    3    3    0    0  0.24337593633E+01 -0.26475730496E+02  0.15819212230E+00  0.26587826437E+02  0.00000000000E+00 0.  1.
</event>
<event>
 7    1  0.2297343E-008  0.4614232E+02  0.7816164E-02  0.1320468E+00
        -11   -1    0    0    0    0  0.00000000000E+00  0.00000000000E+00  0.45593999997E+02  0.45594000000E+02  0.51100000000E-03 0. -1.
         11   -1    0    0    0    0 -0.00000000000E+00 -0.00000000000E+00 -0.45593999997E+02  0.45594000000E+02  0.51100000000E-03 0.  1.
    9900012    2    1    2    0    0 -0.13653825834E+02 -0.20087511991E+02 -0.37936504567E+02  0.46142317891E+02  0.10000001185E+02 0.  0.
         12    1    1    2    0    0  0.13653825834E+02  0.20087511991E+02  0.37936504567E+02  0.45045682109E+02  0.00000000000E+00 0. -1.
         11    1    3    3    0    0  0.76709287302E+00 -0.11141002589E+01 -0.89324647585E+00  0.16209689665E+01  0.51100000000E-03 0. -1.
        -11    1    3    3    0    0 -0.13732559722E+02 -0.14370890127E+02 -0.27831999017E+02  0.34201255081E+02  0.51100000000E-03 0.  1.
        -12    1    3    3    0    0 -0.68835898602E+00 -0.46025216053E+01 -0.92112590735E+01  0.10320093844E+02  0.00000000000E+00 0.  1.
</event>
<event>
 7    1  0.2297343E-008  0.4614232E+02  0.7816164E-02  0.1320468E+00
        -11   -1    0    0    0    0  0.00000000000E+00  0.00000000000E+00  0.45593999997E+02  0.45594000000E+02  0.51100000000E-03 0. -1.
         11   -1    0    0    0    0 -0.00000000000E+00 -0.00000000000E+00 -0.45593999997E+02  0.45594000000E+02  0.51100000000E-03 0.  1.
    9900012    2    1    2    0    0 -0.11855315188E+01 -0.32602271944E+02 -0.31061226248E+02  0.46142318776E+02  0.10000009252E+02 0.  0.
         12    1    1    2    0    0  0.11855315188E+01  0.32602271944E+02  0.31061226248E+02  0.45045681224E+02  0.00000000000E+00 0. -1.
         11    1    3    3    0    0  0.74139696573E-01 -0.13569002102E+02 -0.12972746426E+02  0.18772731949E+02  0.51100000000E-03 0. -1.
        -11    1    3    3    0    0 -0.34494074034E+01 -0.11343624440E+02 -0.14137948843E+02  0.18451499251E+02  0.51100000000E-03 0.  1.
         12    1    3    3    0    0  0.21897361880E+01 -0.76896454019E+01 -0.39505309792E+01  0.89180875751E+01  0.00000000000E+00 0. -1.
</event>
<event>
 7    1  0.2297343E-008  0.4614232E+02  0.7816164E-02  0.1320468E+00
        -11   -1    0    0    0    0  0.00000000000E+00  0.00000000000E+00  0.45593999997E+02  0.45594000000E+02  0.51100000000E-03 0.  1.
         11   -1    0    0    0    0 -0.00000000000E+00 -0.00000000000E+00 -0.45593999997E+02  0.45594000000E+02  0.51100000000E-03 0. -1.
    9900012    2    1    2    0    0 -0.25558649567E+02  0.13142445820E+02  0.34686382573E+02  0.46142316679E+02  0.99999901356E+01 0.  0.
         12    1    1    2    0    0  0.25558649567E+02 -0.13142445820E+02 -0.34686382573E+02  0.45045683321E+02  0.00000000000E+00 0. -1.
         11    1    3    3    0    0 -0.16216827260E+02  0.12018399097E+02  0.25633168610E+02  0.32626472940E+02  0.51100000000E-03 0. -1.
        -11    1    3    3    0    0 -0.29915772581E+01 -0.11750765801E+01  0.36762855776E+01  0.48831767703E+01  0.51100000000E-03 0.  1.
        -12    1    3    3    0    0 -0.63502450485E+01  0.22991233034E+01  0.53769283856E+01  0.86326669693E+01  0.00000000000E+00 0.  1.
</event>
<event>
 7    1  0.2297343E-008  0.4614232E+02  0.7816164E-02  0.1320468E+00
        -11   -1    0    0    0    0  0.00000000000E+00  0.00000000000E+00  0.45593999997E+02  0.45594000000E+02  0.51100000000E-03 0.  1.
         11   -1    0    0    0    0 -0.00000000000E+00 -0.00000000000E+00 -0.45593999997E+02  0.45594000000E+02  0.51100000000E-03 0. -1.
    9900012    2    1    2    0    0 -0.17093834622E+02  0.16036655818E+02  0.38467390949E+02  0.46142315652E+02  0.99999807709E+01 0.  0.
         12    1    1    2    0    0  0.17093834622E+02 -0.16036655818E+02 -0.38467390949E+02  0.45045684348E+02  0.00000000000E+00 0. -1.
         11    1    3    3    0    0  0.48136603796E+00 -0.35479953736E+00  0.22415071633E+00  0.63862334671E+00  0.51100000000E-03 0. -1.
        -11    1    3    3    0    0 -0.33425212279E+01  0.45236998107E+01  0.54232711084E+01  0.78133333419E+01  0.51100000000E-03 0.  1.
        -12    1    3    3    0    0 -0.14232679432E+02  0.11867755545E+02  0.32819969125E+02  0.37690358964E+02  0.00000000000E+00 0.  1.
</event>
<event>
 7    1  0.2297343E-008  0.4614232E+02  0.7816164E-02  0.1320468E+00
        -11   -1    0    0    0    0  0.00000000000E+00  0.00000000000E+00  0.45593999997E+02  0.45594000000E+02  0.51100000000E-03 0.  1.
         11   -1    0    0    0    0 -0.00000000000E+00 -0.00000000000E+00 -0.45593999997E+02  0.45594000000E+02  0.51100000000E-03 0. -1.
    9900012    2    1    2    0    0  0.55188224798E+01 -0.44324127937E+02  0.58333408782E+01  0.46142316691E+02  0.99999902452E+01 0.  0.
         12    1    1    2    0    0 -0.55188224798E+01  0.44324127937E+02 -0.58333408782E+01  0.45045683309E+02  0.00000000000E+00 0. -1.
         11    1    3    3    0    0  0.46989973763E-01 -0.22378852524E+01  0.25675896908E+01  0.34062964554E+01  0.51100000000E-03 0. -1.
        -11    1    3    3    0    0  0.54384705744E+01 -0.27963687773E+02  0.20571192967E+01  0.28561802046E+02  0.51100000000E-03 0.  1.
        -12    1    3    3    0    0  0.33361931586E-01 -0.14122554912E+02  0.12086318908E+01  0.14174218190E+02  0.00000000000E+00 0.  1.
</event>
<event>
 7    1  0.2297343E-008  0.4614232E+02  0.7816164E-02  0.1320468E+00
        -11   -1    0    0    0    0  0.00000000000E+00  0.00000000000E+00  0.45593999997E+02  0.45594000000E+02  0.51100000000E-03 0. -1.
         11   -1    0    0    0    0 -0.00000000000E+00 -0.00000000000E+00 -0.45593999997E+02  0.45594000000E+02  0.51100000000E-03 0.  1.
    9900012    2    1    2    0    0 -0.10690622577E+02 -0.11184949187E+02 -0.42305093985E+02  0.46142317894E+02  0.10000001208E+02 0.  0.
         12    1    1    2    0    0  0.10690622577E+02  0.11184949187E+02  0.42305093985E+02  0.45045682106E+02  0.00000000000E+00 0. -1.
         11    1    3    3    0    0  0.74602240372E+00 -0.49913049475E+00 -0.65360980521E+01  0.65974433446E+01  0.51100000000E-03 0. -1.
        -11    1    3    3    0    0 -0.83005011549E+01 -0.10274701787E+02 -0.32035273618E+02  0.34651501732E+02  0.51100000000E-03 0.  1.
        -12    1    3    3    0    0 -0.31361438256E+01 -0.41111690506E+00 -0.37337223144E+01  0.48933728169E+01  0.00000000000E+00 0.  1.
</event>
<event>
 7    1  0.2297343E-008  0.4614232E+02  0.7816164E-02  0.1320468E+00
        -11   -1    0    0    0    0  0.00000000000E+00  0.00000000000E+00  0.45593999997E+02  0.45594000000E+02  0.51100000000E-03 0.  1.
         11   -1    0    0    0    0 -0.00000000000E+00 -0.00000000000E+00 -0.45593999997E+02  0.45594000000E+02  0.51100000000E-03 0. -1.
    9900012    2    1    2    0    0  0.31331551758E+02 -0.16120913528E+02  0.28063560975E+02  0.46142318263E+02  0.10000004579E+02 0.  0.
         12    1    1    2    0    0 -0.31331551758E+02  0.16120913528E+02 -0.28063560975E+02  0.45045681737E+02  0.00000000000E+00 0. -1.
         11    1    3    3    0    0  0.89765019393E+01 -0.94108429154E+01  0.11053140136E+02  0.17067907270E+02  0.51100000000E-03 0. -1.
        -11    1    3    3    0    0  0.11700137793E+02 -0.47272026125E+01  0.10617566102E+02  0.16491585100E+02  0.51100000000E-03 0.  1.
        -12    1    3    3    0    0  0.10654912026E+02 -0.19828680002E+01  0.63928547366E+01  0.12582825893E+02  0.00000000000E+00 0.  1.
</event>
<event>
 7    1  0.2297343E-008  0.4614232E+02  0.7816164E-02  0.1320468E+00
        -11   -1    0    0    0    0  0.00000000000E+00  0.00000000000E+00  0.45593999997E+02  0.45594000000E+02  0.51100000000E-03 0.  1.
         11   -1    0    0    0    0 -0.00000000000E+00 -0.00000000000E+00 -0.45593999997E+02  0.45594000000E+02  0.51100000000E-03 0. -1.
    9900012    2    1    2    0    0 -0.21657351666E+02  0.23092108135E+02  0.32044141464E+02  0.46142319392E+02  0.10000014871E+02 0.  0.
         12    1    1    2    0    0  0.21657351666E+02 -0.23092108135E+02 -0.32044141464E+02  0.45045680608E+02  0.00000000000E+00 0. -1.
         11    1    3    3    0    0 -0.40651132752E+00  0.37228561233E+00 -0.73357031550E-01  0.55608412291E+00  0.51100000000E-03 0. -1.
        -11    1    3    3    0    0 -0.76181521734E+01  0.13436655064E+02  0.11923676987E+02  0.19512919181E+02  0.51100000000E-03 0.  1.
        -12    1    3    3    0    0 -0.13632688165E+02  0.92831674588E+01  0.20193821509E+02  0.26073316088E+02  0.00000000000E+00 0.  1.
</event>
<event>
 7    1  0.2297343E-008  0.4614232E+02  0.7816164E-02  0.1320468E+00
        -11   -1    0    0    0    0  0.00000000000E+00  0.00000000000E+00  0.45593999997E+02  0.45594000000E+02  0.51100000000E-03 0.  1.
         11   -1    0    0    0    0 -0.00000000000E+00 -0.00000000000E+00 -0.45593999997E+02  0.45594000000E+02  0.51100000000E-03 0. -1.
    9900012    2    1    2    0    0  0.96674541360E+01  0.43658113394E+02 -0.54427004319E+01  0.46142317381E+02  0.99999965358E+01 0.  0.
         12    1    1    2    0    0 -0.96674541360E+01 -0.43658113394E+02  0.54427004319E+01  0.45045682619E+02  0.00000000000E+00 0. -1.
         11    1    3    3    0    0  0.46198313900E+01  0.27577369506E+02 -0.63320624898E+01  0.28669655850E+02  0.51100000000E-03 0. -1.
        -11    1    3    3    0    0  0.50932585048E+01  0.14369164725E+02 -0.52153539378E+00  0.15254054429E+02  0.51100000000E-03 0.  1.
         12    1    3    3    0    0 -0.45635758786E-01  0.17115791629E+01  0.14108974516E+01  0.22186071019E+01  0.00000000000E+00 0. -1.
</event>
<event>
 7    1  0.2297343E-008  0.4614232E+02  0.7816164E-02  0.1320468E+00
        -11   -1    0    0    0    0  0.00000000000E+00  0.00000000000E+00  0.45593999997E+02  0.45594000000E+02  0.51100000000E-03 0.  1.
         11   -1    0    0    0    0 -0.00000000000E+00 -0.00000000000E+00 -0.45593999997E+02  0.45594000000E+02  0.51100000000E-03 0. -1.
    9900012    2    1    2    0    0 -0.32333808110E+01  0.43699056452E+02  0.10442758637E+02  0.46142317696E+02  0.99999994072E+01 0.  0.
         12    1    1    2    0    0  0.32333808110E+01 -0.43699056452E+02 -0.10442758637E+02  0.45045682304E+02  0.00000000000E+00 0. -1.
         11    1    3    3    0    0 -0.46250738373E+01  0.25328368829E+02  0.82961788574E+01  0.27050770034E+02  0.51100000000E-03 0. -1.
        -11    1    3    3    0    0  0.13709879199E+01  0.15138782343E+02  0.34821774407E+01  0.15594482957E+02  0.51100000000E-03 0.  1.
        -12    1    3    3    0    0  0.20705106294E-01  0.32319052797E+01 -0.13355976607E+01  0.34970647048E+01  0.00000000000E+00 0.  1.
</event>
<event>
 7    1  0.2297343E-008  0.4614232E+02  0.7816164E-02  0.1320468E+00
        -11   -1    0    0    0    0  0.00000000000E+00  0.00000000000E+00  0.45593999997E+02  0.45594000000E+02  0.51100000000E-03 0.  1.
         11   -1    0    0    0    0 -0.00000000000E+00 -0.00000000000E+00 -0.45593999997E+02  0.45594000000E+02  0.51100000000E-03 0. -1.
    9900012    2    1    2    0    0 -0.19172985772E+02 -0.13145973207E+01  0.40740423394E+02  0.46142315991E+02  0.99999838592E+01 0.  0.
         12    1    1    2    0    0  0.19172985772E+02  0.13145973207E+01 -0.40740423394E+02  0.45045684009E+02  0.00000000000E+00 0. -1.
         11    1    3    3    0    0 -0.70875407402E+01 -0.16463966650E+01  0.73394686031E+01  0.10334972441E+02  0.51100000000E-03 0. -1.
        -11    1    3    3    0    0 -0.54050173552E+01  0.39223699132E+00  0.21365094658E+02  0.22041672633E+02  0.51100000000E-03 0.  1.
        -12    1    3    3    0    0 -0.66804276762E+01 -0.60437647016E-01  0.12035860133E+02  0.13765670917E+02  0.00000000000E+00 0.  1.
</event>
<event>
 7    1  0.2297343E-008  0.4614232E+02  0.7816164E-02  0.1320468E+00
        -11   -1    0    0    0    0  0.00000000000E+00  0.00000000000E+00  0.45593999997E+02  0.45594000000E+02  0.51100000000E-03 0. -1.
         11   -1    0    0    0    0 -0.00000000000E+00 -0.00000000000E+00 -0.45593999997E+02  0.45594000000E+02  0.51100000000E-03 0.  1.
    9900012    2    1    2    0    0  0.26069081065E+02 -0.30202745582E+02  0.20911974295E+02  0.46142317664E+02  0.99999991112E+01 0.  0.
         12    1    1    2    0    0 -0.26069081065E+02  0.30202745582E+02 -0.20911974295E+02  0.45045682336E+02  0.00000000000E+00 0. -1.
         11    1    3    3    0    0  0.12586720231E+01 -0.64615300173E+01  0.48051088635E+01  0.81501347766E+01  0.51100000000E-03 0. -1.
        -11    1    3    3    0    0  0.98624033372E+01 -0.81872892448E+01  0.66103554295E+01  0.14422049228E+02  0.51100000000E-03 0.  1.
         12    1    3    3    0    0  0.14948005704E+02 -0.15553926320E+02  0.94965100023E+01  0.23570133659E+02  0.00000000000E+00 0. -1.
</event>
<event>
 7    1  0.2297343E-008  0.4614232E+02  0.7816164E-02  0.1320468E+00
        -11   -1    0    0    0    0  0.00000000000E+00  0.00000000000E+00  0.45593999997E+02  0.45594000000E+02  0.51100000000E-03 0.  1.
         11   -1    0    0    0    0 -0.00000000000E+00 -0.00000000000E+00 -0.45593999997E+02  0.45594000000E+02  0.51100000000E-03 0. -1.
    9900012    2    1    2    0    0  0.34962499488E+02 -0.13976317447E+02  0.24726500604E+02  0.46142315945E+02  0.99999834386E+01 0.  0.
         12    1    1    2    0    0 -0.34962499488E+02  0.13976317447E+02 -0.24726500604E+02  0.45045684055E+02  0.00000000000E+00 0. -1.
         11    1    3    3    0    0  0.20081777764E+00 -0.62157064113E+00 -0.70905808137E-01  0.65704317702E+00  0.51100000000E-03 0. -1.
        -11    1    3    3    0    0  0.10525727478E+02 -0.34594352028E+01  0.31574044376E+01  0.11520756656E+02  0.51100000000E-03 0.  1.
        -12    1    3    3    0    0  0.24235954232E+02 -0.98953116028E+01  0.21640001975E+02  0.33964516112E+02  0.00000000000E+00 0.  1.
</event>
<event>
 7    1  0.2297343E-008  0.4614232E+02  0.7816164E-02  0.1320468E+00
        -11   -1    0    0    0    0  0.00000000000E+00  0.00000000000E+00  0.45593999997E+02  0.45594000000E+02  0.51100000000E-03 0. -1.
         11   -1    0    0    0    0 -0.00000000000E+00 -0.00000000000E+00 -0.45593999997E+02  0.45594000000E+02  0.51100000000E-03 0.  1.
    9900012    2    1    2    0    0 -0.83693914469E+01 -0.68788146577E+01 -0.43723547925E+02  0.46142318216E+02  0.10000004147E+02 0.  0.
         12    1    1    2    0    0  0.83693914469E+01  0.68788146577E+01  0.43723547925E+02  0.45045681784E+02  0.00000000000E+00 0. -1.
         11    1    3    3    0    0 -0.35334536255E+01 -0.24285263887E+01 -0.19977026665E+02  0.20431951193E+02  0.51100000000E-03 0. -1.
        -11    1    3    3    0    0 -0.44876256481E+01  0.18425473855E+00 -0.16509243897E+02  0.17109291864E+02  0.51100000000E-03 0.  1.
         12    1    3    3    0    0 -0.34831217322E+00 -0.46345430075E+01 -0.72372773628E+01  0.86010751587E+01  0.00000000000E+00 0. -1.
</event>
<event>
 7    1  0.2297343E-008  0.4614232E+02  0.7816164E-02  0.1320468E+00
        -11   -1    0    0    0    0  0.00000000000E+00  0.00000000000E+00  0.45593999997E+02  0.45594000000E+02  0.51100000000E-03 0.  1.
         11   -1    0    0    0    0 -0.00000000000E+00 -0.00000000000E+00 -0.45593999997E+02  0.45594000000E+02  0.51100000000E-03 0. -1.
    9900012    2    1    2    0    0 -0.73553659585E+01  0.36347905644E+02  0.25570333197E+02  0.46142316600E+02  0.99999894159E+01 0.  0.
         12    1    1    2    0    0  0.73553659585E+01 -0.36347905644E+02 -0.25570333197E+02  0.45045683400E+02  0.00000000000E+00 0. -1.
         11    1    3    3    0    0 -0.15866238183E+01  0.99790023889E+01  0.41484764690E+01  0.10922807382E+02  0.51100000000E-03 0. -1.
        -11    1    3    3    0    0  0.78504106648E+00  0.35523521153E+01  0.56454312793E+01  0.67161290650E+01  0.51100000000E-03 0.  1.
        -12    1    3    3    0    0 -0.65537832067E+01  0.22816551140E+02  0.15776425449E+02  0.28503380154E+02  0.00000000000E+00 0.  1.
</event>
<event>
 7    1  0.2297343E-008  0.4614232E+02  0.7816164E-02  0.1320468E+00
        -11   -1    0    0    0    0  0.00000000000E+00  0.00000000000E+00  0.45593999997E+02  0.45594000000E+02  0.51100000000E-03 0.  1.
         11   -1    0    0    0    0 -0.00000000000E+00 -0.00000000000E+00 -0.45593999997E+02  0.45594000000E+02  0.51100000000E-03 0. -1.
    9900012    2    1    2    0    0 -0.38906185477E+01 -0.80078327300E+01  0.44157120079E+02  0.46142317061E+02  0.99999936187E+01 0.  0.
         12    1    1    2    0    0  0.38906185477E+01  0.80078327300E+01 -0.44157120079E+02  0.45045682939E+02  0.00000000000E+00 0. -1.
         11    1    3    3    0    0 -0.17265115814E+01 -0.23438508786E+01  0.31851903418E+01  0.43150801796E+01  0.51100000000E-03 0. -1.
        -11    1    3    3    0    0 -0.20168123775E+01  0.10518928031E+00  0.49529510219E+01  0.53488616581E+01  0.51100000000E-03 0.  1.
         12    1    3    3    0    0 -0.14729458884E+00 -0.57691711318E+01  0.36018978716E+02  0.36478375224E+02  0.00000000000E+00 0. -1.
</event>
<event>
 7    1  0.2297343E-008  0.4614230E+02  0.7816164E-02  0.1320468E+00
        -11   -1    0    0    0    0  0.00000000000E+00  0.00000000000E+00  0.45593999997E+02  0.45594000000E+02  0.51100000000E-03 0.  1.
         11   -1    0    0    0    0 -0.00000000000E+00 -0.00000000000E+00 -0.45593999997E+02  0.45594000000E+02  0.51100000000E-03 0. -1.
    9900012    2    1    2    0    0  0.13029724243E+02  0.32975940226E+02  0.27783599818E+02  0.46142303574E+02  0.99998706291E+01 0.  0.
         12    1    1    2    0    0 -0.13029724243E+02 -0.32975940226E+02 -0.27783599818E+02  0.45045696426E+02  0.00000000000E+00 0. -1.
         11    1    3    3    0    0  0.28011423650E+01  0.47367840957E+01  0.76896994711E+01  0.94559505252E+01  0.51100000000E-03 0. -1.
        -11    1    3    3    0    0  0.20011579498E+01  0.17984035616E+01  0.34609895818E+01  0.43837583940E+01  0.51100000000E-03 0.  1.
        -12    1    3    3    0    0  0.82274239282E+01  0.26440752569E+02  0.16632910766E+02  0.32302594655E+02  0.00000000000E+00 0.  1.
</event>
<event>
 7    1  0.2297343E-008  0.4614232E+02  0.7816164E-02  0.1320468E+00
        -11   -1    0    0    0    0  0.00000000000E+00  0.00000000000E+00  0.45593999997E+02  0.45594000000E+02  0.51100000000E-03 0.  1.
         11   -1    0    0    0    0 -0.00000000000E+00 -0.00000000000E+00 -0.45593999997E+02  0.45594000000E+02  0.51100000000E-03 0. -1.
    9900012    2    1    2    0    0 -0.24278372257E+02  0.11229716362E+02  0.36243172954E+02  0.46142317911E+02  0.10000001368E+02 0.  0.
         12    1    1    2    0    0  0.24278372257E+02 -0.11229716362E+02 -0.36243172954E+02  0.45045682089E+02  0.00000000000E+00 0. -1.
         11    1    3    3    0    0 -0.58948588534E+00 -0.27391839643E+00  0.16735542688E+01  0.17953576381E+01  0.51100000000E-03 0. -1.
        -11    1    3    3    0    0 -0.45311865141E+01  0.49981792413E+01  0.13750870185E+02  0.15316653618E+02  0.51100000000E-03 0.  1.
        -12    1    3    3    0    0 -0.19157699858E+02  0.65054555173E+01  0.20818748501E+02  0.29030306655E+02  0.00000000000E+00 0.  1.
</event>
<event>
 7    1  0.2297343E-008  0.4614232E+02  0.7816164E-02  0.1320468E+00
        -11   -1    0    0    0    0  0.00000000000E+00  0.00000000000E+00  0.45593999997E+02  0.45594000000E+02  0.51100000000E-03 0.  1.
         11   -1    0    0    0    0 -0.00000000000E+00 -0.00000000000E+00 -0.45593999997E+02  0.45594000000E+02  0.51100000000E-03 0. -1.
    9900012    2    1    2    0    0 -0.17070273639E+02 -0.41684880088E+02  0.30008553659E+00  0.46142317394E+02  0.99999966544E+01 0.  0.
         12    1    1    2    0    0  0.17070273639E+02  0.41684880088E+02 -0.30008553659E+00  0.45045682606E+02  0.00000000000E+00 0. -1.
         11    1    3    3    0    0 -0.25066099886E+01 -0.14637782468E+02  0.14009431008E+01  0.14916782865E+02  0.51100000000E-03 0. -1.
        -11    1    3    3    0    0 -0.18019840810E+01 -0.83715111721E+01  0.23761548987E+00  0.85665516583E+01  0.51100000000E-03 0.  1.
        -12    1    3    3    0    0 -0.12761679569E+02 -0.18675586448E+02 -0.13384730540E+01  0.22658982871E+02  0.00000000000E+00 0.  1.
</event>
<event>
 7    1  0.2297343E-008  0.4614232E+02  0.7816164E-02  0.1320468E+00
        -11   -1    0    0    0    0  0.00000000000E+00  0.00000000000E+00  0.45593999997E+02  0.45594000000E+02  0.51100000000E-03 0.  1.
         11   -1    0    0    0    0 -0.00000000000E+00 -0.00000000000E+00 -0.45593999997E+02  0.45594000000E+02  0.51100000000E-03 0. -1.
    9900012    2    1    2    0    0 -0.37366638367E+02  0.22169796921E+02  0.11888980399E+02  0.46142318594E+02  0.10000007599E+02 0.  0.
         12    1    1    2    0    0  0.37366638367E+02 -0.22169796921E+02 -0.11888980399E+02  0.45045681406E+02  0.00000000000E+00 0. -1.
         11    1    3    3    0    0 -0.26826300517E+01  0.28104660832E+01  0.31318486344E+01  0.49903606813E+01  0.51100000000E-03 0. -1.
        -11    1    3    3    0    0 -0.14929870865E+02  0.48451402029E+01  0.34027047723E+01  0.16060972189E+02  0.51100000000E-03 0.  1.
         12    1    3    3    0    0 -0.19754137450E+02  0.14514190635E+02  0.53544269922E+01  0.25090985724E+02  0.00000000000E+00 0. -1.
</event>
<event>
 7    1  0.2297343E-008  0.4614232E+02  0.7816164E-02  0.1320468E+00
        -11   -1    0    0    0    0  0.00000000000E+00  0.00000000000E+00  0.45593999997E+02  0.45594000000E+02  0.51100000000E-03 0.  1.
         11   -1    0    0    0    0 -0.00000000000E+00 -0.00000000000E+00 -0.45593999997E+02  0.45594000000E+02  0.51100000000E-03 0. -1.
    9900012    2    1    2    0    0 -0.79520403226E+00  0.22143509515E+02  0.39219205574E+02  0.46142318199E+02  0.10000003989E+02 0.  0.
         12    1    1    2    0    0  0.79520403226E+00 -0.22143509515E+02 -0.39219205574E+02  0.45045681801E+02  0.00000000000E+00 0. -1.
         11    1    3    3    0    0 -0.88586432899E-01  0.53198518753E+01  0.14983017360E+02  0.15899669210E+02  0.51100000000E-03 0. -1.
        -11    1    3    3    0    0  0.23689299271E+01  0.38497033720E+01  0.84155718816E+01  0.95526904800E+01  0.51100000000E-03 0.  1.
         12    1    3    3    0    0 -0.30755475264E+01  0.12973954268E+02  0.15820616333E+02  0.20689958508E+02  0.00000000000E+00 0. -1.
</event>
<event>
 7    1  0.2297343E-008  0.4614232E+02  0.7816164E-02  0.1320468E+00
        -11   -1    0    0    0    0  0.00000000000E+00  0.00000000000E+00  0.45593999997E+02  0.45594000000E+02  0.51100000000E-03 0. -1.
         11   -1    0    0    0    0 -0.00000000000E+00 -0.00000000000E+00 -0.45593999997E+02  0.45594000000E+02  0.51100000000E-03 0.  1.
    9900012    2    1    2    0    0 -0.18360351953E+02  0.10985041122E+02 -0.39640128908E+02  0.46142317941E+02  0.10000001640E+02 0.  0.
         12    1    1    2    0    0  0.18360351953E+02 -0.10985041122E+02  0.39640128908E+02  0.45045682059E+02  0.00000000000E+00 0. -1.
         11    1    3    3    0    0 -0.10864409314E+01  0.35922086356E+01 -0.95794565565E+01  0.10288357739E+02  0.51100000000E-03 0. -1.
        -11    1    3    3    0    0 -0.64621873645E+01  0.24608547148E+01 -0.16089101605E+02  0.17512134712E+02  0.51100000000E-03 0.  1.
         12    1    3    3    0    0 -0.10811723657E+02  0.49319777713E+01 -0.13971570747E+02  0.18341825490E+02  0.00000000000E+00 0. -1.
</event>
<event>
 7    1  0.2297343E-008  0.4614232E+02  0.7816164E-02  0.1320468E+00
        -11   -1    0    0    0    0  0.00000000000E+00  0.00000000000E+00  0.45593999997E+02  0.45594000000E+02  0.51100000000E-03 0.  1.
         11   -1    0    0    0    0 -0.00000000000E+00 -0.00000000000E+00 -0.45593999997E+02  0.45594000000E+02  0.51100000000E-03 0. -1.
    9900012    2    1    2    0    0  0.20293120158E+02  0.35541657616E+02  0.18817368356E+02  0.46142317591E+02  0.99999984489E+01 0.  0.
         12    1    1    2    0    0 -0.20293120158E+02 -0.35541657616E+02 -0.18817368356E+02  0.45045682409E+02  0.00000000000E+00 0. -1.
         11    1    3    3    0    0  0.29520570935E+01  0.33787853534E+01  0.15824252320E+01  0.47576150983E+01  0.51100000000E-03 0. -1.
        -11    1    3    3    0    0 -0.48117172483E+00  0.49316932550E+01  0.11729435071E+01  0.50920449057E+01  0.51100000000E-03 0.  1.
        -12    1    3    3    0    0  0.17822234789E+02  0.27231179008E+02  0.16061999617E+02  0.36292657587E+02  0.00000000000E+00 0.  1.
</event>
<event>
 7    1  0.2297343E-008  0.4614232E+02  0.7816164E-02  0.1320468E+00
        -11   -1    0    0    0    0  0.00000000000E+00  0.00000000000E+00  0.45593999997E+02  0.45594000000E+02  0.51100000000E-03 0.  1.
         11   -1    0    0    0    0 -0.00000000000E+00 -0.00000000000E+00 -0.45593999997E+02  0.45594000000E+02  0.51100000000E-03 0. -1.
    9900012    2    1    2    0    0 -0.40638173288E+02  0.70159713563E+01  0.18122599730E+02  0.46142316487E+02  0.99999883785E+01 0.  0.
         12    1    1    2    0    0  0.40638173288E+02 -0.70159713563E+01 -0.18122599730E+02  0.45045683513E+02  0.00000000000E+00 0. -1.
         11    1    3    3    0    0 -0.19141060772E+02  0.53001017774E+00  0.45085457926E+01  0.19672013209E+02  0.51100000000E-03 0. -1.
        -11    1    3    3    0    0 -0.19330017789E+02  0.51403427148E+01  0.11039686080E+02  0.22846167730E+02  0.51100000000E-03 0.  1.
         12    1    3    3    0    0 -0.21670947268E+01  0.13456184638E+01  0.25743678571E+01  0.36241355478E+01  0.00000000000E+00 0. -1.
</event>
<event>
 7    1  0.2297343E-008  0.4614232E+02  0.7816164E-02  0.1320468E+00
        -11   -1    0    0    0    0  0.00000000000E+00  0.00000000000E+00  0.45593999997E+02  0.45594000000E+02  0.51100000000E-03 0. -1.
         11   -1    0    0    0    0 -0.00000000000E+00 -0.00000000000E+00 -0.45593999997E+02  0.45594000000E+02  0.51100000000E-03 0.  1.
    9900012    2    1    2    0    0 -0.31592848789E+02 -0.21920057732E+02 -0.23463087819E+02  0.46142317459E+02  0.99999972408E+01 0.  0.
         12    1    1    2    0    0  0.31592848789E+02  0.21920057732E+02  0.23463087819E+02  0.45045682541E+02  0.00000000000E+00 0. -1.
         11    1    3    3    0    0 -0.13035945768E+02 -0.51521468467E+01 -0.89552960132E+01  0.16633635386E+02  0.51100000000E-03 0. -1.
        -11    1    3    3    0    0 -0.11104836513E+02 -0.10787856929E+02 -0.12115048151E+02  0.19658831172E+02  0.51100000000E-03 0.  1.
        -12    1    3    3    0    0 -0.74520665077E+01 -0.59800539567E+01 -0.23927436554E+01  0.98498509004E+01  0.00000000000E+00 0.  1.
</event>
<event>
 7    1  0.2297343E-008  0.4614232E+02  0.7816164E-02  0.1320468E+00
        -11   -1    0    0    0    0  0.00000000000E+00  0.00000000000E+00  0.45593999997E+02  0.45594000000E+02  0.51100000000E-03 0.  1.
         11   -1    0    0    0    0 -0.00000000000E+00 -0.00000000000E+00 -0.45593999997E+02  0.45594000000E+02  0.51100000000E-03 0. -1.
    9900012    2    1    2    0    0  0.12338065820E+02 -0.42770313858E+02  0.68982337962E+01  0.46142320460E+02  0.10000024613E+02 0.  0.
         12    1    1    2    0    0 -0.12338065820E+02  0.42770313858E+02 -0.68982337962E+01  0.45045679540E+02  0.00000000000E+00 0. -1.
         11    1    3    3    0    0  0.29517363644E+01 -0.27893269348E+01  0.16783911503E+01  0.43943246841E+01  0.51100000000E-03 0. -1.
        -11    1    3    3    0    0  0.71542091732E+01 -0.29179095394E+02  0.14026860306E+01  0.30076067650E+02  0.51100000000E-03 0.  1.
        -12    1    3    3    0    0  0.22321202822E+01 -0.10801891529E+02  0.38171566153E+01  0.11671928126E+02  0.00000000000E+00 0.  1.
</event>
<event>
 7    1  0.2297343E-008  0.4614231E+02  0.7816164E-02  0.1320468E+00
        -11   -1    0    0    0    0  0.00000000000E+00  0.00000000000E+00  0.45593999997E+02  0.45594000000E+02  0.51100000000E-03 0.  1.
         11   -1    0    0    0    0 -0.00000000000E+00 -0.00000000000E+00 -0.45593999997E+02  0.45594000000E+02  0.51100000000E-03 0. -1.
    9900012    2    1    2    0    0  0.36102680108E+02  0.26184565875E+02  0.63308234120E+01  0.46142308462E+02  0.99999152046E+01 0.  0.
         12    1    1    2    0    0 -0.36102680108E+02 -0.26184565875E+02 -0.63308234120E+01  0.45045691538E+02  0.00000000000E+00 0. -1.
         11    1    3    3    0    0  0.33163862083E+01 -0.45023404785E+00  0.90517085120E+00  0.34670538951E+01  0.51100000000E-03 0. -1.
        -11    1    3    3    0    0  0.14813904807E+02  0.12737392395E+02  0.37597249715E+01  0.19895438492E+02  0.51100000000E-03 0.  1.
         12    1    3    3    0    0  0.17972389093E+02  0.13897407527E+02  0.16659275893E+01  0.22779816075E+02  0.00000000000E+00 0. -1.
</event>
<event>
 7    1  0.2297343E-008  0.4614232E+02  0.7816164E-02  0.1320468E+00
        -11   -1    0    0    0    0  0.00000000000E+00  0.00000000000E+00  0.45593999997E+02  0.45594000000E+02  0.51100000000E-03 0.  1.
         11   -1    0    0    0    0 -0.00000000000E+00 -0.00000000000E+00 -0.45593999997E+02  0.45594000000E+02  0.51100000000E-03 0. -1.
    9900012    2    1    2    0    0  0.38286294561E+02  0.23334458823E+02  0.43331394496E+01  0.46142318551E+02  0.10000007201E+02 0.  0.
         12    1    1    2    0    0 -0.38286294561E+02 -0.23334458823E+02 -0.43331394496E+01  0.45045681449E+02  0.00000000000E+00 0. -1.
         11    1    3    3    0    0  0.92868443899E+01  0.83305897449E+01 -0.72059037504E+00  0.12496537719E+02  0.51100000000E-03 0. -1.
        -11    1    3    3    0    0 -0.34926699424E-02 -0.34199307892E+00  0.36447105797E+00  0.49981084221E+00  0.51100000000E-03 0.  1.
        -12    1    3    3    0    0  0.29002942841E+02  0.15345862157E+02  0.46892587667E+01  0.33145969989E+02  0.00000000000E+00 0.  1.
</event>
<event>
 7    1  0.2297343E-008  0.4614232E+02  0.7816164E-02  0.1320468E+00
        -11   -1    0    0    0    0  0.00000000000E+00  0.00000000000E+00  0.45593999997E+02  0.45594000000E+02  0.51100000000E-03 0.  1.
         11   -1    0    0    0    0 -0.00000000000E+00 -0.00000000000E+00 -0.45593999997E+02  0.45594000000E+02  0.51100000000E-03 0. -1.
    9900012    2    1    2    0    0 -0.15258798537E+02 -0.33899392259E+02  0.25438431061E+02  0.46142317597E+02  0.99999985003E+01 0.  0.
         12    1    1    2    0    0  0.15258798537E+02  0.33899392259E+02 -0.25438431061E+02  0.45045682403E+02  0.00000000000E+00 0. -1.
         11    1    3    3    0    0 -0.63654184372E+00 -0.70767395450E+01  0.78900050676E+01  0.10617796774E+02  0.51100000000E-03 0. -1.
        -11    1    3    3    0    0 -0.33643344207E+01 -0.91519358684E+01  0.74186361451E+01  0.12252054470E+02  0.51100000000E-03 0.  1.
         12    1    3    3    0    0 -0.11257922272E+02 -0.17670716846E+02  0.10129789848E+02  0.23272466352E+02  0.00000000000E+00 0. -1.
</event>
<event>
 7    1  0.2297343E-008  0.4614232E+02  0.7816164E-02  0.1320468E+00
        -11   -1    0    0    0    0  0.00000000000E+00  0.00000000000E+00  0.45593999997E+02  0.45594000000E+02  0.51100000000E-03 0. -1.
         11   -1    0    0    0    0 -0.00000000000E+00 -0.00000000000E+00 -0.45593999997E+02  0.45594000000E+02  0.51100000000E-03 0.  1.
    9900012    2    1    2    0    0  0.27422550331E+02  0.34687442453E+02 -0.85964291337E+01  0.46142317361E+02  0.99999963531E+01 0.  0.
         12    1    1    2    0    0 -0.27422550331E+02 -0.34687442453E+02  0.85964291337E+01  0.45045682639E+02  0.00000000000E+00 0. -1.
         11    1    3    3    0    0 -0.60680763792E+00  0.12658426751E+01 -0.88719961533E+00  0.16606313878E+01  0.51100000000E-03 0. -1.
        -11    1    3    3    0    0  0.45427905432E+01  0.41669333946E+01 -0.22909727915E+01  0.65763847536E+01  0.51100000000E-03 0.  1.
        -12    1    3    3    0    0  0.23486567425E+02  0.29254666383E+02 -0.54182567269E+01  0.37905301220E+02  0.00000000000E+00 0.  1.
</event>
<event>
 7    1  0.2297343E-008  0.4614232E+02  0.7816164E-02  0.1320468E+00
        -11   -1    0    0    0    0  0.00000000000E+00  0.00000000000E+00  0.45593999997E+02  0.45594000000E+02  0.51100000000E-03 0.  1.
         11   -1    0    0    0    0 -0.00000000000E+00 -0.00000000000E+00 -0.45593999997E+02  0.45594000000E+02  0.51100000000E-03 0. -1.
    9900012    2    1    2    0    0  0.48457564895E+01 -0.11101440686E+02  0.43386520732E+02  0.46142317382E+02  0.99999965469E+01 0.  0.
         12    1    1    2    0    0 -0.48457564895E+01  0.11101440686E+02 -0.43386520732E+02  0.45045682618E+02  0.00000000000E+00 0. -1.
         11    1    3    3    0    0  0.25091829964E+01  0.11212421100E+00  0.61856645986E+01  0.66761529293E+01  0.51100000000E-03 0. -1.
        -11    1    3    3    0    0  0.43283346719E+01 -0.70394268227E+01  0.19666821252E+02  0.21332413587E+02  0.51100000000E-03 0.  1.
        -12    1    3    3    0    0 -0.19917611788E+01 -0.41741380745E+01  0.17534034882E+02  0.18133750867E+02  0.00000000000E+00 0.  1.
</event>
<event>
 7    1  0.2297343E-008  0.4614232E+02  0.7816164E-02  0.1320468E+00
        -11   -1    0    0    0    0  0.00000000000E+00  0.00000000000E+00  0.45593999997E+02  0.45594000000E+02  0.51100000000E-03 0. -1.
         11   -1    0    0    0    0 -0.00000000000E+00 -0.00000000000E+00 -0.45593999997E+02  0.45594000000E+02  0.51100000000E-03 0.  1.
    9900012    2    1    2    0    0 -0.65389840414E+01  0.37443137247E+02 -0.24173677497E+02  0.46142317378E+02  0.99999965048E+01 0.  0.
         12    1    1    2    0    0  0.65389840414E+01 -0.37443137247E+02  0.24173677497E+02  0.45045682622E+02  0.00000000000E+00 0. -1.
         11    1    3    3    0    0 -0.17333603237E+01  0.14492947487E+02 -0.71309980396E+01  0.16245036109E+02  0.51100000000E-03 0.  1.
        -11    1    3    3    0    0 -0.10772730430E+01  0.10382851559E+02 -0.11864545431E+02  0.15802897274E+02  0.51100000000E-03 0. -1.
         12    1    3    3    0    0 -0.37283506747E+01  0.12567338200E+02 -0.51781340262E+01  0.14094383994E+02  0.00000000000E+00 0. -1.
</event>
<event>
 7    1  0.2297343E-008  0.4614232E+02  0.7816164E-02  0.1320468E+00
        -11   -1    0    0    0    0  0.00000000000E+00  0.00000000000E+00  0.45593999997E+02  0.45594000000E+02  0.51100000000E-03 0. -1.
         11   -1    0    0    0    0 -0.00000000000E+00 -0.00000000000E+00 -0.45593999997E+02  0.45594000000E+02  0.51100000000E-03 0.  1.
    9900012    2    1    2    0    0  0.28482987954E+02  0.34069652839E+02  0.75558951789E+01  0.46142318750E+02  0.10000009016E+02 0.  0.
         12    1    1    2    0    0 -0.28482987954E+02 -0.34069652839E+02 -0.75558951789E+01  0.45045681250E+02  0.00000000000E+00 0. -1.
         11    1    3    3    0    0  0.45335890799E+01  0.28225355546E+01  0.35994502677E+01  0.64402002603E+01  0.51100000000E-03 0. -1.
        -11    1    3    3    0    0  0.45324183668E+01  0.47021790737E+01 -0.30856345231E+00  0.65382349268E+01  0.51100000000E-03 0.  1.
        -12    1    3    3    0    0  0.19416980507E+02  0.26544938211E+02  0.42650083636E+01  0.33163883563E+02  0.00000000000E+00 0.  1.
</event>
<event>
 7    1  0.2297343E-008  0.4614232E+02  0.7816164E-02  0.1320468E+00
        -11   -1    0    0    0    0  0.00000000000E+00  0.00000000000E+00  0.45593999997E+02  0.45594000000E+02  0.51100000000E-03 0. -1.
         11   -1    0    0    0    0 -0.00000000000E+00 -0.00000000000E+00 -0.45593999997E+02  0.45594000000E+02  0.51100000000E-03 0.  1.
    9900012    2    1    2    0    0  0.19838972218E+02 -0.19293240789E+02 -0.35542925425E+02  0.46142317559E+02  0.99999981591E+01 0.  0.
         12    1    1    2    0    0 -0.19838972218E+02  0.19293240789E+02  0.35542925425E+02  0.45045682441E+02  0.00000000000E+00 0. -1.
         11    1    3    3    0    0  0.33446576020E+01 -0.73746179045E+01 -0.13286236573E+02  0.15559428210E+02  0.51100000000E-03 0. -1.
        -11    1    3    3    0    0  0.90856270796E+00  0.48763304453E+00 -0.14308127980E+01  0.17636603144E+01  0.51100000000E-03 0.  1.
        -12    1    3    3    0    0  0.15585751908E+02 -0.12406255929E+02 -0.20825876054E+02  0.28819229034E+02  0.00000000000E+00 0.  1.
</event>
<event>
 7    1  0.2297343E-008  0.4614232E+02  0.7816164E-02  0.1320468E+00
        -11   -1    0    0    0    0  0.00000000000E+00  0.00000000000E+00  0.45593999997E+02  0.45594000000E+02  0.51100000000E-03 0. -1.
         11   -1    0    0    0    0 -0.00000000000E+00 -0.00000000000E+00 -0.45593999997E+02  0.45594000000E+02  0.51100000000E-03 0.  1.
    9900012    2    1    2    0    0 -0.28957917731E+02  0.33726812238E+02  0.72838560453E+01  0.46142318498E+02  0.10000006720E+02 0.  0.
         12    1    1    2    0    0  0.28957917731E+02 -0.33726812238E+02 -0.72838560453E+01  0.45045681502E+02  0.00000000000E+00 0. -1.
         11    1    3    3    0    0 -0.32459395477E+01  0.80868929766E+01  0.32940189665E+01  0.93158211004E+01  0.51100000000E-03 0. -1.
        -11    1    3    3    0    0 -0.10266697591E+02  0.12714079218E+02  0.26083632646E+00  0.16343834484E+02  0.51100000000E-03 0.  1.
         12    1    3    3    0    0 -0.15445280593E+02  0.12925840044E+02  0.37290007523E+01  0.20482662914E+02  0.00000000000E+00 0. -1.
</event>
<event>
 7    1  0.2297343E-008  0.4614232E+02  0.7816164E-02  0.1320468E+00
        -11   -1    0    0    0    0  0.00000000000E+00  0.00000000000E+00  0.45593999997E+02  0.45594000000E+02  0.51100000000E-03 0.  1.
         11   -1    0    0    0    0 -0.00000000000E+00 -0.00000000000E+00 -0.45593999997E+02  0.45594000000E+02  0.51100000000E-03 0. -1.
    9900012    2    1    2    0    0 -0.32689758347E+02  0.22028723606E+02  0.21799739106E+02  0.46142316637E+02  0.99999897514E+01 0.  0.
         12    1    1    2    0    0  0.32689758347E+02 -0.22028723606E+02 -0.21799739106E+02  0.45045683363E+02  0.00000000000E+00 0. -1.
         11    1    3    3    0    0 -0.17103010849E+02  0.10309851577E+02  0.73872076072E+01  0.21292647936E+02  0.51100000000E-03 0. -1.
        -11    1    3    3    0    0 -0.14030733122E+00  0.89723603188E+00 -0.27093192044E+00  0.94769352152E+00  0.51100000000E-03 0.  1.
        -12    1    3    3    0    0 -0.15446440167E+02  0.10821635997E+02  0.14683463419E+02  0.23901975179E+02  0.00000000000E+00 0.  1.
</event>
<event>
 7    1  0.2297343E-008  0.4614232E+02  0.7816164E-02  0.1320468E+00
        -11   -1    0    0    0    0  0.00000000000E+00  0.00000000000E+00  0.45593999997E+02  0.45594000000E+02  0.51100000000E-03 0.  1.
         11   -1    0    0    0    0 -0.00000000000E+00 -0.00000000000E+00 -0.45593999997E+02  0.45594000000E+02  0.51100000000E-03 0. -1.
    9900012    2    1    2    0    0 -0.33157208571E+02 -0.26978912848E+02  0.14207434505E+02  0.46142318587E+02  0.10000007534E+02 0.  0.
         12    1    1    2    0    0  0.33157208571E+02  0.26978912848E+02 -0.14207434505E+02  0.45045681413E+02  0.00000000000E+00 0. -1.
         11    1    3    3    0    0  0.26571554046E+00 -0.16864606286E+01  0.37694073041E+00  0.17483817591E+01  0.51100000000E-03 0. -1.
        -11    1    3    3    0    0 -0.11438612380E+02 -0.62246103536E+01  0.53826792443E+01  0.14091162597E+02  0.51100000000E-03 0.  1.
        -12    1    3    3    0    0 -0.21984311732E+02 -0.19067841866E+02  0.84478145303E+01  0.30302774231E+02  0.00000000000E+00 0.  1.
</event>
<event>
 7    1  0.2297343E-008  0.4614232E+02  0.7816164E-02  0.1320468E+00
        -11   -1    0    0    0    0  0.00000000000E+00  0.00000000000E+00  0.45593999997E+02  0.45594000000E+02  0.51100000000E-03 0.  1.
         11   -1    0    0    0    0 -0.00000000000E+00 -0.00000000000E+00 -0.45593999997E+02  0.45594000000E+02  0.51100000000E-03 0. -1.
    9900012    2    1    2    0    0  0.12526533130E+02 -0.29520096560E+02  0.31634844008E+02  0.46142317759E+02  0.99999999763E+01 0.  0.
         12    1    1    2    0    0 -0.12526533130E+02  0.29520096560E+02 -0.31634844008E+02  0.45045682241E+02  0.00000000000E+00 0. -1.
         11    1    3    3    0    0  0.44943126291E+01 -0.10399478861E+02  0.55082013897E+01  0.12597154019E+02  0.51100000000E-03 0. -1.
        -11    1    3    3    0    0  0.72741954842E+01 -0.13259545235E+02  0.18416729503E+02  0.23830765528E+02  0.51100000000E-03 0.  1.
        -12    1    3    3    0    0  0.75802501629E+00 -0.58610724645E+01  0.77099131155E+01  0.97143982113E+01  0.00000000000E+00 0.  1.
</event>
<event>
 7    1  0.2297343E-008  0.4614232E+02  0.7816164E-02  0.1320468E+00
        -11   -1    0    0    0    0  0.00000000000E+00  0.00000000000E+00  0.45593999997E+02  0.45594000000E+02  0.51100000000E-03 0.  1.
         11   -1    0    0    0    0 -0.00000000000E+00 -0.00000000000E+00 -0.45593999997E+02  0.45594000000E+02  0.51100000000E-03 0. -1.
    9900012    2    1    2    0    0 -0.23375669971E+01  0.42628534048E+01  0.44782556026E+02  0.46142318044E+02  0.10000002582E+02 0.  0.
         12    1    1    2    0    0  0.23375669971E+01 -0.42628534048E+01 -0.44782556026E+02  0.45045681956E+02  0.00000000000E+00 0. -1.
         11    1    3    3    0    0  0.52295517499E+00  0.47835378001E+01  0.15444371443E+02  0.16176659900E+02  0.51100000000E-03 0. -1.
        -11    1    3    3    0    0 -0.17509523812E+01  0.12739605371E+01  0.40756436584E+01  0.46151577636E+01  0.51100000000E-03 0.  1.
        -12    1    3    3    0    0 -0.11095697909E+01 -0.17946449323E+01  0.25262540925E+02  0.25350500380E+02  0.00000000000E+00 0.  1.
</event>
<event>
 7    1  0.2297343E-008  0.4614232E+02  0.7816164E-02  0.1320468E+00
        -11   -1    0    0    0    0  0.00000000000E+00  0.00000000000E+00  0.45593999997E+02  0.45594000000E+02  0.51100000000E-03 0. -1.
         11   -1    0    0    0    0 -0.00000000000E+00 -0.00000000000E+00 -0.45593999997E+02  0.45594000000E+02  0.51100000000E-03 0.  1.
    9900012    2    1    2    0    0  0.36024724555E+00  0.64696378307E+01 -0.44577208580E+02  0.46142317448E+02  0.99999971487E+01 0.  0.
         12    1    1    2    0    0 -0.36024724555E+00 -0.64696378307E+01  0.44577208580E+02  0.45045682552E+02  0.00000000000E+00 0. -1.
         11    1    3    3    0    0 -0.63404323109E+00  0.83357069803E+00 -0.44368895787E+00  0.11374142077E+01  0.51100000000E-03 0. -1.
        -11    1    3    3    0    0 -0.18144459886E+01  0.36293580176E+01 -0.35109317723E+02  0.35343014092E+02  0.51100000000E-03 0.  1.
        -12    1    3    3    0    0  0.28087364653E+01  0.20067091151E+01 -0.90242018992E+01  0.96618891487E+01  0.00000000000E+00 0.  1.
</event>
<event>
 7    1  0.2297343E-008  0.4614232E+02  0.7816164E-02  0.1320468E+00
        -11   -1    0    0    0    0  0.00000000000E+00  0.00000000000E+00  0.45593999997E+02  0.45594000000E+02  0.51100000000E-03 0. -1.
         11   -1    0    0    0    0 -0.00000000000E+00 -0.00000000000E+00 -0.45593999997E+02  0.45594000000E+02  0.51100000000E-03 0.  1.
    9900012    2    1    2    0    0  0.41219403735E+02 -0.17844743697E+02  0.34116503944E+01  0.46142317851E+02  0.10000000815E+02 0.  0.
         12    1    1    2    0    0 -0.41219403735E+02  0.17844743697E+02 -0.34116503944E+01  0.45045682149E+02  0.00000000000E+00 0. -1.
         11    1    3    3    0    0  0.66496930635E+01 -0.49173017416E+01  0.16261647414E+01  0.84286823575E+01  0.51100000000E-03 0. -1.
        -11    1    3    3    0    0  0.14607775846E+02 -0.76148183271E+01  0.39601103980E+01  0.16942698957E+02  0.51100000000E-03 0.  1.
        -12    1    3    3    0    0  0.19961934826E+02 -0.53126236283E+01 -0.21746247450E+01  0.20770936536E+02  0.00000000000E+00 0.  1.
</event>
<event>
 7    1  0.2297343E-008  0.4614232E+02  0.7816164E-02  0.1320468E+00
        -11   -1    0    0    0    0  0.00000000000E+00  0.00000000000E+00  0.45593999997E+02  0.45594000000E+02  0.51100000000E-03 0.  1.
         11   -1    0    0    0    0 -0.00000000000E+00 -0.00000000000E+00 -0.45593999997E+02  0.45594000000E+02  0.51100000000E-03 0. -1.
    9900012    2    1    2    0    0  0.33800937889E+02  0.25969729135E+02  0.14566509592E+02  0.46142318351E+02  0.10000005382E+02 0.  0.
         12    1    1    2    0    0 -0.33800937889E+02 -0.25969729135E+02 -0.14566509592E+02  0.45045681649E+02  0.00000000000E+00 0. -1.
         11    1    3    3    0    0  0.10405770041E+02  0.78609532047E+01  0.40241114164E+01  0.13648007488E+02  0.51100000000E-03 0.  1.
        -11    1    3    3    0    0  0.11799367068E+02  0.11670426974E+02  0.19948734763E+01  0.16715365668E+02  0.51100000000E-03 0. -1.
         12    1    3    3    0    0  0.11595800780E+02  0.64383489559E+01  0.85475246991E+01  0.15778945196E+02  0.00000000000E+00 0. -1.
</event>
<event>
 7    1  0.2297343E-008  0.4614232E+02  0.7816164E-02  0.1320468E+00
        -11   -1    0    0    0    0  0.00000000000E+00  0.00000000000E+00  0.45593999997E+02  0.45594000000E+02  0.51100000000E-03 0. -1.
         11   -1    0    0    0    0 -0.00000000000E+00 -0.00000000000E+00 -0.45593999997E+02  0.45594000000E+02  0.51100000000E-03 0.  1.
    9900012    2    1    2    0    0 -0.21493002088E+02  0.33349078152E+02  0.21330808392E+02  0.46142317199E+02  0.99999948716E+01 0.  0.
         12    1    1    2    0    0  0.21493002088E+02 -0.33349078152E+02 -0.21330808392E+02  0.45045682801E+02  0.00000000000E+00 0. -1.
         11    1    3    3    0    0 -0.69456670519E+00  0.28700254510E+01 -0.45833025309E+00  0.29882329025E+01  0.51100000000E-03 0. -1.
        -11    1    3    3    0    0 -0.78100264067E+01  0.10868463838E+02  0.51418553977E+01  0.14337318294E+02  0.51100000000E-03 0.  1.
        -12    1    3    3    0    0 -0.12988408976E+02  0.19610588863E+02  0.16647283248E+02  0.28816766002E+02  0.00000000000E+00 0.  1.
</event>
<event>
 7    1  0.2297343E-008  0.4614232E+02  0.7816164E-02  0.1320468E+00
        -11   -1    0    0    0    0  0.00000000000E+00  0.00000000000E+00  0.45593999997E+02  0.45594000000E+02  0.51100000000E-03 0.  1.
         11   -1    0    0    0    0 -0.00000000000E+00 -0.00000000000E+00 -0.45593999997E+02  0.45594000000E+02  0.51100000000E-03 0. -1.
    9900012    2    1    2    0    0  0.22737578293E+02  0.46476188415E+01  0.38607194738E+02  0.46142319707E+02  0.10000017748E+02 0.  0.
         12    1    1    2    0    0 -0.22737578293E+02 -0.46476188415E+01 -0.38607194738E+02  0.45045680293E+02  0.00000000000E+00 0. -1.
         11    1    3    3    0    0  0.62091597905E+01 -0.85916937655E+00  0.49673999527E+01  0.79979309745E+01  0.51100000000E-03 0. -1.
        -11    1    3    3    0    0  0.45061279774E+01  0.17747388261E+01  0.14025160571E+02  0.14837790151E+02  0.51100000000E-03 0.  1.
        -12    1    3    3    0    0  0.12022290525E+02  0.37320493919E+01  0.19614634213E+02  0.23306598582E+02  0.00000000000E+00 0.  1.
</event>
<event>
 7    1  0.2297343E-008  0.4614232E+02  0.7816164E-02  0.1320468E+00
        -11   -1    0    0    0    0  0.00000000000E+00  0.00000000000E+00  0.45593999997E+02  0.45594000000E+02  0.51100000000E-03 0.  1.
         11   -1    0    0    0    0 -0.00000000000E+00 -0.00000000000E+00 -0.45593999997E+02  0.45594000000E+02  0.51100000000E-03 0. -1.
    9900012    2    1    2    0    0 -0.16395534312E+02  0.92766209604E+01  0.40917529892E+02  0.46142317696E+02  0.99999994028E+01 0.  0.
         12    1    1    2    0    0  0.16395534312E+02 -0.92766209604E+01 -0.40917529892E+02  0.45045682304E+02  0.00000000000E+00 0. -1.
         11    1    3    3    0    0 -0.20070957462E+01  0.41827922856E+00  0.11064365617E+02  0.11252714233E+02  0.51100000000E-03 0.  1.
        -11    1    3    3    0    0 -0.61196670785E+01  0.33267165620E+01  0.18642494414E+02  0.19901255399E+02  0.51100000000E-03 0. -1.
         12    1    3    3    0    0 -0.82687714875E+01  0.55316251698E+01  0.11210669861E+02  0.14988348063E+02  0.00000000000E+00 0. -1.
</event>
<event>
 7    1  0.2297343E-008  0.4614232E+02  0.7816164E-02  0.1320468E+00
        -11   -1    0    0    0    0  0.00000000000E+00  0.00000000000E+00  0.45593999997E+02  0.45594000000E+02  0.51100000000E-03 0.  1.
         11   -1    0    0    0    0 -0.00000000000E+00 -0.00000000000E+00 -0.45593999997E+02  0.45594000000E+02  0.51100000000E-03 0. -1.
    9900012    2    1    2    0    0  0.22187416877E+01  0.16398721142E+02  0.41895974601E+02  0.46142316994E+02  0.99999930013E+01 0.  0.
         12    1    1    2    0    0 -0.22187416877E+01 -0.16398721142E+02 -0.41895974601E+02  0.45045683006E+02  0.00000000000E+00 0. -1.
         11    1    3    3    0    0  0.46993809396E+00  0.19580469690E+01  0.14508071550E+01  0.24818604729E+01  0.51100000000E-03 0. -1.
        -11    1    3    3    0    0 -0.14157973575E+01  0.10411897619E+02  0.32925058705E+02  0.34561128239E+02  0.51100000000E-03 0.  1.
         12    1    3    3    0    0  0.31646009512E+01  0.40287765534E+01  0.75201087411E+01  0.90993282816E+01  0.00000000000E+00 0. -1.
</event>
<event>
 7    1  0.2297343E-008  0.4614232E+02  0.7816164E-02  0.1320468E+00
        -11   -1    0    0    0    0  0.00000000000E+00  0.00000000000E+00  0.45593999997E+02  0.45594000000E+02  0.51100000000E-03 0.  1.
         11   -1    0    0    0    0 -0.00000000000E+00 -0.00000000000E+00 -0.45593999997E+02  0.45594000000E+02  0.51100000000E-03 0. -1.
    9900012    2    1    2    0    0  0.14861986282E+02  0.25656672976E+02  0.33911207591E+02  0.46142317579E+02  0.99999983425E+01 0.  0.
         12    1    1    2    0    0 -0.14861986282E+02 -0.25656672976E+02 -0.33911207591E+02  0.45045682421E+02  0.00000000000E+00 0. -1.
         11    1    3    3    0    0 -0.35773544186E+00  0.17984109449E+01  0.21827962656E+01  0.28507641732E+01  0.51100000000E-03 0. -1.
        -11    1    3    3    0    0  0.56183741563E+01  0.10326965779E+02  0.75642534017E+01  0.13979638055E+02  0.51100000000E-03 0.  1.
        -12    1    3    3    0    0  0.96013475677E+01  0.13531296252E+02  0.24164157924E+02  0.29311915351E+02  0.00000000000E+00 0.  1.
</event>
<event>
 7    1  0.2297343E-008  0.4614232E+02  0.7816164E-02  0.1320468E+00
        -11   -1    0    0    0    0  0.00000000000E+00  0.00000000000E+00  0.45593999997E+02  0.45594000000E+02  0.51100000000E-03 0.  1.
         11   -1    0    0    0    0 -0.00000000000E+00 -0.00000000000E+00 -0.45593999997E+02  0.45594000000E+02  0.51100000000E-03 0. -1.
    9900012    2    1    2    0    0  0.95568773451E+01  0.38592932414E+02  0.21174636582E+02  0.46142316841E+02  0.99999916067E+01 0.  0.
         12    1    1    2    0    0 -0.95568773451E+01 -0.38592932414E+02 -0.21174636582E+02  0.45045683159E+02  0.00000000000E+00 0. -1.
         11    1    3    3    0    0  0.10113498246E+01 -0.90696729971E-01  0.97959819462E+00  0.14109100781E+01  0.51100000000E-03 0. -1.
        -11    1    3    3    0    0  0.60356006121E+01  0.17305500389E+02  0.80642452530E+01  0.20023507940E+02  0.51100000000E-03 0.  1.
        -12    1    3    3    0    0  0.25099269084E+01  0.21378128755E+02  0.12130793134E+02  0.24707898823E+02  0.00000000000E+00 0.  1.
</event>
<event>
 7    1  0.2297343E-008  0.4614231E+02  0.7816164E-02  0.1320468E+00
        -11   -1    0    0    0    0  0.00000000000E+00  0.00000000000E+00  0.45593999997E+02  0.45594000000E+02  0.51100000000E-03 0. -1.
         11   -1    0    0    0    0 -0.00000000000E+00 -0.00000000000E+00 -0.45593999997E+02  0.45594000000E+02  0.51100000000E-03 0.  1.
    9900012    2    1    2    0    0 -0.36317718604E+00  0.39409248641E+02 -0.21814975164E+02  0.46142312998E+02  0.99999565662E+01 0.  0.
         12    1    1    2    0    0  0.36317718604E+00 -0.39409248641E+02  0.21814975164E+02  0.45045687002E+02  0.00000000000E+00 0. -1.
         11    1    3    3    0    0  0.24466633913E+01  0.10614979659E+02 -0.46316571459E+01  0.11837069025E+02  0.51100000000E-03 0.  1.
        -11    1    3    3    0    0  0.18110645322E+01  0.31475043619E+01 -0.20442565317E+01  0.41672201138E+01  0.51100000000E-03 0. -1.
        -12    1    3    3    0    0 -0.46209051096E+01  0.25646764619E+02 -0.15139061486E+02  0.30138023859E+02  0.00000000000E+00 0.  1.
</event>
<event>
 7    1  0.2297343E-008  0.4614232E+02  0.7816164E-02  0.1320468E+00
        -11   -1    0    0    0    0  0.00000000000E+00  0.00000000000E+00  0.45593999997E+02  0.45594000000E+02  0.51100000000E-03 0.  1.
         11   -1    0    0    0    0 -0.00000000000E+00 -0.00000000000E+00 -0.45593999997E+02  0.45594000000E+02  0.51100000000E-03 0. -1.
    9900012    2    1    2    0    0  0.14425674484E+02 -0.38322704032E+02  0.18771883223E+02  0.46142319537E+02  0.10000016191E+02 0.  0.
         12    1    1    2    0    0 -0.14425674484E+02  0.38322704032E+02 -0.18771883223E+02  0.45045680463E+02  0.00000000000E+00 0. -1.
         11    1    3    3    0    0  0.16157656251E+01 -0.12399995976E+02  0.39449404323E+01  0.13112328322E+02  0.51100000000E-03 0. -1.
        -11    1    3    3    0    0  0.47089608268E+01 -0.14757439754E+02  0.98908260806E+01  0.18378922193E+02  0.51100000000E-03 0.  1.
         12    1    3    3    0    0  0.81009480324E+01 -0.11165268302E+02  0.49361167101E+01  0.14651069021E+02  0.00000000000E+00 0. -1.
</event>
<event>
 7    1  0.2297343E-008  0.4614232E+02  0.7816164E-02  0.1320468E+00
        -11   -1    0    0    0    0  0.00000000000E+00  0.00000000000E+00  0.45593999997E+02  0.45594000000E+02  0.51100000000E-03 0.  1.
         11   -1    0    0    0    0 -0.00000000000E+00 -0.00000000000E+00 -0.45593999997E+02  0.45594000000E+02  0.51100000000E-03 0. -1.
    9900012    2    1    2    0    0 -0.31644102647E+02 -0.28538406171E+02  0.14605598502E+02  0.46142319111E+02  0.10000012313E+02 0.  0.
         12    1    1    2    0    0  0.31644102647E+02  0.28538406171E+02 -0.14605598502E+02  0.45045680889E+02  0.00000000000E+00 0. -1.
         11    1    3    3    0    0 -0.96568037782E+01 -0.54812377109E+01  0.51879457355E+01  0.12256125296E+02  0.51100000000E-03 0. -1.
        -11    1    3    3    0    0 -0.93733581837E+01 -0.13011411214E+02  0.20821637734E+01  0.16170716485E+02  0.51100000000E-03 0.  1.
        -12    1    3    3    0    0 -0.12613940685E+02 -0.10045757247E+02  0.73354889933E+01  0.17715477330E+02  0.00000000000E+00 0.  1.
</event>
<event>
 7    1  0.2297343E-008  0.4614233E+02  0.7816164E-02  0.1320468E+00
        -11   -1    0    0    0    0  0.00000000000E+00  0.00000000000E+00  0.45593999997E+02  0.45594000000E+02  0.51100000000E-03 0. -1.
         11   -1    0    0    0    0 -0.00000000000E+00 -0.00000000000E+00 -0.45593999997E+02  0.45594000000E+02  0.51100000000E-03 0.  1.
    9900012    2    1    2    0    0 -0.14890194392E+02 -0.42321948335E+02  0.40307607076E+01  0.46142331709E+02  0.10000127183E+02 0.  0.
         12    1    1    2    0    0  0.14890194392E+02  0.42321948335E+02 -0.40307607076E+01  0.45045668291E+02  0.00000000000E+00 0. -1.
         11    1    3    3    0    0 -0.40976436583E+01 -0.95189236976E+01  0.21513267458E+01  0.10584365779E+02  0.51100000000E-03 0. -1.
        -11    1    3    3    0    0 -0.11475334957E+02 -0.30406202572E+02  0.33377129721E+01  0.32670488141E+02  0.51100000000E-03 0.  1.
        -12    1    3    3    0    0  0.68278422257E+00 -0.23968220653E+01 -0.14582790103E+01  0.28874777885E+01  0.00000000000E+00 0.  1.
</event>
<event>
 7    1  0.2297343E-008  0.4614232E+02  0.7816164E-02  0.1320468E+00
        -11   -1    0    0    0    0  0.00000000000E+00  0.00000000000E+00  0.45593999997E+02  0.45594000000E+02  0.51100000000E-03 0. -1.
         11   -1    0    0    0    0 -0.00000000000E+00 -0.00000000000E+00 -0.45593999997E+02  0.45594000000E+02  0.51100000000E-03 0.  1.
    9900012    2    1    2    0    0  0.13431055112E+01 -0.55298431461E+00 -0.45022258824E+02  0.46142317480E+02  0.99999974406E+01 0.  0.
         12    1    1    2    0    0 -0.13431055112E+01  0.55298431461E+00  0.45022258824E+02  0.45045682520E+02  0.00000000000E+00 0. -1.
         11    1    3    3    0    0  0.17882098877E+01 -0.57838921463E+00 -0.12609955610E+02  0.12749243484E+02  0.51100000000E-03 0. -1.
        -11    1    3    3    0    0  0.16713849323E+01  0.29608913863E+01 -0.77009836445E+01  0.84181681349E+01  0.51100000000E-03 0.  1.
        -12    1    3    3    0    0 -0.21164893088E+01 -0.29354864863E+01 -0.24711319570E+02  0.24974905861E+02  0.00000000000E+00 0.  1.
</event>
<event>
 7    1  0.2297343E-008  0.4614232E+02  0.7816164E-02  0.1320468E+00
        -11   -1    0    0    0    0  0.00000000000E+00  0.00000000000E+00  0.45593999997E+02  0.45594000000E+02  0.51100000000E-03 0. -1.
         11   -1    0    0    0    0 -0.00000000000E+00 -0.00000000000E+00 -0.45593999997E+02  0.45594000000E+02  0.51100000000E-03 0.  1.
    9900012    2    1    2    0    0  0.28837182367E+02 -0.32059061256E+02  0.13028697599E+02  0.46142318113E+02  0.10000003212E+02 0.  0.
         12    1    1    2    0    0 -0.28837182367E+02  0.32059061256E+02 -0.13028697599E+02  0.45045681887E+02  0.00000000000E+00 0. -1.
         11    1    3    3    0    0  0.22166336774E+01 -0.21176851286E+01  0.29200476368E+01  0.42337611678E+01  0.51100000000E-03 0. -1.
        -11    1    3    3    0    0  0.61676307159E+01 -0.40130215490E+01 -0.45741851116E-01  0.73584035754E+01  0.51100000000E-03 0.  1.
        -12    1    3    3    0    0  0.20452917974E+02 -0.25928354579E+02  0.10154391814E+02  0.34550153370E+02  0.00000000000E+00 0.  1.
</event>
<event>
 7    1  0.2297343E-008  0.4614232E+02  0.7816164E-02  0.1320468E+00
        -11   -1    0    0    0    0  0.00000000000E+00  0.00000000000E+00  0.45593999997E+02  0.45594000000E+02  0.51100000000E-03 0.  1.
         11   -1    0    0    0    0 -0.00000000000E+00 -0.00000000000E+00 -0.45593999997E+02  0.45594000000E+02  0.51100000000E-03 0. -1.
    9900012    2    1    2    0    0 -0.13299859544E+02 -0.42742879154E+02 -0.50272542370E+01  0.46142320214E+02  0.10000022366E+02 0.  0.
         12    1    1    2    0    0  0.13299859544E+02  0.42742879154E+02  0.50272542370E+01  0.45045679786E+02  0.00000000000E+00 0. -1.
         11    1    3    3    0    0 -0.20965036530E+01 -0.32291928454E+01  0.30102287783E+00  0.38618168048E+01  0.51100000000E-03 0. -1.
        -11    1    3    3    0    0 -0.88746861744E+01 -0.19881731890E+02  0.12387318027E+00  0.21772888243E+02  0.51100000000E-03 0.  1.
        -12    1    3    3    0    0 -0.23286697162E+01 -0.19631954418E+02 -0.54521502951E+01  0.20507615166E+02  0.00000000000E+00 0.  1.
</event>
<event>
 7    1  0.2297343E-008  0.4614232E+02  0.7816164E-02  0.1320468E+00
        -11   -1    0    0    0    0  0.00000000000E+00  0.00000000000E+00  0.45593999997E+02  0.45594000000E+02  0.51100000000E-03 0. -1.
         11   -1    0    0    0    0 -0.00000000000E+00 -0.00000000000E+00 -0.45593999997E+02  0.45594000000E+02  0.51100000000E-03 0.  1.
    9900012    2    1    2    0    0 -0.13246673743E+02 -0.42911542840E+02 -0.34983698363E+01  0.46142318013E+02  0.10000002299E+02 0.  0.
         12    1    1    2    0    0  0.13246673743E+02  0.42911542840E+02  0.34983698363E+01  0.45045681987E+02  0.00000000000E+00 0. -1.
         11    1    3    3    0    0  0.20939119967E+00 -0.22986840366E+00 -0.79905380637E+00  0.85742136905E+00  0.51100000000E-03 0. -1.
        -11    1    3    3    0    0 -0.19213847536E+01 -0.15416501220E+02 -0.20739105153E+01  0.15673587156E+02  0.51100000000E-03 0.  1.
         12    1    3    3    0    0 -0.11534680189E+02 -0.27265173216E+02 -0.62540551467E+00  0.29611309489E+02  0.00000000000E+00 0. -1.
</event>
<event>
 7    1  0.2297343E-008  0.4614232E+02  0.7816164E-02  0.1320468E+00
        -11   -1    0    0    0    0  0.00000000000E+00  0.00000000000E+00  0.45593999997E+02  0.45594000000E+02  0.51100000000E-03 0. -1.
         11   -1    0    0    0    0 -0.00000000000E+00 -0.00000000000E+00 -0.45593999997E+02  0.45594000000E+02  0.51100000000E-03 0.  1.
    9900012    2    1    2    0    0 -0.94018806804E+01  0.33753544161E+02 -0.28309298737E+02  0.46142317646E+02  0.99999989510E+01 0.  0.
         12    1    1    2    0    0  0.94018806804E+01 -0.33753544161E+02  0.28309298737E+02  0.45045682354E+02  0.00000000000E+00 0. -1.
         11    1    3    3    0    0 -0.19516894271E+01  0.16790355521E+01 -0.39757557204E+01  0.47365478795E+01  0.51100000000E-03 0. -1.
        -11    1    3    3    0    0 -0.16437294822E+00  0.83412454726E+01 -0.87696440800E+01  0.12104133676E+02  0.51100000000E-03 0.  1.
        -12    1    3    3    0    0 -0.72858183051E+01  0.23733263136E+02 -0.15563898937E+02  0.29301636090E+02  0.00000000000E+00 0.  1.
</event>
<event>
 7    1  0.2297343E-008  0.4614232E+02  0.7816164E-02  0.1320468E+00
        -11   -1    0    0    0    0  0.00000000000E+00  0.00000000000E+00  0.45593999997E+02  0.45594000000E+02  0.51100000000E-03 0.  1.
         11   -1    0    0    0    0 -0.00000000000E+00 -0.00000000000E+00 -0.45593999997E+02  0.45594000000E+02  0.51100000000E-03 0. -1.
    9900012    2    1    2    0    0  0.34034208982E+02 -0.25576569318E+02  0.14718199028E+02  0.46142315837E+02  0.99999824536E+01 0.  0.
         12    1    1    2    0    0 -0.34034208982E+02  0.25576569318E+02 -0.14718199028E+02  0.45045684163E+02  0.00000000000E+00 0. -1.
         11    1    3    3    0    0 -0.30220023755E+00  0.35384623623E+00  0.16773090220E+00  0.49463730060E+00  0.51100000000E-03 0. -1.
        -11    1    3    3    0    0  0.19832798221E+02 -0.17733332676E+02  0.87288060762E+01  0.28000054086E+02  0.51100000000E-03 0.  1.
         12    1    3    3    0    0  0.14503610998E+02 -0.81970828787E+01  0.58216620500E+01  0.17647624450E+02  0.00000000000E+00 0. -1.
</event>
<event>
 7    1  0.2297343E-008  0.4614232E+02  0.7816164E-02  0.1320468E+00
        -11   -1    0    0    0    0  0.00000000000E+00  0.00000000000E+00  0.45593999997E+02  0.45594000000E+02  0.51100000000E-03 0.  1.
         11   -1    0    0    0    0 -0.00000000000E+00 -0.00000000000E+00 -0.45593999997E+02  0.45594000000E+02  0.51100000000E-03 0. -1.
    9900012    2    1    2    0    0 -0.51327027202E+01  0.38108328815E+01  0.44589751336E+02  0.46142323085E+02  0.10000048549E+02 0.  0.
         12    1    1    2    0    0  0.51327027202E+01 -0.38108328815E+01 -0.44589751336E+02  0.45045676915E+02  0.00000000000E+00 0. -1.
         11    1    3    3    0    0 -0.20412194264E+01 -0.61136889882E+00  0.10260340963E+02  0.10479262647E+02  0.51100000000E-03 0. -1.
        -11    1    3    3    0    0 -0.57445868608E+01  0.22082929046E+01  0.23702009278E+02  0.24487998689E+02  0.51100000000E-03 0.  1.
         12    1    3    3    0    0  0.26531035670E+01  0.22139088757E+01  0.10627401096E+02  0.11175061749E+02  0.00000000000E+00 0. -1.
</event>
<event>
 7    1  0.2297343E-008  0.4614232E+02  0.7816164E-02  0.1320468E+00
        -11   -1    0    0    0    0  0.00000000000E+00  0.00000000000E+00  0.45593999997E+02  0.45594000000E+02  0.51100000000E-03 0.  1.
         11   -1    0    0    0    0 -0.00000000000E+00 -0.00000000000E+00 -0.45593999997E+02  0.45594000000E+02  0.51100000000E-03 0. -1.
    9900012    2    1    2    0    0 -0.29610105260E+02  0.11165113401E+01  0.33927991130E+02  0.46142317485E+02  0.99999974832E+01 0.  0.
         12    1    1    2    0    0  0.29610105260E+02 -0.11165113401E+01 -0.33927991130E+02  0.45045682515E+02  0.00000000000E+00 0. -1.
         11    1    3    3    0    0 -0.90107587085E+01 -0.83037431513E-01  0.16906241452E+02  0.19157809583E+02  0.51100000000E-03 0. -1.
        -11    1    3    3    0    0 -0.11448423474E+02 -0.41283347740E+00  0.11190088715E+02  0.16014209853E+02  0.51100000000E-03 0.  1.
         12    1    3    3    0    0 -0.91509230772E+01  0.16123822490E+01  0.58316609638E+01  0.10970298049E+02  0.00000000000E+00 0. -1.
</event>
<event>
 7    1  0.2297343E-008  0.4614232E+02  0.7816164E-02  0.1320468E+00
        -11   -1    0    0    0    0  0.00000000000E+00  0.00000000000E+00  0.45593999997E+02  0.45594000000E+02  0.51100000000E-03 0.  1.
         11   -1    0    0    0    0 -0.00000000000E+00 -0.00000000000E+00 -0.45593999997E+02  0.45594000000E+02  0.51100000000E-03 0. -1.
    9900012    2    1    2    0    0  0.37617065555E+02  0.90326186640E+01  0.23075553545E+02  0.46142323268E+02  0.10000050213E+02 0.  0.
         12    1    1    2    0    0 -0.37617065555E+02 -0.90326186640E+01 -0.23075553545E+02  0.45045676732E+02  0.00000000000E+00 0. -1.
         11    1    3    3    0    0  0.23976330575E+02  0.73456177691E+01  0.11322030454E+02  0.27513831106E+02  0.51100000000E-03 0. -1.
        -11    1    3    3    0    0  0.38453086320E+01 -0.15204766689E+01  0.30505028984E+01  0.51384643591E+01  0.51100000000E-03 0.  1.
        -12    1    3    3    0    0  0.97954263481E+01  0.32074775638E+01  0.87030201919E+01  0.13490027803E+02  0.00000000000E+00 0.  1.
</event>
<event>
 7    1  0.2297343E-008  0.4614232E+02  0.7816164E-02  0.1320468E+00
        -11   -1    0    0    0    0  0.00000000000E+00  0.00000000000E+00  0.45593999997E+02  0.45594000000E+02  0.51100000000E-03 0.  1.
         11   -1    0    0    0    0 -0.00000000000E+00 -0.00000000000E+00 -0.45593999997E+02  0.45594000000E+02  0.51100000000E-03 0. -1.
    9900012    2    1    2    0    0 -0.10243806894E+02 -0.85049931850E+01  0.43033045475E+02  0.46142317725E+02  0.99999996718E+01 0.  0.
         12    1    1    2    0    0  0.10243806894E+02  0.85049931850E+01 -0.43033045475E+02  0.45045682275E+02  0.00000000000E+00 0. -1.
         11    1    3    3    0    0 -0.14426618840E+01  0.92388850804E+00  0.87653048795E+01  0.89311484804E+01  0.51100000000E-03 0. -1.
        -11    1    3    3    0    0 -0.48188959581E+01 -0.64962030101E+00  0.11799281734E+02  0.12761928322E+02  0.51100000000E-03 0.  1.
        -12    1    3    3    0    0 -0.39822490522E+01 -0.87792613920E+01  0.22468458861E+02  0.24449240923E+02  0.00000000000E+00 0.  1.
</event>
<event>
 7    1  0.2297343E-008  0.4614232E+02  0.7816164E-02  0.1320468E+00
        -11   -1    0    0    0    0  0.00000000000E+00  0.00000000000E+00  0.45593999997E+02  0.45594000000E+02  0.51100000000E-03 0.  1.
         11   -1    0    0    0    0 -0.00000000000E+00 -0.00000000000E+00 -0.45593999997E+02  0.45594000000E+02  0.51100000000E-03 0. -1.
    9900012    2    1    2    0    0 -0.30755833862E+02 -0.17940039007E+02  0.27592521733E+02  0.46142316836E+02  0.99999915654E+01 0.  0.
         12    1    1    2    0    0  0.30755833862E+02  0.17940039007E+02 -0.27592521733E+02  0.45045683164E+02  0.00000000000E+00 0. -1.
         11    1    3    3    0    0 -0.13322008813E+02 -0.10882362297E+02  0.10948328821E+02  0.20390380875E+02  0.51100000000E-03 0. -1.
        -11    1    3    3    0    0 -0.16213073210E+02 -0.55768041464E+01  0.12605946712E+02  0.21280845382E+02  0.51100000000E-03 0.  1.
         12    1    3    3    0    0 -0.12207518392E+01 -0.14808725631E+01  0.40382461995E+01  0.44710905794E+01  0.00000000000E+00 0. -1.
</event>
<event>
 7    1  0.2297343E-008  0.4614232E+02  0.7816164E-02  0.1320468E+00
        -11   -1    0    0    0    0  0.00000000000E+00  0.00000000000E+00  0.45593999997E+02  0.45594000000E+02  0.51100000000E-03 0. -1.
         11   -1    0    0    0    0 -0.00000000000E+00 -0.00000000000E+00 -0.45593999997E+02  0.45594000000E+02  0.51100000000E-03 0.  1.
    9900012    2    1    2    0    0 -0.19222256286E+02  0.26993433501E+02 -0.30511849454E+02  0.46142317121E+02  0.99999941630E+01 0.  0.
         12    1    1    2    0    0  0.19222256286E+02 -0.26993433501E+02  0.30511849454E+02  0.45045682879E+02  0.00000000000E+00 0. -1.
         11    1    3    3    0    0 -0.75717230457E+01  0.76796585672E+01 -0.49300231719E+01  0.11858046817E+02  0.51100000000E-03 0. -1.
        -11    1    3    3    0    0 -0.24670778039E+01  0.47106679501E+01 -0.39934529313E+01  0.66501527804E+01  0.51100000000E-03 0.  1.
        -12    1    3    3    0    0 -0.91834554366E+01  0.14603106984E+02 -0.21588373351E+02  0.27634117523E+02  0.00000000000E+00 0.  1.
</event>
<event>
 7    1  0.2297343E-008  0.4614232E+02  0.7816164E-02  0.1320468E+00
        -11   -1    0    0    0    0  0.00000000000E+00  0.00000000000E+00  0.45593999997E+02  0.45594000000E+02  0.51100000000E-03 0.  1.
         11   -1    0    0    0    0 -0.00000000000E+00 -0.00000000000E+00 -0.45593999997E+02  0.45594000000E+02  0.51100000000E-03 0. -1.
    9900012    2    1    2    0    0 -0.39728067120E+02 -0.13112350250E+02 -0.16699117465E+02  0.46142316852E+02  0.99999917134E+01 0.  0.
         12    1    1    2    0    0  0.39728067120E+02  0.13112350250E+02  0.16699117465E+02  0.45045683148E+02  0.00000000000E+00 0. -1.
         11    1    3    3    0    0 -0.84821327127E+01 -0.14633431311E+01 -0.22725032466E+01  0.89023715796E+01  0.51100000000E-03 0. -1.
        -11    1    3    3    0    0 -0.26534093173E+02 -0.67351040592E+01 -0.10130597571E+02  0.29189873837E+02  0.51100000000E-03 0.  1.
         12    1    3    3    0    0 -0.47118412340E+01 -0.49139030593E+01 -0.42960166474E+01  0.80500714360E+01  0.00000000000E+00 0. -1.
</event>
<event>
 7    1  0.2297343E-008  0.4614232E+02  0.7816164E-02  0.1320468E+00
        -11   -1    0    0    0    0  0.00000000000E+00  0.00000000000E+00  0.45593999997E+02  0.45594000000E+02  0.51100000000E-03 0. -1.
         11   -1    0    0    0    0 -0.00000000000E+00 -0.00000000000E+00 -0.45593999997E+02  0.45594000000E+02  0.51100000000E-03 0.  1.
    9900012    2    1    2    0    0  0.20689033298E+02 -0.40002796422E+02  0.92400313183E+00  0.46142316498E+02  0.99999884841E+01 0.  0.
         12    1    1    2    0    0 -0.20689033298E+02  0.40002796422E+02 -0.92400313183E+00  0.45045683502E+02  0.00000000000E+00 0. -1.
         11    1    3    3    0    0 -0.42525407923E+00 -0.88352485879E+00  0.28629054004E+00  0.10214791933E+01  0.51100000000E-03 0. -1.
        -11    1    3    3    0    0  0.10779876003E+02 -0.15209429389E+02  0.33196046645E+01  0.18935475815E+02  0.51100000000E-03 0.  1.
         12    1    3    3    0    0  0.10334411374E+02 -0.23909842174E+02 -0.26818920728E+01  0.26185361490E+02  0.00000000000E+00 0. -1.
</event>
<event>
 7    1  0.2297343E-008  0.4614232E+02  0.7816164E-02  0.1320468E+00
        -11   -1    0    0    0    0  0.00000000000E+00  0.00000000000E+00  0.45593999997E+02  0.45594000000E+02  0.51100000000E-03 0.  1.
         11   -1    0    0    0    0 -0.00000000000E+00 -0.00000000000E+00 -0.45593999997E+02  0.45594000000E+02  0.51100000000E-03 0. -1.
    9900012    2    1    2    0    0  0.41462232635E+02  0.15913140342E+02  0.75344972044E+01  0.46142318534E+02  0.10000007048E+02 0.  0.
         12    1    1    2    0    0 -0.41462232635E+02 -0.15913140342E+02 -0.75344972044E+01  0.45045681466E+02  0.00000000000E+00 0. -1.
         11    1    3    3    0    0  0.10248638012E+01 -0.17645958840E+00  0.16216223419E+01  0.19264327339E+01  0.51100000000E-03 0. -1.
        -11    1    3    3    0    0  0.38406597938E+01  0.39241637408E+00 -0.46031921899E+00  0.38880010683E+01  0.51100000000E-03 0.  1.
         12    1    3    3    0    0  0.36596709040E+02  0.15697183556E+02  0.63731940815E+01  0.40327884732E+02  0.00000000000E+00 0. -1.
</event>
<event>
 7    1  0.2297343E-008  0.4614232E+02  0.7816164E-02  0.1320468E+00
        -11   -1    0    0    0    0  0.00000000000E+00  0.00000000000E+00  0.45593999997E+02  0.45594000000E+02  0.51100000000E-03 0.  1.
         11   -1    0    0    0    0 -0.00000000000E+00 -0.00000000000E+00 -0.45593999997E+02  0.45594000000E+02  0.51100000000E-03 0. -1.
    9900012    2    1    2    0    0 -0.32674627679E+01  0.16506310032E+01  0.44896688628E+02  0.46142317128E+02  0.99999942305E+01 0.  0.
         12    1    1    2    0    0  0.32674627679E+01 -0.16506310032E+01 -0.44896688628E+02  0.45045682872E+02  0.00000000000E+00 0. -1.
         11    1    3    3    0    0  0.61342886519E+00  0.25883645696E+01  0.33072856104E+01  0.42442978792E+01  0.51100000000E-03 0. -1.
        -11    1    3    3    0    0  0.79704264643E-01 -0.89791891371E+00  0.39895269981E+01  0.40901023306E+01  0.51100000000E-03 0.  1.
        -12    1    3    3    0    0 -0.39605958978E+01 -0.39814652644E-01  0.37599876019E+02  0.37807916919E+02  0.00000000000E+00 0.  1.
</event>
<event>
 7    1  0.2297343E-008  0.4614232E+02  0.7816164E-02  0.1320468E+00
        -11   -1    0    0    0    0  0.00000000000E+00  0.00000000000E+00  0.45593999997E+02  0.45594000000E+02  0.51100000000E-03 0.  1.
         11   -1    0    0    0    0 -0.00000000000E+00 -0.00000000000E+00 -0.45593999997E+02  0.45594000000E+02  0.51100000000E-03 0. -1.
    9900012    2    1    2    0    0  0.25459996544E+02 -0.21676894120E+02  0.30183016337E+02  0.46142316101E+02  0.99999848612E+01 0.  0.
         12    1    1    2    0    0 -0.25459996544E+02  0.21676894120E+02 -0.30183016337E+02  0.45045683899E+02  0.00000000000E+00 0. -1.
         11    1    3    3    0    0 -0.42347866569E+00 -0.20564282964E-01  0.15338397301E+01  0.15913584288E+01  0.51100000000E-03 0. -1.
        -11    1    3    3    0    0  0.19858773128E+02 -0.18995941912E+02  0.24042162843E+02  0.36513590260E+02  0.51100000000E-03 0.  1.
        -12    1    3    3    0    0  0.60247020824E+01 -0.26603879253E+01  0.46070137637E+01  0.80373674118E+01  0.00000000000E+00 0.  1.
</event>
<event>
 7    1  0.2297343E-008  0.4614232E+02  0.7816164E-02  0.1320468E+00
        -11   -1    0    0    0    0  0.00000000000E+00  0.00000000000E+00  0.45593999997E+02  0.45594000000E+02  0.51100000000E-03 0.  1.
         11   -1    0    0    0    0 -0.00000000000E+00 -0.00000000000E+00 -0.45593999997E+02  0.45594000000E+02  0.51100000000E-03 0. -1.
    9900012    2    1    2    0    0  0.14015533759E+02  0.13451698594E+02  0.40641483076E+02  0.46142317318E+02  0.99999959621E+01 0.  0.
         12    1    1    2    0    0 -0.14015533759E+02 -0.13451698594E+02 -0.40641483076E+02  0.45045682682E+02  0.00000000000E+00 0. -1.
         11    1    3    3    0    0  0.63183124870E+01  0.52093269955E+01  0.16590200186E+02  0.18501159502E+02  0.51100000000E-03 0. -1.
        -11    1    3    3    0    0  0.63088774084E+01  0.27497191921E+01  0.18374425139E+02  0.19620968101E+02  0.51100000000E-03 0.  1.
         12    1    3    3    0    0  0.13883438640E+01  0.54926524061E+01  0.56768577510E+01  0.80201897150E+01  0.00000000000E+00 0. -1.
</event>
<event>
 7    1  0.2297343E-008  0.4614232E+02  0.7816164E-02  0.1320468E+00
        -11   -1    0    0    0    0  0.00000000000E+00  0.00000000000E+00  0.45593999997E+02  0.45594000000E+02  0.51100000000E-03 0.  1.
         11   -1    0    0    0    0 -0.00000000000E+00 -0.00000000000E+00 -0.45593999997E+02  0.45594000000E+02  0.51100000000E-03 0. -1.
    9900012    2    1    2    0    0  0.19931397944E+02 -0.19703168092E+02  0.35265252963E+02  0.46142317372E+02  0.99999964531E+01 0.  0.
         12    1    1    2    0    0 -0.19931397944E+02  0.19703168092E+02 -0.35265252963E+02  0.45045682628E+02  0.00000000000E+00 0. -1.
         11    1    3    3    0    0  0.20563459779E+01 -0.28661464077E+01  0.12508319249E+01  0.37427175657E+01  0.51100000000E-03 0. -1.
        -11    1    3    3    0    0  0.10595228348E+02 -0.12462830298E+02  0.18362174643E+02  0.24591674621E+02  0.51100000000E-03 0.  1.
        -12    1    3    3    0    0  0.72798236184E+01 -0.43741913862E+01  0.15652246395E+02  0.17807925186E+02  0.00000000000E+00 0.  1.
</event>
<event>
 7    1  0.2297343E-008  0.4614232E+02  0.7816164E-02  0.1320468E+00
        -11   -1    0    0    0    0  0.00000000000E+00  0.00000000000E+00  0.45593999997E+02  0.45594000000E+02  0.51100000000E-03 0.  1.
         11   -1    0    0    0    0 -0.00000000000E+00 -0.00000000000E+00 -0.45593999997E+02  0.45594000000E+02  0.51100000000E-03 0. -1.
    9900012    2    1    2    0    0  0.41965969953E+02 -0.89140265722E+01  0.13729931055E+02  0.46142317514E+02  0.99999977510E+01 0.  0.
         12    1    1    2    0    0 -0.41965969953E+02  0.89140265722E+01 -0.13729931055E+02  0.45045682486E+02  0.00000000000E+00 0. -1.
         11    1    3    3    0    0  0.10952154156E+02 -0.15048781773E+01  0.46591322053E+01  0.11996743398E+02  0.51100000000E-03 0. -1.
        -11    1    3    3    0    0  0.29735233368E+02 -0.52654278899E+01  0.94020374158E+01  0.31627632573E+02  0.51100000000E-03 0.  1.
         12    1    3    3    0    0  0.12785824288E+01 -0.21437205050E+01 -0.33123856656E+00  0.25179415439E+01  0.00000000000E+00 0. -1.
</event>
<event>
 7    1  0.2297343E-008  0.4614232E+02  0.7816164E-02  0.1320468E+00
        -11   -1    0    0    0    0  0.00000000000E+00  0.00000000000E+00  0.45593999997E+02  0.45594000000E+02  0.51100000000E-03 0.  1.
         11   -1    0    0    0    0 -0.00000000000E+00 -0.00000000000E+00 -0.45593999997E+02  0.45594000000E+02  0.51100000000E-03 0. -1.
    9900012    2    1    2    0    0  0.15693489152E+02  0.23920510350E+02  0.34794208165E+02  0.46142319419E+02  0.10000015116E+02 0.  0.
         12    1    1    2    0    0 -0.15693489152E+02 -0.23920510350E+02 -0.34794208165E+02  0.45045680581E+02  0.00000000000E+00 0. -1.
         11    1    3    3    0    0  0.77640851483E+00  0.13549986063E+01  0.93323527601E+00  0.18192745110E+01  0.51100000000E-03 0. -1.
        -11    1    3    3    0    0  0.15694474611E+02  0.17922649548E+02  0.27069769705E+02  0.36059816032E+02  0.51100000000E-03 0.  1.
         12    1    3    3    0    0 -0.77739397383E+00  0.46428621961E+01  0.67912031843E+01  0.82632288757E+01  0.00000000000E+00 0. -1.
</event>
<event>
 7    1  0.2297343E-008  0.4614232E+02  0.7816164E-02  0.1320468E+00
        -11   -1    0    0    0    0  0.00000000000E+00  0.00000000000E+00  0.45593999997E+02  0.45594000000E+02  0.51100000000E-03 0.  1.
         11   -1    0    0    0    0 -0.00000000000E+00 -0.00000000000E+00 -0.45593999997E+02  0.45594000000E+02  0.51100000000E-03 0. -1.
    9900012    2    1    2    0    0 -0.18916240241E+02 -0.13788651836E+02  0.38485873831E+02  0.46142317090E+02  0.99999938796E+01 0.  0.
         12    1    1    2    0    0  0.18916240241E+02  0.13788651836E+02 -0.38485873831E+02  0.45045682910E+02  0.00000000000E+00 0. -1.
         11    1    3    3    0    0 -0.36876485965E+01 -0.14371184354E+00  0.62352903587E+01  0.72455677061E+01  0.51100000000E-03 0. -1.
        -11    1    3    3    0    0 -0.17691352189E+01  0.55361966343E+00  0.12390050892E+01  0.22296789066E+01  0.51100000000E-03 0.  1.
        -12    1    3    3    0    0 -0.13459456425E+02 -0.14198559656E+02  0.31011578383E+02  0.36667070477E+02  0.00000000000E+00 0.  1.
</event>
<event>
 7    1  0.2297343E-008  0.4614232E+02  0.7816164E-02  0.1320468E+00
        -11   -1    0    0    0    0  0.00000000000E+00  0.00000000000E+00  0.45593999997E+02  0.45594000000E+02  0.51100000000E-03 0.  1.
         11   -1    0    0    0    0 -0.00000000000E+00 -0.00000000000E+00 -0.45593999997E+02  0.45594000000E+02  0.51100000000E-03 0. -1.
    9900012    2    1    2    0    0 -0.72226637608E+01 -0.96223324284E+01  0.43409185209E+02  0.46142317481E+02  0.99999974418E+01 0.  0.
         12    1    1    2    0    0  0.72226637608E+01  0.96223324284E+01 -0.43409185209E+02  0.45045682519E+02  0.00000000000E+00 0. -1.
         11    1    3    3    0    0 -0.15492184802E+01 -0.33069938838E+00  0.22585198147E+01  0.27586866439E+01  0.51100000000E-03 0. -1.
        -11    1    3    3    0    0 -0.26064063534E+01 -0.16997428848E+01  0.28568801503E+01  0.42242448329E+01  0.51100000000E-03 0.  1.
        -12    1    3    3    0    0 -0.30670389273E+01 -0.75918901552E+01  0.38293785244E+02  0.39159386004E+02  0.00000000000E+00 0.  1.
</event>
<event>
 7    1  0.2297343E-008  0.4614232E+02  0.7816164E-02  0.1320468E+00
        -11   -1    0    0    0    0  0.00000000000E+00  0.00000000000E+00  0.45593999997E+02  0.45594000000E+02  0.51100000000E-03 0.  1.
         11   -1    0    0    0    0 -0.00000000000E+00 -0.00000000000E+00 -0.45593999997E+02  0.45594000000E+02  0.51100000000E-03 0. -1.
    9900012    2    1    2    0    0  0.23899157992E+02  0.55289040858E+01  0.37780614783E+02  0.46142318891E+02  0.10000010307E+02 0.  0.
         12    1    1    2    0    0 -0.23899157992E+02 -0.55289040858E+01 -0.37780614783E+02  0.45045681109E+02  0.00000000000E+00 0. -1.
         11    1    3    3    0    0  0.96345561148E+01  0.12834523823E+00  0.17270061837E+02  0.19776151803E+02  0.51100000000E-03 0. -1.
        -11    1    3    3    0    0  0.13480960635E+02  0.63813172911E+01  0.16883398536E+02  0.22527908389E+02  0.51100000000E-03 0.  1.
        -12    1    3    3    0    0  0.78364124211E+00 -0.98075844349E+00  0.36271544102E+01  0.38382586985E+01  0.00000000000E+00 0.  1.
</event>
<event>
 7    1  0.2297343E-008  0.4614232E+02  0.7816164E-02  0.1320468E+00
        -11   -1    0    0    0    0  0.00000000000E+00  0.00000000000E+00  0.45593999997E+02  0.45594000000E+02  0.51100000000E-03 0. -1.
         11   -1    0    0    0    0 -0.00000000000E+00 -0.00000000000E+00 -0.45593999997E+02  0.45594000000E+02  0.51100000000E-03 0.  1.
    9900012    2    1    2    0    0 -0.25939943522E+01  0.15206486783E+01 -0.44945215770E+02  0.46142316525E+02  0.99999887325E+01 0.  0.
         12    1    1    2    0    0  0.25939943522E+01 -0.15206486783E+01  0.44945215770E+02  0.45045683475E+02  0.00000000000E+00 0. -1.
         11    1    3    3    0    0 -0.12638089179E+01  0.16976472024E+01 -0.19595536140E+01  0.28842797424E+01  0.51100000000E-03 0. -1.
        -11    1    3    3    0    0  0.87971828754E+00 -0.79467604895E+00 -0.33067961946E+01  0.35128785379E+01  0.51100000000E-03 0.  1.
        -12    1    3    3    0    0 -0.22099037218E+01  0.61767752483E+00 -0.39678865961E+02  0.39745158245E+02  0.00000000000E+00 0.  1.
</event>
<event>
 7    1  0.2297343E-008  0.4614232E+02  0.7816164E-02  0.1320468E+00
        -11   -1    0    0    0    0  0.00000000000E+00  0.00000000000E+00  0.45593999997E+02  0.45594000000E+02  0.51100000000E-03 0.  1.
         11   -1    0    0    0    0 -0.00000000000E+00 -0.00000000000E+00 -0.45593999997E+02  0.45594000000E+02  0.51100000000E-03 0. -1.
    9900012    2    1    2    0    0 -0.24728002928E+02  0.25774687546E+02  0.27446403231E+02  0.46142315442E+02  0.99999788568E+01 0.  0.
         12    1    1    2    0    0  0.24728002928E+02 -0.25774687546E+02 -0.27446403231E+02  0.45045684558E+02  0.00000000000E+00 0. -1.
         11    1    3    3    0    0 -0.48712912351E+00  0.35626231138E+00 -0.74735532031E-01  0.60811452733E+00  0.51100000000E-03 0. -1.
        -11    1    3    3    0    0 -0.19055012244E+02  0.17557003539E+02  0.24458602390E+02  0.35630956989E+02  0.51100000000E-03 0.  1.
        -12    1    3    3    0    0 -0.51858615610E+01  0.78614216960E+01  0.30625363739E+01  0.99032439258E+01  0.00000000000E+00 0.  1.
</event>
<event>
 7    1  0.2297343E-008  0.4614232E+02  0.7816164E-02  0.1320468E+00
        -11   -1    0    0    0    0  0.00000000000E+00  0.00000000000E+00  0.45593999997E+02  0.45594000000E+02  0.51100000000E-03 0.  1.
         11   -1    0    0    0    0 -0.00000000000E+00 -0.00000000000E+00 -0.45593999997E+02  0.45594000000E+02  0.51100000000E-03 0. -1.
    9900012    2    1    2    0    0 -0.43821763915E+02 -0.53644751352E+01  0.89436509726E+01  0.46142317868E+02  0.10000000970E+02 0.  0.
         12    1    1    2    0    0  0.43821763915E+02  0.53644751352E+01 -0.89436509726E+01  0.45045682132E+02  0.00000000000E+00 0. -1.
         11    1    3    3    0    0 -0.32594736736E+02 -0.14236931875E+01  0.85085690886E+01  0.33717050781E+02  0.51100000000E-03 0. -1.
        -11    1    3    3    0    0 -0.10173274829E+02 -0.26871555189E+01  0.12497720405E+01  0.10596143447E+02  0.51100000000E-03 0.  1.
        -12    1    3    3    0    0 -0.10537523488E+01 -0.12536264288E+01 -0.81469015640E+00  0.18291236389E+01  0.00000000000E+00 0.  1.
</event>
<event>
 7    1  0.2297343E-008  0.4614232E+02  0.7816164E-02  0.1320468E+00
        -11   -1    0    0    0    0  0.00000000000E+00  0.00000000000E+00  0.45593999997E+02  0.45594000000E+02  0.51100000000E-03 0.  1.
         11   -1    0    0    0    0 -0.00000000000E+00 -0.00000000000E+00 -0.45593999997E+02  0.45594000000E+02  0.51100000000E-03 0. -1.
    9900012    2    1    2    0    0 -0.20509632336E+01  0.41008445062E+02 -0.18526039956E+02  0.46142321261E+02  0.10000031919E+02 0.  0.
         12    1    1    2    0    0  0.20509632336E+01 -0.41008445062E+02  0.18526039956E+02  0.45045678739E+02  0.00000000000E+00 0. -1.
         11    1    3    3    0    0  0.37764659984E+00  0.90887967517E+01 -0.81322432019E+01  0.12201730332E+02  0.51100000000E-03 0. -1.
        -11    1    3    3    0    0 -0.23238745243E+01  0.31440646946E+02 -0.10777800914E+02  0.33317798037E+02  0.51100000000E-03 0.  1.
        -12    1    3    3    0    0 -0.10473530911E+00  0.47900136388E+00  0.38400416045E+00  0.62279289240E+00  0.00000000000E+00 0.  1.
</event>
<event>
 7    1  0.2297343E-008  0.4614232E+02  0.7816164E-02  0.1320468E+00
        -11   -1    0    0    0    0  0.00000000000E+00  0.00000000000E+00  0.45593999997E+02  0.45594000000E+02  0.51100000000E-03 0.  1.
         11   -1    0    0    0    0 -0.00000000000E+00 -0.00000000000E+00 -0.45593999997E+02  0.45594000000E+02  0.51100000000E-03 0. -1.
    9900012    2    1    2    0    0  0.32508918111E+02  0.12903213532E+02  0.28386453277E+02  0.46142318677E+02  0.10000008356E+02 0.  0.
         12    1    1    2    0    0 -0.32508918111E+02 -0.12903213532E+02 -0.28386453277E+02  0.45045681323E+02  0.00000000000E+00 0. -1.
         11    1    3    3    0    0  0.13313048955E+02  0.73034338500E+01  0.10465287132E+02  0.18441790952E+02  0.51100000000E-03 0.  1.
        -11    1    3    3    0    0 -0.21074939463E+00 -0.33060800752E+00  0.16334465944E+01  0.16798407662E+01  0.51100000000E-03 0. -1.
         12    1    3    3    0    0  0.19406618550E+02  0.59303876891E+01  0.16287719550E+02  0.26020686959E+02  0.00000000000E+00 0. -1.
</event>
<event>
 7    1  0.2297343E-008  0.4614232E+02  0.7816164E-02  0.1320468E+00
        -11   -1    0    0    0    0  0.00000000000E+00  0.00000000000E+00  0.45593999997E+02  0.45594000000E+02  0.51100000000E-03 0.  1.
         11   -1    0    0    0    0 -0.00000000000E+00 -0.00000000000E+00 -0.45593999997E+02  0.45594000000E+02  0.51100000000E-03 0. -1.
    9900012    2    1    2    0    0 -0.34355331172E+02  0.15199350091E+02  0.24855672924E+02  0.46142317636E+02  0.99999988616E+01 0.  0.
         12    1    1    2    0    0  0.34355331172E+02 -0.15199350091E+02 -0.24855672924E+02  0.45045682364E+02  0.00000000000E+00 0. -1.
         11    1    3    3    0    0 -0.57893741294E+01  0.10063946981E+01  0.45179486711E+01  0.74122563066E+01  0.51100000000E-03 0. -1.
        -11    1    3    3    0    0 -0.13739843768E+02  0.26768360337E+01  0.66546661390E+01  0.15499462559E+02  0.51100000000E-03 0.  1.
         12    1    3    3    0    0 -0.14826113274E+02  0.11516119359E+02  0.13683058114E+02  0.23230598771E+02  0.00000000000E+00 0. -1.
</event>
<event>
 7    1  0.2297343E-008  0.4614232E+02  0.7816164E-02  0.1320468E+00
        -11   -1    0    0    0    0  0.00000000000E+00  0.00000000000E+00  0.45593999997E+02  0.45594000000E+02  0.51100000000E-03 0.  1.
         11   -1    0    0    0    0 -0.00000000000E+00 -0.00000000000E+00 -0.45593999997E+02  0.45594000000E+02  0.51100000000E-03 0. -1.
    9900012    2    1    2    0    0  0.26683606479E+02  0.29413838751E+02  0.21258521934E+02  0.46142317414E+02  0.99999968393E+01 0.  0.
         12    1    1    2    0    0 -0.26683606479E+02 -0.29413838751E+02 -0.21258521934E+02  0.45045682586E+02  0.00000000000E+00 0. -1.
         11    1    3    3    0    0  0.44877150422E+01  0.89930978754E+01  0.37458035017E+01  0.10725970345E+02  0.51100000000E-03 0. -1.
        -11    1    3    3    0    0  0.12569435505E+02  0.74206951119E+01  0.78392693301E+01  0.16568390651E+02  0.51100000000E-03 0.  1.
        -12    1    3    3    0    0  0.96264559318E+01  0.13000045764E+02  0.96734491018E+01  0.18847956419E+02  0.00000000000E+00 0.  1.
</event>
<event>
 7    1  0.2297343E-008  0.4614232E+02  0.7816164E-02  0.1320468E+00
        -11   -1    0    0    0    0  0.00000000000E+00  0.00000000000E+00  0.45593999997E+02  0.45594000000E+02  0.51100000000E-03 0. -1.
         11   -1    0    0    0    0 -0.00000000000E+00 -0.00000000000E+00 -0.45593999997E+02  0.45594000000E+02  0.51100000000E-03 0.  1.
    9900012    2    1    2    0    0  0.63394224404E+01  0.42228166135E+02 -0.14342494433E+02  0.46142318314E+02  0.10000005040E+02 0.  0.
         12    1    1    2    0    0 -0.63394224404E+01 -0.42228166135E+02  0.14342494433E+02  0.45045681686E+02  0.00000000000E+00 0. -1.
         11    1    3    3    0    0 -0.18627573545E+01  0.18225326212E+02 -0.46015135556E+01  0.18889317292E+02  0.51100000000E-03 0. -1.
        -11    1    3    3    0    0  0.27907172327E+01  0.80241560999E+01 -0.22108514292E+01  0.87785561508E+01  0.51100000000E-03 0.  1.
         12    1    3    3    0    0  0.54114625621E+01  0.15978683823E+02 -0.75301294478E+01  0.18474444871E+02  0.00000000000E+00 0. -1.
</event>
<event>
 7    1  0.2297343E-008  0.4614231E+02  0.7816164E-02  0.1320468E+00
        -11   -1    0    0    0    0  0.00000000000E+00  0.00000000000E+00  0.45593999997E+02  0.45594000000E+02  0.51100000000E-03 0. -1.
         11   -1    0    0    0    0 -0.00000000000E+00 -0.00000000000E+00 -0.45593999997E+02  0.45594000000E+02  0.51100000000E-03 0.  1.
    9900012    2    1    2    0    0 -0.36485496626E+02 -0.26358205253E+02  0.17798794111E+01  0.46142307432E+02  0.99999058082E+01 0.  0.
         12    1    1    2    0    0  0.36485496626E+02  0.26358205253E+02 -0.17798794111E+01  0.45045692568E+02  0.00000000000E+00 0. -1.
         11    1    3    3    0    0 -0.99309940343E+01 -0.45832518413E+01 -0.14578833920E+01  0.11034322099E+02  0.51100000000E-03 0. -1.
        -11    1    3    3    0    0 -0.15936842541E+02 -0.98872910071E+01  0.38970278173E+01  0.19155372607E+02  0.51100000000E-03 0.  1.
        -12    1    3    3    0    0 -0.10617660051E+02 -0.11887662405E+02 -0.65926501423E+00  0.15952612725E+02  0.00000000000E+00 0.  1.
</event>
<event>
 7    1  0.2297343E-008  0.4614232E+02  0.7816164E-02  0.1320468E+00
        -11   -1    0    0    0    0  0.00000000000E+00  0.00000000000E+00  0.45593999997E+02  0.45594000000E+02  0.51100000000E-03 0.  1.
         11   -1    0    0    0    0 -0.00000000000E+00 -0.00000000000E+00 -0.45593999997E+02  0.45594000000E+02  0.51100000000E-03 0. -1.
    9900012    2    1    2    0    0 -0.63480646325E+01  0.42711506791E+02  0.12827423266E+02  0.46142317359E+02  0.99999963323E+01 0.  0.
         12    1    1    2    0    0  0.63480646325E+01 -0.42711506791E+02 -0.12827423266E+02  0.45045682641E+02  0.00000000000E+00 0. -1.
         11    1    3    3    0    0  0.10940561068E+01  0.73202190857E+01  0.27192380486E+01  0.78852280914E+01  0.51100000000E-03 0. -1.
        -11    1    3    3    0    0 -0.60577944720E+01  0.21356822831E+02  0.94850011745E+01  0.24140753983E+02  0.51100000000E-03 0.  1.
        -12    1    3    3    0    0 -0.13843262674E+01  0.14034464874E+02  0.62318404292E+00  0.14116335285E+02  0.00000000000E+00 0.  1.
</event>
<event>
 7    1  0.2297343E-008  0.4614232E+02  0.7816164E-02  0.1320468E+00
        -11   -1    0    0    0    0  0.00000000000E+00  0.00000000000E+00  0.45593999997E+02  0.45594000000E+02  0.51100000000E-03 0.  1.
         11   -1    0    0    0    0 -0.00000000000E+00 -0.00000000000E+00 -0.45593999997E+02  0.45594000000E+02  0.51100000000E-03 0. -1.
    9900012    2    1    2    0    0 -0.21994728957E+02 -0.34654918195E+02 -0.18557530265E+02  0.46142318891E+02  0.10000010307E+02 0.  0.
         12    1    1    2    0    0  0.21994728957E+02  0.34654918195E+02  0.18557530265E+02  0.45045681109E+02  0.00000000000E+00 0. -1.
         11    1    3    3    0    0 -0.34443691250E+01 -0.48711819862E+01 -0.23849907545E+00  0.59706762332E+01  0.51100000000E-03 0. -1.
        -11    1    3    3    0    0 -0.76796363180E+01 -0.79173063731E+01 -0.81738880393E+01  0.13728546905E+02  0.51100000000E-03 0.  1.
        -12    1    3    3    0    0 -0.10870723514E+02 -0.21866429835E+02 -0.10145143151E+02  0.26443095753E+02  0.00000000000E+00 0.  1.
</event>
<event>
 7    1  0.2297343E-008  0.4614232E+02  0.7816164E-02  0.1320468E+00
        -11   -1    0    0    0    0  0.00000000000E+00  0.00000000000E+00  0.45593999997E+02  0.45594000000E+02  0.51100000000E-03 0.  1.
         11   -1    0    0    0    0 -0.00000000000E+00 -0.00000000000E+00 -0.45593999997E+02  0.45594000000E+02  0.51100000000E-03 0. -1.
    9900012    2    1    2    0    0  0.37919658834E+02  0.24077855243E+02 -0.33867314250E+01  0.46142316645E+02  0.99999898237E+01 0.  0.
         12    1    1    2    0    0 -0.37919658834E+02 -0.24077855243E+02  0.33867314250E+01  0.45045683355E+02  0.00000000000E+00 0. -1.
         11    1    3    3    0    0  0.74334269019E+01  0.17432796498E+01 -0.15658652573E+01  0.77940229476E+01  0.51100000000E-03 0. -1.
        -11    1    3    3    0    0  0.55753690777E+01  0.60714287982E+01  0.16188659828E+01  0.84004592336E+01  0.51100000000E-03 0.  1.
        -12    1    3    3    0    0  0.24910862854E+02  0.16263146795E+02 -0.34397321506E+01  0.29947834464E+02  0.00000000000E+00 0.  1.
</event>
<event>
 7    1  0.2297343E-008  0.4614232E+02  0.7816164E-02  0.1320468E+00
        -11   -1    0    0    0    0  0.00000000000E+00  0.00000000000E+00  0.45593999997E+02  0.45594000000E+02  0.51100000000E-03 0.  1.
         11   -1    0    0    0    0 -0.00000000000E+00 -0.00000000000E+00 -0.45593999997E+02  0.45594000000E+02  0.51100000000E-03 0. -1.
    9900012    2    1    2    0    0  0.35949296686E+02 -0.63958098737E+01  0.26379070188E+02  0.46142315854E+02  0.99999826135E+01 0.  0.
         12    1    1    2    0    0 -0.35949296686E+02  0.63958098737E+01 -0.26379070188E+02  0.45045684146E+02  0.00000000000E+00 0. -1.
         11    1    3    3    0    0  0.13492583798E+02 -0.27877116462E+00  0.77968573487E+01  0.15585843439E+02  0.51100000000E-03 0.  1.
        -11    1    3    3    0    0  0.92432836337E+01 -0.53306955215E+01  0.10893260488E+02  0.15248532106E+02  0.51100000000E-03 0. -1.
         12    1    3    3    0    0  0.13213429254E+02 -0.78634318766E+00  0.76889523511E+01  0.15307940309E+02  0.00000000000E+00 0. -1.
</event>
<event>
 7    1  0.2297343E-008  0.4614232E+02  0.7816164E-02  0.1320468E+00
        -11   -1    0    0    0    0  0.00000000000E+00  0.00000000000E+00  0.45593999997E+02  0.45594000000E+02  0.51100000000E-03 0. -1.
         11   -1    0    0    0    0 -0.00000000000E+00 -0.00000000000E+00 -0.45593999997E+02  0.45594000000E+02  0.51100000000E-03 0.  1.
    9900012    2    1    2    0    0  0.64268516021E+01 -0.38119702317E+02 -0.23123524379E+02  0.46142317566E+02  0.99999982186E+01 0.  0.
         12    1    1    2    0    0 -0.64268516021E+01  0.38119702317E+02  0.23123524379E+02  0.45045682434E+02  0.00000000000E+00 0. -1.
         11    1    3    3    0    0  0.65842049779E+00 -0.82945118177E+01 -0.53673492230E+01  0.99015595634E+01  0.51100000000E-03 0. -1.
        -11    1    3    3    0    0  0.27815637527E+01 -0.24233674866E+02 -0.17260797731E+02  0.29882155762E+02  0.51100000000E-03 0.  1.
         12    1    3    3    0    0  0.29868673517E+01 -0.55915156337E+01 -0.49537742497E+00  0.63586022404E+01  0.00000000000E+00 0. -1.
</event>
<event>
 7    1  0.2297343E-008  0.4614232E+02  0.7816164E-02  0.1320468E+00
        -11   -1    0    0    0    0  0.00000000000E+00  0.00000000000E+00  0.45593999997E+02  0.45594000000E+02  0.51100000000E-03 0.  1.
         11   -1    0    0    0    0 -0.00000000000E+00 -0.00000000000E+00 -0.45593999997E+02  0.45594000000E+02  0.51100000000E-03 0. -1.
    9900012    2    1    2    0    0  0.32071419348E+02 -0.29580553959E+01  0.31492657330E+02  0.46142317672E+02  0.99999991890E+01 0.  0.
         12    1    1    2    0    0 -0.32071419348E+02  0.29580553959E+01 -0.31492657330E+02  0.45045682328E+02  0.00000000000E+00 0. -1.
         11    1    3    3    0    0  0.17730446091E+02 -0.60780035529E+01  0.15391099854E+02  0.24252768929E+02  0.51100000000E-03 0. -1.
        -11    1    3    3    0    0  0.62988752310E+01  0.46630629729E+00  0.60515546514E+01  0.87472615543E+01  0.51100000000E-03 0.  1.
         12    1    3    3    0    0  0.80420980258E+01  0.26536418597E+01  0.10050002824E+02  0.13142287188E+02  0.00000000000E+00 0. -1.
</event>
<event>
 7    1  0.2297343E-008  0.4614232E+02  0.7816164E-02  0.1320468E+00
        -11   -1    0    0    0    0  0.00000000000E+00  0.00000000000E+00  0.45593999997E+02  0.45594000000E+02  0.51100000000E-03 0.  1.
         11   -1    0    0    0    0 -0.00000000000E+00 -0.00000000000E+00 -0.45593999997E+02  0.45594000000E+02  0.51100000000E-03 0. -1.
    9900012    2    1    2    0    0 -0.35189017523E+02  0.10838082073E+02  0.25949617634E+02  0.46142316160E+02  0.99999854009E+01 0.  0.
         12    1    1    2    0    0  0.35189017523E+02 -0.10838082073E+02 -0.25949617634E+02  0.45045683840E+02  0.00000000000E+00 0. -1.
         11    1    3    3    0    0 -0.27898079250E+01 -0.60876605701E+00  0.29282306475E+01  0.40900072563E+01  0.51100000000E-03 0. -1.
        -11    1    3    3    0    0 -0.13394971898E+01  0.14391055829E+01  0.35342902662E+01  0.40443152136E+01  0.51100000000E-03 0.  1.
        -12    1    3    3    0    0 -0.31059712409E+02  0.10007742547E+02  0.19487096720E+02  0.38007993690E+02  0.00000000000E+00 0.  1.
</event>
<event>
 7    1  0.2297343E-008  0.4614232E+02  0.7816164E-02  0.1320468E+00
        -11   -1    0    0    0    0  0.00000000000E+00  0.00000000000E+00  0.45593999997E+02  0.45594000000E+02  0.51100000000E-03 0. -1.
         11   -1    0    0    0    0 -0.00000000000E+00 -0.00000000000E+00 -0.45593999997E+02  0.45594000000E+02  0.51100000000E-03 0.  1.
    9900012    2    1    2    0    0  0.21345227977E+01  0.25849516133E+02 -0.36828790764E+02  0.46142317621E+02  0.99999987183E+01 0.  0.
         12    1    1    2    0    0 -0.21345227977E+01 -0.25849516133E+02  0.36828790764E+02  0.45045682379E+02  0.00000000000E+00 0. -1.
         11    1    3    3    0    0 -0.27781443709E+01  0.83162028513E+01 -0.15493537873E+02  0.17802444554E+02  0.51100000000E-03 0. -1.
        -11    1    3    3    0    0  0.32999258309E+01  0.86993012326E+01 -0.13654868508E+02  0.16523401183E+02  0.51100000000E-03 0.  1.
        -12    1    3    3    0    0  0.16127413378E+01  0.88340120488E+01 -0.76803843833E+01  0.11816471884E+02  0.00000000000E+00 0.  1.
</event>
<event>
 7    1  0.2297343E-008  0.4614232E+02  0.7816164E-02  0.1320468E+00
        -11   -1    0    0    0    0  0.00000000000E+00  0.00000000000E+00  0.45593999997E+02  0.45594000000E+02  0.51100000000E-03 0.  1.
         11   -1    0    0    0    0 -0.00000000000E+00 -0.00000000000E+00 -0.45593999997E+02  0.45594000000E+02  0.51100000000E-03 0. -1.
    9900012    2    1    2    0    0  0.24252040002E+02 -0.21536882104E+02  0.31258834025E+02  0.46142318302E+02  0.10000004928E+02 0.  0.
         12    1    1    2    0    0 -0.24252040002E+02  0.21536882104E+02 -0.31258834025E+02  0.45045681698E+02  0.00000000000E+00 0. -1.
         11    1    3    3    0    0  0.20470084175E+02 -0.18576483131E+02  0.23159498443E+02  0.36062063724E+02  0.51100000000E-03 0.  1.
        -11    1    3    3    0    0  0.44190903049E+01 -0.20269566616E+01  0.63469300432E+01  0.79950255575E+01  0.51100000000E-03 0. -1.
         12    1    3    3    0    0 -0.63713447752E+00 -0.93344231154E+00  0.17524055394E+01  0.20852290200E+01  0.00000000000E+00 0. -1.
</event>
<event>
 7    1  0.2297343E-008  0.4614231E+02  0.7816164E-02  0.1320468E+00
        -11   -1    0    0    0    0  0.00000000000E+00  0.00000000000E+00  0.45593999997E+02  0.45594000000E+02  0.51100000000E-03 0.  1.
         11   -1    0    0    0    0 -0.00000000000E+00 -0.00000000000E+00 -0.45593999997E+02  0.45594000000E+02  0.51100000000E-03 0. -1.
    9900012    2    1    2    0    0 -0.26661177502E+02 -0.33138286259E+02  0.14837435478E+02  0.46142313264E+02  0.99999589874E+01 0.  0.
         12    1    1    2    0    0  0.26661177502E+02  0.33138286259E+02 -0.14837435478E+02  0.45045686736E+02  0.00000000000E+00 0. -1.
         11    1    3    3    0    0 -0.43183249039E+01 -0.46068065983E+01  0.18612009713E+01  0.65829071334E+01  0.51100000000E-03 0. -1.
        -11    1    3    3    0    0 -0.22911896321E+02 -0.27533497370E+02  0.11362756489E+02  0.37578726771E+02  0.51100000000E-03 0.  1.
         12    1    3    3    0    0  0.56904372213E+00 -0.99798229085E+00  0.16134780180E+01  0.19806793595E+01  0.00000000000E+00 0. -1.
</event>
<event>
 7    1  0.2297343E-008  0.4614232E+02  0.7816164E-02  0.1320468E+00
        -11   -1    0    0    0    0  0.00000000000E+00  0.00000000000E+00  0.45593999997E+02  0.45594000000E+02  0.51100000000E-03 0. -1.
         11   -1    0    0    0    0 -0.00000000000E+00 -0.00000000000E+00 -0.45593999997E+02  0.45594000000E+02  0.51100000000E-03 0.  1.
    9900012    2    1    2    0    0  0.98921876796E+01 -0.72043532095E+01 -0.43351533707E+02  0.46142316999E+02  0.99999930506E+01 0.  0.
         12    1    1    2    0    0 -0.98921876796E+01  0.72043532095E+01  0.43351533707E+02  0.45045683001E+02  0.00000000000E+00 0. -1.
         11    1    3    3    0    0 -0.32753934326E+00 -0.10874781477E+01 -0.41388003734E+01  0.42918014324E+01  0.51100000000E-03 0. -1.
        -11    1    3    3    0    0  0.70537837931E+01 -0.70418425442E+01 -0.35553532910E+02  0.36924207707E+02  0.51100000000E-03 0.  1.
        -12    1    3    3    0    0  0.31659432298E+01  0.92496748232E+00 -0.36592004243E+01  0.49263078591E+01  0.00000000000E+00 0.  1.
</event>
<event>
 7    1  0.2297343E-008  0.4614232E+02  0.7816164E-02  0.1320468E+00
        -11   -1    0    0    0    0  0.00000000000E+00  0.00000000000E+00  0.45593999997E+02  0.45594000000E+02  0.51100000000E-03 0. -1.
         11   -1    0    0    0    0 -0.00000000000E+00 -0.00000000000E+00 -0.45593999997E+02  0.45594000000E+02  0.51100000000E-03 0.  1.
    9900012    2    1    2    0    0  0.19599421278E+02 -0.35488433533E+02 -0.19635357390E+02  0.46142317756E+02  0.99999999494E+01 0.  0.
         12    1    1    2    0    0 -0.19599421278E+02  0.35488433533E+02  0.19635357390E+02  0.45045682244E+02  0.00000000000E+00 0. -1.
         11    1    3    3    0    0  0.57168064678E+01 -0.48034931102E+01 -0.24135004260E+01  0.78473184476E+01  0.51100000000E-03 0. -1.
        -11    1    3    3    0    0  0.12184797357E+02 -0.27437642670E+02 -0.13029903673E+02  0.32727235018E+02  0.51100000000E-03 0.  1.
        -12    1    3    3    0    0  0.16978174526E+01 -0.32472977521E+01 -0.41919532907E+01  0.55677642897E+01  0.00000000000E+00 0.  1.
</event>
<event>
 7    1  0.2297343E-008  0.4614232E+02  0.7816164E-02  0.1320468E+00
        -11   -1    0    0    0    0  0.00000000000E+00  0.00000000000E+00  0.45593999997E+02  0.45594000000E+02  0.51100000000E-03 0.  1.
         11   -1    0    0    0    0 -0.00000000000E+00 -0.00000000000E+00 -0.45593999997E+02  0.45594000000E+02  0.51100000000E-03 0. -1.
    9900012    2    1    2    0    0  0.66083258076E+01 -0.29275467263E+02  0.33591524433E+02  0.46142317996E+02  0.10000002145E+02 0.  0.
         12    1    1    2    0    0 -0.66083258076E+01  0.29275467263E+02 -0.33591524433E+02  0.45045682004E+02  0.00000000000E+00 0. -1.
         11    1    3    3    0    0 -0.15090930634E+01 -0.82819406531E+00  0.13136407976E+01  0.21653913480E+01  0.51100000000E-03 0. -1.
        -11    1    3    3    0    0  0.95593360745E+00 -0.60358140663E+01  0.90092665739E+01  0.10886309979E+02  0.51100000000E-03 0.  1.
        -12    1    3    3    0    0  0.71614852636E+01 -0.22411459131E+02  0.23268617062E+02  0.33090616669E+02  0.00000000000E+00 0.  1.
</event>
<event>
 7    1  0.2297343E-008  0.4614231E+02  0.7816164E-02  0.1320468E+00
        -11   -1    0    0    0    0  0.00000000000E+00  0.00000000000E+00  0.45593999997E+02  0.45594000000E+02  0.51100000000E-03 0.  1.
         11   -1    0    0    0    0 -0.00000000000E+00 -0.00000000000E+00 -0.45593999997E+02  0.45594000000E+02  0.51100000000E-03 0. -1.
    9900012    2    1    2    0    0 -0.64577536220E+01 -0.33502960651E+02  0.29410253858E+02  0.46142312235E+02  0.99999496093E+01 0.  0.
         12    1    1    2    0    0  0.64577536220E+01  0.33502960651E+02 -0.29410253858E+02  0.45045687765E+02  0.00000000000E+00 0. -1.
         11    1    3    3    0    0 -0.24400566583E+01 -0.17307184400E+01  0.14697740702E+01  0.33330914918E+01  0.51100000000E-03 0. -1.
        -11    1    3    3    0    0  0.65928112445E+00 -0.48663387442E+01  0.61604728624E+01  0.78782822064E+01  0.51100000000E-03 0.  1.
        -12    1    3    3    0    0 -0.46769780882E+01 -0.26905903467E+02  0.21780006926E+02  0.34930938537E+02  0.00000000000E+00 0.  1.
</event>
<event>
 7    1  0.2297343E-008  0.4614232E+02  0.7816164E-02  0.1320468E+00
        -11   -1    0    0    0    0  0.00000000000E+00  0.00000000000E+00  0.45593999997E+02  0.45594000000E+02  0.51100000000E-03 0. -1.
         11   -1    0    0    0    0 -0.00000000000E+00 -0.00000000000E+00 -0.45593999997E+02  0.45594000000E+02  0.51100000000E-03 0.  1.
    9900012    2    1    2    0    0 -0.18371522194E+02 -0.39500275617E+02 -0.11459857000E+02  0.46142324026E+02  0.10000057127E+02 0.  0.
         12    1    1    2    0    0  0.18371522194E+02  0.39500275617E+02  0.11459857000E+02  0.45045675974E+02  0.00000000000E+00 0. -1.
         11    1    3    3    0    0  0.23558095722E+00 -0.33454015244E+01 -0.25645515765E+00  0.33634772567E+01  0.51100000000E-03 0. -1.
        -11    1    3    3    0    0 -0.49518196347E+01 -0.59505337358E+01 -0.45191624460E+01  0.89639388055E+01  0.51100000000E-03 0.  1.
        -12    1    3    3    0    0 -0.13655283516E+02 -0.30204340356E+02 -0.66842393962E+01  0.33814907964E+02  0.00000000000E+00 0.  1.
</event>
<event>
 7    1  0.2297343E-008  0.4614232E+02  0.7816164E-02  0.1320468E+00
        -11   -1    0    0    0    0  0.00000000000E+00  0.00000000000E+00  0.45593999997E+02  0.45594000000E+02  0.51100000000E-03 0.  1.
         11   -1    0    0    0    0 -0.00000000000E+00 -0.00000000000E+00 -0.45593999997E+02  0.45594000000E+02  0.51100000000E-03 0. -1.
    9900012    2    1    2    0    0  0.13583435030E+02 -0.42317989789E+02  0.73342619619E+01  0.46142319125E+02  0.10000012438E+02 0.  0.
         12    1    1    2    0    0 -0.13583435030E+02  0.42317989789E+02 -0.73342619619E+01  0.45045680875E+02  0.00000000000E+00 0. -1.
         11    1    3    3    0    0  0.11839225851E+01 -0.14068271894E+02  0.53803732775E+01  0.15108486477E+02  0.51100000000E-03 0.  1.
        -11    1    3    3    0    0  0.59000068425E+00 -0.37645179624E+00  0.72087967433E-01  0.70357209899E+00  0.51100000000E-03 0. -1.
        -12    1    3    3    0    0  0.11809511760E+02 -0.27873266099E+02  0.18818007169E+01  0.30330260549E+02  0.00000000000E+00 0.  1.
</event>
<event>
 7    1  0.2297343E-008  0.4614232E+02  0.7816164E-02  0.1320468E+00
        -11   -1    0    0    0    0  0.00000000000E+00  0.00000000000E+00  0.45593999997E+02  0.45594000000E+02  0.51100000000E-03 0.  1.
         11   -1    0    0    0    0 -0.00000000000E+00 -0.00000000000E+00 -0.45593999997E+02  0.45594000000E+02  0.51100000000E-03 0. -1.
    9900012    2    1    2    0    0  0.49968011838E+01  0.28038097263E+02  0.34900008161E+02  0.46142317744E+02  0.99999998452E+01 0.  0.
         12    1    1    2    0    0 -0.49968011838E+01 -0.28038097263E+02 -0.34900008161E+02  0.45045682256E+02  0.00000000000E+00 0. -1.
         11    1    3    3    0    0  0.27672529500E+01  0.97598052288E+01  0.14857392843E+02  0.17990375464E+02  0.51100000000E-03 0. -1.
        -11    1    3    3    0    0  0.24090157148E+01  0.18340183321E+02  0.17061120162E+02  0.25164409439E+02  0.51100000000E-03 0.  1.
         12    1    3    3    0    0 -0.17946748105E+00 -0.61891286255E-01  0.29814951567E+01  0.29875328412E+01  0.00000000000E+00 0. -1.
</event>
<event>
 7    1  0.2297343E-008  0.4614232E+02  0.7816164E-02  0.1320468E+00
        -11   -1    0    0    0    0  0.00000000000E+00  0.00000000000E+00  0.45593999997E+02  0.45594000000E+02  0.51100000000E-03 0.  1.
         11   -1    0    0    0    0 -0.00000000000E+00 -0.00000000000E+00 -0.45593999997E+02  0.45594000000E+02  0.51100000000E-03 0. -1.
    9900012    2    1    2    0    0  0.14744520145E+02 -0.35209444063E+02  0.23916678503E+02  0.46142319450E+02  0.10000015402E+02 0.  0.
         12    1    1    2    0    0 -0.14744520145E+02  0.35209444063E+02 -0.23916678503E+02  0.45045680550E+02  0.00000000000E+00 0. -1.
         11    1    3    3    0    0  0.26002426109E+01 -0.23788679991E+01 -0.40715287391E-01  0.35244762148E+01  0.51100000000E-03 0. -1.
        -11    1    3    3    0    0  0.48549097342E+01 -0.84714491835E+01  0.77419914487E+01  0.12460900114E+02  0.51100000000E-03 0.  1.
        -12    1    3    3    0    0  0.72893678002E+01 -0.24359126881E+02  0.16215402342E+02  0.30156943121E+02  0.00000000000E+00 0.  1.
</event>
<event>
 7    1  0.2297343E-008  0.4614232E+02  0.7816164E-02  0.1320468E+00
        -11   -1    0    0    0    0  0.00000000000E+00  0.00000000000E+00  0.45593999997E+02  0.45594000000E+02  0.51100000000E-03 0.  1.
         11   -1    0    0    0    0 -0.00000000000E+00 -0.00000000000E+00 -0.45593999997E+02  0.45594000000E+02  0.51100000000E-03 0. -1.
    9900012    2    1    2    0    0  0.10565969396E+02  0.37096878179E+02  0.23265757576E+02  0.46142317017E+02  0.99999932107E+01 0.  0.
         12    1    1    2    0    0 -0.10565969396E+02 -0.37096878179E+02 -0.23265757576E+02  0.45045682983E+02  0.00000000000E+00 0. -1.
         11    1    3    3    0    0 -0.49522670956E+00  0.57330421290E+00 -0.18496274355E+00  0.77983247689E+00  0.51100000000E-03 0. -1.
        -11    1    3    3    0    0  0.35578274499E+00  0.11826004290E+02  0.58273005925E+01  0.13188570479E+02  0.51100000000E-03 0.  1.
        -12    1    3    3    0    0  0.10705413360E+02  0.24697569676E+02  0.17623419727E+02  0.32173914060E+02  0.00000000000E+00 0.  1.
</event>
<event>
 7    1  0.2297343E-008  0.4614232E+02  0.7816164E-02  0.1320468E+00
        -11   -1    0    0    0    0  0.00000000000E+00  0.00000000000E+00  0.45593999997E+02  0.45594000000E+02  0.51100000000E-03 0.  1.
         11   -1    0    0    0    0 -0.00000000000E+00 -0.00000000000E+00 -0.45593999997E+02  0.45594000000E+02  0.51100000000E-03 0. -1.
    9900012    2    1    2    0    0 -0.41168310390E+02 -0.16040556939E+02  0.87740688371E+01  0.46142317286E+02  0.99999956642E+01 0.  0.
         12    1    1    2    0    0  0.41168310390E+02  0.16040556939E+02 -0.87740688371E+01  0.45045682714E+02  0.00000000000E+00 0. -1.
         11    1    3    3    0    0 -0.27303716818E+02 -0.97500370121E+01  0.87524759461E+01  0.30284682750E+02  0.51100000000E-03 0. -1.
        -11    1    3    3    0    0 -0.12674302380E+02 -0.49807522076E+01  0.12920747171E+01  0.13679009128E+02  0.51100000000E-03 0.  1.
         12    1    3    3    0    0 -0.11902911915E+01 -0.13097677191E+01 -0.12704818261E+01  0.21786254081E+01  0.00000000000E+00 0. -1.
</event>
<event>
 7    1  0.2297343E-008  0.4614232E+02  0.7816164E-02  0.1320468E+00
        -11   -1    0    0    0    0  0.00000000000E+00  0.00000000000E+00  0.45593999997E+02  0.45594000000E+02  0.51100000000E-03 0. -1.
         11   -1    0    0    0    0 -0.00000000000E+00 -0.00000000000E+00 -0.45593999997E+02  0.45594000000E+02  0.51100000000E-03 0.  1.
    9900012    2    1    2    0    0  0.24697974955E+02  0.37595751036E+02 -0.23839006446E+01  0.46142318241E+02  0.10000004377E+02 0.  0.
         12    1    1    2    0    0 -0.24697974955E+02 -0.37595751036E+02  0.23839006446E+01  0.45045681759E+02  0.00000000000E+00 0. -1.
         11    1    3    3    0    0  0.12664195950E+02  0.15149135619E+02  0.25112796264E+01  0.19904388830E+02  0.51100000000E-03 0. -1.
        -11    1    3    3    0    0  0.15257120266E+01  0.58704329885E+01 -0.25606862868E+00  0.60708608997E+01  0.51100000000E-03 0.  1.
         12    1    3    3    0    0  0.10508066979E+02  0.16576182428E+02 -0.46391116422E+01  0.20167068512E+02  0.00000000000E+00 0. -1.
</event>
<event>
 7    1  0.2297343E-008  0.4614232E+02  0.7816164E-02  0.1320468E+00
        -11   -1    0    0    0    0  0.00000000000E+00  0.00000000000E+00  0.45593999997E+02  0.45594000000E+02  0.51100000000E-03 0.  1.
         11   -1    0    0    0    0 -0.00000000000E+00 -0.00000000000E+00 -0.45593999997E+02  0.45594000000E+02  0.51100000000E-03 0. -1.
    9900012    2    1    2    0    0  0.14499697282E+02  0.21193723092E+02  0.37009433902E+02  0.46142319658E+02  0.10000017297E+02 0.  0.
         12    1    1    2    0    0 -0.14499697282E+02 -0.21193723092E+02 -0.37009433902E+02  0.45045680342E+02  0.00000000000E+00 0. -1.
         11    1    3    3    0    0  0.94546582313E+01  0.69109675899E+01  0.18219067823E+02  0.21658404094E+02  0.51100000000E-03 0.  1.
        -11    1    3    3    0    0  0.51099091634E+01  0.12219566535E+02  0.17819517137E+02  0.22202796428E+02  0.51100000000E-03 0. -1.
         12    1    3    3    0    0 -0.64870113104E-01  0.20631889671E+01  0.97084894180E+00  0.22811191362E+01  0.00000000000E+00 0. -1.
</event>
<event>
 7    1  0.2297343E-008  0.4614232E+02  0.7816164E-02  0.1320468E+00
        -11   -1    0    0    0    0  0.00000000000E+00  0.00000000000E+00  0.45593999997E+02  0.45594000000E+02  0.51100000000E-03 0.  1.
         11   -1    0    0    0    0 -0.00000000000E+00 -0.00000000000E+00 -0.45593999997E+02  0.45594000000E+02  0.51100000000E-03 0. -1.
    9900012    2    1    2    0    0  0.19613423074E+02  0.40402364494E+02 -0.34750561681E+01  0.46142318334E+02  0.10000005222E+02 0.  0.
         12    1    1    2    0    0 -0.19613423074E+02 -0.40402364494E+02  0.34750561681E+01  0.45045681666E+02  0.00000000000E+00 0. -1.
         11    1    3    3    0    0  0.49604286094E+01  0.78108995308E+01 -0.20993282742E+01  0.94880547497E+01  0.51100000000E-03 0.  1.
        -11    1    3    3    0    0  0.13845488226E+02  0.32242420651E+02 -0.81754175588E-01  0.35089569927E+02  0.51100000000E-03 0. -1.
         12    1    3    3    0    0  0.80750623841E+00  0.34904431268E+00 -0.12939737183E+01  0.15646936572E+01  0.00000000000E+00 0. -1.
</event>
<event>
 7    1  0.2297343E-008  0.4614232E+02  0.7816164E-02  0.1320468E+00
        -11   -1    0    0    0    0  0.00000000000E+00  0.00000000000E+00  0.45593999997E+02  0.45594000000E+02  0.51100000000E-03 0. -1.
         11   -1    0    0    0    0 -0.00000000000E+00 -0.00000000000E+00 -0.45593999997E+02  0.45594000000E+02  0.51100000000E-03 0.  1.
    9900012    2    1    2    0    0 -0.19352609320E+01 -0.44986964226E+02 -0.12415029234E+01  0.46142317469E+02  0.99999973378E+01 0.  0.
         12    1    1    2    0    0  0.19352609320E+01  0.44986964226E+02  0.12415029234E+01  0.45045682531E+02  0.00000000000E+00 0. -1.
         11    1    3    3    0    0  0.21179314012E-01 -0.10349955220E+02 -0.25877395972E+00  0.10353211378E+02  0.51100000000E-03 0. -1.
        -11    1    3    3    0    0 -0.27417366970E+01 -0.32306892697E+02 -0.30642253980E+01  0.32567497807E+02  0.51100000000E-03 0.  1.
         12    1    3    3    0    0  0.78529645104E+00 -0.23301163095E+01  0.20814964343E+01  0.32216082844E+01  0.00000000000E+00 0. -1.
</event>
<event>
 7    1  0.2297343E-008  0.4614232E+02  0.7816164E-02  0.1320468E+00
        -11   -1    0    0    0    0  0.00000000000E+00  0.00000000000E+00  0.45593999997E+02  0.45594000000E+02  0.51100000000E-03 0.  1.
         11   -1    0    0    0    0 -0.00000000000E+00 -0.00000000000E+00 -0.45593999997E+02  0.45594000000E+02  0.51100000000E-03 0. -1.
    9900012    2    1    2    0    0 -0.70242349920E+01 -0.52290531585E+01  0.44186316911E+02  0.46142317894E+02  0.10000001216E+02 0.  0.
         12    1    1    2    0    0  0.70242349920E+01  0.52290531585E+01 -0.44186316911E+02  0.45045682106E+02  0.00000000000E+00 0. -1.
         11    1    3    3    0    0 -0.18088567038E+01  0.19346781305E+01  0.14740033254E+02  0.14976098378E+02  0.51100000000E-03 0. -1.
        -11    1    3    3    0    0 -0.15198955247E+01  0.24602265294E+00  0.85809128144E+01  0.87179512812E+01  0.51100000000E-03 0.  1.
        -12    1    3    3    0    0 -0.36954827634E+01 -0.74097539420E+01  0.20865370843E+02  0.22448268235E+02  0.00000000000E+00 0.  1.
</event>
<event>
 7    1  0.2297343E-008  0.4614232E+02  0.7816164E-02  0.1320468E+00
        -11   -1    0    0    0    0  0.00000000000E+00  0.00000000000E+00  0.45593999997E+02  0.45594000000E+02  0.51100000000E-03 0.  1.
         11   -1    0    0    0    0 -0.00000000000E+00 -0.00000000000E+00 -0.45593999997E+02  0.45594000000E+02  0.51100000000E-03 0. -1.
    9900012    2    1    2    0    0  0.10251543799E+02  0.39724411860E+02  0.18600818731E+02  0.46142317573E+02  0.99999982838E+01 0.  0.
         12    1    1    2    0    0 -0.10251543799E+02 -0.39724411860E+02 -0.18600818731E+02  0.45045682427E+02  0.00000000000E+00 0. -1.
         11    1    3    3    0    0 -0.14914880379E+01  0.47604101056E+01  0.13799507133E+01  0.51759351979E+01  0.51100000000E-03 0. -1.
        -11    1    3    3    0    0  0.31271721123E+01  0.97813474329E+01  0.25745693737E+01  0.10586896181E+02  0.51100000000E-03 0.  1.
         12    1    3    3    0    0  0.86158597248E+01  0.25182654321E+02  0.14646298644E+02  0.30379486194E+02  0.00000000000E+00 0. -1.
</event>
<event>
 7    1  0.2297343E-008  0.4614232E+02  0.7816164E-02  0.1320468E+00
        -11   -1    0    0    0    0  0.00000000000E+00  0.00000000000E+00  0.45593999997E+02  0.45594000000E+02  0.51100000000E-03 0.  1.
         11   -1    0    0    0    0 -0.00000000000E+00 -0.00000000000E+00 -0.45593999997E+02  0.45594000000E+02  0.51100000000E-03 0. -1.
    9900012    2    1    2    0    0  0.10579414876E+02  0.32268320637E+02  0.29596366789E+02  0.46142318043E+02  0.10000002573E+02 0.  0.
         12    1    1    2    0    0 -0.10579414876E+02 -0.32268320637E+02 -0.29596366789E+02  0.45045681957E+02  0.00000000000E+00 0. -1.
         11    1    3    3    0    0  0.86643452587E+00  0.15040438401E+02  0.13586292859E+02  0.20286765390E+02  0.51100000000E-03 0. -1.
        -11    1    3    3    0    0  0.81615828411E+01  0.16629104356E+02  0.15382257879E+02  0.24078048174E+02  0.51100000000E-03 0.  1.
        -12    1    3    3    0    0  0.15513975087E+01  0.59877787975E+00  0.62781605099E+00  0.17775044791E+01  0.00000000000E+00 0.  1.
</event>
<event>
 7    1  0.2297343E-008  0.4614230E+02  0.7816164E-02  0.1320468E+00
        -11   -1    0    0    0    0  0.00000000000E+00  0.00000000000E+00  0.45593999997E+02  0.45594000000E+02  0.51100000000E-03 0.  1.
         11   -1    0    0    0    0 -0.00000000000E+00 -0.00000000000E+00 -0.45593999997E+02  0.45594000000E+02  0.51100000000E-03 0. -1.
    9900012    2    1    2    0    0  0.22391633080E+02  0.29216784720E+02  0.25963610384E+02  0.46142303141E+02  0.99998666816E+01 0.  0.
         12    1    1    2    0    0 -0.22391633080E+02 -0.29216784720E+02 -0.25963610384E+02  0.45045696859E+02  0.00000000000E+00 0. -1.
         11    1    3    3    0    0  0.42622760953E+01  0.67095826896E+01  0.63812853143E+01  0.10193443967E+02  0.51100000000E-03 0. -1.
        -11    1    3    3    0    0  0.98586264489E+01  0.62327665887E+01  0.55129334539E+01  0.12900865488E+02  0.51100000000E-03 0.  1.
        -12    1    3    3    0    0  0.82707305360E+01  0.16274435441E+02  0.14069391616E+02  0.23047993686E+02  0.00000000000E+00 0.  1.
</event>
<event>
 7    1  0.2297343E-008  0.4614232E+02  0.7816164E-02  0.1320468E+00
        -11   -1    0    0    0    0  0.00000000000E+00  0.00000000000E+00  0.45593999997E+02  0.45594000000E+02  0.51100000000E-03 0.  1.
         11   -1    0    0    0    0 -0.00000000000E+00 -0.00000000000E+00 -0.45593999997E+02  0.45594000000E+02  0.51100000000E-03 0. -1.
    9900012    2    1    2    0    0  0.41102968640E+02 -0.17867088303E+02  0.45195854015E+01  0.46142317325E+02  0.99999960253E+01 0.  0.
         12    1    1    2    0    0 -0.41102968640E+02  0.17867088303E+02 -0.45195854015E+01  0.45045682675E+02  0.00000000000E+00 0. -1.
         11    1    3    3    0    0  0.23472730159E+01  0.31126167325E+00 -0.81580745110E+00  0.25044193936E+01  0.51100000000E-03 0. -1.
        -11    1    3    3    0    0  0.19494827399E+02 -0.12763999311E+02  0.30471280853E+01  0.23500063055E+02  0.51100000000E-03 0.  1.
        -12    1    3    3    0    0  0.19260868224E+02 -0.54143506654E+01  0.22882647673E+01  0.20137834877E+02  0.00000000000E+00 0.  1.
</event>
<event>
 7    1  0.2297343E-008  0.4614232E+02  0.7816164E-02  0.1320468E+00
        -11   -1    0    0    0    0  0.00000000000E+00  0.00000000000E+00  0.45593999997E+02  0.45594000000E+02  0.51100000000E-03 0.  1.
         11   -1    0    0    0    0 -0.00000000000E+00 -0.00000000000E+00 -0.45593999997E+02  0.45594000000E+02  0.51100000000E-03 0. -1.
    9900012    2    1    2    0    0  0.52941531634E+01  0.27440236892E+02  0.35328724622E+02  0.46142318278E+02  0.10000004710E+02 0.  0.
         12    1    1    2    0    0 -0.52941531634E+01 -0.27440236892E+02 -0.35328724622E+02  0.45045681722E+02  0.00000000000E+00 0. -1.
         11    1    3    3    0    0 -0.24700841046E-01  0.14710724404E+02  0.20988100054E+02  0.25630184681E+02  0.51100000000E-03 0.  1.
        -11    1    3    3    0    0  0.19537560565E+01  0.10145399427E+02  0.11169049675E+02  0.15214925671E+02  0.51100000000E-03 0. -1.
        -12    1    3    3    0    0  0.33650979479E+01  0.25841130612E+01  0.31715748928E+01  0.52972079261E+01  0.00000000000E+00 0.  1.
</event>
<event>
 7    1  0.2297343E-008  0.4614232E+02  0.7816164E-02  0.1320468E+00
        -11   -1    0    0    0    0  0.00000000000E+00  0.00000000000E+00  0.45593999997E+02  0.45594000000E+02  0.51100000000E-03 0.  1.
         11   -1    0    0    0    0 -0.00000000000E+00 -0.00000000000E+00 -0.45593999997E+02  0.45594000000E+02  0.51100000000E-03 0. -1.
    9900012    2    1    2    0    0  0.69944881563E+01 -0.25532716491E+02  0.36445453032E+02  0.46142317381E+02  0.99999965304E+01 0.  0.
         12    1    1    2    0    0 -0.69944881563E+01  0.25532716491E+02 -0.36445453032E+02  0.45045682619E+02  0.00000000000E+00 0. -1.
         11    1    3    3    0    0 -0.16153182930E+01 -0.21568988305E+01  0.53845656092E+01  0.60212135665E+01  0.51100000000E-03 0. -1.
        -11    1    3    3    0    0  0.39587346846E+01 -0.14589938319E+02  0.21842265793E+02  0.26563555028E+02  0.51100000000E-03 0.  1.
         12    1    3    3    0    0  0.46510717647E+01 -0.87858793411E+01  0.92186216291E+01  0.13557548786E+02  0.00000000000E+00 0. -1.
</event>
<event>
 7    1  0.2297343E-008  0.4614232E+02  0.7816164E-02  0.1320468E+00
        -11   -1    0    0    0    0  0.00000000000E+00  0.00000000000E+00  0.45593999997E+02  0.45594000000E+02  0.51100000000E-03 0.  1.
         11   -1    0    0    0    0 -0.00000000000E+00 -0.00000000000E+00 -0.45593999997E+02  0.45594000000E+02  0.51100000000E-03 0. -1.
    9900012    2    1    2    0    0 -0.19989949840E+02 -0.11684968565E+02  0.38639060160E+02  0.46142317021E+02  0.99999932533E+01 0.  0.
         12    1    1    2    0    0  0.19989949840E+02  0.11684968565E+02 -0.38639060160E+02  0.45045682979E+02  0.00000000000E+00 0. -1.
         11    1    3    3    0    0 -0.18830187437E+01 -0.31928705142E+01  0.19563328018E+01  0.41913506179E+01  0.51100000000E-03 0. -1.
        -11    1    3    3    0    0 -0.58034907310E+01 -0.47312093502E+01  0.13612698524E+02  0.15536100152E+02  0.51100000000E-03 0.  1.
        -12    1    3    3    0    0 -0.12303440365E+02 -0.37608887004E+01  0.23070028835E+02  0.26414866251E+02  0.00000000000E+00 0.  1.
</event>
<event>
 7    1  0.2297343E-008  0.4614232E+02  0.7816164E-02  0.1320468E+00
        -11   -1    0    0    0    0  0.00000000000E+00  0.00000000000E+00  0.45593999997E+02  0.45594000000E+02  0.51100000000E-03 0. -1.
         11   -1    0    0    0    0 -0.00000000000E+00 -0.00000000000E+00 -0.45593999997E+02  0.45594000000E+02  0.51100000000E-03 0.  1.
    9900012    2    1    2    0    0  0.31371199228E+02  0.30586002752E+02 -0.10462211633E+02  0.46142316771E+02  0.99999909672E+01 0.  0.
         12    1    1    2    0    0 -0.31371199228E+02 -0.30586002752E+02  0.10462211633E+02  0.45045683229E+02  0.00000000000E+00 0. -1.
         11    1    3    3    0    0  0.13576576344E+02  0.86521187635E+01 -0.47951744410E+01  0.16798103539E+02  0.51100000000E-03 0. -1.
        -11    1    3    3    0    0  0.12212371163E+02  0.11445453872E+02 -0.48913288080E+01  0.17437474631E+02  0.51100000000E-03 0.  1.
         12    1    3    3    0    0  0.55822517205E+01  0.10488430117E+02 -0.77570838407E+00  0.11906738600E+02  0.00000000000E+00 0. -1.
</event>
<event>
 7    1  0.2297343E-008  0.4614232E+02  0.7816164E-02  0.1320468E+00
        -11   -1    0    0    0    0  0.00000000000E+00  0.00000000000E+00  0.45593999997E+02  0.45594000000E+02  0.51100000000E-03 0.  1.
         11   -1    0    0    0    0 -0.00000000000E+00 -0.00000000000E+00 -0.45593999997E+02  0.45594000000E+02  0.51100000000E-03 0. -1.
    9900012    2    1    2    0    0 -0.21049749720E+02 -0.38270915612E+02  0.11016284994E+02  0.46142317852E+02  0.10000000831E+02 0.  0.
         12    1    1    2    0    0  0.21049749720E+02  0.38270915612E+02 -0.11016284994E+02  0.45045682148E+02  0.00000000000E+00 0. -1.
         11    1    3    3    0    0 -0.73594920046E+01 -0.12061989575E+02 -0.52489279645E+00  0.14139633227E+02  0.51100000000E-03 0. -1.
        -11    1    3    3    0    0 -0.71613412215E+01 -0.17467002617E+02  0.63287965727E+01  0.19910666861E+02  0.51100000000E-03 0.  1.
         12    1    3    3    0    0 -0.65289164941E+01 -0.87419234202E+01  0.52123812174E+01  0.12092017765E+02  0.00000000000E+00 0. -1.
</event>
<event>
 7    1  0.2297343E-008  0.4614232E+02  0.7816164E-02  0.1320468E+00
        -11   -1    0    0    0    0  0.00000000000E+00  0.00000000000E+00  0.45593999997E+02  0.45594000000E+02  0.51100000000E-03 0. -1.
         11   -1    0    0    0    0 -0.00000000000E+00 -0.00000000000E+00 -0.45593999997E+02  0.45594000000E+02  0.51100000000E-03 0.  1.
    9900012    2    1    2    0    0 -0.19028775258E+02 -0.37323326504E+02  0.16552598625E+02  0.46142317517E+02  0.99999977724E+01 0.  0.
         12    1    1    2    0    0  0.19028775258E+02  0.37323326504E+02 -0.16552598625E+02  0.45045682483E+02  0.00000000000E+00 0. -1.
         11    1    3    3    0    0 -0.11159090215E+02 -0.26664666289E+02  0.13141863592E+02  0.31752768410E+02  0.51100000000E-03 0. -1.
        -11    1    3    3    0    0 -0.75244001030E+01 -0.10129792027E+02  0.42714487373E+01  0.13321957739E+02  0.51100000000E-03 0.  1.
         12    1    3    3    0    0 -0.34528493935E+00 -0.52886818739E+00 -0.86071370389E+00  0.10675913680E+01  0.00000000000E+00 0. -1.
</event>
<event>
 7    1  0.2297343E-008  0.4614232E+02  0.7816164E-02  0.1320468E+00
        -11   -1    0    0    0    0  0.00000000000E+00  0.00000000000E+00  0.45593999997E+02  0.45594000000E+02  0.51100000000E-03 0.  1.
         11   -1    0    0    0    0 -0.00000000000E+00 -0.00000000000E+00 -0.45593999997E+02  0.45594000000E+02  0.51100000000E-03 0. -1.
    9900012    2    1    2    0    0  0.65466163379E+01 -0.41679274208E+02  0.15782693439E+02  0.46142317674E+02  0.99999992061E+01 0.  0.
         12    1    1    2    0    0 -0.65466163379E+01  0.41679274208E+02 -0.15782693439E+02  0.45045682326E+02  0.00000000000E+00 0. -1.
         11    1    3    3    0    0  0.37001786063E+01 -0.20441608861E+02  0.49320357180E+01  0.21351245189E+02  0.51100000000E-03 0. -1.
        -11    1    3    3    0    0  0.19221848609E+01 -0.20091781968E+02  0.11445936555E+02  0.23203102404E+02  0.51100000000E-03 0.  1.
         12    1    3    3    0    0  0.92425287076E+00 -0.11458833798E+01 -0.59527883361E+00  0.15879700812E+01  0.00000000000E+00 0. -1.
</event>
<event>
 7    1  0.2297343E-008  0.4614232E+02  0.7816164E-02  0.1320468E+00
        -11   -1    0    0    0    0  0.00000000000E+00  0.00000000000E+00  0.45593999997E+02  0.45594000000E+02  0.51100000000E-03 0.  1.
         11   -1    0    0    0    0 -0.00000000000E+00 -0.00000000000E+00 -0.45593999997E+02  0.45594000000E+02  0.51100000000E-03 0. -1.
    9900012    2    1    2    0    0  0.33287139324E+02 -0.29797811954E+02  0.57593677016E+01  0.46142316989E+02  0.99999929565E+01 0.  0.
         12    1    1    2    0    0 -0.33287139324E+02  0.29797811954E+02 -0.57593677016E+01  0.45045683011E+02  0.00000000000E+00 0. -1.
         11    1    3    3    0    0  0.79727044983E+01 -0.45293047316E+01  0.18257141579E+01  0.93494305076E+01  0.51100000000E-03 0. -1.
        -11    1    3    3    0    0  0.10758013786E+01  0.49498442471E+00  0.36941118484E+00  0.12404930759E+01  0.51100000000E-03 0.  1.
        -12    1    3    3    0    0  0.24238633447E+02 -0.25763491647E+02  0.35642423589E+01  0.35552393405E+02  0.00000000000E+00 0.  1.
</event>
<event>
 7    1  0.2297343E-008  0.4614232E+02  0.7816164E-02  0.1320468E+00
        -11   -1    0    0    0    0  0.00000000000E+00  0.00000000000E+00  0.45593999997E+02  0.45594000000E+02  0.51100000000E-03 0.  1.
         11   -1    0    0    0    0 -0.00000000000E+00 -0.00000000000E+00 -0.45593999997E+02  0.45594000000E+02  0.51100000000E-03 0. -1.
    9900012    2    1    2    0    0 -0.28293518263E+02  0.19666613568E+02  0.29014041821E+02  0.46142317769E+02  0.10000000068E+02 0.  0.
         12    1    1    2    0    0  0.28293518263E+02 -0.19666613568E+02 -0.29014041821E+02  0.45045682231E+02  0.00000000000E+00 0. -1.
         11    1    3    3    0    0 -0.37189816419E+01  0.41361285076E+01  0.17242956186E+01  0.58233649316E+01  0.51100000000E-03 0. -1.
        -11    1    3    3    0    0 -0.21884999358E+02  0.13539336684E+02  0.21084733284E+02  0.33269096962E+02  0.51100000000E-03 0.  1.
        -12    1    3    3    0    0 -0.26895372629E+01  0.19911483756E+01  0.62050129182E+01  0.70498558749E+01  0.00000000000E+00 0.  1.
</event>
<event>
 7    1  0.2297343E-008  0.4614232E+02  0.7816164E-02  0.1320468E+00
        -11   -1    0    0    0    0  0.00000000000E+00  0.00000000000E+00  0.45593999997E+02  0.45594000000E+02  0.51100000000E-03 0.  1.
         11   -1    0    0    0    0 -0.00000000000E+00 -0.00000000000E+00 -0.45593999997E+02  0.45594000000E+02  0.51100000000E-03 0. -1.
    9900012    2    1    2    0    0 -0.14209433830E+02 -0.32209787942E+02  0.28102223396E+02  0.46142318644E+02  0.10000008051E+02 0.  0.
         12    1    1    2    0    0  0.14209433830E+02  0.32209787942E+02 -0.28102223396E+02  0.45045681356E+02  0.00000000000E+00 0. -1.
         11    1    3    3    0    0  0.63886910906E+00 -0.26320622938E+01  0.24493122557E+01  0.36517169173E+01  0.51100000000E-03 0. -1.
        -11    1    3    3    0    0 -0.84144632350E+01 -0.10451014038E+02  0.12937524541E+02  0.18638841902E+02  0.51100000000E-03 0.  1.
        -12    1    3    3    0    0 -0.64338397041E+01 -0.19126711609E+02  0.12715386600E+02  0.23851759824E+02  0.00000000000E+00 0.  1.
</event>
<event>
 7    1  0.2297343E-008  0.4614232E+02  0.7816164E-02  0.1320468E+00
        -11   -1    0    0    0    0  0.00000000000E+00  0.00000000000E+00  0.45593999997E+02  0.45594000000E+02  0.51100000000E-03 0.  1.
         11   -1    0    0    0    0 -0.00000000000E+00 -0.00000000000E+00 -0.45593999997E+02  0.45594000000E+02  0.51100000000E-03 0. -1.
    9900012    2    1    2    0    0  0.22805365740E+02 -0.29531320946E+02  0.25237465295E+02  0.46142320098E+02  0.10000021306E+02 0.  0.
         12    1    1    2    0    0 -0.22805365740E+02  0.29531320946E+02 -0.25237465295E+02  0.45045679902E+02  0.00000000000E+00 0. -1.
         11    1    3    3    0    0  0.27631571575E+01 -0.17122587269E+01 -0.21382042195E-01  0.32507422041E+01  0.51100000000E-03 0. -1.
        -11    1    3    3    0    0  0.30904675697E+01 -0.67595649513E+01  0.36400648720E+01  0.82760365311E+01  0.51100000000E-03 0.  1.
        -12    1    3    3    0    0  0.16951741013E+02 -0.21059497267E+02  0.21618782465E+02  0.34615541362E+02  0.00000000000E+00 0.  1.
</event>
<event>
 7    1  0.2297343E-008  0.4614232E+02  0.7816164E-02  0.1320468E+00
        -11   -1    0    0    0    0  0.00000000000E+00  0.00000000000E+00  0.45593999997E+02  0.45594000000E+02  0.51100000000E-03 0. -1.
         11   -1    0    0    0    0 -0.00000000000E+00 -0.00000000000E+00 -0.45593999997E+02  0.45594000000E+02  0.51100000000E-03 0.  1.
    9900012    2    1    2    0    0  0.92395890898E+01  0.41915196166E+02  0.13669668126E+02  0.46142317600E+02  0.99999985336E+01 0.  0.
         12    1    1    2    0    0 -0.92395890898E+01 -0.41915196166E+02 -0.13669668126E+02  0.45045682400E+02  0.00000000000E+00 0. -1.
         11    1    3    3    0    0  0.55321645281E+01  0.20163287465E+02  0.10118821080E+02  0.23228291932E+02  0.51100000000E-03 0. -1.
        -11    1    3    3    0    0  0.39532422761E+01  0.20130583998E+02  0.45228696288E+01  0.21007733969E+02  0.51100000000E-03 0.  1.
         12    1    3    3    0    0 -0.24581771431E+00  0.16213247036E+01 -0.97202258248E+00  0.19062916996E+01  0.00000000000E+00 0. -1.
</event>
<event>
 7    1  0.2297343E-008  0.4614232E+02  0.7816164E-02  0.1320468E+00
        -11   -1    0    0    0    0  0.00000000000E+00  0.00000000000E+00  0.45593999997E+02  0.45594000000E+02  0.51100000000E-03 0.  1.
         11   -1    0    0    0    0 -0.00000000000E+00 -0.00000000000E+00 -0.45593999997E+02  0.45594000000E+02  0.51100000000E-03 0. -1.
    9900012    2    1    2    0    0 -0.13958725572E+01 -0.22581463602E+02  0.38951794766E+02  0.46142320140E+02  0.10000021689E+02 0.  0.
         12    1    1    2    0    0  0.13958725572E+01  0.22581463602E+02 -0.38951794766E+02  0.45045679860E+02  0.00000000000E+00 0. -1.
         11    1    3    3    0    0 -0.25805905748E+01 -0.10478523084E+02  0.12765348810E+02  0.16715652073E+02  0.51100000000E-03 0. -1.
        -11    1    3    3    0    0 -0.44677275535E+00  0.10627872130E+00 -0.30468522258E-01  0.46024955567E+00  0.51100000000E-03 0.  1.
        -12    1    3    3    0    0  0.16314907730E+01 -0.12209219240E+02  0.26216914478E+02  0.28966418511E+02  0.00000000000E+00 0.  1.
</event>
<event>
 7    1  0.2297343E-008  0.4614232E+02  0.7816164E-02  0.1320468E+00
        -11   -1    0    0    0    0  0.00000000000E+00  0.00000000000E+00  0.45593999997E+02  0.45594000000E+02  0.51100000000E-03 0.  1.
         11   -1    0    0    0    0 -0.00000000000E+00 -0.00000000000E+00 -0.45593999997E+02  0.45594000000E+02  0.51100000000E-03 0. -1.
    9900012    2    1    2    0    0  0.17283600493E+02 -0.25330153775E+02  0.32996575123E+02  0.46142317564E+02  0.99999982044E+01 0.  0.
         12    1    1    2    0    0 -0.17283600493E+02  0.25330153775E+02 -0.32996575123E+02  0.45045682436E+02  0.00000000000E+00 0. -1.
         11    1    3    3    0    0  0.27218259405E+01 -0.87504633913E+01  0.13387674235E+02  0.16223710047E+02  0.51100000000E-03 0. -1.
        -11    1    3    3    0    0  0.68889992086E+01 -0.98386959758E+01  0.78744191938E+01  0.14361919318E+02  0.51100000000E-03 0.  1.
         12    1    3    3    0    0  0.76727753437E+01 -0.67409944074E+01  0.11734481695E+02  0.15556688199E+02  0.00000000000E+00 0. -1.
</event>
<event>
 7    1  0.2297343E-008  0.4614232E+02  0.7816164E-02  0.1320468E+00
        -11   -1    0    0    0    0  0.00000000000E+00  0.00000000000E+00  0.45593999997E+02  0.45594000000E+02  0.51100000000E-03 0. -1.
         11   -1    0    0    0    0 -0.00000000000E+00 -0.00000000000E+00 -0.45593999997E+02  0.45594000000E+02  0.51100000000E-03 0.  1.
    9900012    2    1    2    0    0  0.25170802018E+02 -0.33293241171E+02 -0.16944153519E+02  0.46142317406E+02  0.99999967645E+01 0.  0.
         12    1    1    2    0    0 -0.25170802018E+02  0.33293241171E+02  0.16944153519E+02  0.45045682594E+02  0.00000000000E+00 0. -1.
         11    1    3    3    0    0  0.12519854295E+02 -0.19781023348E+02 -0.11392443049E+02  0.26035041677E+02  0.51100000000E-03 0.  1.
        -11    1    3    3    0    0  0.14768617725E+01 -0.50684404253E+01 -0.94244623978E+00  0.53626872196E+01  0.51100000000E-03 0. -1.
        -12    1    3    3    0    0  0.11174085951E+02 -0.84437773975E+01 -0.46092642297E+01  0.14744588509E+02  0.00000000000E+00 0.  1.
</event>
<event>
 7    1  0.2297343E-008  0.4614232E+02  0.7816164E-02  0.1320468E+00
        -11   -1    0    0    0    0  0.00000000000E+00  0.00000000000E+00  0.45593999997E+02  0.45594000000E+02  0.51100000000E-03 0.  1.
         11   -1    0    0    0    0 -0.00000000000E+00 -0.00000000000E+00 -0.45593999997E+02  0.45594000000E+02  0.51100000000E-03 0. -1.
    9900012    2    1    2    0    0 -0.18527495664E+02  0.20331837238E+02  0.35671581830E+02  0.46142318173E+02  0.10000003752E+02 0.  0.
         12    1    1    2    0    0  0.18527495664E+02 -0.20331837238E+02 -0.35671581830E+02  0.45045681827E+02  0.00000000000E+00 0. -1.
         11    1    3    3    0    0 -0.20660911487E+01 -0.45113734632E+00  0.16471127129E+01  0.26805294421E+01  0.51100000000E-03 0. -1.
        -11    1    3    3    0    0 -0.71603582465E-01  0.11707547339E+01  0.42887285638E+00  0.12488898702E+01  0.51100000000E-03 0.  1.
        -12    1    3    3    0    0 -0.16389800933E+02  0.19612219850E+02  0.33595596261E+02  0.42212898860E+02  0.00000000000E+00 0.  1.
</event>
<event>
 7    1  0.2297343E-008  0.4614232E+02  0.7816164E-02  0.1320468E+00
        -11   -1    0    0    0    0  0.00000000000E+00  0.00000000000E+00  0.45593999997E+02  0.45594000000E+02  0.51100000000E-03 0. -1.
         11   -1    0    0    0    0 -0.00000000000E+00 -0.00000000000E+00 -0.45593999997E+02  0.45594000000E+02  0.51100000000E-03 0.  1.
    9900012    2    1    2    0    0  0.17403221911E+02  0.11318063803E+02 -0.39976771869E+02  0.46142323291E+02  0.10000050425E+02 0.  0.
         12    1    1    2    0    0 -0.17403221911E+02 -0.11318063803E+02  0.39976771869E+02  0.45045676709E+02  0.00000000000E+00 0. -1.
         11    1    3    3    0    0  0.12449342020E+02  0.66377154863E+01 -0.19453090267E+02  0.24030566053E+02  0.51100000000E-03 0. -1.
        -11    1    3    3    0    0  0.52048734996E+01  0.31699552353E+01 -0.18992930975E+02  0.19946697762E+02  0.51100000000E-03 0.  1.
         12    1    3    3    0    0 -0.25099360914E+00  0.15103930814E+01 -0.15307506269E+01  0.21650594758E+01  0.00000000000E+00 0. -1.
</event>
<event>
 7    1  0.2297343E-008  0.4614232E+02  0.7816164E-02  0.1320468E+00
        -11   -1    0    0    0    0  0.00000000000E+00  0.00000000000E+00  0.45593999997E+02  0.45594000000E+02  0.51100000000E-03 0. -1.
         11   -1    0    0    0    0 -0.00000000000E+00 -0.00000000000E+00 -0.45593999997E+02  0.45594000000E+02  0.51100000000E-03 0.  1.
    9900012    2    1    2    0    0 -0.32692415610E+02 -0.21683375658E+02 -0.22139345931E+02  0.46142318114E+02  0.10000003215E+02 0.  0.
         12    1    1    2    0    0  0.32692415610E+02  0.21683375658E+02  0.22139345931E+02  0.45045681886E+02  0.00000000000E+00 0. -1.
         11    1    3    3    0    0 -0.28388092829E+00  0.39903571499E+00 -0.50708350619E+00  0.70494810210E+00  0.51100000000E-03 0. -1.
        -11    1    3    3    0    0 -0.80464877477E+01 -0.23580648996E+01 -0.66142371560E+01  0.10679633353E+02  0.51100000000E-03 0.  1.
         12    1    3    3    0    0 -0.24362046934E+02 -0.19724346474E+02 -0.15018025269E+02  0.34757736658E+02  0.00000000000E+00 0. -1.
</event>
<event>
 7    1  0.2297343E-008  0.4614232E+02  0.7816164E-02  0.1320468E+00
        -11   -1    0    0    0    0  0.00000000000E+00  0.00000000000E+00  0.45593999997E+02  0.45594000000E+02  0.51100000000E-03 0.  1.
         11   -1    0    0    0    0 -0.00000000000E+00 -0.00000000000E+00 -0.45593999997E+02  0.45594000000E+02  0.51100000000E-03 0. -1.
    9900012    2    1    2    0    0  0.13762705902E+02 -0.21534113271E+02  0.37094249347E+02  0.46142318268E+02  0.10000004624E+02 0.  0.
         12    1    1    2    0    0 -0.13762705902E+02  0.21534113271E+02 -0.37094249347E+02  0.45045681732E+02  0.00000000000E+00 0. -1.
         11    1    3    3    0    0  0.13938530042E+01 -0.46671136095E+01  0.34495701861E+01  0.59686104221E+01  0.51100000000E-03 0. -1.
        -11    1    3    3    0    0  0.97127705223E+00 -0.38259050292E+01  0.10848777434E+02  0.11544561511E+02  0.51100000000E-03 0.  1.
        -12    1    3    3    0    0  0.11397575845E+02 -0.13041094632E+02  0.22795901726E+02  0.28629146335E+02  0.00000000000E+00 0.  1.
</event>
<event>
 7    1  0.2297343E-008  0.4614232E+02  0.7816164E-02  0.1320468E+00
        -11   -1    0    0    0    0  0.00000000000E+00  0.00000000000E+00  0.45593999997E+02  0.45594000000E+02  0.51100000000E-03 0.  1.
         11   -1    0    0    0    0 -0.00000000000E+00 -0.00000000000E+00 -0.45593999997E+02  0.45594000000E+02  0.51100000000E-03 0. -1.
    9900012    2    1    2    0    0  0.25616979213E+02 -0.36336110564E+02  0.72505733542E+01  0.46142319088E+02  0.10000012098E+02 0.  0.
         12    1    1    2    0    0 -0.25616979213E+02  0.36336110564E+02 -0.72505733542E+01  0.45045680912E+02  0.00000000000E+00 0. -1.
         11    1    3    3    0    0  0.16889779351E+02 -0.17643882442E+02  0.68110514512E+01  0.25356688591E+02  0.51100000000E-03 0.  1.
        -11    1    3    3    0    0  0.48328119829E+00 -0.17739316939E+01  0.69056555131E+00  0.19639947589E+01  0.51100000000E-03 0. -1.
        -12    1    3    3    0    0  0.82439186632E+01 -0.16918296427E+02 -0.25104364838E+00  0.18821635738E+02  0.00000000000E+00 0.  1.
</event>
<event>
 7    1  0.2297343E-008  0.4614232E+02  0.7816164E-02  0.1320468E+00
        -11   -1    0    0    0    0  0.00000000000E+00  0.00000000000E+00  0.45593999997E+02  0.45594000000E+02  0.51100000000E-03 0. -1.
         11   -1    0    0    0    0 -0.00000000000E+00 -0.00000000000E+00 -0.45593999997E+02  0.45594000000E+02  0.51100000000E-03 0.  1.
    9900012    2    1    2    0    0  0.22528185697E+02 -0.35836840294E+02 -0.15405042130E+02  0.46142316565E+02  0.99999890936E+01 0.  0.
         12    1    1    2    0    0 -0.22528185697E+02  0.35836840294E+02  0.15405042130E+02  0.45045683435E+02  0.00000000000E+00 0. -1.
         11    1    3    3    0    0  0.23130974394E+01 -0.79689211706E+00 -0.55439170254E+00  0.25085468365E+01  0.51100000000E-03 0. -1.
        -11    1    3    3    0    0  0.11933229107E+01 -0.50384024033E+01 -0.38288119318E+01  0.64396676480E+01  0.51100000000E-03 0.  1.
         12    1    3    3    0    0  0.19021765347E+02 -0.30001545774E+02 -0.11021838496E+02  0.37194102081E+02  0.00000000000E+00 0. -1.
</event>
<event>
 7    1  0.2297343E-008  0.4614232E+02  0.7816164E-02  0.1320468E+00
        -11   -1    0    0    0    0  0.00000000000E+00  0.00000000000E+00  0.45593999997E+02  0.45594000000E+02  0.51100000000E-03 0.  1.
         11   -1    0    0    0    0 -0.00000000000E+00 -0.00000000000E+00 -0.45593999997E+02  0.45594000000E+02  0.51100000000E-03 0. -1.
    9900012    2    1    2    0    0 -0.15256786864E+02 -0.37450978928E+02  0.19843593797E+02  0.46142316712E+02  0.99999904370E+01 0.  0.
         12    1    1    2    0    0  0.15256786864E+02  0.37450978928E+02 -0.19843593797E+02  0.45045683288E+02  0.00000000000E+00 0. -1.
         11    1    3    3    0    0 -0.38448630013E+01 -0.15760948119E+02  0.10971975386E+02  0.19585063218E+02  0.51100000000E-03 0. -1.
        -11    1    3    3    0    0 -0.10525448155E+02 -0.20271488417E+02  0.95433396577E+01  0.24754668925E+02  0.51100000000E-03 0.  1.
         12    1    3    3    0    0 -0.88647570792E+00 -0.14185423923E+01 -0.67172124665E+00  0.18025845702E+01  0.00000000000E+00 0. -1.
</event>
<event>
 7    1  0.2297343E-008  0.4614232E+02  0.7816164E-02  0.1320468E+00
        -11   -1    0    0    0    0  0.00000000000E+00  0.00000000000E+00  0.45593999997E+02  0.45594000000E+02  0.51100000000E-03 0.  1.
         11   -1    0    0    0    0 -0.00000000000E+00 -0.00000000000E+00 -0.45593999997E+02  0.45594000000E+02  0.51100000000E-03 0. -1.
    9900012    2    1    2    0    0 -0.43997941883E+02 -0.15428946747E+01 -0.95348880012E+01  0.46142317597E+02  0.99999985064E+01 0.  0.
         12    1    1    2    0    0  0.43997941883E+02  0.15428946747E+01  0.95348880012E+01  0.45045682403E+02  0.00000000000E+00 0. -1.
         11    1    3    3    0    0 -0.18679482072E+02 -0.33101020161E+01 -0.69643742208E+01  0.20208471847E+02  0.51100000000E-03 0. -1.
        -11    1    3    3    0    0 -0.43030760232E+01 -0.13945376848E+01  0.29457337981E-01  0.45235015875E+01  0.51100000000E-03 0.  1.
        -12    1    3    3    0    0 -0.21015383788E+02  0.31617450262E+01 -0.25999711184E+01  0.21410344163E+02  0.00000000000E+00 0.  1.
</event>
<event>
 7    1  0.2297343E-008  0.4614232E+02  0.7816164E-02  0.1320468E+00
        -11   -1    0    0    0    0  0.00000000000E+00  0.00000000000E+00  0.45593999997E+02  0.45594000000E+02  0.51100000000E-03 0.  1.
         11   -1    0    0    0    0 -0.00000000000E+00 -0.00000000000E+00 -0.45593999997E+02  0.45594000000E+02  0.51100000000E-03 0. -1.
    9900012    2    1    2    0    0 -0.24334287626E+02 -0.86447122133E+01  0.36908331845E+02  0.46142316931E+02  0.99999924329E+01 0.  0.
         12    1    1    2    0    0  0.24334287626E+02  0.86447122133E+01 -0.36908331845E+02  0.45045683069E+02  0.00000000000E+00 0. -1.
         11    1    3    3    0    0  0.21216291776E+00 -0.14307065021E+00 -0.44861176659E+00  0.51646402863E+00  0.51100000000E-03 0. -1.
        -11    1    3    3    0    0 -0.83938295080E+01 -0.13885939513E+01  0.13315022638E+02  0.15801088415E+02  0.51100000000E-03 0.  1.
        -12    1    3    3    0    0 -0.16152621036E+02 -0.71130476118E+01  0.24041920974E+02  0.29824764488E+02  0.00000000000E+00 0.  1.
</event>
<event>
 7    1  0.2297343E-008  0.4614232E+02  0.7816164E-02  0.1320468E+00
        -11   -1    0    0    0    0  0.00000000000E+00  0.00000000000E+00  0.45593999997E+02  0.45594000000E+02  0.51100000000E-03 0. -1.
         11   -1    0    0    0    0 -0.00000000000E+00 -0.00000000000E+00 -0.45593999997E+02  0.45594000000E+02  0.51100000000E-03 0.  1.
    9900012    2    1    2    0    0  0.10350252677E+02  0.43679002386E+02  0.37590279597E+01  0.46142320172E+02  0.10000021986E+02 0.  0.
         12    1    1    2    0    0 -0.10350252677E+02 -0.43679002386E+02 -0.37590279597E+01  0.45045679828E+02  0.00000000000E+00 0. -1.
         11    1    3    3    0    0  0.18506077436E+00  0.10829580518E+02  0.42507744569E+01  0.11635426311E+02  0.51100000000E-03 0. -1.
        -11    1    3    3    0    0  0.13062129023E+00  0.22150469806E+01 -0.48333329235E+00  0.22709263265E+01  0.51100000000E-03 0.  1.
         12    1    3    3    0    0  0.10034570613E+02  0.30634374887E+02 -0.84132048252E-02  0.32235967535E+02  0.00000000000E+00 0. -1.
</event>
<event>
 7    1  0.2297343E-008  0.4614232E+02  0.7816164E-02  0.1320468E+00
        -11   -1    0    0    0    0  0.00000000000E+00  0.00000000000E+00  0.45593999997E+02  0.45594000000E+02  0.51100000000E-03 0.  1.
         11   -1    0    0    0    0 -0.00000000000E+00 -0.00000000000E+00 -0.45593999997E+02  0.45594000000E+02  0.51100000000E-03 0. -1.
    9900012    2    1    2    0    0  0.16306138412E+02 -0.20581832330E+02  0.36600703408E+02  0.46142318055E+02  0.10000002678E+02 0.  0.
         12    1    1    2    0    0 -0.16306138412E+02  0.20581832330E+02 -0.36600703408E+02  0.45045681945E+02  0.00000000000E+00 0. -1.
         11    1    3    3    0    0  0.48889791811E+01 -0.32590091436E+01  0.12301640177E+02  0.13632813699E+02  0.51100000000E-03 0. -1.
        -11    1    3    3    0    0  0.11458697216E+02 -0.13429884741E+02  0.20722307951E+02  0.27222740367E+02  0.51100000000E-03 0.  1.
         12    1    3    3    0    0 -0.41537984696E-01 -0.38929384451E+01  0.35767552795E+01  0.52867639886E+01  0.00000000000E+00 0. -1.
</event>
<event>
 7    1  0.2297343E-008  0.4614232E+02  0.7816164E-02  0.1320468E+00
        -11   -1    0    0    0    0  0.00000000000E+00  0.00000000000E+00  0.45593999997E+02  0.45594000000E+02  0.51100000000E-03 0.  1.
         11   -1    0    0    0    0 -0.00000000000E+00 -0.00000000000E+00 -0.45593999997E+02  0.45594000000E+02  0.51100000000E-03 0. -1.
    9900012    2    1    2    0    0 -0.12959164780E+02  0.17820232368E+02  0.39288839284E+02  0.46142317347E+02  0.99999962220E+01 0.  0.
         12    1    1    2    0    0  0.12959164780E+02 -0.17820232368E+02 -0.39288839284E+02  0.45045682653E+02  0.00000000000E+00 0. -1.
         11    1    3    3    0    0 -0.38081587037E+01  0.15846341588E+01  0.11547061108E+02  0.12261637681E+02  0.51100000000E-03 0. -1.
        -11    1    3    3    0    0 -0.73258257276E+01  0.93154051914E+01  0.20627338304E+02  0.23789316557E+02  0.51100000000E-03 0.  1.
         12    1    3    3    0    0 -0.18251803484E+01  0.69201930175E+01  0.71144398711E+01  0.10091363108E+02  0.00000000000E+00 0. -1.
</event>
<event>
 7    1  0.2297343E-008  0.4614232E+02  0.7816164E-02  0.1320468E+00
        -11   -1    0    0    0    0  0.00000000000E+00  0.00000000000E+00  0.45593999997E+02  0.45594000000E+02  0.51100000000E-03 0.  1.
         11   -1    0    0    0    0 -0.00000000000E+00 -0.00000000000E+00 -0.45593999997E+02  0.45594000000E+02  0.51100000000E-03 0. -1.
    9900012    2    1    2    0    0  0.18488453666E+01 -0.29079713861E+01  0.44913683929E+02  0.46142317289E+02  0.99999956974E+01 0.  0.
         12    1    1    2    0    0 -0.18488453666E+01  0.29079713861E+01 -0.44913683929E+02  0.45045682711E+02  0.00000000000E+00 0. -1.
         11    1    3    3    0    0 -0.31577743277E+00 -0.27650733339E+00  0.13318805305E+02  0.13325417318E+02  0.51100000000E-03 0. -1.
        -11    1    3    3    0    0  0.49740943628E+01 -0.23899937123E+01  0.25653137918E+02  0.26239991806E+02  0.51100000000E-03 0.  1.
         12    1    3    3    0    0 -0.28094715635E+01 -0.24147034044E+00  0.59417407072E+01  0.65769081659E+01  0.00000000000E+00 0. -1.
</event>
<event>
 7    1  0.2297343E-008  0.4614232E+02  0.7816164E-02  0.1320468E+00
        -11   -1    0    0    0    0  0.00000000000E+00  0.00000000000E+00  0.45593999997E+02  0.45594000000E+02  0.51100000000E-03 0.  1.
         11   -1    0    0    0    0 -0.00000000000E+00 -0.00000000000E+00 -0.45593999997E+02  0.45594000000E+02  0.51100000000E-03 0. -1.
    9900012    2    1    2    0    0 -0.53212991448E+01 -0.38096338516E+01  0.44567745063E+02  0.46142318357E+02  0.10000005431E+02 0.  0.
         12    1    1    2    0    0  0.53212991448E+01  0.38096338516E+01 -0.44567745063E+02  0.45045681643E+02  0.00000000000E+00 0. -1.
         11    1    3    3    0    0  0.20459504463E+01  0.15631506709E+01  0.10500673666E+02  0.10811729785E+02  0.51100000000E-03 0. -1.
        -11    1    3    3    0    0 -0.11452786237E+01 -0.18626825761E+01  0.93177744730E+01  0.95709023031E+01  0.51100000000E-03 0.  1.
        -12    1    3    3    0    0 -0.62219709674E+01 -0.35101019464E+01  0.24749296925E+02  0.25759686269E+02  0.00000000000E+00 0.  1.
</event>
<event>
 7    1  0.2297343E-008  0.4614232E+02  0.7816164E-02  0.1320468E+00
        -11   -1    0    0    0    0  0.00000000000E+00  0.00000000000E+00  0.45593999997E+02  0.45594000000E+02  0.51100000000E-03 0. -1.
         11   -1    0    0    0    0 -0.00000000000E+00 -0.00000000000E+00 -0.45593999997E+02  0.45594000000E+02  0.51100000000E-03 0.  1.
    9900012    2    1    2    0    0  0.34731484090E+02  0.62930684136E+01 -0.27986335853E+02  0.46142315505E+02  0.99999794239E+01 0.  0.
         12    1    1    2    0    0 -0.34731484090E+02 -0.62930684136E+01  0.27986335853E+02  0.45045684495E+02  0.00000000000E+00 0. -1.
         11    1    3    3    0    0  0.16968517723E+02  0.37380157545E+01 -0.85222341140E+01  0.19352824859E+02  0.51100000000E-03 0. -1.
        -11    1    3    3    0    0  0.66886421362E+01  0.12623511064E+01 -0.10355875743E+02  0.12392563359E+02  0.51100000000E-03 0.  1.
         12    1    3    3    0    0  0.11074324232E+02  0.12927015528E+01 -0.91082259956E+01  0.14396927286E+02  0.00000000000E+00 0. -1.
</event>
<event>
 7    1  0.2297343E-008  0.4614232E+02  0.7816164E-02  0.1320468E+00
        -11   -1    0    0    0    0  0.00000000000E+00  0.00000000000E+00  0.45593999997E+02  0.45594000000E+02  0.51100000000E-03 0.  1.
         11   -1    0    0    0    0 -0.00000000000E+00 -0.00000000000E+00 -0.45593999997E+02  0.45594000000E+02  0.51100000000E-03 0. -1.
    9900012    2    1    2    0    0  0.16372849351E+02 -0.14545076196E+02  0.39363478423E+02  0.46142324614E+02  0.10000062492E+02 0.  0.
         12    1    1    2    0    0 -0.16372849351E+02  0.14545076196E+02 -0.39363478423E+02  0.45045675386E+02  0.00000000000E+00 0. -1.
         11    1    3    3    0    0  0.38992240630E+01  0.82949450239E+00  0.51291590416E+01  0.64961744248E+01  0.51100000000E-03 0. -1.
        -11    1    3    3    0    0  0.11036620225E+02 -0.11990291119E+02  0.28637913530E+02  0.32950025171E+02  0.51100000000E-03 0.  1.
         12    1    3    3    0    0  0.14370050632E+01 -0.33842795790E+01  0.55964058508E+01  0.66961250188E+01  0.00000000000E+00 0. -1.
</event>
<event>
 7    1  0.2297343E-008  0.4614232E+02  0.7816164E-02  0.1320468E+00
        -11   -1    0    0    0    0  0.00000000000E+00  0.00000000000E+00  0.45593999997E+02  0.45594000000E+02  0.51100000000E-03 0.  1.
         11   -1    0    0    0    0 -0.00000000000E+00 -0.00000000000E+00 -0.45593999997E+02  0.45594000000E+02  0.51100000000E-03 0. -1.
    9900012    2    1    2    0    0 -0.17563653284E+02  0.22543162088E+02  0.34820067763E+02  0.46142321044E+02  0.10000029934E+02 0.  0.
         12    1    1    2    0    0  0.17563653284E+02 -0.22543162088E+02 -0.34820067763E+02  0.45045678956E+02  0.00000000000E+00 0. -1.
         11    1    3    3    0    0 -0.42592437596E+01  0.72382879084E+01  0.92350483767E+01  0.12482791676E+02  0.51100000000E-03 0.  1.
        -11    1    3    3    0    0 -0.38916618494E+01  0.57592599350E+01  0.33981234335E+01  0.77370117022E+01  0.51100000000E-03 0. -1.
         12    1    3    3    0    0 -0.94127476752E+01  0.95456142445E+01  0.22186895953E+02  0.25922517666E+02  0.00000000000E+00 0. -1.
</event>
<event>
 7    1  0.2297343E-008  0.4614232E+02  0.7816164E-02  0.1320468E+00
        -11   -1    0    0    0    0  0.00000000000E+00  0.00000000000E+00  0.45593999997E+02  0.45594000000E+02  0.51100000000E-03 0. -1.
         11   -1    0    0    0    0 -0.00000000000E+00 -0.00000000000E+00 -0.45593999997E+02  0.45594000000E+02  0.51100000000E-03 0.  1.
    9900012    2    1    2    0    0  0.11280639540E+02  0.93206979619E+01 -0.42602644103E+02  0.46142317371E+02  0.99999964449E+01 0.  0.
         12    1    1    2    0    0 -0.11280639540E+02 -0.93206979619E+01  0.42602644103E+02  0.45045682629E+02  0.00000000000E+00 0. -1.
         11    1    3    3    0    0 -0.40360040681E-01 -0.53711611968E-01 -0.23336554104E+01  0.23346223904E+01  0.51100000000E-03 0. -1.
        -11    1    3    3    0    0  0.11845636358E+02  0.53074511596E+01 -0.27785114973E+02  0.30667584725E+02  0.51100000000E-03 0.  1.
        -12    1    3    3    0    0 -0.52463677730E+00  0.40669584142E+01 -0.12483873719E+02  0.13140110256E+02  0.00000000000E+00 0.  1.
</event>
<event>
 7    1  0.2297343E-008  0.4614232E+02  0.7816164E-02  0.1320468E+00
        -11   -1    0    0    0    0  0.00000000000E+00  0.00000000000E+00  0.45593999997E+02  0.45594000000E+02  0.51100000000E-03 0.  1.
         11   -1    0    0    0    0 -0.00000000000E+00 -0.00000000000E+00 -0.45593999997E+02  0.45594000000E+02  0.51100000000E-03 0. -1.
    9900012    2    1    2    0    0 -0.95710420633E+01 -0.38820178226E+01  0.43845621923E+02  0.46142317961E+02  0.10000001822E+02 0.  0.
         12    1    1    2    0    0  0.95710420633E+01  0.38820178226E+01 -0.43845621923E+02  0.45045682039E+02  0.00000000000E+00 0. -1.
         11    1    3    3    0    0 -0.68649518309E+01 -0.31691212853E+01  0.17465360711E+02  0.19031808069E+02  0.51100000000E-03 0. -1.
        -11    1    3    3    0    0 -0.43203077726E+01 -0.12629046029E+00  0.21671494432E+02  0.22098295855E+02  0.51100000000E-03 0.  1.
        -12    1    3    3    0    0  0.16142175402E+01 -0.58660607697E+00  0.47087667805E+01  0.50122140367E+01  0.00000000000E+00 0.  1.
</event>
<event>
 7    1  0.2297343E-008  0.4614232E+02  0.7816164E-02  0.1320468E+00
        -11   -1    0    0    0    0  0.00000000000E+00  0.00000000000E+00  0.45593999997E+02  0.45594000000E+02  0.51100000000E-03 0.  1.
         11   -1    0    0    0    0 -0.00000000000E+00 -0.00000000000E+00 -0.45593999997E+02  0.45594000000E+02  0.51100000000E-03 0. -1.
    9900012    2    1    2    0    0 -0.13419266897E+02 -0.34105506649E+02  0.26188761236E+02  0.46142317378E+02  0.99999965033E+01 0.  0.
         12    1    1    2    0    0  0.13419266897E+02  0.34105506649E+02 -0.26188761236E+02  0.45045682622E+02  0.00000000000E+00 0. -1.
         11    1    3    3    0    0 -0.18162408400E+00 -0.28427225495E+00 -0.14292962501E+00  0.36637025214E+00  0.51100000000E-03 0. -1.
        -11    1    3    3    0    0 -0.14309865731E+02 -0.29922269570E+02  0.24943781597E+02  0.41500683296E+02  0.51100000000E-03 0.  1.
        -12    1    3    3    0    0  0.10722229174E+01 -0.38989648242E+01  0.13879092640E+01  0.42752638293E+01  0.00000000000E+00 0.  1.
</event>
<event>
 7    1  0.2297343E-008  0.4614232E+02  0.7816164E-02  0.1320468E+00
        -11   -1    0    0    0    0  0.00000000000E+00  0.00000000000E+00  0.45593999997E+02  0.45594000000E+02  0.51100000000E-03 0. -1.
         11   -1    0    0    0    0 -0.00000000000E+00 -0.00000000000E+00 -0.45593999997E+02  0.45594000000E+02  0.51100000000E-03 0.  1.
    9900012    2    1    2    0    0 -0.85710235241E+01 -0.14069564998E+02 -0.41924913745E+02  0.46142317677E+02  0.99999992298E+01 0.  0.
         12    1    1    2    0    0  0.85710235241E+01  0.14069564998E+02  0.41924913745E+02  0.45045682323E+02  0.00000000000E+00 0. -1.
         11    1    3    3    0    0  0.13544593320E+01 -0.41388470730E+00 -0.44512721836E+01  0.46711545625E+01  0.51100000000E-03 0.  1.
        -11    1    3    3    0    0 -0.25536867916E+00 -0.33410752302E+01 -0.46464299948E+01  0.57286393510E+01  0.51100000000E-03 0. -1.
        -12    1    3    3    0    0 -0.96701141768E+01 -0.10314605060E+02 -0.32827211566E+02  0.35742523763E+02  0.00000000000E+00 0.  1.
</event>
<event>
 7    1  0.2297343E-008  0.4614232E+02  0.7816164E-02  0.1320468E+00
        -11   -1    0    0    0    0  0.00000000000E+00  0.00000000000E+00  0.45593999997E+02  0.45594000000E+02  0.51100000000E-03 0. -1.
         11   -1    0    0    0    0 -0.00000000000E+00 -0.00000000000E+00 -0.45593999997E+02  0.45594000000E+02  0.51100000000E-03 0.  1.
    9900012    2    1    2    0    0  0.39733068887E+01  0.42403740522E+02  0.14671370593E+02  0.46142317710E+02  0.99999995323E+01 0.  0.
         12    1    1    2    0    0 -0.39733068887E+01 -0.42403740522E+02 -0.14671370593E+02  0.45045682290E+02  0.00000000000E+00 0. -1.
         11    1    3    3    0    0  0.21750156285E+01  0.51057135629E+01  0.34294078811E-01  0.55497910154E+01  0.51100000000E-03 0. -1.
        -11    1    3    3    0    0  0.20862378079E+01  0.39997349804E+01  0.10770272391E+01  0.46379150531E+01  0.51100000000E-03 0.  1.
        -12    1    3    3    0    0 -0.28794654776E+00  0.33298291979E+02  0.13560049275E+02  0.35954611641E+02  0.00000000000E+00 0.  1.
</event>
<event>
 7    1  0.2297343E-008  0.4614232E+02  0.7816164E-02  0.1320468E+00
        -11   -1    0    0    0    0  0.00000000000E+00  0.00000000000E+00  0.45593999997E+02  0.45594000000E+02  0.51100000000E-03 0.  1.
         11   -1    0    0    0    0 -0.00000000000E+00 -0.00000000000E+00 -0.45593999997E+02  0.45594000000E+02  0.51100000000E-03 0. -1.
    9900012    2    1    2    0    0  0.35117610018E+01 -0.27936021216E+02  0.35161907899E+02  0.46142317479E+02  0.99999974239E+01 0.  0.
         12    1    1    2    0    0 -0.35117610018E+01  0.27936021216E+02 -0.35161907899E+02  0.45045682521E+02  0.00000000000E+00 0. -1.
         11    1    3    3    0    0  0.14608969612E+01 -0.10145592245E+01  0.12134718938E+01  0.21531522588E+01  0.51100000000E-03 0. -1.
        -11    1    3    3    0    0  0.25073308490E+01 -0.28325471460E+01  0.34284923340E+01  0.51053492795E+01  0.51100000000E-03 0.  1.
         12    1    3    3    0    0 -0.45646680838E+00 -0.24088914845E+02  0.30519943671E+02  0.38883815940E+02  0.00000000000E+00 0. -1.
</event>
<event>
 7    1  0.2297343E-008  0.4614232E+02  0.7816164E-02  0.1320468E+00
        -11   -1    0    0    0    0  0.00000000000E+00  0.00000000000E+00  0.45593999997E+02  0.45594000000E+02  0.51100000000E-03 0.  1.
         11   -1    0    0    0    0 -0.00000000000E+00 -0.00000000000E+00 -0.45593999997E+02  0.45594000000E+02  0.51100000000E-03 0. -1.
    9900012    2    1    2    0    0  0.17880447927E+02  0.92574397570E+01  0.40295196949E+02  0.46142317564E+02  0.99999982034E+01 0.  0.
         12    1    1    2    0    0 -0.17880447927E+02 -0.92574397570E+01 -0.40295196949E+02  0.45045682436E+02  0.00000000000E+00 0. -1.
         11    1    3    3    0    0  0.62270277825E+01  0.26856358638E+01  0.14854936842E+02  0.16329655962E+02  0.51100000000E-03 0. -1.
        -11    1    3    3    0    0  0.11081149189E+02  0.25088548627E+01  0.17307877651E+02  0.20703836580E+02  0.51100000000E-03 0.  1.
         12    1    3    3    0    0  0.57227095530E+00  0.40629490306E+01  0.81323824568E+01  0.91088250227E+01  0.00000000000E+00 0. -1.
</event>
<event>
 7    1  0.2297343E-008  0.4614230E+02  0.7816164E-02  0.1320468E+00
        -11   -1    0    0    0    0  0.00000000000E+00  0.00000000000E+00  0.45593999997E+02  0.45594000000E+02  0.51100000000E-03 0. -1.
         11   -1    0    0    0    0 -0.00000000000E+00 -0.00000000000E+00 -0.45593999997E+02  0.45594000000E+02  0.51100000000E-03 0.  1.
    9900012    2    1    2    0    0  0.90470975667E+01 -0.42953790747E+01 -0.43918273002E+02  0.46142301435E+02  0.99998511225E+01 0.  0.
         12    1    1    2    0    0 -0.90470975667E+01  0.42953790747E+01  0.43918273002E+02  0.45045698565E+02  0.00000000000E+00 0. -1.
         11    1    3    3    0    0 -0.14068438071E+01  0.42823794450E+00 -0.37200936930E+01  0.40002118169E+01  0.51100000000E-03 0. -1.
        -11    1    3    3    0    0  0.85035802536E+01 -0.18412359495E+01 -0.33270714742E+02  0.34389554906E+02  0.51100000000E-03 0.  1.
        -12    1    3    3    0    0  0.19503611203E+01 -0.28823810697E+01 -0.69274645669E+01  0.77525347117E+01  0.00000000000E+00 0.  1.
</event>
<event>
 7    1  0.2297343E-008  0.4614232E+02  0.7816164E-02  0.1320468E+00
        -11   -1    0    0    0    0  0.00000000000E+00  0.00000000000E+00  0.45593999997E+02  0.45594000000E+02  0.51100000000E-03 0.  1.
         11   -1    0    0    0    0 -0.00000000000E+00 -0.00000000000E+00 -0.45593999997E+02  0.45594000000E+02  0.51100000000E-03 0. -1.
    9900012    2    1    2    0    0  0.23726418581E+02  0.26271291383E+02  0.27856593715E+02  0.46142317598E+02  0.99999985168E+01 0.  0.
         12    1    1    2    0    0 -0.23726418581E+02 -0.26271291383E+02 -0.27856593715E+02  0.45045682402E+02  0.00000000000E+00 0. -1.
         11    1    3    3    0    0 -0.29729871547E+00  0.29784876292E+01  0.33281788578E+01  0.44762204876E+01  0.51100000000E-03 0. -1.
        -11    1    3    3    0    0  0.16946852877E+02  0.18572873428E+02  0.19107514126E+02  0.31579178998E+02  0.51100000000E-03 0.  1.
         12    1    3    3    0    0  0.70768644188E+01  0.47199303259E+01  0.54209007314E+01  0.10086918113E+02  0.00000000000E+00 0. -1.
</event>
<event>
 7    1  0.2297343E-008  0.4614232E+02  0.7816164E-02  0.1320468E+00
        -11   -1    0    0    0    0  0.00000000000E+00  0.00000000000E+00  0.45593999997E+02  0.45594000000E+02  0.51100000000E-03 0.  1.
         11   -1    0    0    0    0 -0.00000000000E+00 -0.00000000000E+00 -0.45593999997E+02  0.45594000000E+02  0.51100000000E-03 0. -1.
    9900012    2    1    2    0    0 -0.92822587580E+01  0.11304244431E+02  0.42604779713E+02  0.46142317363E+02  0.99999963737E+01 0.  0.
         12    1    1    2    0    0  0.92822587580E+01 -0.11304244431E+02 -0.42604779713E+02  0.45045682637E+02  0.00000000000E+00 0. -1.
         11    1    3    3    0    0 -0.35047203959E+01  0.27932636292E+01  0.98744189747E+01  0.10843870947E+02  0.51100000000E-03 0. -1.
        -11    1    3    3    0    0 -0.71820188074E+01  0.89360342020E+01  0.30862934585E+02  0.32923469333E+02  0.51100000000E-03 0.  1.
        -12    1    3    3    0    0  0.14044804452E+01 -0.42505340061E+00  0.18674261529E+01  0.23749770843E+01  0.00000000000E+00 0.  1.
</event>
<event>
 7    1  0.2297343E-008  0.4614232E+02  0.7816164E-02  0.1320468E+00
        -11   -1    0    0    0    0  0.00000000000E+00  0.00000000000E+00  0.45593999997E+02  0.45594000000E+02  0.51100000000E-03 0.  1.
         11   -1    0    0    0    0 -0.00000000000E+00 -0.00000000000E+00 -0.45593999997E+02  0.45594000000E+02  0.51100000000E-03 0. -1.
    9900012    2    1    2    0    0  0.27203554835E+02  0.34628020296E+02  0.94857941376E+01  0.46142317902E+02  0.10000001282E+02 0.  0.
         12    1    1    2    0    0 -0.27203554835E+02 -0.34628020296E+02 -0.94857941376E+01  0.45045682098E+02  0.00000000000E+00 0. -1.
         11    1    3    3    0    0  0.80773497620E+01  0.10594469446E+02 -0.96383148375E+00  0.13357220273E+02  0.51100000000E-03 0. -1.
        -11    1    3    3    0    0  0.82006449298E+01  0.14065411843E+02  0.52081894139E+01  0.17094198572E+02  0.51100000000E-03 0.  1.
        -12    1    3    3    0    0  0.10925560143E+02  0.99681390062E+01  0.52414362075E+01  0.15690899057E+02  0.00000000000E+00 0.  1.
</event>
<event>
 7    1  0.2297343E-008  0.4614232E+02  0.7816164E-02  0.1320468E+00
        -11   -1    0    0    0    0  0.00000000000E+00  0.00000000000E+00  0.45593999997E+02  0.45594000000E+02  0.51100000000E-03 0. -1.
         11   -1    0    0    0    0 -0.00000000000E+00 -0.00000000000E+00 -0.45593999997E+02  0.45594000000E+02  0.51100000000E-03 0.  1.
    9900012    2    1    2    0    0  0.42166688663E+02 -0.36127272192E+00 -0.15841508616E+02  0.46142317122E+02  0.99999941678E+01 0.  0.
         12    1    1    2    0    0 -0.42166688663E+02  0.36127272192E+00  0.15841508616E+02  0.45045682878E+02  0.00000000000E+00 0. -1.
         11    1    3    3    0    0  0.24965666519E+01  0.16064122097E+01 -0.31649494874E+01  0.43393905970E+01  0.51100000000E-03 0. -1.
        -11    1    3    3    0    0  0.29930859984E+02 -0.53867595139E+00 -0.10481289709E+02  0.31717565880E+02  0.51100000000E-03 0.  1.
        -12    1    3    3    0    0  0.97392620270E+01 -0.14290089803E+01 -0.21952694195E+01  0.10085360644E+02  0.00000000000E+00 0.  1.
</event>
<event>
 7    1  0.2297343E-008  0.4614232E+02  0.7816164E-02  0.1320468E+00
        -11   -1    0    0    0    0  0.00000000000E+00  0.00000000000E+00  0.45593999997E+02  0.45594000000E+02  0.51100000000E-03 0.  1.
         11   -1    0    0    0    0 -0.00000000000E+00 -0.00000000000E+00 -0.45593999997E+02  0.45594000000E+02  0.51100000000E-03 0. -1.
    9900012    2    1    2    0    0 -0.21787424800E+02 -0.11933166074E+02  0.37576869305E+02  0.46142318312E+02  0.10000005027E+02 0.  0.
         12    1    1    2    0    0  0.21787424800E+02  0.11933166074E+02 -0.37576869305E+02  0.45045681688E+02  0.00000000000E+00 0. -1.
         11    1    3    3    0    0 -0.36848881041E+01 -0.21797101731E+00  0.45990355610E+01  0.58972061229E+01  0.51100000000E-03 0. -1.
        -11    1    3    3    0    0 -0.95554334938E+01 -0.17225995832E+01  0.16725938512E+02  0.19339872749E+02  0.51100000000E-03 0.  1.
         12    1    3    3    0    0 -0.85471032021E+01 -0.99925954731E+01  0.16251895232E+02  0.20905239441E+02  0.00000000000E+00 0. -1.
</event>
<event>
 7    1  0.2297343E-008  0.4614232E+02  0.7816164E-02  0.1320468E+00
        -11   -1    0    0    0    0  0.00000000000E+00  0.00000000000E+00  0.45593999997E+02  0.45594000000E+02  0.51100000000E-03 0. -1.
         11   -1    0    0    0    0 -0.00000000000E+00 -0.00000000000E+00 -0.45593999997E+02  0.45594000000E+02  0.51100000000E-03 0.  1.
    9900012    2    1    2    0    0 -0.31480083108E+02 -0.29281493503E+02 -0.13442914374E+02  0.46142318286E+02  0.10000004786E+02 0.  0.
         12    1    1    2    0    0  0.31480083108E+02  0.29281493503E+02  0.13442914374E+02  0.45045681714E+02  0.00000000000E+00 0. -1.
         11    1    3    3    0    0 -0.58319807698E+01 -0.31547769921E+01 -0.37261105719E+01  0.76058213116E+01  0.51100000000E-03 0. -1.
        -11    1    3    3    0    0 -0.25996190006E+02 -0.25215934999E+02 -0.98978259001E+01  0.37544802976E+02  0.51100000000E-03 0.  1.
        -12    1    3    3    0    0  0.34808766793E+00 -0.91078151201E+00  0.18102209769E+00  0.99169399869E+00  0.00000000000E+00 0.  1.
</event>
<event>
 7    1  0.2297343E-008  0.4614232E+02  0.7816164E-02  0.1320468E+00
        -11   -1    0    0    0    0  0.00000000000E+00  0.00000000000E+00  0.45593999997E+02  0.45594000000E+02  0.51100000000E-03 0.  1.
         11   -1    0    0    0    0 -0.00000000000E+00 -0.00000000000E+00 -0.45593999997E+02  0.45594000000E+02  0.51100000000E-03 0. -1.
    9900012    2    1    2    0    0  0.37648413164E+02  0.53257290891E+01  0.24152580134E+02  0.46142317285E+02  0.99999956624E+01 0.  0.
         12    1    1    2    0    0 -0.37648413164E+02 -0.53257290891E+01 -0.24152580134E+02  0.45045682715E+02  0.00000000000E+00 0. -1.
         11    1    3    3    0    0  0.12187459759E+02  0.48686857007E+01  0.68123028566E+01  0.14786674620E+02  0.51100000000E-03 0. -1.
        -11    1    3    3    0    0  0.64048359723E+01  0.25804934498E+01  0.37903486599E+01  0.78770307541E+01  0.51100000000E-03 0.  1.
        -12    1    3    3    0    0  0.19056117432E+02 -0.21234500614E+01  0.13549928618E+02  0.23478611912E+02  0.00000000000E+00 0.  1.
</event>
<event>
 7    1  0.2297343E-008  0.4614232E+02  0.7816164E-02  0.1320468E+00
        -11   -1    0    0    0    0  0.00000000000E+00  0.00000000000E+00  0.45593999997E+02  0.45594000000E+02  0.51100000000E-03 0.  1.
         11   -1    0    0    0    0 -0.00000000000E+00 -0.00000000000E+00 -0.45593999997E+02  0.45594000000E+02  0.51100000000E-03 0. -1.
    9900012    2    1    2    0    0 -0.20055245193E+02  0.32598823053E+02  0.23753260038E+02  0.46142317780E+02  0.10000000175E+02 0.  0.
         12    1    1    2    0    0  0.20055245193E+02 -0.32598823053E+02 -0.23753260038E+02  0.45045682220E+02  0.00000000000E+00 0. -1.
         11    1    3    3    0    0 -0.47329936180E+01  0.12365073470E+02  0.11807817148E+02  0.17740372503E+02  0.51100000000E-03 0. -1.
        -11    1    3    3    0    0 -0.69582090520E+01  0.69269689797E+01  0.27656946712E+01  0.10200423507E+02  0.51100000000E-03 0.  1.
         12    1    3    3    0    0 -0.83640425228E+01  0.13306780604E+02  0.91797482196E+01  0.18201521770E+02  0.00000000000E+00 0. -1.
</event>
<event>
 7    1  0.2297343E-008  0.4614232E+02  0.7816164E-02  0.1320468E+00
        -11   -1    0    0    0    0  0.00000000000E+00  0.00000000000E+00  0.45593999997E+02  0.45594000000E+02  0.51100000000E-03 0.  1.
         11   -1    0    0    0    0 -0.00000000000E+00 -0.00000000000E+00 -0.45593999997E+02  0.45594000000E+02  0.51100000000E-03 0. -1.
    9900012    2    1    2    0    0 -0.29742020445E+02 -0.95661682458E+01  0.32450179522E+02  0.46142317565E+02  0.99999982075E+01 0.  0.
         12    1    1    2    0    0  0.29742020445E+02  0.95661682458E+01 -0.32450179522E+02  0.45045682435E+02  0.00000000000E+00 0. -1.
         11    1    3    3    0    0 -0.58229393030E+01 -0.17234602420E+01  0.28785482284E+01  0.67203405789E+01  0.51100000000E-03 0. -1.
        -11    1    3    3    0    0 -0.14291192071E+02 -0.76206107113E+01  0.21072631711E+02  0.26577578632E+02  0.51100000000E-03 0.  1.
        -12    1    3    3    0    0 -0.96278890714E+01 -0.22209729246E+00  0.84989995821E+01  0.12844398354E+02  0.00000000000E+00 0.  1.
</event>
<event>
 7    1  0.2297343E-008  0.4614232E+02  0.7816164E-02  0.1320468E+00
        -11   -1    0    0    0    0  0.00000000000E+00  0.00000000000E+00  0.45593999997E+02  0.45594000000E+02  0.51100000000E-03 0.  1.
         11   -1    0    0    0    0 -0.00000000000E+00 -0.00000000000E+00 -0.45593999997E+02  0.45594000000E+02  0.51100000000E-03 0. -1.
    9900012    2    1    2    0    0  0.20473074379E+02  0.38071616948E+02  0.12669587102E+02  0.46142320641E+02  0.10000026265E+02 0.  0.
         12    1    1    2    0    0 -0.20473074379E+02 -0.38071616948E+02 -0.12669587102E+02  0.45045679359E+02  0.00000000000E+00 0. -1.
         11    1    3    3    0    0  0.41691989387E+01  0.70817192319E+01  0.48728798784E+01  0.95539481703E+01  0.51100000000E-03 0. -1.
        -11    1    3    3    0    0  0.68515689850E+01  0.16634070415E+02  0.73168871822E+00  0.18004767834E+02  0.51100000000E-03 0.  1.
        -12    1    3    3    0    0  0.94523064553E+01  0.14355827301E+02  0.70650185052E+01  0.18583604637E+02  0.00000000000E+00 0.  1.
</event>
<event>
 7    1  0.2297343E-008  0.4614232E+02  0.7816164E-02  0.1320468E+00
        -11   -1    0    0    0    0  0.00000000000E+00  0.00000000000E+00  0.45593999997E+02  0.45594000000E+02  0.51100000000E-03 0.  1.
         11   -1    0    0    0    0 -0.00000000000E+00 -0.00000000000E+00 -0.45593999997E+02  0.45594000000E+02  0.51100000000E-03 0. -1.
    9900012    2    1    2    0    0  0.33862870832E+02  0.28673849074E+02  0.77608011929E+01  0.46142315669E+02  0.99999809255E+01 0.  0.
         12    1    1    2    0    0 -0.33862870832E+02 -0.28673849074E+02 -0.77608011929E+01  0.45045684331E+02  0.00000000000E+00 0. -1.
         11    1    3    3    0    0  0.69569780217E+01  0.10510540563E+02  0.27414946329E+01  0.12899100713E+02  0.51100000000E-03 0. -1.
        -11    1    3    3    0    0  0.38061212617E+01  0.19991394107E+01 -0.10005414377E+01  0.44140911716E+01  0.51100000000E-03 0.  1.
        -12    1    3    3    0    0  0.23099771548E+02  0.16164169100E+02  0.60198479977E+01  0.28829123785E+02  0.00000000000E+00 0.  1.
</event>
<event>
 7    1  0.2297343E-008  0.4614232E+02  0.7816164E-02  0.1320468E+00
        -11   -1    0    0    0    0  0.00000000000E+00  0.00000000000E+00  0.45593999997E+02  0.45594000000E+02  0.51100000000E-03 0.  1.
         11   -1    0    0    0    0 -0.00000000000E+00 -0.00000000000E+00 -0.45593999997E+02  0.45594000000E+02  0.51100000000E-03 0. -1.
    9900012    2    1    2    0    0  0.41806833092E+02 -0.12826547146E+01  0.16722949691E+02  0.46142317158E+02  0.99999945040E+01 0.  0.
         12    1    1    2    0    0 -0.41806833092E+02  0.12826547146E+01 -0.16722949691E+02  0.45045682842E+02  0.00000000000E+00 0. -1.
         11    1    3    3    0    0  0.18644573724E+02  0.13657283228E+01  0.10083717324E+02  0.21240684982E+02  0.51100000000E-03 0. -1.
        -11    1    3    3    0    0  0.79935423040E+01  0.17949318260E+01  0.24009035332E+01  0.85371445380E+01  0.51100000000E-03 0.  1.
        -12    1    3    3    0    0  0.15168717064E+02 -0.44433148635E+01  0.42383288342E+01  0.16364487638E+02  0.00000000000E+00 0.  1.
</event>
<event>
 7    1  0.2297343E-008  0.4614232E+02  0.7816164E-02  0.1320468E+00
        -11   -1    0    0    0    0  0.00000000000E+00  0.00000000000E+00  0.45593999997E+02  0.45594000000E+02  0.51100000000E-03 0.  1.
         11   -1    0    0    0    0 -0.00000000000E+00 -0.00000000000E+00 -0.45593999997E+02  0.45594000000E+02  0.51100000000E-03 0. -1.
    9900012    2    1    2    0    0  0.37703698874E+02 -0.14324676658E+02  0.20058619541E+02  0.46142317765E+02  0.10000000036E+02 0.  0.
         12    1    1    2    0    0 -0.37703698874E+02  0.14324676658E+02 -0.20058619541E+02  0.45045682235E+02  0.00000000000E+00 0. -1.
         11    1    3    3    0    0  0.17019599211E+02 -0.85827546639E+01  0.61778076502E+01  0.20037358672E+02  0.51100000000E-03 0. -1.
        -11    1    3    3    0    0  0.63578499037E+01 -0.28565805449E+01  0.19455328707E+01  0.72365327484E+01  0.51100000000E-03 0.  1.
        -12    1    3    3    0    0  0.14326249759E+02 -0.28853414493E+01  0.11935279020E+02  0.18868426345E+02  0.00000000000E+00 0.  1.
</event>
<event>
 7    1  0.2297343E-008  0.4614232E+02  0.7816164E-02  0.1320468E+00
        -11   -1    0    0    0    0  0.00000000000E+00  0.00000000000E+00  0.45593999997E+02  0.45594000000E+02  0.51100000000E-03 0.  1.
         11   -1    0    0    0    0 -0.00000000000E+00 -0.00000000000E+00 -0.45593999997E+02  0.45594000000E+02  0.51100000000E-03 0. -1.
    9900012    2    1    2    0    0 -0.25961030277E+02 -0.33835187859E+02  0.14502363927E+02  0.46142316634E+02  0.99999897219E+01 0.  0.
         12    1    1    2    0    0  0.25961030277E+02  0.33835187859E+02 -0.14502363927E+02  0.45045683366E+02  0.00000000000E+00 0. -1.
         11    1    3    3    0    0 -0.10205225218E+02 -0.99420424075E+01  0.26006420334E+01  0.14482892260E+02  0.51100000000E-03 0.  1.
        -11    1    3    3    0    0 -0.46459388101E+01 -0.44035880281E+01  0.31216352473E+00  0.64088829975E+01  0.51100000000E-03 0. -1.
         12    1    3    3    0    0 -0.11109866249E+02 -0.19489557423E+02  0.11589558369E+02  0.25250541376E+02  0.00000000000E+00 0. -1.
</event>
<event>
 7    1  0.2297343E-008  0.4614232E+02  0.7816164E-02  0.1320468E+00
        -11   -1    0    0    0    0  0.00000000000E+00  0.00000000000E+00  0.45593999997E+02  0.45594000000E+02  0.51100000000E-03 0.  1.
         11   -1    0    0    0    0 -0.00000000000E+00 -0.00000000000E+00 -0.45593999997E+02  0.45594000000E+02  0.51100000000E-03 0. -1.
    9900012    2    1    2    0    0 -0.17271117731E+02 -0.35279035575E+02  0.22050201554E+02  0.46142320436E+02  0.10000024396E+02 0.  0.
         12    1    1    2    0    0  0.17271117731E+02  0.35279035575E+02 -0.22050201554E+02  0.45045679564E+02  0.00000000000E+00 0. -1.
         11    1    3    3    0    0  0.15387091926E+00  0.23469082296E+00  0.71874612568E+00  0.77159075712E+00  0.51100000000E-03 0. -1.
        -11    1    3    3    0    0 -0.15663806066E+02 -0.32261787383E+02  0.17040116603E+02  0.39705708906E+02  0.51100000000E-03 0.  1.
        -12    1    3    3    0    0 -0.17611825845E+01 -0.32519390146E+01  0.42913388246E+01  0.56650207730E+01  0.00000000000E+00 0.  1.
</event>
<event>
 7    1  0.2297343E-008  0.4614232E+02  0.7816164E-02  0.1320468E+00
        -11   -1    0    0    0    0  0.00000000000E+00  0.00000000000E+00  0.45593999997E+02  0.45594000000E+02  0.51100000000E-03 0. -1.
         11   -1    0    0    0    0 -0.00000000000E+00 -0.00000000000E+00 -0.45593999997E+02  0.45594000000E+02  0.51100000000E-03 0.  1.
    9900012    2    1    2    0    0 -0.21781841319E+02  0.26451765075E+02 -0.29239853065E+02  0.46142317698E+02  0.99999994245E+01 0.  0.
         12    1    1    2    0    0  0.21781841319E+02 -0.26451765075E+02  0.29239853065E+02  0.45045682302E+02  0.00000000000E+00 0. -1.
         11    1    3    3    0    0 -0.22915384248E+01  0.22443351847E+01 -0.58050204450E+01  0.66322282380E+01  0.51100000000E-03 0. -1.
        -11    1    3    3    0    0 -0.50141887430E+01  0.99701260557E+01 -0.56043814989E+01  0.12488178192E+02  0.51100000000E-03 0.  1.
        -12    1    3    3    0    0 -0.14476114151E+02  0.14237303834E+02 -0.17830451121E+02  0.27021911268E+02  0.00000000000E+00 0.  1.
</event>
<event>
 7    1  0.2297343E-008  0.4614232E+02  0.7816164E-02  0.1320468E+00
        -11   -1    0    0    0    0  0.00000000000E+00  0.00000000000E+00  0.45593999997E+02  0.45594000000E+02  0.51100000000E-03 0.  1.
         11   -1    0    0    0    0 -0.00000000000E+00 -0.00000000000E+00 -0.45593999997E+02  0.45594000000E+02  0.51100000000E-03 0. -1.
    9900012    2    1    2    0    0  0.13326138936E+02  0.37705821448E+01  0.42863856555E+02  0.46142317994E+02  0.10000002121E+02 0.  0.
         12    1    1    2    0    0 -0.13326138936E+02 -0.37705821448E+01 -0.42863856555E+02  0.45045682006E+02  0.00000000000E+00 0. -1.
         11    1    3    3    0    0  0.88858086131E+00 -0.17063148336E+01  0.30582760147E+01  0.36130511623E+01  0.51100000000E-03 0. -1.
        -11    1    3    3    0    0  0.16602310935E+01 -0.15833034203E+00  0.12842243039E+02  0.12950082715E+02  0.51100000000E-03 0.  1.
        -12    1    3    3    0    0  0.10777326981E+02  0.56352273204E+01  0.26963337501E+02  0.29579184117E+02  0.00000000000E+00 0.  1.
</event>
<event>
 7    1  0.2297343E-008  0.4614232E+02  0.7816164E-02  0.1320468E+00
        -11   -1    0    0    0    0  0.00000000000E+00  0.00000000000E+00  0.45593999997E+02  0.45594000000E+02  0.51100000000E-03 0. -1.
         11   -1    0    0    0    0 -0.00000000000E+00 -0.00000000000E+00 -0.45593999997E+02  0.45594000000E+02  0.51100000000E-03 0.  1.
    9900012    2    1    2    0    0  0.23011210902E+02 -0.36830712904E+02 -0.11962286486E+02  0.46142317208E+02  0.99999949540E+01 0.  0.
         12    1    1    2    0    0 -0.23011210902E+02  0.36830712904E+02  0.11962286486E+02  0.45045682792E+02  0.00000000000E+00 0. -1.
         11    1    3    3    0    0  0.15404858655E+02 -0.23308513993E+02 -0.80990729947E+01  0.29089370540E+02  0.51100000000E-03 0. -1.
        -11    1    3    3    0    0  0.79000775547E+01 -0.10197018232E+02 -0.15508295754E+01  0.12992131419E+02  0.51100000000E-03 0.  1.
         12    1    3    3    0    0 -0.29372530751E+00 -0.33251806798E+01 -0.23123839162E+01  0.40608152489E+01  0.00000000000E+00 0. -1.
</event>
<event>
 7    1  0.2297343E-008  0.4614232E+02  0.7816164E-02  0.1320468E+00
        -11   -1    0    0    0    0  0.00000000000E+00  0.00000000000E+00  0.45593999997E+02  0.45594000000E+02  0.51100000000E-03 0.  1.
         11   -1    0    0    0    0 -0.00000000000E+00 -0.00000000000E+00 -0.45593999997E+02  0.45594000000E+02  0.51100000000E-03 0. -1.
    9900012    2    1    2    0    0  0.19617900013E+01 -0.39270843404E+02  0.21978760926E+02  0.46142315484E+02  0.99999792318E+01 0.  0.
         12    1    1    2    0    0 -0.19617900013E+01  0.39270843404E+02 -0.21978760926E+02  0.45045684516E+02  0.00000000000E+00 0. -1.
         11    1    3    3    0    0 -0.23410009823E+00 -0.34899300485E+00 -0.83831705516E+00  0.93774981712E+00  0.51100000000E-03 0. -1.
        -11    1    3    3    0    0  0.64441024593E-01 -0.13546151555E+02  0.84619602989E+01  0.15972073972E+02  0.51100000000E-03 0.  1.
         12    1    3    3    0    0  0.21314490749E+01 -0.25375698844E+02  0.14355117683E+02  0.29232491694E+02  0.00000000000E+00 0. -1.
</event>
<event>
 7    1  0.2297343E-008  0.4614233E+02  0.7816164E-02  0.1320468E+00
        -11   -1    0    0    0    0  0.00000000000E+00  0.00000000000E+00  0.45593999997E+02  0.45594000000E+02  0.51100000000E-03 0. -1.
         11   -1    0    0    0    0 -0.00000000000E+00 -0.00000000000E+00 -0.45593999997E+02  0.45594000000E+02  0.51100000000E-03 0.  1.
    9900012    2    1    2    0    0  0.47394081466E+01  0.37376944809E+02 -0.24690370351E+02  0.46142330053E+02  0.10000112091E+02 0.  0.
         12    1    1    2    0    0 -0.47394081466E+01 -0.37376944809E+02  0.24690370351E+02  0.45045669947E+02  0.00000000000E+00 0. -1.
         11    1    3    3    0    0 -0.16347589149E+01  0.97173043992E+00 -0.12099810950E+01  0.22540521886E+01  0.51100000000E-03 0. -1.
        -11    1    3    3    0    0  0.33062170895E+01  0.23428177060E+02 -0.16419368958E+02  0.28799413692E+02  0.51100000000E-03 0.  1.
         12    1    3    3    0    0  0.30679499720E+01  0.12977037310E+02 -0.70610202984E+01  0.15088864173E+02  0.00000000000E+00 0. -1.
</event>
<event>
 7    1  0.2297343E-008  0.4614232E+02  0.7816164E-02  0.1320468E+00
        -11   -1    0    0    0    0  0.00000000000E+00  0.00000000000E+00  0.45593999997E+02  0.45594000000E+02  0.51100000000E-03 0. -1.
         11   -1    0    0    0    0 -0.00000000000E+00 -0.00000000000E+00 -0.45593999997E+02  0.45594000000E+02  0.51100000000E-03 0.  1.
    9900012    2    1    2    0    0  0.21723063247E+02  0.31611167593E+02 -0.23621089369E+02  0.46142320336E+02  0.10000023478E+02 0.  0.
         12    1    1    2    0    0 -0.21723063247E+02 -0.31611167593E+02  0.23621089369E+02  0.45045679664E+02  0.00000000000E+00 0. -1.
         11    1    3    3    0    0  0.40676588904E+00  0.94419048086E+00 -0.11831332951E+01  0.15674051192E+01  0.51100000000E-03 0. -1.
        -11    1    3    3    0    0  0.16481637687E+02  0.27764855950E+02 -0.16060358863E+02  0.36061984608E+02  0.51100000000E-03 0.  1.
        -12    1    3    3    0    0  0.48346596707E+01  0.29021211627E+01 -0.63775972103E+01  0.85129306089E+01  0.00000000000E+00 0.  1.
</event>
<event>
 7    1  0.2297343E-008  0.4614232E+02  0.7816164E-02  0.1320468E+00
        -11   -1    0    0    0    0  0.00000000000E+00  0.00000000000E+00  0.45593999997E+02  0.45594000000E+02  0.51100000000E-03 0.  1.
         11   -1    0    0    0    0 -0.00000000000E+00 -0.00000000000E+00 -0.45593999997E+02  0.45594000000E+02  0.51100000000E-03 0. -1.
    9900012    2    1    2    0    0  0.24427835047E+02  0.37816556267E+02  0.15174576228E+01  0.46142315072E+02  0.99999754808E+01 0.  0.
         12    1    1    2    0    0 -0.24427835047E+02 -0.37816556267E+02 -0.15174576228E+01  0.45045684928E+02  0.00000000000E+00 0. -1.
         11    1    3    3    0    0  0.15023231890E+01  0.13305777048E+00  0.10931694341E+01  0.18627128086E+01  0.51100000000E-03 0. -1.
        -11    1    3    3    0    0  0.13186494022E+02  0.21271585597E+02  0.21402029399E+01  0.25118607591E+02  0.51100000000E-03 0.  1.
         12    1    3    3    0    0  0.97390178351E+01  0.16411912900E+02 -0.17159147511E+01  0.19160994673E+02  0.00000000000E+00 0. -1.
</event>
<event>
 7    1  0.2297343E-008  0.4614232E+02  0.7816164E-02  0.1320468E+00
        -11   -1    0    0    0    0  0.00000000000E+00  0.00000000000E+00  0.45593999997E+02  0.45594000000E+02  0.51100000000E-03 0.  1.
         11   -1    0    0    0    0 -0.00000000000E+00 -0.00000000000E+00 -0.45593999997E+02  0.45594000000E+02  0.51100000000E-03 0. -1.
    9900012    2    1    2    0    0  0.11744644361E+02  0.13917635395E+02  0.41200440189E+02  0.46142317433E+02  0.99999970073E+01 0.  0.
         12    1    1    2    0    0 -0.11744644361E+02 -0.13917635395E+02 -0.41200440189E+02  0.45045682567E+02  0.00000000000E+00 0. -1.
         11    1    3    3    0    0  0.23134439118E+01  0.49090073436E+01  0.52583747974E+01  0.75565125292E+01  0.51100000000E-03 0. -1.
        -11    1    3    3    0    0  0.42834741046E+01  0.59578920497E+01  0.25667367068E+02  0.26695661830E+02  0.51100000000E-03 0.  1.
        -12    1    3    3    0    0  0.51477263444E+01  0.30507360021E+01  0.10274698324E+02  0.11890143074E+02  0.00000000000E+00 0.  1.
</event>
<event>
 7    1  0.2297343E-008  0.4614232E+02  0.7816164E-02  0.1320468E+00
        -11   -1    0    0    0    0  0.00000000000E+00  0.00000000000E+00  0.45593999997E+02  0.45594000000E+02  0.51100000000E-03 0.  1.
         11   -1    0    0    0    0 -0.00000000000E+00 -0.00000000000E+00 -0.45593999997E+02  0.45594000000E+02  0.51100000000E-03 0. -1.
    9900012    2    1    2    0    0 -0.11711513894E+02 -0.11104365519E+02  0.42055284791E+02  0.46142317964E+02  0.10000001847E+02 0.  0.
         12    1    1    2    0    0  0.11711513894E+02  0.11104365519E+02 -0.42055284791E+02  0.45045682036E+02  0.00000000000E+00 0. -1.
         11    1    3    3    0    0 -0.41965801422E+00 -0.51586357736E+00  0.81308956182E+01  0.81580446122E+01  0.51100000000E-03 0. -1.
        -11    1    3    3    0    0 -0.16710087762E+01 -0.45151119451E+01  0.51888723610E+01  0.70783404020E+01  0.51100000000E-03 0.  1.
        -12    1    3    3    0    0 -0.96208471032E+01 -0.60733899967E+01  0.28735516812E+02  0.30905932950E+02  0.00000000000E+00 0.  1.
</event>
<event>
 7    1  0.2297343E-008  0.4614232E+02  0.7816164E-02  0.1320468E+00
        -11   -1    0    0    0    0  0.00000000000E+00  0.00000000000E+00  0.45593999997E+02  0.45594000000E+02  0.51100000000E-03 0. -1.
         11   -1    0    0    0    0 -0.00000000000E+00 -0.00000000000E+00 -0.45593999997E+02  0.45594000000E+02  0.51100000000E-03 0.  1.
    9900012    2    1    2    0    0  0.84300301060E+01 -0.45068122400E+01 -0.44019730611E+02  0.46142318218E+02  0.10000004162E+02 0.  0.
         12    1    1    2    0    0 -0.84300301060E+01  0.45068122400E+01  0.44019730611E+02  0.45045681782E+02  0.00000000000E+00 0. -1.
         11    1    3    3    0    0  0.24705525127E+01 -0.15573280544E+01 -0.81629505033E+01  0.86696402214E+01  0.51100000000E-03 0. -1.
        -11    1    3    3    0    0  0.42504920992E+01 -0.55739929053E+01 -0.17518122339E+02  0.18868510554E+02  0.51100000000E-03 0.  1.
         12    1    3    3    0    0  0.17089854941E+01  0.26245087197E+01 -0.18338657769E+02  0.18604167442E+02  0.00000000000E+00 0. -1.
</event>
<event>
 7    1  0.2297343E-008  0.4614232E+02  0.7816164E-02  0.1320468E+00
        -11   -1    0    0    0    0  0.00000000000E+00  0.00000000000E+00  0.45593999997E+02  0.45594000000E+02  0.51100000000E-03 0.  1.
         11   -1    0    0    0    0 -0.00000000000E+00 -0.00000000000E+00 -0.45593999997E+02  0.45594000000E+02  0.51100000000E-03 0. -1.
    9900012    2    1    2    0    0 -0.25810325762E+02  0.90928530998E+01  0.35780729275E+02  0.46142317844E+02  0.10000000755E+02 0.  0.
         12    1    1    2    0    0  0.25810325762E+02 -0.90928530998E+01 -0.35780729275E+02  0.45045682156E+02  0.00000000000E+00 0. -1.
         11    1    3    3    0    0 -0.77935246070E+01  0.11000433334E+01  0.42178451849E+01  0.89296886508E+01  0.51100000000E-03 0. -1.
        -11    1    3    3    0    0 -0.40244385051E+01  0.16669168368E+01  0.69149232380E+01  0.81725687927E+01  0.51100000000E-03 0.  1.
         12    1    3    3    0    0 -0.13992362650E+02  0.63258929296E+01  0.24647960852E+02  0.29040060400E+02  0.00000000000E+00 0. -1.
</event>
<event>
 7    1  0.2297343E-008  0.4614232E+02  0.7816164E-02  0.1320468E+00
        -11   -1    0    0    0    0  0.00000000000E+00  0.00000000000E+00  0.45593999997E+02  0.45594000000E+02  0.51100000000E-03 0.  1.
         11   -1    0    0    0    0 -0.00000000000E+00 -0.00000000000E+00 -0.45593999997E+02  0.45594000000E+02  0.51100000000E-03 0. -1.
    9900012    2    1    2    0    0 -0.44177620136E+02 -0.74410924086E+01 -0.46991042105E+01  0.46142316994E+02  0.99999930037E+01 0.  0.
         12    1    1    2    0    0  0.44177620136E+02  0.74410924086E+01  0.46991042105E+01  0.45045683006E+02  0.00000000000E+00 0. -1.
         11    1    3    3    0    0 -0.14254533101E+02 -0.53310470003E+01 -0.19933448371E+01  0.15348784966E+02  0.51100000000E-03 0. -1.
        -11    1    3    3    0    0 -0.24040395481E+02 -0.37417529069E+01 -0.36958999153E+01  0.24608961907E+02  0.51100000000E-03 0.  1.
         12    1    3    3    0    0 -0.58826915546E+01  0.16317074987E+01  0.99014054191E+00  0.61845701209E+01  0.00000000000E+00 0. -1.
</event>
<event>
 7    1  0.2297343E-008  0.4614232E+02  0.7816164E-02  0.1320468E+00
        -11   -1    0    0    0    0  0.00000000000E+00  0.00000000000E+00  0.45593999997E+02  0.45594000000E+02  0.51100000000E-03 0.  1.
         11   -1    0    0    0    0 -0.00000000000E+00 -0.00000000000E+00 -0.45593999997E+02  0.45594000000E+02  0.51100000000E-03 0. -1.
    9900012    2    1    2    0    0  0.79026774258E+01  0.16153176868E+02  0.41300557157E+02  0.46142318132E+02  0.10000003385E+02 0.  0.
         12    1    1    2    0    0 -0.79026774258E+01 -0.16153176868E+02 -0.41300557157E+02  0.45045681868E+02  0.00000000000E+00 0. -1.
         11    1    3    3    0    0  0.61843969489E+00  0.30919531327E-01  0.62513062830E+01  0.62818989310E+01  0.51100000000E-03 0. -1.
        -11    1    3    3    0    0  0.41313627096E+01  0.43434842740E+01  0.17441093339E+02  0.18442498491E+02  0.51100000000E-03 0.  1.
         12    1    3    3    0    0  0.31528750213E+01  0.11778773063E+02  0.17608157535E+02  0.21417920710E+02  0.00000000000E+00 0. -1.
</event>
<event>
 7    1  0.2297343E-008  0.4614232E+02  0.7816164E-02  0.1320468E+00
        -11   -1    0    0    0    0  0.00000000000E+00  0.00000000000E+00  0.45593999997E+02  0.45594000000E+02  0.51100000000E-03 0.  1.
         11   -1    0    0    0    0 -0.00000000000E+00 -0.00000000000E+00 -0.45593999997E+02  0.45594000000E+02  0.51100000000E-03 0. -1.
    9900012    2    1    2    0    0 -0.39618691978E+02 -0.21421094839E+02 -0.78054447072E+00  0.46142319765E+02  0.10000018274E+02 0.  0.
         12    1    1    2    0    0  0.39618691978E+02  0.21421094839E+02  0.78054447072E+00  0.45045680235E+02  0.00000000000E+00 0. -1.
         11    1    3    3    0    0 -0.45965485741E+01 -0.25540423519E+01 -0.13954686826E+01  0.54404709570E+01  0.51100000000E-03 0. -1.
        -11    1    3    3    0    0 -0.27194878012E+02 -0.14483578632E+02 -0.31517376107E+01  0.30972066291E+02  0.51100000000E-03 0.  1.
         12    1    3    3    0    0 -0.78272653918E+01 -0.43834738544E+01  0.37666618225E+01  0.97297825172E+01  0.00000000000E+00 0. -1.
</event>
<event>
 7    1  0.2297343E-008  0.4614232E+02  0.7816164E-02  0.1320468E+00
        -11   -1    0    0    0    0  0.00000000000E+00  0.00000000000E+00  0.45593999997E+02  0.45594000000E+02  0.51100000000E-03 0. -1.
         11   -1    0    0    0    0 -0.00000000000E+00 -0.00000000000E+00 -0.45593999997E+02  0.45594000000E+02  0.51100000000E-03 0.  1.
    9900012    2    1    2    0    0  0.31016600553E+01 -0.40569194760E+02 -0.19329605838E+02  0.46142317406E+02  0.99999967591E+01 0.  0.
         12    1    1    2    0    0 -0.31016600553E+01  0.40569194760E+02  0.19329605838E+02  0.45045682594E+02  0.00000000000E+00 0. -1.
         11    1    3    3    0    0  0.53258624958E+01 -0.30911459496E+02 -0.13585518871E+02  0.34182590053E+02  0.51100000000E-03 0. -1.
        -11    1    3    3    0    0 -0.17059653449E+01 -0.77368735516E+01 -0.27929810107E+01  0.84006114836E+01  0.51100000000E-03 0.  1.
         12    1    3    3    0    0 -0.51823709564E+00 -0.19208617122E+01 -0.29511059559E+01  0.35591158688E+01  0.00000000000E+00 0. -1.
</event>
<event>
 7    1  0.2297343E-008  0.4614232E+02  0.7816164E-02  0.1320468E+00
        -11   -1    0    0    0    0  0.00000000000E+00  0.00000000000E+00  0.45593999997E+02  0.45594000000E+02  0.51100000000E-03 0.  1.
         11   -1    0    0    0    0 -0.00000000000E+00 -0.00000000000E+00 -0.45593999997E+02  0.45594000000E+02  0.51100000000E-03 0. -1.
    9900012    2    1    2    0    0  0.27991272818E+02  0.14667910050E+02  0.32100693433E+02  0.46142318097E+02  0.10000003064E+02 0.  0.
         12    1    1    2    0    0 -0.27991272818E+02 -0.14667910050E+02 -0.32100693433E+02  0.45045681903E+02  0.00000000000E+00 0. -1.
         11    1    3    3    0    0 -0.25693375088E+00 -0.10542859099E+00  0.12862215538E+01  0.13158633237E+01  0.51100000000E-03 0. -1.
        -11    1    3    3    0    0  0.15711939036E+02  0.50655073302E+01  0.18143662119E+02  0.24529917818E+02  0.51100000000E-03 0.  1.
        -12    1    3    3    0    0  0.12536267533E+02  0.97078313111E+01  0.12670809760E+02  0.20296536956E+02  0.00000000000E+00 0.  1.
</event>
<event>
 7    1  0.2297343E-008  0.4614232E+02  0.7816164E-02  0.1320468E+00
        -11   -1    0    0    0    0  0.00000000000E+00  0.00000000000E+00  0.45593999997E+02  0.45594000000E+02  0.51100000000E-03 0.  1.
         11   -1    0    0    0    0 -0.00000000000E+00 -0.00000000000E+00 -0.45593999997E+02  0.45594000000E+02  0.51100000000E-03 0. -1.
    9900012    2    1    2    0    0  0.15170116201E+02 -0.29239760700E+02  0.30724867644E+02  0.46142317376E+02  0.99999964866E+01 0.  0.
         12    1    1    2    0    0 -0.15170116201E+02  0.29239760700E+02 -0.30724867644E+02  0.45045682624E+02  0.00000000000E+00 0. -1.
         11    1    3    3    0    0  0.34233256710E+01 -0.58481692586E+01  0.34700407331E+01  0.76132401301E+01  0.51100000000E-03 0. -1.
        -11    1    3    3    0    0  0.15369255868E+01 -0.39722243043E+01  0.11160107290E+01  0.44029747208E+01  0.51100000000E-03 0.  1.
        -12    1    3    3    0    0  0.10209864943E+02 -0.19419367137E+02  0.26138816182E+02  0.34126102525E+02  0.00000000000E+00 0.  1.
</event>
<event>
 7    1  0.2297343E-008  0.4614232E+02  0.7816164E-02  0.1320468E+00
        -11   -1    0    0    0    0  0.00000000000E+00  0.00000000000E+00  0.45593999997E+02  0.45594000000E+02  0.51100000000E-03 0.  1.
         11   -1    0    0    0    0 -0.00000000000E+00 -0.00000000000E+00 -0.45593999997E+02  0.45594000000E+02  0.51100000000E-03 0. -1.
    9900012    2    1    2    0    0  0.22097245215E+02  0.16188542863E+02  0.35759701908E+02  0.46142318224E+02  0.10000004216E+02 0.  0.
         12    1    1    2    0    0 -0.22097245215E+02 -0.16188542863E+02 -0.35759701908E+02  0.45045681776E+02  0.00000000000E+00 0. -1.
         11    1    3    3    0    0  0.42946717176E+00 -0.17058812736E-01  0.41574923748E+01  0.41796502440E+01  0.51100000000E-03 0. -1.
        -11    1    3    3    0    0  0.51738980939E+01  0.63479694726E+01  0.72093706043E+01  0.10910589475E+02  0.51100000000E-03 0.  1.
        -12    1    3    3    0    0  0.16493879950E+02  0.98576322031E+01  0.24392838929E+02  0.31052078505E+02  0.00000000000E+00 0.  1.
</event>
<event>
 7    1  0.2297343E-008  0.4614232E+02  0.7816164E-02  0.1320468E+00
        -11   -1    0    0    0    0  0.00000000000E+00  0.00000000000E+00  0.45593999997E+02  0.45594000000E+02  0.51100000000E-03 0.  1.
         11   -1    0    0    0    0 -0.00000000000E+00 -0.00000000000E+00 -0.45593999997E+02  0.45594000000E+02  0.51100000000E-03 0. -1.
    9900012    2    1    2    0    0  0.30960949859E+02  0.21994329005E+02  0.24223591038E+02  0.46142319993E+02  0.10000020353E+02 0.  0.
         12    1    1    2    0    0 -0.30960949859E+02 -0.21994329005E+02 -0.24223591038E+02  0.45045680007E+02  0.00000000000E+00 0. -1.
         11    1    3    3    0    0  0.78791933795E+01  0.43237184307E+01  0.36531782906E+01  0.97016463171E+01  0.51100000000E-03 0. -1.
        -11    1    3    3    0    0  0.19886099973E+02  0.17635755975E+02  0.19825605587E+02  0.33159184220E+02  0.51100000000E-03 0.  1.
        -12    1    3    3    0    0  0.31956565059E+01  0.34854599225E-01  0.74480716015E+00  0.32814894565E+01  0.00000000000E+00 0.  1.
</event>
<event>
 7    1  0.2344758E-008  0.4614232E+02  0.7816164E-02  0.1320468E+00
        -11   -1    0    0    0    0  0.00000000000E+00  0.00000000000E+00  0.45593999997E+02  0.45594000000E+02  0.51100000000E-03 0.  1.
         11   -1    0    0    0    0 -0.00000000000E+00 -0.00000000000E+00 -0.45593999997E+02  0.45594000000E+02  0.51100000000E-03 0. -1.
    9900012    2    1    2    0    0  0.43688175743E+02  0.92981062256E+01 -0.58311204099E+01  0.46142318250E+02  0.10000004456E+02 0.  0.
         12    1    1    2    0    0 -0.43688175743E+02 -0.92981062256E+01  0.58311204099E+01  0.45045681750E+02  0.00000000000E+00 0. -1.
         11    1    3    3    0    0  0.20808041655E+01  0.83703981314E-01  0.14564132241E+01  0.25412382950E+01  0.51100000000E-03 0. -1.
        -11    1    3    3    0    0  0.10190071994E+02  0.14489039205E+01  0.53447730123E+00  0.10306432751E+02  0.51100000000E-03 0.  1.
        -12    1    3    3    0    0  0.31417299583E+02  0.77654983238E+01 -0.78220109352E+01  0.33294647203E+02  0.00000000000E+00 0.  1.
</event>
<event>
 7    1  0.2297343E-008  0.4614232E+02  0.7816164E-02  0.1320468E+00
        -11   -1    0    0    0    0  0.00000000000E+00  0.00000000000E+00  0.45593999997E+02  0.45594000000E+02  0.51100000000E-03 0. -1.
         11   -1    0    0    0    0 -0.00000000000E+00 -0.00000000000E+00 -0.45593999997E+02  0.45594000000E+02  0.51100000000E-03 0.  1.
    9900012    2    1    2    0    0 -0.37074090179E+01 -0.14865129364E+02 -0.42360318174E+02  0.46142317539E+02  0.99999979728E+01 0.  0.
         12    1    1    2    0    0  0.37074090179E+01  0.14865129364E+02  0.42360318174E+02  0.45045682461E+02  0.00000000000E+00 0. -1.
         11    1    3    3    0    0 -0.18688794480E+00  0.12684735466E+00 -0.42533168443E+01  0.42593100139E+01  0.51100000000E-03 0. -1.
        -11    1    3    3    0    0 -0.35060145743E+01 -0.13643506573E+02 -0.24909519344E+02  0.28616805622E+02  0.51100000000E-03 0.  1.
        -12    1    3    3    0    0 -0.14506498792E-01 -0.13484701451E+01 -0.13197481985E+02  0.13266201903E+02  0.00000000000E+00 0.  1.
</event>
<event>
 7    1  0.2297343E-008  0.4614232E+02  0.7816164E-02  0.1320468E+00
        -11   -1    0    0    0    0  0.00000000000E+00  0.00000000000E+00  0.45593999997E+02  0.45594000000E+02  0.51100000000E-03 0.  1.
         11   -1    0    0    0    0 -0.00000000000E+00 -0.00000000000E+00 -0.45593999997E+02  0.45594000000E+02  0.51100000000E-03 0. -1.
    9900012    2    1    2    0    0 -0.17040433278E+02  0.38174769187E+02  0.16775699941E+02  0.46142317884E+02  0.10000001121E+02 0.  0.
         12    1    1    2    0    0  0.17040433278E+02 -0.38174769187E+02 -0.16775699941E+02  0.45045682116E+02  0.00000000000E+00 0. -1.
         11    1    3    3    0    0 -0.82594466339E+00  0.30050853171E+01 -0.48481962292E+00  0.31540089850E+01  0.51100000000E-03 0. -1.
        -11    1    3    3    0    0 -0.48251757419E+01  0.43144108775E+01  0.31615780165E+01  0.72036128418E+01  0.51100000000E-03 0.  1.
         12    1    3    3    0    0 -0.11389312872E+02  0.30855272993E+02  0.14098941547E+02  0.35784696057E+02  0.00000000000E+00 0. -1.
</event>
<event>
 7    1  0.2297343E-008  0.4614232E+02  0.7816164E-02  0.1320468E+00
        -11   -1    0    0    0    0  0.00000000000E+00  0.00000000000E+00  0.45593999997E+02  0.45594000000E+02  0.51100000000E-03 0.  1.
         11   -1    0    0    0    0 -0.00000000000E+00 -0.00000000000E+00 -0.45593999997E+02  0.45594000000E+02  0.51100000000E-03 0. -1.
    9900012    2    1    2    0    0 -0.23318441475E+02 -0.77262139742E+00  0.38532672802E+02  0.46142317299E+02  0.99999957899E+01 0.  0.
         12    1    1    2    0    0  0.23318441475E+02  0.77262139742E+00 -0.38532672802E+02  0.45045682701E+02  0.00000000000E+00 0. -1.
         11    1    3    3    0    0 -0.50951290769E+01 -0.30344493143E+00  0.69641547698E+01  0.86343425375E+01  0.51100000000E-03 0. -1.
        -11    1    3    3    0    0 -0.11836445953E+02 -0.31240632470E+01  0.13835735037E+02  0.18474003038E+02  0.51100000000E-03 0.  1.
        -12    1    3    3    0    0 -0.63868664452E+01  0.26548867810E+01  0.17732782996E+02  0.19033971724E+02  0.00000000000E+00 0.  1.
</event>
<event>
 7    1  0.2297343E-008  0.4614232E+02  0.7816164E-02  0.1320468E+00
        -11   -1    0    0    0    0  0.00000000000E+00  0.00000000000E+00  0.45593999997E+02  0.45594000000E+02  0.51100000000E-03 0.  1.
         11   -1    0    0    0    0 -0.00000000000E+00 -0.00000000000E+00 -0.45593999997E+02  0.45594000000E+02  0.51100000000E-03 0. -1.
    9900012    2    1    2    0    0  0.29274263385E+02  0.33631999220E+01  0.34070807337E+02  0.46142317376E+02  0.99999964887E+01 0.  0.
         12    1    1    2    0    0 -0.29274263385E+02 -0.33631999220E+01 -0.34070807337E+02  0.45045682624E+02  0.00000000000E+00 0. -1.
         11    1    3    3    0    0  0.67953231436E+01  0.27780073631E+01  0.93519893184E+01  0.11889215534E+02  0.51100000000E-03 0. -1.
        -11    1    3    3    0    0  0.15031410368E+01 -0.15571415338E+01  0.47191816159E+01  0.51918010476E+01  0.51100000000E-03 0.  1.
        -12    1    3    3    0    0  0.20975799204E+02  0.21423340927E+01  0.19999636403E+02  0.29061300795E+02  0.00000000000E+00 0.  1.
</event>
<event>
 7    1  0.2297343E-008  0.4614232E+02  0.7816164E-02  0.1320468E+00
        -11   -1    0    0    0    0  0.00000000000E+00  0.00000000000E+00  0.45593999997E+02  0.45594000000E+02  0.51100000000E-03 0.  1.
         11   -1    0    0    0    0 -0.00000000000E+00 -0.00000000000E+00 -0.45593999997E+02  0.45594000000E+02  0.51100000000E-03 0. -1.
    9900012    2    1    2    0    0 -0.34835847346E+02  0.19219292655E+02  0.21123353788E+02  0.46142317124E+02  0.99999941922E+01 0.  0.
         12    1    1    2    0    0  0.34835847346E+02 -0.19219292655E+02 -0.21123353788E+02  0.45045682876E+02  0.00000000000E+00 0. -1.
         11    1    3    3    0    0 -0.18778224029E+02  0.83031799864E+01  0.92794809081E+01  0.22531605841E+02  0.51100000000E-03 0. -1.
        -11    1    3    3    0    0 -0.11762433786E+02  0.50663776598E+01  0.53767062911E+01  0.13889996471E+02  0.51100000000E-03 0.  1.
         12    1    3    3    0    0 -0.42951895314E+01  0.58497350085E+01  0.64671665891E+01  0.97207148128E+01  0.00000000000E+00 0. -1.
</event>
<event>
 7    1  0.2297343E-008  0.4614232E+02  0.7816164E-02  0.1320468E+00
        -11   -1    0    0    0    0  0.00000000000E+00  0.00000000000E+00  0.45593999997E+02  0.45594000000E+02  0.51100000000E-03 0.  1.
         11   -1    0    0    0    0 -0.00000000000E+00 -0.00000000000E+00 -0.45593999997E+02  0.45594000000E+02  0.51100000000E-03 0. -1.
    9900012    2    1    2    0    0 -0.26663928693E+02  0.15921736578E+00  0.36305963670E+02  0.46142318281E+02  0.10000004740E+02 0.  0.
         12    1    1    2    0    0  0.26663928693E+02 -0.15921736578E+00 -0.36305963670E+02  0.45045681719E+02  0.00000000000E+00 0. -1.
         11    1    3    3    0    0 -0.12236062110E+02  0.26148817103E+01  0.23416735143E+02  0.26549996372E+02  0.51100000000E-03 0. -1.
        -11    1    3    3    0    0 -0.72611468368E+01 -0.16173147792E+01  0.76850830674E+01  0.10695815186E+02  0.51100000000E-03 0.  1.
         12    1    3    3    0    0 -0.71667197455E+01 -0.83834956530E+00  0.52041454602E+01  0.88965067232E+01  0.00000000000E+00 0. -1.
</event>
<event>
 7    1  0.2297343E-008  0.4614232E+02  0.7816164E-02  0.1320468E+00
        -11   -1    0    0    0    0  0.00000000000E+00  0.00000000000E+00  0.45593999997E+02  0.45594000000E+02  0.51100000000E-03 0.  1.
         11   -1    0    0    0    0 -0.00000000000E+00 -0.00000000000E+00 -0.45593999997E+02  0.45594000000E+02  0.51100000000E-03 0. -1.
    9900012    2    1    2    0    0 -0.37026487975E+02 -0.37874772280E+01  0.25373362709E+02  0.46142319512E+02  0.10000015962E+02 0.  0.
         12    1    1    2    0    0  0.37026487975E+02  0.37874772280E+01 -0.25373362709E+02  0.45045680488E+02  0.00000000000E+00 0. -1.
         11    1    3    3    0    0 -0.78613510606E+01  0.24953743762E+01  0.57744391871E+01  0.10068360441E+02  0.51100000000E-03 0. -1.
        -11    1    3    3    0    0 -0.25265864923E+02 -0.51457418718E+01  0.18859207298E+02  0.31945458048E+02  0.51100000000E-03 0.  1.
         12    1    3    3    0    0 -0.38992719908E+01 -0.11371097324E+01  0.73971622346E+00  0.41285010225E+01  0.00000000000E+00 0. -1.
</event>
<event>
 7    1  0.2297343E-008  0.4614231E+02  0.7816164E-02  0.1320468E+00
        -11   -1    0    0    0    0  0.00000000000E+00  0.00000000000E+00  0.45593999997E+02  0.45594000000E+02  0.51100000000E-03 0.  1.
         11   -1    0    0    0    0 -0.00000000000E+00 -0.00000000000E+00 -0.45593999997E+02  0.45594000000E+02  0.51100000000E-03 0. -1.
    9900012    2    1    2    0    0  0.43982457483E+02 -0.96298514159E+01  0.13867980652E+01  0.46142314153E+02  0.99999671006E+01 0.  0.
         12    1    1    2    0    0 -0.43982457483E+02  0.96298514159E+01 -0.13867980652E+01  0.45045685847E+02  0.00000000000E+00 0. -1.
         11    1    3    3    0    0  0.48016191497E+01 -0.11131456423E+01  0.16923085851E+01  0.52113864075E+01  0.51100000000E-03 0. -1.
        -11    1    3    3    0    0  0.26600192069E+02 -0.39646896243E+01  0.32446859292E+01  0.27089056258E+02  0.51100000000E-03 0.  1.
         12    1    3    3    0    0  0.12580646265E+02 -0.45520161493E+01 -0.35501964491E+01  0.13841871488E+02  0.00000000000E+00 0. -1.
</event>
<event>
 7    1  0.2297343E-008  0.4614232E+02  0.7816164E-02  0.1320468E+00
        -11   -1    0    0    0    0  0.00000000000E+00  0.00000000000E+00  0.45593999997E+02  0.45594000000E+02  0.51100000000E-03 0. -1.
         11   -1    0    0    0    0 -0.00000000000E+00 -0.00000000000E+00 -0.45593999997E+02  0.45594000000E+02  0.51100000000E-03 0.  1.
    9900012    2    1    2    0    0 -0.12685359238E+01  0.41354644048E+02 -0.17812851949E+02  0.46142318051E+02  0.10000002643E+02 0.  0.
         12    1    1    2    0    0  0.12685359238E+01 -0.41354644048E+02  0.17812851949E+02  0.45045681949E+02  0.00000000000E+00 0. -1.
         11    1    3    3    0    0  0.22913849450E+01  0.30347950981E+02 -0.14526648760E+02  0.33723465098E+02  0.51100000000E-03 0. -1.
        -11    1    3    3    0    0 -0.12375851038E+01  0.71721919794E+01 -0.31588358158E+01  0.79341161228E+01  0.51100000000E-03 0.  1.
         12    1    3    3    0    0 -0.23223357650E+01  0.38345010871E+01 -0.12736737291E+00  0.44847368306E+01  0.00000000000E+00 0. -1.
</event>
<event>
 7    1  0.2297343E-008  0.4614232E+02  0.7816164E-02  0.1320468E+00
        -11   -1    0    0    0    0  0.00000000000E+00  0.00000000000E+00  0.45593999997E+02  0.45594000000E+02  0.51100000000E-03 0.  1.
         11   -1    0    0    0    0 -0.00000000000E+00 -0.00000000000E+00 -0.45593999997E+02  0.45594000000E+02  0.51100000000E-03 0. -1.
    9900012    2    1    2    0    0 -0.12478416609E+02 -0.29086958860E+02  0.32052323462E+02  0.46142317676E+02  0.99999992210E+01 0.  0.
         12    1    1    2    0    0  0.12478416609E+02  0.29086958860E+02 -0.32052323462E+02  0.45045682324E+02  0.00000000000E+00 0. -1.
         11    1    3    3    0    0 -0.10327787181E+02 -0.12317986835E+02  0.16875776503E+02  0.23306390123E+02  0.51100000000E-03 0. -1.
        -11    1    3    3    0    0 -0.26176884507E+01 -0.12682670874E+02  0.11573451194E+02  0.17367993728E+02  0.51100000000E-03 0.  1.
        -12    1    3    3    0    0  0.46705902284E+00 -0.40863011513E+01  0.36030957643E+01  0.54679338252E+01  0.00000000000E+00 0.  1.
</event>
<event>
 7    1  0.2297343E-008  0.4614232E+02  0.7816164E-02  0.1320468E+00
        -11   -1    0    0    0    0  0.00000000000E+00  0.00000000000E+00  0.45593999997E+02  0.45594000000E+02  0.51100000000E-03 0.  1.
         11   -1    0    0    0    0 -0.00000000000E+00 -0.00000000000E+00 -0.45593999997E+02  0.45594000000E+02  0.51100000000E-03 0. -1.
    9900012    2    1    2    0    0  0.53216009738E+01 -0.24188403348E+02  0.37625991625E+02  0.46142317197E+02  0.99999948584E+01 0.  0.
         12    1    1    2    0    0 -0.53216009738E+01  0.24188403348E+02 -0.37625991625E+02  0.45045682803E+02  0.00000000000E+00 0. -1.
         11    1    3    3    0    0  0.85574298591E-01 -0.93920886313E+00  0.30812443254E+01  0.32223443489E+01  0.51100000000E-03 0. -1.
        -11    1    3    3    0    0 -0.49979364270E+00 -0.11293630478E+01 -0.28084319698E+00  0.12665416462E+01  0.51100000000E-03 0.  1.
        -12    1    3    3    0    0  0.57358203179E+01 -0.22119831437E+02  0.34825590496E+02  0.41653431202E+02  0.00000000000E+00 0.  1.
</event>
<event>
 7    1  0.2297343E-008  0.4614232E+02  0.7816164E-02  0.1320468E+00
        -11   -1    0    0    0    0  0.00000000000E+00  0.00000000000E+00  0.45593999997E+02  0.45594000000E+02  0.51100000000E-03 0.  1.
         11   -1    0    0    0    0 -0.00000000000E+00 -0.00000000000E+00 -0.45593999997E+02  0.45594000000E+02  0.51100000000E-03 0. -1.
    9900012    2    1    2    0    0  0.28839673462E+02  0.27789925376E+02  0.20618117684E+02  0.46142317692E+02  0.99999993675E+01 0.  0.
         12    1    1    2    0    0 -0.28839673462E+02 -0.27789925376E+02 -0.20618117684E+02  0.45045682308E+02  0.00000000000E+00 0. -1.
         11    1    3    3    0    0  0.16457548059E+01 -0.26239893597E+00  0.16868986027E+01  0.23712843017E+01  0.51100000000E-03 0. -1.
        -11    1    3    3    0    0  0.21303616145E+02  0.23551966990E+02  0.17363412953E+02  0.36194299546E+02  0.51100000000E-03 0.  1.
        -12    1    3    3    0    0  0.58903025108E+01  0.45003573218E+01  0.15678061283E+01  0.75767338444E+01  0.00000000000E+00 0.  1.
</event>
<event>
 7    1  0.2297343E-008  0.4614232E+02  0.7816164E-02  0.1320468E+00
        -11   -1    0    0    0    0  0.00000000000E+00  0.00000000000E+00  0.45593999997E+02  0.45594000000E+02  0.51100000000E-03 0. -1.
         11   -1    0    0    0    0 -0.00000000000E+00 -0.00000000000E+00 -0.45593999997E+02  0.45594000000E+02  0.51100000000E-03 0.  1.
    9900012    2    1    2    0    0 -0.18655208905E+02 -0.36462645582E+02 -0.18750256978E+02  0.46142317866E+02  0.10000000958E+02 0.  0.
         12    1    1    2    0    0  0.18655208905E+02  0.36462645582E+02  0.18750256978E+02  0.45045682134E+02  0.00000000000E+00 0. -1.
         11    1    3    3    0    0  0.28551539861E+00 -0.39908208072E+00 -0.15208118555E+01  0.15980158044E+01  0.51100000000E-03 0. -1.
        -11    1    3    3    0    0 -0.10172278977E+02 -0.24555009752E+02 -0.10335364053E+02  0.28517424742E+02  0.51100000000E-03 0.  1.
        -12    1    3    3    0    0 -0.87684453264E+01 -0.11508553749E+02 -0.68940810693E+01  0.16026877320E+02  0.00000000000E+00 0.  1.
</event>
<event>
 7    1  0.2297343E-008  0.4614232E+02  0.7816164E-02  0.1320468E+00
        -11   -1    0    0    0    0  0.00000000000E+00  0.00000000000E+00  0.45593999997E+02  0.45594000000E+02  0.51100000000E-03 0. -1.
         11   -1    0    0    0    0 -0.00000000000E+00 -0.00000000000E+00 -0.45593999997E+02  0.45594000000E+02  0.51100000000E-03 0.  1.
    9900012    2    1    2    0    0  0.18617335697E+02  0.29628086551E+02 -0.28366967178E+02  0.46142317321E+02  0.99999959902E+01 0.  0.
         12    1    1    2    0    0 -0.18617335697E+02 -0.29628086551E+02  0.28366967178E+02  0.45045682679E+02  0.00000000000E+00 0. -1.
         11    1    3    3    0    0  0.25361072781E+01  0.12096024049E+01 -0.31957432798E+01  0.42553206079E+01  0.51100000000E-03 0. -1.
        -11    1    3    3    0    0  0.86034120180E+01  0.83760742288E+01 -0.10463511624E+02  0.15926782274E+02  0.51100000000E-03 0.  1.
        -12    1    3    3    0    0  0.74778164013E+01  0.20042409917E+02 -0.14707712274E+02  0.25960214439E+02  0.00000000000E+00 0.  1.
</event>
<event>
 7    1  0.2297343E-008  0.4614232E+02  0.7816164E-02  0.1320468E+00
        -11   -1    0    0    0    0  0.00000000000E+00  0.00000000000E+00  0.45593999997E+02  0.45594000000E+02  0.51100000000E-03 0.  1.
         11   -1    0    0    0    0 -0.00000000000E+00 -0.00000000000E+00 -0.45593999997E+02  0.45594000000E+02  0.51100000000E-03 0. -1.
    9900012    2    1    2    0    0 -0.31534986784E+02 -0.15197599242E+02  0.28349446508E+02  0.46142317283E+02  0.99999956357E+01 0.  0.
         12    1    1    2    0    0  0.31534986784E+02  0.15197599242E+02 -0.28349446508E+02  0.45045682717E+02  0.00000000000E+00 0. -1.
         11    1    3    3    0    0 -0.24730691559E+01  0.70604141179E+00  0.37342389447E+00  0.25988480508E+01  0.51100000000E-03 0. -1.
        -11    1    3    3    0    0 -0.24867460706E+02 -0.12497360894E+02  0.21916117229E+02  0.35424438258E+02  0.51100000000E-03 0.  1.
        -12    1    3    3    0    0 -0.41944569219E+01 -0.34062797603E+01  0.60599053850E+01  0.81190309736E+01  0.00000000000E+00 0.  1.
</event>
<event>
 7    1  0.2297343E-008  0.4614232E+02  0.7816164E-02  0.1320468E+00
        -11   -1    0    0    0    0  0.00000000000E+00  0.00000000000E+00  0.45593999997E+02  0.45594000000E+02  0.51100000000E-03 0.  1.
         11   -1    0    0    0    0 -0.00000000000E+00 -0.00000000000E+00 -0.45593999997E+02  0.45594000000E+02  0.51100000000E-03 0. -1.
    9900012    2    1    2    0    0 -0.30183177071E+02  0.25807930777E+02  0.21261233463E+02  0.46142317438E+02  0.99999970540E+01 0.  0.
         12    1    1    2    0    0  0.30183177071E+02 -0.25807930777E+02 -0.21261233463E+02  0.45045682562E+02  0.00000000000E+00 0. -1.
         11    1    3    3    0    0 -0.11380990488E+02  0.13968059984E+02  0.70451870429E+01  0.19346015221E+02  0.51100000000E-03 0. -1.
        -11    1    3    3    0    0 -0.15570774167E+02  0.74831173882E+01  0.11222922963E+02  0.20600972164E+02  0.51100000000E-03 0.  1.
        -12    1    3    3    0    0 -0.32314124160E+01  0.43567534045E+01  0.29931234570E+01  0.61953300524E+01  0.00000000000E+00 0.  1.
</event>
<event>
 7    1  0.2297343E-008  0.4614232E+02  0.7816164E-02  0.1320468E+00
        -11   -1    0    0    0    0  0.00000000000E+00  0.00000000000E+00  0.45593999997E+02  0.45594000000E+02  0.51100000000E-03 0.  1.
         11   -1    0    0    0    0 -0.00000000000E+00 -0.00000000000E+00 -0.45593999997E+02  0.45594000000E+02  0.51100000000E-03 0. -1.
    9900012    2    1    2    0    0  0.18016042048E+02 -0.22485576654E+02  0.34625634730E+02  0.46142317532E+02  0.99999979112E+01 0.  0.
         12    1    1    2    0    0 -0.18016042048E+02  0.22485576654E+02 -0.34625634730E+02  0.45045682468E+02  0.00000000000E+00 0. -1.
         11    1    3    3    0    0  0.27620491957E+01 -0.72279440925E+01  0.12587503768E+02  0.14775565740E+02  0.51100000000E-03 0. -1.
        -11    1    3    3    0    0  0.19724451748E+01 -0.23961205567E+01  0.65508634271E+01  0.72488444314E+01  0.51100000000E-03 0.  1.
         12    1    3    3    0    0  0.13281547677E+02 -0.12861512005E+02  0.15487267535E+02  0.24117907361E+02  0.00000000000E+00 0. -1.
</event>
<event>
 7    1  0.2297343E-008  0.4614232E+02  0.7816164E-02  0.1320468E+00
        -11   -1    0    0    0    0  0.00000000000E+00  0.00000000000E+00  0.45593999997E+02  0.45594000000E+02  0.51100000000E-03 0.  1.
         11   -1    0    0    0    0 -0.00000000000E+00 -0.00000000000E+00 -0.45593999997E+02  0.45594000000E+02  0.51100000000E-03 0. -1.
    9900012    2    1    2    0    0 -0.43571951950E+02  0.11359106636E+02  0.12524346053E+01  0.46142324373E+02  0.10000060290E+02 0.  0.
         12    1    1    2    0    0  0.43571951950E+02 -0.11359106636E+02 -0.12524346053E+01  0.45045675627E+02  0.00000000000E+00 0. -1.
         11    1    3    3    0    0  0.88845088769E-01  0.40042927279E-01  0.60769010973E-01  0.11484781077E+00  0.51100000000E-03 0. -1.
        -11    1    3    3    0    0 -0.16827178456E+02  0.25049055452E+01  0.44798909442E+01  0.17592552677E+02  0.51100000000E-03 0.  1.
         12    1    3    3    0    0 -0.26833618583E+02  0.88141581634E+01 -0.32882253498E+01  0.28434923885E+02  0.00000000000E+00 0. -1.
</event>
<event>
 7    1  0.2297343E-008  0.4614232E+02  0.7816164E-02  0.1320468E+00
        -11   -1    0    0    0    0  0.00000000000E+00  0.00000000000E+00  0.45593999997E+02  0.45594000000E+02  0.51100000000E-03 0.  1.
         11   -1    0    0    0    0 -0.00000000000E+00 -0.00000000000E+00 -0.45593999997E+02  0.45594000000E+02  0.51100000000E-03 0. -1.
    9900012    2    1    2    0    0  0.15919996300E+02 -0.39723011567E+02 -0.14062341814E+02  0.46142318882E+02  0.10000010221E+02 0.  0.
         12    1    1    2    0    0 -0.15919996300E+02  0.39723011567E+02  0.14062341814E+02  0.45045681118E+02  0.00000000000E+00 0. -1.
         11    1    3    3    0    0  0.42727782646E+01 -0.20772276880E+02 -0.64069279765E+01  0.22153844976E+02  0.51100000000E-03 0. -1.
        -11    1    3    3    0    0  0.96633545941E+01 -0.14957633453E+02 -0.79883471780E+01  0.19517297749E+02  0.51100000000E-03 0.  1.
        -12    1    3    3    0    0  0.19838634410E+01 -0.39931012340E+01  0.33293334081E+00  0.44711761570E+01  0.00000000000E+00 0.  1.
</event>
<event>
 7    1  0.2297343E-008  0.4614232E+02  0.7816164E-02  0.1320468E+00
        -11   -1    0    0    0    0  0.00000000000E+00  0.00000000000E+00  0.45593999997E+02  0.45594000000E+02  0.51100000000E-03 0.  1.
         11   -1    0    0    0    0 -0.00000000000E+00 -0.00000000000E+00 -0.45593999997E+02  0.45594000000E+02  0.51100000000E-03 0. -1.
    9900012    2    1    2    0    0 -0.34956019928E+02  0.27275031253E+02  0.79537949143E+01  0.46142317492E+02  0.99999975458E+01 0.  0.
         12    1    1    2    0    0  0.34956019928E+02 -0.27275031253E+02 -0.79537949143E+01  0.45045682508E+02  0.00000000000E+00 0. -1.
         11    1    3    3    0    0 -0.21098971293E+01  0.22802739141E+01  0.23894065059E+01  0.39192574209E+01  0.51100000000E-03 0. -1.
        -11    1    3    3    0    0 -0.27071403499E+02  0.23577671852E+02  0.50843686858E+01  0.36257665432E+02  0.51100000000E-03 0.  1.
         12    1    3    3    0    0 -0.57747192997E+01  0.14170854870E+01  0.48001972256E+00  0.59653946393E+01  0.00000000000E+00 0. -1.
</event>
<event>
 7    1  0.2297343E-008  0.4614231E+02  0.7816164E-02  0.1320468E+00
        -11   -1    0    0    0    0  0.00000000000E+00  0.00000000000E+00  0.45593999997E+02  0.45594000000E+02  0.51100000000E-03 0.  1.
         11   -1    0    0    0    0 -0.00000000000E+00 -0.00000000000E+00 -0.45593999997E+02  0.45594000000E+02  0.51100000000E-03 0. -1.
    9900012    2    1    2    0    0 -0.56055079060E+01  0.26578602497E+02  0.35934245542E+02  0.46142313944E+02  0.99999651959E+01 0.  0.
         12    1    1    2    0    0  0.56055079060E+01 -0.26578602497E+02 -0.35934245542E+02  0.45045686056E+02  0.00000000000E+00 0. -1.
         11    1    3    3    0    0 -0.30960127568E+01  0.33656247058E+01  0.45034808463E+01  0.64182602506E+01  0.51100000000E-03 0. -1.
        -11    1    3    3    0    0 -0.28945414507E+01  0.98535447171E+01  0.92156800225E+01  0.13798531525E+02  0.51100000000E-03 0.  1.
         12    1    3    3    0    0  0.38504630153E+00  0.13359433074E+02  0.22215084673E+02  0.25925522169E+02  0.00000000000E+00 0. -1.
</event>
<event>
 7    1  0.2297343E-008  0.4614232E+02  0.7816164E-02  0.1320468E+00
        -11   -1    0    0    0    0  0.00000000000E+00  0.00000000000E+00  0.45593999997E+02  0.45594000000E+02  0.51100000000E-03 0.  1.
         11   -1    0    0    0    0 -0.00000000000E+00 -0.00000000000E+00 -0.45593999997E+02  0.45594000000E+02  0.51100000000E-03 0. -1.
    9900012    2    1    2    0    0 -0.73516707475E+00  0.11243573945E+02  0.43613703532E+02  0.46142316950E+02  0.99999926069E+01 0.  0.
         12    1    1    2    0    0  0.73516707475E+00 -0.11243573945E+02 -0.43613703532E+02  0.45045683050E+02  0.00000000000E+00 0. -1.
         11    1    3    3    0    0  0.26685677206E+00 -0.68697740347E+00 -0.10848857861E-01  0.73706746537E+00  0.51100000000E-03 0. -1.
        -11    1    3    3    0    0 -0.20458512885E+01  0.42012498323E+01  0.19459644007E+02  0.20012839698E+02  0.51100000000E-03 0.  1.
         12    1    3    3    0    0  0.10438274417E+01  0.77293015157E+01  0.24164908382E+02  0.25392409787E+02  0.00000000000E+00 0. -1.
</event>
<event>
 7    1  0.2297343E-008  0.4614232E+02  0.7816164E-02  0.1320468E+00
        -11   -1    0    0    0    0  0.00000000000E+00  0.00000000000E+00  0.45593999997E+02  0.45594000000E+02  0.51100000000E-03 0.  1.
         11   -1    0    0    0    0 -0.00000000000E+00 -0.00000000000E+00 -0.45593999997E+02  0.45594000000E+02  0.51100000000E-03 0. -1.
    9900012    2    1    2    0    0  0.33949522856E+02  0.99320120474E+01  0.27890833225E+02  0.46142317150E+02  0.99999944252E+01 0.  0.
         12    1    1    2    0    0 -0.33949522856E+02 -0.99320120474E+01 -0.27890833225E+02  0.45045682850E+02  0.00000000000E+00 0. -1.
         11    1    3    3    0    0  0.14300211010E+02  0.53970705877E+01  0.16763061387E+02  0.22685339609E+02  0.51100000000E-03 0. -1.
        -11    1    3    3    0    0  0.11321260790E+02  0.57830928291E+00  0.72394040953E+01  0.13450440863E+02  0.51100000000E-03 0.  1.
         12    1    3    3    0    0  0.83280510561E+01  0.39566321768E+01  0.38883677432E+01  0.10006536678E+02  0.00000000000E+00 0. -1.
</event>
<event>
 7    1  0.2297343E-008  0.4614233E+02  0.7816164E-02  0.1320468E+00
        -11   -1    0    0    0    0  0.00000000000E+00  0.00000000000E+00  0.45593999997E+02  0.45594000000E+02  0.51100000000E-03 0.  1.
         11   -1    0    0    0    0 -0.00000000000E+00 -0.00000000000E+00 -0.45593999997E+02  0.45594000000E+02  0.51100000000E-03 0. -1.
    9900012    2    1    2    0    0 -0.78533193971E+01  0.42148913696E+02  0.13816904464E+02  0.46142329839E+02  0.10000110135E+02 0.  0.
         12    1    1    2    0    0  0.78533193971E+01 -0.42148913696E+02 -0.13816904464E+02  0.45045670161E+02  0.00000000000E+00 0. -1.
         11    1    3    3    0    0  0.34104140630E+00  0.98620139903E+00 -0.60914620514E+00  0.12082887902E+01  0.51100000000E-03 0. -1.
        -11    1    3    3    0    0 -0.19810865051E+01  0.23458292530E+02  0.10437076599E+02  0.25751674904E+02  0.51100000000E-03 0.  1.
         12    1    3    3    0    0 -0.62132742983E+01  0.17704419767E+02  0.39889740705E+01  0.19182366145E+02  0.00000000000E+00 0. -1.
</event>
<event>
 7    1  0.2297343E-008  0.4614232E+02  0.7816164E-02  0.1320468E+00
        -11   -1    0    0    0    0  0.00000000000E+00  0.00000000000E+00  0.45593999997E+02  0.45594000000E+02  0.51100000000E-03 0.  1.
         11   -1    0    0    0    0 -0.00000000000E+00 -0.00000000000E+00 -0.45593999997E+02  0.45594000000E+02  0.51100000000E-03 0. -1.
    9900012    2    1    2    0    0 -0.20433303867E+02  0.32731880415E+01  0.40010995087E+02  0.46142318800E+02  0.10000009477E+02 0.  0.
         12    1    1    2    0    0  0.20433303867E+02 -0.32731880415E+01 -0.40010995087E+02  0.45045681200E+02  0.00000000000E+00 0. -1.
         11    1    3    3    0    0 -0.77695121789E+00 -0.94405623247E+00  0.55164651349E+00  0.13413461529E+01  0.51100000000E-03 0. -1.
        -11    1    3    3    0    0 -0.18136387412E+02  0.16391400982E+01  0.34401301212E+02  0.38923834008E+02  0.51100000000E-03 0.  1.
         12    1    3    3    0    0 -0.15199652375E+01  0.25781041758E+01  0.50580473621E+01  0.58771386390E+01  0.00000000000E+00 0. -1.
</event>
<event>
 7    1  0.2297343E-008  0.4614232E+02  0.7816164E-02  0.1320468E+00
        -11   -1    0    0    0    0  0.00000000000E+00  0.00000000000E+00  0.45593999997E+02  0.45594000000E+02  0.51100000000E-03 0. -1.
         11   -1    0    0    0    0 -0.00000000000E+00 -0.00000000000E+00 -0.45593999997E+02  0.45594000000E+02  0.51100000000E-03 0.  1.
    9900012    2    1    2    0    0 -0.32967286500E+02  0.27698030267E+02  0.13232178287E+02  0.46142318719E+02  0.10000008735E+02 0.  0.
         12    1    1    2    0    0  0.32967286500E+02 -0.27698030267E+02 -0.13232178287E+02  0.45045681281E+02  0.00000000000E+00 0. -1.
         11    1    3    3    0    0 -0.80638663093E+01  0.47012230442E+01  0.92872749736E+00  0.93802970630E+01  0.51100000000E-03 0. -1.
        -11    1    3    3    0    0 -0.23596106944E+02  0.19286434711E+02  0.12200459758E+02  0.32826727607E+02  0.51100000000E-03 0.  1.
        -12    1    3    3    0    0 -0.13073132458E+01  0.37103725120E+01  0.10299103169E+00  0.39352940491E+01  0.00000000000E+00 0.  1.
</event>
<event>
 7    1  0.2297343E-008  0.4614232E+02  0.7816164E-02  0.1320468E+00
        -11   -1    0    0    0    0  0.00000000000E+00  0.00000000000E+00  0.45593999997E+02  0.45594000000E+02  0.51100000000E-03 0.  1.
         11   -1    0    0    0    0 -0.00000000000E+00 -0.00000000000E+00 -0.45593999997E+02  0.45594000000E+02  0.51100000000E-03 0. -1.
    9900012    2    1    2    0    0  0.41731156603E+02 -0.13875991384E+02  0.97509362584E+01  0.46142319560E+02  0.10000016408E+02 0.  0.
         12    1    1    2    0    0 -0.41731156603E+02  0.13875991384E+02 -0.97509362584E+01  0.45045680440E+02  0.00000000000E+00 0. -1.
         11    1    3    3    0    0  0.23033151819E+01  0.83645760996E+00 -0.27598345365E-01  0.24506497282E+01  0.51100000000E-03 0. -1.
        -11    1    3    3    0    0  0.45518957446E+01 -0.15796236007E+01 -0.95109136543E+00  0.49111648961E+01  0.51100000000E-03 0.  1.
        -12    1    3    3    0    0  0.34875945677E+02 -0.13132825393E+02  0.10729625969E+02  0.38780504936E+02  0.00000000000E+00 0.  1.
</event>
<event>
 7    1  0.2297343E-008  0.4614232E+02  0.7816164E-02  0.1320468E+00
        -11   -1    0    0    0    0  0.00000000000E+00  0.00000000000E+00  0.45593999997E+02  0.45594000000E+02  0.51100000000E-03 0.  1.
         11   -1    0    0    0    0 -0.00000000000E+00 -0.00000000000E+00 -0.45593999997E+02  0.45594000000E+02  0.51100000000E-03 0. -1.
    9900012    2    1    2    0    0 -0.81238795072E+00  0.42376979295E+02  0.15252709799E+02  0.46142317581E+02  0.99999983621E+01 0.  0.
         12    1    1    2    0    0  0.81238795072E+00 -0.42376979295E+02 -0.15252709799E+02  0.45045682419E+02  0.00000000000E+00 0. -1.
         11    1    3    3    0    0  0.15389041664E+01  0.10187947127E+02  0.12258355548E+01  0.10376182620E+02  0.51100000000E-03 0. -1.
        -11    1    3    3    0    0 -0.22539486832E+01  0.13354554389E+02  0.90369741610E+01  0.16281624914E+02  0.51100000000E-03 0.  1.
        -12    1    3    3    0    0 -0.97343433934E-01  0.18834477779E+02  0.49899000827E+01  0.19484510048E+02  0.00000000000E+00 0.  1.
</event>
<event>
 7    1  0.2297343E-008  0.4614232E+02  0.7816164E-02  0.1320468E+00
        -11   -1    0    0    0    0  0.00000000000E+00  0.00000000000E+00  0.45593999997E+02  0.45594000000E+02  0.51100000000E-03 0.  1.
         11   -1    0    0    0    0 -0.00000000000E+00 -0.00000000000E+00 -0.45593999997E+02  0.45594000000E+02  0.51100000000E-03 0. -1.
    9900012    2    1    2    0    0  0.35553432245E+01 -0.20930476439E+02  0.39728934142E+02  0.46142317438E+02  0.99999970529E+01 0.  0.
         12    1    1    2    0    0 -0.35553432245E+01  0.20930476439E+02 -0.39728934142E+02  0.45045682562E+02  0.00000000000E+00 0. -1.
         11    1    3    3    0    0 -0.37380131531E+00 -0.77693224788E+01  0.11367427898E+02  0.13773907088E+02  0.51100000000E-03 0. -1.
        -11    1    3    3    0    0  0.10869556814E+01 -0.48039382449E+01  0.36580658758E+01  0.61352050925E+01  0.51100000000E-03 0.  1.
         12    1    3    3    0    0  0.28421888584E+01 -0.83572157152E+01  0.24703440369E+02  0.26233205257E+02  0.00000000000E+00 0. -1.
</event>
<event>
 7    1  0.2297343E-008  0.4614232E+02  0.7816164E-02  0.1320468E+00
        -11   -1    0    0    0    0  0.00000000000E+00  0.00000000000E+00  0.45593999997E+02  0.45594000000E+02  0.51100000000E-03 0. -1.
         11   -1    0    0    0    0 -0.00000000000E+00 -0.00000000000E+00 -0.45593999997E+02  0.45594000000E+02  0.51100000000E-03 0.  1.
    9900012    2    1    2    0    0 -0.17368901463E+02 -0.33179605793E+02 -0.25030950120E+02  0.46142318270E+02  0.10000004644E+02 0.  0.
         12    1    1    2    0    0  0.17368901463E+02  0.33179605793E+02  0.25030950120E+02  0.45045681730E+02  0.00000000000E+00 0. -1.
         11    1    3    3    0    0 -0.97678337183E+01 -0.16023275663E+02 -0.73986670340E+01  0.20171668564E+02  0.51100000000E-03 0.  1.
        -11    1    3    3    0    0 -0.58688689192E+01 -0.91270336854E+01 -0.98236083160E+01  0.14637269106E+02  0.51100000000E-03 0. -1.
         12    1    3    3    0    0 -0.17321988251E+01 -0.80292964448E+01 -0.78086747698E+01  0.11333380600E+02  0.00000000000E+00 0. -1.
</event>
<event>
 7    1  0.2297343E-008  0.4614232E+02  0.7816164E-02  0.1320468E+00
        -11   -1    0    0    0    0  0.00000000000E+00  0.00000000000E+00  0.45593999997E+02  0.45594000000E+02  0.51100000000E-03 0.  1.
         11   -1    0    0    0    0 -0.00000000000E+00 -0.00000000000E+00 -0.45593999997E+02  0.45594000000E+02  0.51100000000E-03 0. -1.
    9900012    2    1    2    0    0  0.14196094524E+02  0.28549064677E+02  0.31820360075E+02  0.46142317532E+02  0.99999979117E+01 0.  0.
         12    1    1    2    0    0 -0.14196094524E+02 -0.28549064677E+02 -0.31820360075E+02  0.45045682468E+02  0.00000000000E+00 0. -1.
         11    1    3    3    0    0 -0.44878535814E-01  0.75641742520E+00  0.15933866704E+01  0.17643873573E+01  0.51100000000E-03 0. -1.
        -11    1    3    3    0    0  0.13508139973E+02  0.18518652882E+02  0.23974817891E+02  0.33169296696E+02  0.51100000000E-03 0.  1.
         12    1    3    3    0    0  0.73283308712E+00  0.92739943698E+01  0.62521555132E+01  0.11208633479E+02  0.00000000000E+00 0. -1.
</event>
<event>
 7    1  0.2297343E-008  0.4614232E+02  0.7816164E-02  0.1320468E+00
        -11   -1    0    0    0    0  0.00000000000E+00  0.00000000000E+00  0.45593999997E+02  0.45594000000E+02  0.51100000000E-03 0.  1.
         11   -1    0    0    0    0 -0.00000000000E+00 -0.00000000000E+00 -0.45593999997E+02  0.45594000000E+02  0.51100000000E-03 0. -1.
    9900012    2    1    2    0    0 -0.28847498214E+02  0.93756390572E+01  0.33302143101E+02  0.46142317676E+02  0.99999992260E+01 0.  0.
         12    1    1    2    0    0  0.28847498214E+02 -0.93756390572E+01 -0.33302143101E+02  0.45045682324E+02  0.00000000000E+00 0. -1.
         11    1    3    3    0    0 -0.12670135050E+02  0.48646720427E+01  0.18176219751E+02  0.22684186584E+02  0.51100000000E-03 0. -1.
        -11    1    3    3    0    0 -0.12937739459E+02  0.12754209989E+01  0.13084737820E+02  0.18445112228E+02  0.51100000000E-03 0.  1.
         12    1    3    3    0    0 -0.32396237046E+01  0.32355460156E+01  0.20411855299E+01  0.50130188643E+01  0.00000000000E+00 0. -1.
</event>
<event>
 7    1  0.2297343E-008  0.4614232E+02  0.7816164E-02  0.1320468E+00
        -11   -1    0    0    0    0  0.00000000000E+00  0.00000000000E+00  0.45593999997E+02  0.45594000000E+02  0.51100000000E-03 0.  1.
         11   -1    0    0    0    0 -0.00000000000E+00 -0.00000000000E+00 -0.45593999997E+02  0.45594000000E+02  0.51100000000E-03 0. -1.
    9900012    2    1    2    0    0 -0.16371967044E+02  0.29009075645E+02  0.30324012583E+02  0.46142317478E+02  0.99999974229E+01 0.  0.
         12    1    1    2    0    0  0.16371967044E+02 -0.29009075645E+02 -0.30324012583E+02  0.45045682522E+02  0.00000000000E+00 0. -1.
         11    1    3    3    0    0 -0.79169327170E+01  0.66272528827E+01  0.10320924297E+02  0.14598622641E+02  0.51100000000E-03 0. -1.
        -11    1    3    3    0    0  0.25061338863E+00  0.61080285709E+00  0.16199121853E+01  0.17492864116E+01  0.51100000000E-03 0.  1.
        -12    1    3    3    0    0 -0.87056477158E+01  0.21771019905E+02  0.18383176101E+02  0.29794408425E+02  0.00000000000E+00 0.  1.
</event>
<event>
 7    1  0.2297343E-008  0.4614232E+02  0.7816164E-02  0.1320468E+00
        -11   -1    0    0    0    0  0.00000000000E+00  0.00000000000E+00  0.45593999997E+02  0.45594000000E+02  0.51100000000E-03 0.  1.
         11   -1    0    0    0    0 -0.00000000000E+00 -0.00000000000E+00 -0.45593999997E+02  0.45594000000E+02  0.51100000000E-03 0. -1.
    9900012    2    1    2    0    0  0.24719297296E+02  0.27588582674E+01  0.37556072893E+02  0.46142316867E+02  0.99999918510E+01 0.  0.
         12    1    1    2    0    0 -0.24719297296E+02 -0.27588582674E+01 -0.37556072893E+02  0.45045683133E+02  0.00000000000E+00 0. -1.
         11    1    3    3    0    0  0.20161904684E+01  0.24860200532E+01  0.34835908052E+01  0.47308270808E+01  0.51100000000E-03 0. -1.
        -11    1    3    3    0    0  0.57201037637E+01 -0.93602073531E+00  0.13604553415E+02  0.14787819169E+02  0.51100000000E-03 0.  1.
        -12    1    3    3    0    0  0.16983003064E+02  0.12088589495E+01  0.20467928673E+02  0.26623670618E+02  0.00000000000E+00 0.  1.
</event>
<event>
 7    1  0.2297343E-008  0.4614232E+02  0.7816164E-02  0.1320468E+00
        -11   -1    0    0    0    0  0.00000000000E+00  0.00000000000E+00  0.45593999997E+02  0.45594000000E+02  0.51100000000E-03 0. -1.
         11   -1    0    0    0    0 -0.00000000000E+00 -0.00000000000E+00 -0.45593999997E+02  0.45594000000E+02  0.51100000000E-03 0.  1.
    9900012    2    1    2    0    0 -0.15271520044E+02 -0.31975299499E+02 -0.27811407081E+02  0.46142318005E+02  0.10000002226E+02 0.  0.
         12    1    1    2    0    0  0.15271520044E+02  0.31975299499E+02  0.27811407081E+02  0.45045681995E+02  0.00000000000E+00 0. -1.
         11    1    3    3    0    0 -0.51783251929E+01 -0.73599552619E+01 -0.10426988707E+02  0.13773383282E+02  0.51100000000E-03 0. -1.
        -11    1    3    3    0    0 -0.10754094662E+02 -0.21494927414E+02 -0.16107101719E+02  0.28933046549E+02  0.51100000000E-03 0.  1.
        -12    1    3    3    0    0  0.66089981125E+00 -0.31204168233E+01 -0.12773166549E+01  0.34358881746E+01  0.00000000000E+00 0.  1.
</event>
<event>
 7    1  0.2297343E-008  0.4614232E+02  0.7816164E-02  0.1320468E+00
        -11   -1    0    0    0    0  0.00000000000E+00  0.00000000000E+00  0.45593999997E+02  0.45594000000E+02  0.51100000000E-03 0. -1.
         11   -1    0    0    0    0 -0.00000000000E+00 -0.00000000000E+00 -0.45593999997E+02  0.45594000000E+02  0.51100000000E-03 0.  1.
    9900012    2    1    2    0    0 -0.22143382811E+02  0.26062908196E+02 -0.29317381528E+02  0.46142318235E+02  0.10000004325E+02 0.  0.
         12    1    1    2    0    0  0.22143382811E+02 -0.26062908196E+02  0.29317381528E+02  0.45045681765E+02  0.00000000000E+00 0. -1.
         11    1    3    3    0    0 -0.11699707623E+02  0.15233113812E+02 -0.20148717799E+02  0.27837057029E+02  0.51100000000E-03 0. -1.
        -11    1    3    3    0    0 -0.85142138037E+01  0.80292981877E+01 -0.92284945293E+01  0.14903911487E+02  0.51100000000E-03 0.  1.
         12    1    3    3    0    0 -0.19294613850E+01  0.28004961968E+01  0.59830800153E-01  0.34013497187E+01  0.00000000000E+00 0. -1.
</event>
<event>
 7    1  0.2297343E-008  0.4614232E+02  0.7816164E-02  0.1320468E+00
        -11   -1    0    0    0    0  0.00000000000E+00  0.00000000000E+00  0.45593999997E+02  0.45594000000E+02  0.51100000000E-03 0. -1.
         11   -1    0    0    0    0 -0.00000000000E+00 -0.00000000000E+00 -0.45593999997E+02  0.45594000000E+02  0.51100000000E-03 0.  1.
    9900012    2    1    2    0    0  0.34928239051E+02  0.27554645482E+02  0.70620908809E+01  0.46142317650E+02  0.99999989839E+01 0.  0.
         12    1    1    2    0    0 -0.34928239051E+02 -0.27554645482E+02 -0.70620908809E+01  0.45045682350E+02  0.00000000000E+00 0. -1.
         11    1    3    3    0    0  0.75037028607E+01  0.56761178946E+01  0.39646360705E+01  0.10209907463E+02  0.51100000000E-03 0. -1.
        -11    1    3    3    0    0  0.25011628133E+01  0.29720333216E+01 -0.17774660361E+01  0.42717892333E+01  0.51100000000E-03 0.  1.
        -12    1    3    3    0    0  0.24923373377E+02  0.18906494265E+02  0.48749208465E+01  0.31660620953E+02  0.00000000000E+00 0.  1.
</event>
<event>
 7    1  0.2297343E-008  0.4614232E+02  0.7816164E-02  0.1320468E+00
        -11   -1    0    0    0    0  0.00000000000E+00  0.00000000000E+00  0.45593999997E+02  0.45594000000E+02  0.51100000000E-03 0. -1.
         11   -1    0    0    0    0 -0.00000000000E+00 -0.00000000000E+00 -0.45593999997E+02  0.45594000000E+02  0.51100000000E-03 0.  1.
    9900012    2    1    2    0    0 -0.65999695518E+00 -0.23334700336E+02 -0.38524922464E+02  0.46142317780E+02  0.10000000174E+02 0.  0.
         12    1    1    2    0    0  0.65999695518E+00  0.23334700336E+02  0.38524922464E+02  0.45045682220E+02  0.00000000000E+00 0. -1.
         11    1    3    3    0    0 -0.24906631281E+01 -0.11995874122E+02 -0.14992229852E+02  0.19361594846E+02  0.51100000000E-03 0. -1.
        -11    1    3    3    0    0 -0.37746290587E+00  0.25810462068E+00 -0.34891755441E+01  0.35190115771E+01  0.51100000000E-03 0.  1.
         12    1    3    3    0    0  0.22081290788E+01 -0.11596930835E+02 -0.20043517068E+02  0.23261711357E+02  0.00000000000E+00 0. -1.
</event>
<event>
 7    1  0.2297343E-008  0.4614232E+02  0.7816164E-02  0.1320468E+00
        -11   -1    0    0    0    0  0.00000000000E+00  0.00000000000E+00  0.45593999997E+02  0.45594000000E+02  0.51100000000E-03 0. -1.
         11   -1    0    0    0    0 -0.00000000000E+00 -0.00000000000E+00 -0.45593999997E+02  0.45594000000E+02  0.51100000000E-03 0.  1.
    9900012    2    1    2    0    0  0.38151969600E+02  0.20606472424E+02 -0.12203029695E+02  0.46142318477E+02  0.10000006527E+02 0.  0.
         12    1    1    2    0    0 -0.38151969600E+02 -0.20606472424E+02  0.12203029695E+02  0.45045681523E+02  0.00000000000E+00 0. -1.
         11    1    3    3    0    0  0.30585924994E+02  0.15965169682E+02 -0.12380591494E+02  0.36656029473E+02  0.51100000000E-03 0. -1.
        -11    1    3    3    0    0  0.17028449602E+01  0.20240586493E+01 -0.12235368568E+01  0.29143673541E+01  0.51100000000E-03 0.  1.
         12    1    3    3    0    0  0.58631996463E+01  0.26172440922E+01  0.14010986554E+01  0.65719216499E+01  0.00000000000E+00 0. -1.
</event>
<event>
 7    1  0.2297343E-008  0.4614232E+02  0.7816164E-02  0.1320468E+00
        -11   -1    0    0    0    0  0.00000000000E+00  0.00000000000E+00  0.45593999997E+02  0.45594000000E+02  0.51100000000E-03 0.  1.
         11   -1    0    0    0    0 -0.00000000000E+00 -0.00000000000E+00 -0.45593999997E+02  0.45594000000E+02  0.51100000000E-03 0. -1.
    9900012    2    1    2    0    0 -0.35489524439E+01 -0.15219011226E+02  0.42248078334E+02  0.46142317753E+02  0.99999999283E+01 0.  0.
         12    1    1    2    0    0  0.35489524439E+01  0.15219011226E+02 -0.42248078334E+02  0.45045682247E+02  0.00000000000E+00 0. -1.
         11    1    3    3    0    0 -0.37702044604E+01 -0.20281206248E+01  0.11496454425E+02  0.12267688436E+02  0.51100000000E-03 0. -1.
        -11    1    3    3    0    0 -0.17163138356E+01 -0.77870164351E+01  0.13345347355E+02  0.15546113805E+02  0.51100000000E-03 0.  1.
        -12    1    3    3    0    0  0.19375658521E+01 -0.54038741663E+01  0.17406276554E+02  0.18328515513E+02  0.00000000000E+00 0.  1.
</event>
<event>
 7    1  0.2297343E-008  0.4614232E+02  0.7816164E-02  0.1320468E+00
        -11   -1    0    0    0    0  0.00000000000E+00  0.00000000000E+00  0.45593999997E+02  0.45594000000E+02  0.51100000000E-03 0. -1.
         11   -1    0    0    0    0 -0.00000000000E+00 -0.00000000000E+00 -0.45593999997E+02  0.45594000000E+02  0.51100000000E-03 0.  1.
    9900012    2    1    2    0    0 -0.20425468075E+02 -0.40131156929E+02  0.11848804551E+01  0.46142318251E+02  0.10000004468E+02 0.  0.
         12    1    1    2    0    0  0.20425468075E+02  0.40131156929E+02 -0.11848804551E+01  0.45045681749E+02  0.00000000000E+00 0. -1.
         11    1    3    3    0    0 -0.99887245626E+01 -0.19869656173E+02  0.19171426301E+01  0.22321588003E+02  0.51100000000E-03 0. -1.
        -11    1    3    3    0    0 -0.96753029257E+01 -0.20678366286E+02 -0.11468400631E+01  0.22858730528E+02  0.51100000000E-03 0.  1.
         12    1    3    3    0    0 -0.76144058635E+00  0.41686553021E+00  0.41457788807E+00  0.96199972043E+00  0.00000000000E+00 0. -1.
</event>
<event>
 7    1  0.2297343E-008  0.4614232E+02  0.7816164E-02  0.1320468E+00
        -11   -1    0    0    0    0  0.00000000000E+00  0.00000000000E+00  0.45593999997E+02  0.45594000000E+02  0.51100000000E-03 0.  1.
         11   -1    0    0    0    0 -0.00000000000E+00 -0.00000000000E+00 -0.45593999997E+02  0.45594000000E+02  0.51100000000E-03 0. -1.
    9900012    2    1    2    0    0  0.29035657773E+00  0.28551470145E+02  0.34840246981E+02  0.46142316921E+02  0.99999923367E+01 0.  0.
         12    1    1    2    0    0 -0.29035657773E+00 -0.28551470145E+02 -0.34840246981E+02  0.45045683079E+02  0.00000000000E+00 0. -1.
         11    1    3    3    0    0 -0.24819826971E+01  0.14459122443E+02  0.21396366421E+02  0.25942840172E+02  0.51100000000E-03 0. -1.
        -11    1    3    3    0    0 -0.12493430481E+01  0.30566462510E+01  0.34744619701E+01  0.47933110267E+01  0.51100000000E-03 0.  1.
        -12    1    3    3    0    0  0.40216823230E+01  0.11035701451E+02  0.99694185902E+01  0.15406165722E+02  0.00000000000E+00 0.  1.
</event>
<event>
 7    1  0.2297343E-008  0.4614232E+02  0.7816164E-02  0.1320468E+00
        -11   -1    0    0    0    0  0.00000000000E+00  0.00000000000E+00  0.45593999997E+02  0.45594000000E+02  0.51100000000E-03 0.  1.
         11   -1    0    0    0    0 -0.00000000000E+00 -0.00000000000E+00 -0.45593999997E+02  0.45594000000E+02  0.51100000000E-03 0. -1.
    9900012    2    1    2    0    0 -0.35991548966E+02 -0.19594893040E+02 -0.18701933005E+02  0.46142315098E+02  0.99999757130E+01 0.  0.
         12    1    1    2    0    0  0.35991548966E+02  0.19594893040E+02  0.18701933005E+02  0.45045684902E+02  0.00000000000E+00 0. -1.
         11    1    3    3    0    0 -0.13259202779E+02 -0.76164633805E+01 -0.78902422033E+01  0.17206768873E+02  0.51100000000E-03 0. -1.
        -11    1    3    3    0    0 -0.15063698956E+02 -0.11805684277E+02 -0.83363705988E+01  0.20875446881E+02  0.51100000000E-03 0.  1.
         12    1    3    3    0    0 -0.76686472304E+01 -0.17274538238E+00 -0.24753202033E+01  0.80600993431E+01  0.00000000000E+00 0. -1.
</event>
<event>
 7    1  0.2297343E-008  0.4614232E+02  0.7816164E-02  0.1320468E+00
        -11   -1    0    0    0    0  0.00000000000E+00  0.00000000000E+00  0.45593999997E+02  0.45594000000E+02  0.51100000000E-03 0.  1.
         11   -1    0    0    0    0 -0.00000000000E+00 -0.00000000000E+00 -0.45593999997E+02  0.45594000000E+02  0.51100000000E-03 0. -1.
    9900012    2    1    2    0    0 -0.11159398091E+02 -0.24721266857E+02  0.35964430651E+02  0.46142317933E+02  0.10000001570E+02 0.  0.
         12    1    1    2    0    0  0.11159398091E+02  0.24721266857E+02 -0.35964430651E+02  0.45045682067E+02  0.00000000000E+00 0. -1.
         11    1    3    3    0    0 -0.52497382641E+01 -0.77263606108E+01  0.13603240416E+02  0.16501652954E+02  0.51100000000E-03 0. -1.
        -11    1    3    3    0    0 -0.60455148796E+01 -0.72350505688E+01  0.13439068204E+02  0.16416539262E+02  0.51100000000E-03 0.  1.
         12    1    3    3    0    0  0.13585505269E+00 -0.97598556778E+01  0.89221220304E+01  0.13224125717E+02  0.00000000000E+00 0. -1.
</event>
<event>
 7    1  0.2297343E-008  0.4614232E+02  0.7816164E-02  0.1320468E+00
        -11   -1    0    0    0    0  0.00000000000E+00  0.00000000000E+00  0.45593999997E+02  0.45594000000E+02  0.51100000000E-03 0.  1.
         11   -1    0    0    0    0 -0.00000000000E+00 -0.00000000000E+00 -0.45593999997E+02  0.45594000000E+02  0.51100000000E-03 0. -1.
    9900012    2    1    2    0    0 -0.16116308647E+02  0.40878775269E+02 -0.99148273144E+01  0.46142317936E+02  0.10000001598E+02 0.  0.
         12    1    1    2    0    0  0.16116308647E+02 -0.40878775269E+02  0.99148273144E+01  0.45045682064E+02  0.00000000000E+00 0. -1.
         11    1    3    3    0    0 -0.27460286310E+01  0.13646267751E+02 -0.56431727678E+01  0.15020209583E+02  0.51100000000E-03 0. -1.
        -11    1    3    3    0    0 -0.41737765789E+01  0.40583513409E+01  0.29111340718E-01  0.58216384521E+01  0.51100000000E-03 0.  1.
        -12    1    3    3    0    0 -0.91965034367E+01  0.23174156178E+02 -0.43007658873E+01  0.25300469901E+02  0.00000000000E+00 0.  1.
</event>
<event>
 7    1  0.2297343E-008  0.4614232E+02  0.7816164E-02  0.1320468E+00
        -11   -1    0    0    0    0  0.00000000000E+00  0.00000000000E+00  0.45593999997E+02  0.45594000000E+02  0.51100000000E-03 0.  1.
         11   -1    0    0    0    0 -0.00000000000E+00 -0.00000000000E+00 -0.45593999997E+02  0.45594000000E+02  0.51100000000E-03 0. -1.
    9900012    2    1    2    0    0  0.13107689597E+01  0.16115643779E+02  0.42043805270E+02  0.46142315953E+02  0.99999835153E+01 0.  0.
         12    1    1    2    0    0 -0.13107689597E+01 -0.16115643779E+02 -0.42043805270E+02  0.45045684047E+02  0.00000000000E+00 0. -1.
         11    1    3    3    0    0 -0.66929321035E+00  0.59335625929E+01  0.15736958010E+02  0.16831724990E+02  0.51100000000E-03 0. -1.
        -11    1    3    3    0    0 -0.20174969239E+01  0.79396860843E+01  0.14647847243E+02  0.16782977628E+02  0.51100000000E-03 0.  1.
         12    1    3    3    0    0  0.39975590940E+01  0.22423951017E+01  0.11659000016E+02  0.12527613335E+02  0.00000000000E+00 0. -1.
</event>
<event>
 7    1  0.2297343E-008  0.4614232E+02  0.7816164E-02  0.1320468E+00
        -11   -1    0    0    0    0  0.00000000000E+00  0.00000000000E+00  0.45593999997E+02  0.45594000000E+02  0.51100000000E-03 0.  1.
         11   -1    0    0    0    0 -0.00000000000E+00 -0.00000000000E+00 -0.45593999997E+02  0.45594000000E+02  0.51100000000E-03 0. -1.
    9900012    2    1    2    0    0 -0.25711373076E+02 -0.11459404573E+02  0.35167042093E+02  0.46142317541E+02  0.99999979957E+01 0.  0.
         12    1    1    2    0    0  0.25711373076E+02  0.11459404573E+02 -0.35167042093E+02  0.45045682459E+02  0.00000000000E+00 0. -1.
         11    1    3    3    0    0 -0.29075377575E+01 -0.25333347636E+01  0.84518976793E+01  0.92901095515E+01  0.51100000000E-03 0. -1.
        -11    1    3    3    0    0 -0.82774564866E+01  0.66045627970E-01  0.79964861658E+01  0.11509319666E+02  0.51100000000E-03 0.  1.
         12    1    3    3    0    0 -0.14526378832E+02 -0.89921154373E+01  0.18718658247E+02  0.25342888324E+02  0.00000000000E+00 0. -1.
</event>
<event>
 7    1  0.2297343E-008  0.4614232E+02  0.7816164E-02  0.1320468E+00
        -11   -1    0    0    0    0  0.00000000000E+00  0.00000000000E+00  0.45593999997E+02  0.45594000000E+02  0.51100000000E-03 0. -1.
         11   -1    0    0    0    0 -0.00000000000E+00 -0.00000000000E+00 -0.45593999997E+02  0.45594000000E+02  0.51100000000E-03 0.  1.
    9900012    2    1    2    0    0 -0.22919871281E+02 -0.37112515185E+02 -0.11245186106E+02  0.46142317705E+02  0.99999994862E+01 0.  0.
         12    1    1    2    0    0  0.22919871281E+02  0.37112515185E+02  0.11245186106E+02  0.45045682295E+02  0.00000000000E+00 0. -1.
         11    1    3    3    0    0 -0.65225360024E+01 -0.13113701258E+02 -0.55915872929E+01  0.15677323920E+02  0.51100000000E-03 0. -1.
        -11    1    3    3    0    0 -0.15898196048E+02 -0.18642822668E+02 -0.39161955607E+01  0.24812175692E+02  0.51100000000E-03 0.  1.
         12    1    3    3    0    0 -0.49913923141E+00 -0.53559912585E+01 -0.17374032527E+01  0.56528180933E+01  0.00000000000E+00 0. -1.
</event>
<event>
 7    1  0.2297343E-008  0.4614232E+02  0.7816164E-02  0.1320468E+00
        -11   -1    0    0    0    0  0.00000000000E+00  0.00000000000E+00  0.45593999997E+02  0.45594000000E+02  0.51100000000E-03 0.  1.
         11   -1    0    0    0    0 -0.00000000000E+00 -0.00000000000E+00 -0.45593999997E+02  0.45594000000E+02  0.51100000000E-03 0. -1.
    9900012    2    1    2    0    0  0.12590874361E+02  0.34863810495E+02  0.25594884381E+02  0.46142317567E+02  0.99999982271E+01 0.  0.
         12    1    1    2    0    0 -0.12590874361E+02 -0.34863810495E+02 -0.25594884381E+02  0.45045682433E+02  0.00000000000E+00 0. -1.
         11    1    3    3    0    0  0.29682719606E+01  0.85079594988E+01  0.34301090920E+01  0.96416628187E+01  0.51100000000E-03 0. -1.
        -11    1    3    3    0    0  0.57988805738E+01  0.22539821987E+02  0.15691763499E+02  0.28069592678E+02  0.51100000000E-03 0.  1.
        -12    1    3    3    0    0  0.38237218264E+01  0.38160290096E+01  0.64730117895E+01  0.84310620704E+01  0.00000000000E+00 0.  1.
</event>
<event>
 7    1  0.2297343E-008  0.4614232E+02  0.7816164E-02  0.1320468E+00
        -11   -1    0    0    0    0  0.00000000000E+00  0.00000000000E+00  0.45593999997E+02  0.45594000000E+02  0.51100000000E-03 0.  1.
         11   -1    0    0    0    0 -0.00000000000E+00 -0.00000000000E+00 -0.45593999997E+02  0.45594000000E+02  0.51100000000E-03 0. -1.
    9900012    2    1    2    0    0 -0.36056090840E+02  0.13596588890E+02  0.23328195008E+02  0.46142316539E+02  0.99999888569E+01 0.  0.
         12    1    1    2    0    0  0.36056090840E+02 -0.13596588890E+02 -0.23328195008E+02  0.45045683461E+02  0.00000000000E+00 0. -1.
         11    1    3    3    0    0 -0.11464910671E+02  0.67115479874E+01  0.46829381283E+01  0.14086126609E+02  0.51100000000E-03 0. -1.
        -11    1    3    3    0    0 -0.93162458132E+01  0.49633115171E+01  0.60623795724E+01  0.12172893806E+02  0.51100000000E-03 0.  1.
         12    1    3    3    0    0 -0.15274934356E+02  0.19217293851E+01  0.12582877308E+02  0.19883296124E+02  0.00000000000E+00 0. -1.
</event>
<event>
 7    1  0.2297343E-008  0.4614232E+02  0.7816164E-02  0.1320468E+00
        -11   -1    0    0    0    0  0.00000000000E+00  0.00000000000E+00  0.45593999997E+02  0.45594000000E+02  0.51100000000E-03 0. -1.
         11   -1    0    0    0    0 -0.00000000000E+00 -0.00000000000E+00 -0.45593999997E+02  0.45594000000E+02  0.51100000000E-03 0.  1.
    9900012    2    1    2    0    0  0.43561922987E+02 -0.11457798079E+02 -0.43727583551E+00  0.46142317840E+02  0.10000000716E+02 0.  0.
         12    1    1    2    0    0 -0.43561922987E+02  0.11457798079E+02  0.43727583551E+00  0.45045682160E+02  0.00000000000E+00 0. -1.
         11    1    3    3    0    0  0.45666650289E+01 -0.39263738606E+01 -0.19218840652E+01  0.63217465783E+01  0.51100000000E-03 0. -1.
        -11    1    3    3    0    0  0.26071085332E+02 -0.62048479237E+01  0.83629756753E+00  0.26812329665E+02  0.51100000000E-03 0.  1.
         12    1    3    3    0    0  0.12924172626E+02 -0.13265762950E+01  0.64831066215E+00  0.13008241597E+02  0.00000000000E+00 0. -1.
</event>
<event>
 7    1  0.2297343E-008  0.4614232E+02  0.7816164E-02  0.1320468E+00
        -11   -1    0    0    0    0  0.00000000000E+00  0.00000000000E+00  0.45593999997E+02  0.45594000000E+02  0.51100000000E-03 0.  1.
         11   -1    0    0    0    0 -0.00000000000E+00 -0.00000000000E+00 -0.45593999997E+02  0.45594000000E+02  0.51100000000E-03 0. -1.
    9900012    2    1    2    0    0 -0.42345057655E+02  0.17527332813E+01  0.15262294054E+02  0.46142316505E+02  0.99999885459E+01 0.  0.
         12    1    1    2    0    0  0.42345057655E+02 -0.17527332813E+01 -0.15262294054E+02  0.45045683495E+02  0.00000000000E+00 0. -1.
         11    1    3    3    0    0 -0.10619688003E+02 -0.49060271751E+00  0.75098244468E+01  0.13015987392E+02  0.51100000000E-03 0. -1.
        -11    1    3    3    0    0 -0.26286684107E+02  0.25294207315E+00  0.51996583220E+01  0.26797204853E+02  0.51100000000E-03 0.  1.
         12    1    3    3    0    0 -0.54386855450E+01  0.19903939257E+01  0.25528112855E+01  0.63291242598E+01  0.00000000000E+00 0. -1.
</event>
<event>
 7    1  0.2297343E-008  0.4614232E+02  0.7816164E-02  0.1320468E+00
        -11   -1    0    0    0    0  0.00000000000E+00  0.00000000000E+00  0.45593999997E+02  0.45594000000E+02  0.51100000000E-03 0.  1.
         11   -1    0    0    0    0 -0.00000000000E+00 -0.00000000000E+00 -0.45593999997E+02  0.45594000000E+02  0.51100000000E-03 0. -1.
    9900012    2    1    2    0    0  0.53444972310E+01  0.38470719544E+02  0.22815644363E+02  0.46142317181E+02  0.99999947142E+01 0.  0.
         12    1    1    2    0    0 -0.53444972310E+01 -0.38470719544E+02 -0.22815644363E+02  0.45045682819E+02  0.00000000000E+00 0. -1.
         11    1    3    3    0    0  0.27415762199E+00  0.14058631030E+02  0.52071078815E+01  0.14994473702E+02  0.51100000000E-03 0. -1.
        -11    1    3    3    0    0  0.40841847856E+01  0.18440201630E+02  0.16315948714E+02  0.24958601408E+02  0.51100000000E-03 0.  1.
        -12    1    3    3    0    0  0.98615482337E+00  0.59718868841E+01  0.12925877674E+01  0.61892420722E+01  0.00000000000E+00 0.  1.
</event>
<event>
 7    1  0.2297343E-008  0.4614232E+02  0.7816164E-02  0.1320468E+00
        -11   -1    0    0    0    0  0.00000000000E+00  0.00000000000E+00  0.45593999997E+02  0.45594000000E+02  0.51100000000E-03 0.  1.
         11   -1    0    0    0    0 -0.00000000000E+00 -0.00000000000E+00 -0.45593999997E+02  0.45594000000E+02  0.51100000000E-03 0. -1.
    9900012    2    1    2    0    0 -0.36458024198E+02 -0.15510934506E+02  0.21432147002E+02  0.46142317157E+02  0.99999944922E+01 0.  0.
         12    1    1    2    0    0  0.36458024198E+02  0.15510934506E+02 -0.21432147002E+02  0.45045682843E+02  0.00000000000E+00 0. -1.
         11    1    3    3    0    0 -0.12733871844E+02 -0.69542396755E+01  0.10765445452E+02  0.18066758360E+02  0.51100000000E-03 0. -1.
        -11    1    3    3    0    0 -0.16776708078E+02 -0.73407583646E+01  0.10306011172E+02  0.21013294217E+02  0.51100000000E-03 0.  1.
         12    1    3    3    0    0 -0.69474442751E+01 -0.12159364664E+01  0.36069037814E+00  0.70622645798E+01  0.00000000000E+00 0. -1.
</event>
<event>
 7    1  0.2297343E-008  0.4614232E+02  0.7816164E-02  0.1320468E+00
        -11   -1    0    0    0    0  0.00000000000E+00  0.00000000000E+00  0.45593999997E+02  0.45594000000E+02  0.51100000000E-03 0. -1.
         11   -1    0    0    0    0 -0.00000000000E+00 -0.00000000000E+00 -0.45593999997E+02  0.45594000000E+02  0.51100000000E-03 0.  1.
    9900012    2    1    2    0    0  0.22991978464E+02  0.37443250512E+02 -0.99239665740E+01  0.46142321015E+02  0.10000029675E+02 0.  0.
         12    1    1    2    0    0 -0.22991978464E+02 -0.37443250512E+02  0.99239665740E+01  0.45045678985E+02  0.00000000000E+00 0. -1.
         11    1    3    3    0    0  0.51331034579E+00  0.32984053238E+01 -0.11005840159E+01  0.35148613953E+01  0.51100000000E-03 0. -1.
        -11    1    3    3    0    0  0.17464566794E+02  0.27927688304E+02 -0.37178970393E+01  0.33147995806E+02  0.51100000000E-03 0.  1.
         12    1    3    3    0    0  0.50141013246E+01  0.62171568846E+01 -0.51054855188E+01  0.94794638141E+01  0.00000000000E+00 0. -1.
</event>
<event>
 7    1  0.2297343E-008  0.4614232E+02  0.7816164E-02  0.1320468E+00
        -11   -1    0    0    0    0  0.00000000000E+00  0.00000000000E+00  0.45593999997E+02  0.45594000000E+02  0.51100000000E-03 0.  1.
         11   -1    0    0    0    0 -0.00000000000E+00 -0.00000000000E+00 -0.45593999997E+02  0.45594000000E+02  0.51100000000E-03 0. -1.
    9900012    2    1    2    0    0 -0.44656836380E+02  0.44250167744E+01 -0.39114885212E+01  0.46142317062E+02  0.99999936242E+01 0.  0.
         12    1    1    2    0    0  0.44656836380E+02 -0.44250167744E+01  0.39114885212E+01  0.45045682938E+02  0.00000000000E+00 0. -1.
         11    1    3    3    0    0 -0.94439919296E+00  0.20070319563E+00  0.69007672449E+00  0.11867509238E+01  0.51100000000E-03 0. -1.
        -11    1    3    3    0    0 -0.42759437598E+02  0.26712222245E+01 -0.39669871316E+01  0.43026060928E+02  0.51100000000E-03 0.  1.
         12    1    3    3    0    0 -0.95299958914E+00  0.15530913543E+01 -0.63457811401E+00  0.19295052097E+01  0.00000000000E+00 0. -1.
</event>
<event>
 7    1  0.2297343E-008  0.4614232E+02  0.7816164E-02  0.1320468E+00
        -11   -1    0    0    0    0  0.00000000000E+00  0.00000000000E+00  0.45593999997E+02  0.45594000000E+02  0.51100000000E-03 0.  1.
         11   -1    0    0    0    0 -0.00000000000E+00 -0.00000000000E+00 -0.45593999997E+02  0.45594000000E+02  0.51100000000E-03 0. -1.
    9900012    2    1    2    0    0  0.12705701027E+02  0.13775648704E+02  0.40962301375E+02  0.46142317968E+02  0.10000001889E+02 0.  0.
         12    1    1    2    0    0 -0.12705701027E+02 -0.13775648704E+02 -0.40962301375E+02  0.45045682032E+02  0.00000000000E+00 0. -1.
         11    1    3    3    0    0  0.62333330156E+01  0.29150253748E+01  0.21976580595E+02  0.23028719207E+02  0.51100000000E-03 0. -1.
        -11    1    3    3    0    0  0.41888251861E+01  0.52701221721E+01  0.71148738495E+01  0.97949923075E+01  0.51100000000E-03 0.  1.
        -12    1    3    3    0    0  0.22835428249E+01  0.55905011576E+01  0.11870846930E+02  0.13318606454E+02  0.00000000000E+00 0.  1.
</event>
<event>
 7    1  0.2297343E-008  0.4614232E+02  0.7816164E-02  0.1320468E+00
        -11   -1    0    0    0    0  0.00000000000E+00  0.00000000000E+00  0.45593999997E+02  0.45594000000E+02  0.51100000000E-03 0. -1.
         11   -1    0    0    0    0 -0.00000000000E+00 -0.00000000000E+00 -0.45593999997E+02  0.45594000000E+02  0.51100000000E-03 0.  1.
    9900012    2    1    2    0    0  0.50710377907E+01 -0.92645910936E+01 -0.43790015398E+02  0.46142317399E+02  0.99999967004E+01 0.  0.
         12    1    1    2    0    0 -0.50710377907E+01  0.92645910936E+01  0.43790015398E+02  0.45045682601E+02  0.00000000000E+00 0. -1.
         11    1    3    3    0    0 -0.12774309562E+01 -0.98662487245E+00 -0.38072734435E+01  0.41352859419E+01  0.51100000000E-03 0. -1.
        -11    1    3    3    0    0 -0.17033897043E+01 -0.20236239090E+01 -0.96915870209E+01  0.10046066367E+02  0.51100000000E-03 0.  1.
        -12    1    3    3    0    0  0.80518584513E+01 -0.62543423122E+01 -0.30291154934E+02  0.31960965090E+02  0.00000000000E+00 0.  1.
</event>
<event>
 7    1  0.2297343E-008  0.4614232E+02  0.7816164E-02  0.1320468E+00
        -11   -1    0    0    0    0  0.00000000000E+00  0.00000000000E+00  0.45593999997E+02  0.45594000000E+02  0.51100000000E-03 0. -1.
         11   -1    0    0    0    0 -0.00000000000E+00 -0.00000000000E+00 -0.45593999997E+02  0.45594000000E+02  0.51100000000E-03 0.  1.
    9900012    2    1    2    0    0  0.14020228065E+02 -0.42148370835E+02  0.74874252245E+01  0.46142317682E+02  0.99999992771E+01 0.  0.
         12    1    1    2    0    0 -0.14020228065E+02  0.42148370835E+02 -0.74874252245E+01  0.45045682318E+02  0.00000000000E+00 0. -1.
         11    1    3    3    0    0  0.64260125696E+00 -0.54440592418E+01  0.21394893834E+01  0.58845673151E+01  0.51100000000E-03 0. -1.
        -11    1    3    3    0    0  0.13682911257E+02 -0.28683482353E+02  0.53738037021E+01  0.32231071761E+02  0.51100000000E-03 0.  1.
        -12    1    3    3    0    0 -0.30528444966E+00 -0.80208292401E+01 -0.25867860920E-01  0.80266786057E+01  0.00000000000E+00 0.  1.
</event>
<event>
 7    1  0.2297343E-008  0.4614232E+02  0.7816164E-02  0.1320468E+00
        -11   -1    0    0    0    0  0.00000000000E+00  0.00000000000E+00  0.45593999997E+02  0.45594000000E+02  0.51100000000E-03 0.  1.
         11   -1    0    0    0    0 -0.00000000000E+00 -0.00000000000E+00 -0.45593999997E+02  0.45594000000E+02  0.51100000000E-03 0. -1.
    9900012    2    1    2    0    0 -0.91396960440E+01 -0.29518032873E+02  0.32775982746E+02  0.46142319259E+02  0.10000013656E+02 0.  0.
         12    1    1    2    0    0  0.91396960440E+01  0.29518032873E+02 -0.32775982746E+02  0.45045680741E+02  0.00000000000E+00 0. -1.
         11    1    3    3    0    0 -0.26207629745E+00 -0.24391221785E+01  0.15368573848E+01  0.28948111976E+01  0.51100000000E-03 0. -1.
        -11    1    3    3    0    0 -0.81197840618E+01 -0.12652607747E+02  0.12279966259E+02  0.19411773427E+02  0.51100000000E-03 0.  1.
        -12    1    3    3    0    0 -0.75783568478E+00 -0.14426302948E+02  0.18959159103E+02  0.23835734634E+02  0.00000000000E+00 0.  1.
</event>
<event>
 7    1  0.2297343E-008  0.4614232E+02  0.7816164E-02  0.1320468E+00
        -11   -1    0    0    0    0  0.00000000000E+00  0.00000000000E+00  0.45593999997E+02  0.45594000000E+02  0.51100000000E-03 0.  1.
         11   -1    0    0    0    0 -0.00000000000E+00 -0.00000000000E+00 -0.45593999997E+02  0.45594000000E+02  0.51100000000E-03 0. -1.
    9900012    2    1    2    0    0 -0.39985382763E+02  0.39950078055E+00  0.20739407318E+02  0.46142318170E+02  0.10000003729E+02 0.  0.
         12    1    1    2    0    0  0.39985382763E+02 -0.39950078055E+00 -0.20739407318E+02  0.45045681830E+02  0.00000000000E+00 0. -1.
         11    1    3    3    0    0 -0.20264272555E+01  0.20521470469E+01  0.11492715038E+01  0.31045998413E+01  0.51100000000E-03 0. -1.
        -11    1    3    3    0    0 -0.25746034318E+02 -0.25204247125E+01  0.15350765318E+02  0.30080838086E+02  0.51100000000E-03 0.  1.
        -12    1    3    3    0    0 -0.12212921189E+02  0.86777844609E+00  0.42393704960E+01  0.12956880242E+02  0.00000000000E+00 0.  1.
</event>
<event>
 7    1  0.2297343E-008  0.4614232E+02  0.7816164E-02  0.1320468E+00
        -11   -1    0    0    0    0  0.00000000000E+00  0.00000000000E+00  0.45593999997E+02  0.45594000000E+02  0.51100000000E-03 0. -1.
         11   -1    0    0    0    0 -0.00000000000E+00 -0.00000000000E+00 -0.45593999997E+02  0.45594000000E+02  0.51100000000E-03 0.  1.
    9900012    2    1    2    0    0  0.27548773045E+02  0.34590240303E+02 -0.85845173869E+01  0.46142316974E+02  0.99999928204E+01 0.  0.
         12    1    1    2    0    0 -0.27548773045E+02 -0.34590240303E+02  0.85845173869E+01  0.45045683026E+02  0.00000000000E+00 0. -1.
         11    1    3    3    0    0  0.58926819022E+01  0.65073455874E+01 -0.29380776410E+01  0.92575130073E+01  0.51100000000E-03 0. -1.
        -11    1    3    3    0    0  0.21970194386E+02  0.24730373728E+02 -0.49888431814E+01  0.33453989039E+02  0.51100000000E-03 0.  1.
         12    1    3    3    0    0 -0.31410324345E+00  0.33525209879E+01 -0.65759656449E+00  0.34308149270E+01  0.00000000000E+00 0. -1.
</event>
<event>
 7    1  0.2297343E-008  0.4614232E+02  0.7816164E-02  0.1320468E+00
        -11   -1    0    0    0    0  0.00000000000E+00  0.00000000000E+00  0.45593999997E+02  0.45594000000E+02  0.51100000000E-03 0.  1.
         11   -1    0    0    0    0 -0.00000000000E+00 -0.00000000000E+00 -0.45593999997E+02  0.45594000000E+02  0.51100000000E-03 0. -1.
    9900012    2    1    2    0    0 -0.20085158061E+02  0.13198480423E+01  0.40298361735E+02  0.46142317280E+02  0.99999956127E+01 0.  0.
         12    1    1    2    0    0  0.20085158061E+02 -0.13198480423E+01 -0.40298361735E+02  0.45045682720E+02  0.00000000000E+00 0. -1.
         11    1    3    3    0    0 -0.69014031404E+01  0.28959613978E+01  0.13826712772E+02  0.15722402618E+02  0.51100000000E-03 0. -1.
        -11    1    3    3    0    0  0.84063880021E+00 -0.54270892000E-01  0.10456671255E+01  0.13427728477E+01  0.51100000000E-03 0.  1.
        -12    1    3    3    0    0 -0.14024393721E+02 -0.15218424636E+01  0.25425981837E+02  0.29077141815E+02  0.00000000000E+00 0.  1.
</event>
<event>
 7    1  0.2297343E-008  0.4614232E+02  0.7816164E-02  0.1320468E+00
        -11   -1    0    0    0    0  0.00000000000E+00  0.00000000000E+00  0.45593999997E+02  0.45594000000E+02  0.51100000000E-03 0. -1.
         11   -1    0    0    0    0 -0.00000000000E+00 -0.00000000000E+00 -0.45593999997E+02  0.45594000000E+02  0.51100000000E-03 0.  1.
    9900012    2    1    2    0    0 -0.38835892745E+02  0.22804698521E+02  0.91250742792E+00  0.46142317524E+02  0.99999978372E+01 0.  0.
         12    1    1    2    0    0  0.38835892745E+02 -0.22804698521E+02 -0.91250742792E+00  0.45045682476E+02  0.00000000000E+00 0. -1.
         11    1    3    3    0    0 -0.25538234186E+01  0.28366028173E+00  0.18642541712E+01  0.31745741580E+01  0.51100000000E-03 0. -1.
        -11    1    3    3    0    0 -0.13013909761E+02  0.94470635171E+01  0.15776920557E+01  0.16158526197E+02  0.51100000000E-03 0.  1.
        -12    1    3    3    0    0 -0.23268159565E+02  0.13073974722E+02 -0.25294387990E+01  0.26809217169E+02  0.00000000000E+00 0.  1.
</event>
<event>
 7    1  0.2297343E-008  0.4614232E+02  0.7816164E-02  0.1320468E+00
        -11   -1    0    0    0    0  0.00000000000E+00  0.00000000000E+00  0.45593999997E+02  0.45594000000E+02  0.51100000000E-03 0. -1.
         11   -1    0    0    0    0 -0.00000000000E+00 -0.00000000000E+00 -0.45593999997E+02  0.45594000000E+02  0.51100000000E-03 0.  1.
    9900012    2    1    2    0    0  0.21384245476E+02 -0.15941215045E+01 -0.39614219189E+02  0.46142317189E+02  0.99999947812E+01 0.  0.
         12    1    1    2    0    0 -0.21384245476E+02  0.15941215045E+01  0.39614219189E+02  0.45045682811E+02  0.00000000000E+00 0. -1.
         11    1    3    3    0    0  0.20890108405E+01 -0.15391072333E+01 -0.32628305472E+01  0.41687984850E+01  0.51100000000E-03 0. -1.
        -11    1    3    3    0    0  0.17859118214E+02  0.21798334327E+01 -0.28690267846E+02  0.33864896966E+02  0.51100000000E-03 0.  1.
        -12    1    3    3    0    0  0.14361164215E+01 -0.22348477038E+01 -0.76611207965E+01  0.81086217382E+01  0.00000000000E+00 0.  1.
</event>
<event>
 7    1  0.2297343E-008  0.4614232E+02  0.7816164E-02  0.1320468E+00
        -11   -1    0    0    0    0  0.00000000000E+00  0.00000000000E+00  0.45593999997E+02  0.45594000000E+02  0.51100000000E-03 0.  1.
         11   -1    0    0    0    0 -0.00000000000E+00 -0.00000000000E+00 -0.45593999997E+02  0.45594000000E+02  0.51100000000E-03 0. -1.
    9900012    2    1    2    0    0 -0.90228539070E+01 -0.20387014727E+02  0.39141681313E+02  0.46142317875E+02  0.10000001043E+02 0.  0.
         12    1    1    2    0    0  0.90228539070E+01  0.20387014727E+02 -0.39141681313E+02  0.45045682125E+02  0.00000000000E+00 0. -1.
         11    1    3    3    0    0 -0.38451609483E-01  0.61006923670E+00  0.16967788246E+01  0.18035303271E+01  0.51100000000E-03 0. -1.
        -11    1    3    3    0    0 -0.75620375734E+01 -0.21000976947E+02  0.35309786788E+02  0.41773274809E+02  0.51100000000E-03 0.  1.
        -12    1    3    3    0    0 -0.14223647241E+01  0.38929837395E-02  0.21351157002E+01  0.25655127396E+01  0.00000000000E+00 0.  1.
</event>
<event>
 7    1  0.2297343E-008  0.4614232E+02  0.7816164E-02  0.1320468E+00
        -11   -1    0    0    0    0  0.00000000000E+00  0.00000000000E+00  0.45593999997E+02  0.45594000000E+02  0.51100000000E-03 0. -1.
         11   -1    0    0    0    0 -0.00000000000E+00 -0.00000000000E+00 -0.45593999997E+02  0.45594000000E+02  0.51100000000E-03 0.  1.
    9900012    2    1    2    0    0  0.77998939600E+01 -0.26531803845E+02 -0.35557538838E+02  0.46142317308E+02  0.99999958641E+01 0.  0.
         12    1    1    2    0    0 -0.77998939600E+01  0.26531803845E+02  0.35557538838E+02  0.45045682692E+02  0.00000000000E+00 0. -1.
         11    1    3    3    0    0  0.10006505376E+02 -0.22484779415E+02 -0.30304857275E+02  0.39039465031E+02  0.51100000000E-03 0. -1.
        -11    1    3    3    0    0 -0.71997261842E+00 -0.18289699094E+01 -0.31108691778E+01  0.36798096151E+01  0.51100000000E-03 0.  1.
         12    1    3    3    0    0 -0.14866387980E+01 -0.22180545200E+01 -0.21418123850E+01  0.34230426614E+01  0.00000000000E+00 0. -1.
</event>
<event>
 7    1  0.2297343E-008  0.4614232E+02  0.7816164E-02  0.1320468E+00
        -11   -1    0    0    0    0  0.00000000000E+00  0.00000000000E+00  0.45593999997E+02  0.45594000000E+02  0.51100000000E-03 0. -1.
         11   -1    0    0    0    0 -0.00000000000E+00 -0.00000000000E+00 -0.45593999997E+02  0.45594000000E+02  0.51100000000E-03 0.  1.
    9900012    2    1    2    0    0 -0.46412848361E+01 -0.40779934026E+02 -0.18562560745E+02  0.46142320901E+02  0.10000028630E+02 0.  0.
         12    1    1    2    0    0  0.46412848361E+01  0.40779934026E+02  0.18562560745E+02  0.45045679099E+02  0.00000000000E+00 0. -1.
         11    1    3    3    0    0 -0.33113935993E+01 -0.66310971457E+01 -0.24607821046E+01  0.78097519648E+01  0.51100000000E-03 0.  1.
        -11    1    3    3    0    0 -0.26949367683E+01 -0.20216621695E+02 -0.12336213461E+02  0.23836036578E+02  0.51100000000E-03 0. -1.
        -12    1    3    3    0    0  0.13650455314E+01 -0.13932215186E+02 -0.37655651791E+01  0.14496532358E+02  0.00000000000E+00 0.  1.
</event>
<event>
 7    1  0.2297343E-008  0.4614232E+02  0.7816164E-02  0.1320468E+00
        -11   -1    0    0    0    0  0.00000000000E+00  0.00000000000E+00  0.45593999997E+02  0.45594000000E+02  0.51100000000E-03 0. -1.
         11   -1    0    0    0    0 -0.00000000000E+00 -0.00000000000E+00 -0.45593999997E+02  0.45594000000E+02  0.51100000000E-03 0.  1.
    9900012    2    1    2    0    0 -0.34040260382E+01  0.38499896122E+02 -0.23136207241E+02  0.46142317852E+02  0.10000000829E+02 0.  0.
         12    1    1    2    0    0  0.34040260382E+01 -0.38499896122E+02  0.23136207241E+02  0.45045682148E+02  0.00000000000E+00 0. -1.
         11    1    3    3    0    0  0.32970168786E+00  0.22222056406E+02 -0.14534748780E+02  0.26555365116E+02  0.51100000000E-03 0. -1.
        -11    1    3    3    0    0 -0.61440690808E+00  0.12954143443E+02 -0.55794972357E+01  0.14118006866E+02  0.51100000000E-03 0.  1.
         12    1    3    3    0    0 -0.31193208180E+01  0.33236962733E+01 -0.30219612255E+01  0.54689458702E+01  0.00000000000E+00 0. -1.
</event>
<event>
 7    1  0.2297343E-008  0.4614232E+02  0.7816164E-02  0.1320468E+00
        -11   -1    0    0    0    0  0.00000000000E+00  0.00000000000E+00  0.45593999997E+02  0.45594000000E+02  0.51100000000E-03 0.  1.
         11   -1    0    0    0    0 -0.00000000000E+00 -0.00000000000E+00 -0.45593999997E+02  0.45594000000E+02  0.51100000000E-03 0. -1.
    9900012    2    1    2    0    0 -0.33917312232E+02  0.26513353595E+02  0.13257883270E+02  0.46142318112E+02  0.10000003201E+02 0.  0.
         12    1    1    2    0    0  0.33917312232E+02 -0.26513353595E+02 -0.13257883270E+02  0.45045681888E+02  0.00000000000E+00 0. -1.
         11    1    3    3    0    0 -0.23672170705E+02  0.20501563595E+02  0.89223080091E+01  0.32562146062E+02  0.51100000000E-03 0.  1.
        -11    1    3    3    0    0 -0.70193083231E+01  0.33189952490E+01  0.51267479750E+01  0.93042981389E+01  0.51100000000E-03 0. -1.
         12    1    3    3    0    0 -0.32258332048E+01  0.26927947515E+01 -0.79117271437E+00  0.42758739110E+01  0.00000000000E+00 0. -1.
</event>
<event>
 7    1  0.2297343E-008  0.4614232E+02  0.7816164E-02  0.1320468E+00
        -11   -1    0    0    0    0  0.00000000000E+00  0.00000000000E+00  0.45593999997E+02  0.45594000000E+02  0.51100000000E-03 0.  1.
         11   -1    0    0    0    0 -0.00000000000E+00 -0.00000000000E+00 -0.45593999997E+02  0.45594000000E+02  0.51100000000E-03 0. -1.
    9900012    2    1    2    0    0 -0.80479939740E+01  0.37076421788E+02 -0.24283373249E+02  0.46142317899E+02  0.10000001257E+02 0.  0.
         12    1    1    2    0    0  0.80479939740E+01 -0.37076421788E+02  0.24283373249E+02  0.45045682101E+02  0.00000000000E+00 0. -1.
         11    1    3    3    0    0 -0.45569540997E+00  0.89958651154E+01 -0.66964541601E+01  0.11223891752E+02  0.51100000000E-03 0. -1.
        -11    1    3    3    0    0 -0.44195449571E+01  0.10608643025E+02 -0.11199462977E+02  0.16046920443E+02  0.51100000000E-03 0.  1.
        -12    1    3    3    0    0 -0.31727536070E+01  0.17471913648E+02 -0.63874561115E+01  0.18871505704E+02  0.00000000000E+00 0.  1.
</event>
<event>
 7    1  0.2297343E-008  0.4614232E+02  0.7816164E-02  0.1320468E+00
        -11   -1    0    0    0    0  0.00000000000E+00  0.00000000000E+00  0.45593999997E+02  0.45594000000E+02  0.51100000000E-03 0. -1.
         11   -1    0    0    0    0 -0.00000000000E+00 -0.00000000000E+00 -0.45593999997E+02  0.45594000000E+02  0.51100000000E-03 0.  1.
    9900012    2    1    2    0    0 -0.38116856968E+02  0.18173721190E+02  0.15682302163E+02  0.46142317320E+02  0.99999959762E+01 0.  0.
         12    1    1    2    0    0  0.38116856968E+02 -0.18173721190E+02 -0.15682302163E+02  0.45045682680E+02  0.00000000000E+00 0. -1.
         11    1    3    3    0    0 -0.12791013039E+02  0.10375510547E+02  0.67500639569E+01  0.17799567337E+02  0.51100000000E-03 0. -1.
        -11    1    3    3    0    0 -0.73128076784E+01  0.42595096534E+01  0.38322774448E+01  0.92901522756E+01  0.51100000000E-03 0.  1.
         12    1    3    3    0    0 -0.18013036250E+02  0.35387009890E+01  0.50999607616E+01  0.19052597708E+02  0.00000000000E+00 0. -1.
</event>
<event>
 7    1  0.2297343E-008  0.4614232E+02  0.7816164E-02  0.1320468E+00
        -11   -1    0    0    0    0  0.00000000000E+00  0.00000000000E+00  0.45593999997E+02  0.45594000000E+02  0.51100000000E-03 0.  1.
         11   -1    0    0    0    0 -0.00000000000E+00 -0.00000000000E+00 -0.45593999997E+02  0.45594000000E+02  0.51100000000E-03 0. -1.
    9900012    2    1    2    0    0  0.71237414770E+01  0.24592586330E+02  0.37061711974E+02  0.46142317749E+02  0.99999998922E+01 0.  0.
         12    1    1    2    0    0 -0.71237414770E+01 -0.24592586330E+02 -0.37061711974E+02  0.45045682251E+02  0.00000000000E+00 0. -1.
         11    1    3    3    0    0  0.67702406403E+01  0.13349024777E+02  0.18412878648E+02  0.23729026975E+02  0.51100000000E-03 0.  1.
        -11    1    3    3    0    0 -0.14946441569E+01  0.15389034865E+01  0.14839217982E+01  0.26084879262E+01  0.51100000000E-03 0. -1.
         12    1    3    3    0    0  0.18481449937E+01  0.97046580659E+01  0.17164911527E+02  0.19804802848E+02  0.00000000000E+00 0. -1.
</event>
<event>
 7    1  0.2297343E-008  0.4614232E+02  0.7816164E-02  0.1320468E+00
        -11   -1    0    0    0    0  0.00000000000E+00  0.00000000000E+00  0.45593999997E+02  0.45594000000E+02  0.51100000000E-03 0.  1.
         11   -1    0    0    0    0 -0.00000000000E+00 -0.00000000000E+00 -0.45593999997E+02  0.45594000000E+02  0.51100000000E-03 0. -1.
    9900012    2    1    2    0    0 -0.18963186592E+02 -0.79274199080E+01  0.40083251862E+02  0.46142317499E+02  0.99999976088E+01 0.  0.
         12    1    1    2    0    0  0.18963186592E+02  0.79274199080E+01 -0.40083251862E+02  0.45045682501E+02  0.00000000000E+00 0. -1.
         11    1    3    3    0    0 -0.64399701655E+01 -0.38669799298E+01  0.17909547454E+02  0.19421087503E+02  0.51100000000E-03 0. -1.
        -11    1    3    3    0    0 -0.91501130829E+01 -0.44947325266E+01  0.20577486712E+02  0.22964323407E+02  0.51100000000E-03 0.  1.
         12    1    3    3    0    0 -0.33731033438E+01  0.43429254848E+00  0.15962176967E+01  0.37569065893E+01  0.00000000000E+00 0. -1.
</event>
<event>
 7    1  0.2297343E-008  0.4614232E+02  0.7816164E-02  0.1320468E+00
        -11   -1    0    0    0    0  0.00000000000E+00  0.00000000000E+00  0.45593999997E+02  0.45594000000E+02  0.51100000000E-03 0. -1.
         11   -1    0    0    0    0 -0.00000000000E+00 -0.00000000000E+00 -0.45593999997E+02  0.45594000000E+02  0.51100000000E-03 0.  1.
    9900012    2    1    2    0    0  0.42373376158E+02  0.15180250461E+02 -0.17805876490E+01  0.46142317594E+02  0.99999984752E+01 0.  0.
         12    1    1    2    0    0 -0.42373376158E+02 -0.15180250461E+02  0.17805876490E+01  0.45045682406E+02  0.00000000000E+00 0. -1.
         11    1    3    3    0    0  0.17368097121E+02  0.18981036224E+01  0.82503652597E+00  0.17490977117E+02  0.51100000000E-03 0. -1.
        -11    1    3    3    0    0  0.14891107793E+02  0.74301066119E+01  0.16304900332E+00  0.16642660869E+02  0.51100000000E-03 0.  1.
         12    1    3    3    0    0  0.10114171243E+02  0.58520402265E+01 -0.27686731783E+01  0.12008679608E+02  0.00000000000E+00 0. -1.
</event>
<event>
 7    1  0.2297343E-008  0.4614232E+02  0.7816164E-02  0.1320468E+00
        -11   -1    0    0    0    0  0.00000000000E+00  0.00000000000E+00  0.45593999997E+02  0.45594000000E+02  0.51100000000E-03 0.  1.
         11   -1    0    0    0    0 -0.00000000000E+00 -0.00000000000E+00 -0.45593999997E+02  0.45594000000E+02  0.51100000000E-03 0. -1.
    9900012    2    1    2    0    0 -0.44336450744E+02 -0.78217970537E+01  0.14873220613E+01  0.46142317624E+02  0.99999987540E+01 0.  0.
         12    1    1    2    0    0  0.44336450744E+02  0.78217970537E+01 -0.14873220613E+01  0.45045682376E+02  0.00000000000E+00 0. -1.
         11    1    3    3    0    0 -0.44286788515E+01  0.53109557539E+00  0.25775211052E+01  0.51515894818E+01  0.51100000000E-03 0. -1.
        -11    1    3    3    0    0 -0.11601470839E+02 -0.22838892657E+01  0.15303431587E+01  0.11922760849E+02  0.51100000000E-03 0.  1.
         12    1    3    3    0    0 -0.28306301054E+02 -0.60690033635E+01 -0.26205422026E+01  0.29067967294E+02  0.00000000000E+00 0. -1.
</event>
<event>
 7    1  0.2297343E-008  0.4614232E+02  0.7816164E-02  0.1320468E+00
        -11   -1    0    0    0    0  0.00000000000E+00  0.00000000000E+00  0.45593999997E+02  0.45594000000E+02  0.51100000000E-03 0. -1.
         11   -1    0    0    0    0 -0.00000000000E+00 -0.00000000000E+00 -0.45593999997E+02  0.45594000000E+02  0.51100000000E-03 0.  1.
    9900012    2    1    2    0    0 -0.21344565778E+02  0.20138235246E+02 -0.34175644626E+02  0.46142315494E+02  0.99999793229E+01 0.  0.
         12    1    1    2    0    0  0.21344565778E+02 -0.20138235246E+02  0.34175644626E+02  0.45045684506E+02  0.00000000000E+00 0. -1.
         11    1    3    3    0    0 -0.68864051661E-01  0.13033906082E+01 -0.26185248570E+01  0.29257891283E+01  0.51100000000E-03 0. -1.
        -11    1    3    3    0    0 -0.17054642912E+02  0.11175167543E+02 -0.18697911775E+02  0.27665088459E+02  0.51100000000E-03 0.  1.
        -12    1    3    3    0    0 -0.42210588144E+01  0.76596770951E+01 -0.12859207994E+02  0.15551437906E+02  0.00000000000E+00 0.  1.
</event>
<event>
 7    1  0.2297343E-008  0.4614232E+02  0.7816164E-02  0.1320468E+00
        -11   -1    0    0    0    0  0.00000000000E+00  0.00000000000E+00  0.45593999997E+02  0.45594000000E+02  0.51100000000E-03 0. -1.
         11   -1    0    0    0    0 -0.00000000000E+00 -0.00000000000E+00 -0.45593999997E+02  0.45594000000E+02  0.51100000000E-03 0.  1.
    9900012    2    1    2    0    0 -0.13795928823E+02  0.63224000387E+01 -0.42412418647E+02  0.46142315969E+02  0.99999836582E+01 0.  0.
         12    1    1    2    0    0  0.13795928823E+02 -0.63224000387E+01  0.42412418647E+02  0.45045684031E+02  0.00000000000E+00 0. -1.
         11    1    3    3    0    0 -0.29982510783E+01  0.59742411292E+01 -0.12465574334E+02  0.14144667205E+02  0.51100000000E-03 0. -1.
        -11    1    3    3    0    0 -0.26064347996E+00  0.63564465015E+00 -0.12543328238E+01  0.14301504252E+01  0.51100000000E-03 0.  1.
        -12    1    3    3    0    0 -0.10537034265E+02 -0.28748574058E+00 -0.28692511489E+02  0.30567498339E+02  0.00000000000E+00 0.  1.
</event>
<event>
 7    1  0.2297343E-008  0.4614232E+02  0.7816164E-02  0.1320468E+00
        -11   -1    0    0    0    0  0.00000000000E+00  0.00000000000E+00  0.45593999997E+02  0.45594000000E+02  0.51100000000E-03 0. -1.
         11   -1    0    0    0    0 -0.00000000000E+00 -0.00000000000E+00 -0.45593999997E+02  0.45594000000E+02  0.51100000000E-03 0.  1.
    9900012    2    1    2    0    0  0.35238216392E+02 -0.22830180374E+02  0.16314534163E+02  0.46142322567E+02  0.10000043827E+02 0.  0.
         12    1    1    2    0    0 -0.35238216392E+02  0.22830180374E+02 -0.16314534163E+02  0.45045677433E+02  0.00000000000E+00 0. -1.
         11    1    3    3    0    0  0.71083297078E+01 -0.23815354238E+01  0.54087585675E+01  0.92441728517E+01  0.51100000000E-03 0. -1.
        -11    1    3    3    0    0  0.12964281003E+02 -0.12559223519E+02  0.70195156971E+01  0.19366989394E+02  0.51100000000E-03 0.  1.
        -12    1    3    3    0    0  0.15165605682E+02 -0.78894214309E+01  0.38862598988E+01  0.17531160321E+02  0.00000000000E+00 0.  1.
</event>
<event>
 7    1  0.2297343E-008  0.4614232E+02  0.7816164E-02  0.1320468E+00
        -11   -1    0    0    0    0  0.00000000000E+00  0.00000000000E+00  0.45593999997E+02  0.45594000000E+02  0.51100000000E-03 0.  1.
         11   -1    0    0    0    0 -0.00000000000E+00 -0.00000000000E+00 -0.45593999997E+02  0.45594000000E+02  0.51100000000E-03 0. -1.
    9900012    2    1    2    0    0  0.14388910356E+02 -0.16758105012E+02  0.39258612645E+02  0.46142317725E+02  0.99999996675E+01 0.  0.
         12    1    1    2    0    0 -0.14388910356E+02  0.16758105012E+02 -0.39258612645E+02  0.45045682275E+02  0.00000000000E+00 0. -1.
         11    1    3    3    0    0  0.22706905893E+01 -0.48790803324E+01  0.69503990328E+01  0.87903075952E+01  0.51100000000E-03 0. -1.
        -11    1    3    3    0    0  0.12371000315E+02 -0.79151081888E+01  0.26811876563E+02  0.30570693670E+02  0.51100000000E-03 0.  1.
         12    1    3    3    0    0 -0.25278054817E+00 -0.39639164905E+01  0.54963370501E+01  0.67813164590E+01  0.00000000000E+00 0. -1.
</event>
<event>
 7    1  0.2297343E-008  0.4614231E+02  0.7816164E-02  0.1320468E+00
        -11   -1    0    0    0    0  0.00000000000E+00  0.00000000000E+00  0.45593999997E+02  0.45594000000E+02  0.51100000000E-03 0.  1.
         11   -1    0    0    0    0 -0.00000000000E+00 -0.00000000000E+00 -0.45593999997E+02  0.45594000000E+02  0.51100000000E-03 0. -1.
    9900012    2    1    2    0    0 -0.12878536263E+02 -0.38165981580E+02  0.20164695170E+02  0.46142314551E+02  0.99999707302E+01 0.  0.
         12    1    1    2    0    0  0.12878536263E+02  0.38165981580E+02 -0.20164695170E+02  0.45045685449E+02  0.00000000000E+00 0. -1.
         11    1    3    3    0    0  0.40453665154E+00 -0.46626894075E+01  0.29781357289E+01  0.55473971459E+01  0.51100000000E-03 0. -1.
        -11    1    3    3    0    0 -0.58072195756E+01 -0.79928966665E+01  0.23647833121E+01  0.10158858041E+02  0.51100000000E-03 0.  1.
         12    1    3    3    0    0 -0.74758533385E+01 -0.25510395506E+02  0.14821776129E+02  0.30436059365E+02  0.00000000000E+00 0. -1.
</event>
<event>
 7    1  0.2297343E-008  0.4614232E+02  0.7816164E-02  0.1320468E+00
        -11   -1    0    0    0    0  0.00000000000E+00  0.00000000000E+00  0.45593999997E+02  0.45594000000E+02  0.51100000000E-03 0.  1.
         11   -1    0    0    0    0 -0.00000000000E+00 -0.00000000000E+00 -0.45593999997E+02  0.45594000000E+02  0.51100000000E-03 0. -1.
    9900012    2    1    2    0    0 -0.35106309623E+02  0.26441935359E+02  0.98734331994E+01  0.46142316477E+02  0.99999882895E+01 0.  0.
         12    1    1    2    0    0  0.35106309623E+02 -0.26441935359E+02 -0.98734331994E+01  0.45045683523E+02  0.00000000000E+00 0. -1.
         11    1    3    3    0    0 -0.53204210458E+01  0.82047696610E+01  0.29592873670E+01  0.10216775777E+02  0.51100000000E-03 0.  1.
        -11    1    3    3    0    0 -0.10874235454E+02  0.93509983423E+01  0.22716148190E+01  0.14520688718E+02  0.51100000000E-03 0. -1.
        -12    1    3    3    0    0 -0.18911653123E+02  0.88861673560E+01  0.46425310135E+01  0.21404851981E+02  0.00000000000E+00 0.  1.
</event>
<event>
 7    1  0.2297343E-008  0.4614232E+02  0.7816164E-02  0.1320468E+00
        -11   -1    0    0    0    0  0.00000000000E+00  0.00000000000E+00  0.45593999997E+02  0.45594000000E+02  0.51100000000E-03 0. -1.
         11   -1    0    0    0    0 -0.00000000000E+00 -0.00000000000E+00 -0.45593999997E+02  0.45594000000E+02  0.51100000000E-03 0.  1.
    9900012    2    1    2    0    0  0.17997456577E+02  0.28342899835E+02 -0.30031400465E+02  0.46142318429E+02  0.10000006090E+02 0.  0.
         12    1    1    2    0    0 -0.17997456577E+02 -0.28342899835E+02  0.30031400465E+02  0.45045681571E+02  0.00000000000E+00 0. -1.
         11    1    3    3    0    0  0.22955601807E+01  0.25947224038E+01 -0.70381559648E+01  0.78446045498E+01  0.51100000000E-03 0. -1.
        -11    1    3    3    0    0  0.11455748897E+02  0.14486657270E+02 -0.12226011058E+02  0.22148877360E+02  0.51100000000E-03 0.  1.
        -12    1    3    3    0    0  0.42461475000E+01  0.11261520162E+02 -0.10767233442E+02  0.16148836520E+02  0.00000000000E+00 0.  1.
</event>
<event>
 7    1  0.2297343E-008  0.4614232E+02  0.7816164E-02  0.1320468E+00
        -11   -1    0    0    0    0  0.00000000000E+00  0.00000000000E+00  0.45593999997E+02  0.45594000000E+02  0.51100000000E-03 0.  1.
         11   -1    0    0    0    0 -0.00000000000E+00 -0.00000000000E+00 -0.45593999997E+02  0.45594000000E+02  0.51100000000E-03 0. -1.
    9900012    2    1    2    0    0 -0.40358496208E+02  0.18784172913E+02  0.68891254095E+01  0.46142318552E+02  0.10000007211E+02 0.  0.
         12    1    1    2    0    0  0.40358496208E+02 -0.18784172913E+02 -0.68891254095E+01  0.45045681448E+02  0.00000000000E+00 0. -1.
         11    1    3    3    0    0 -0.23074959764E+01  0.11577793634E+01 -0.17699982400E+01  0.31301573069E+01  0.51100000000E-03 0. -1.
        -11    1    3    3    0    0 -0.19635830797E+02  0.81969340449E+01  0.62883292916E+01  0.22187804407E+02  0.51100000000E-03 0.  1.
        -12    1    3    3    0    0 -0.18415169435E+02  0.94294595044E+01  0.23707943579E+01  0.20824356838E+02  0.00000000000E+00 0.  1.
</event>
<event>
 7    1  0.2297343E-008  0.4614232E+02  0.7816164E-02  0.1320468E+00
        -11   -1    0    0    0    0  0.00000000000E+00  0.00000000000E+00  0.45593999997E+02  0.45594000000E+02  0.51100000000E-03 0.  1.
         11   -1    0    0    0    0 -0.00000000000E+00 -0.00000000000E+00 -0.45593999997E+02  0.45594000000E+02  0.51100000000E-03 0. -1.
    9900012    2    1    2    0    0 -0.28791530078E+02 -0.34618346904E+02  0.13158155174E+01  0.46142317443E+02  0.99999970964E+01 0.  0.
         12    1    1    2    0    0  0.28791530078E+02  0.34618346904E+02 -0.13158155174E+01  0.45045682557E+02  0.00000000000E+00 0. -1.
         11    1    3    3    0    0 -0.81817887336E+01 -0.61968406246E+01  0.74521713321E+00  0.10290668076E+02  0.51100000000E-03 0. -1.
        -11    1    3    3    0    0 -0.50694837978E+01 -0.11016520613E+02  0.26924947486E+01  0.12422275179E+02  0.51100000000E-03 0.  1.
        -12    1    3    3    0    0 -0.15540257547E+02 -0.17404985666E+02 -0.21218963644E+01  0.23429374188E+02  0.00000000000E+00 0.  1.
</event>
<event>
 7    1  0.2297343E-008  0.4614232E+02  0.7816164E-02  0.1320468E+00
        -11   -1    0    0    0    0  0.00000000000E+00  0.00000000000E+00  0.45593999997E+02  0.45594000000E+02  0.51100000000E-03 0.  1.
         11   -1    0    0    0    0 -0.00000000000E+00 -0.00000000000E+00 -0.45593999997E+02  0.45594000000E+02  0.51100000000E-03 0. -1.
    9900012    2    1    2    0    0 -0.26704090686E+02 -0.15907236585E+01  0.36241890745E+02  0.46142317566E+02  0.99999982215E+01 0.  0.
         12    1    1    2    0    0  0.26704090686E+02  0.15907236585E+01 -0.36241890745E+02  0.45045682434E+02  0.00000000000E+00 0. -1.
         11    1    3    3    0    0 -0.74487416022E+00  0.15846838897E+01  0.89774611176E+00  0.19677420784E+01  0.51100000000E-03 0. -1.
        -11    1    3    3    0    0 -0.55294546964E+00  0.59724911719E+00  0.10877344084E+01  0.13585365673E+01  0.51100000000E-03 0.  1.
         12    1    3    3    0    0 -0.25406271056E+02 -0.37726566654E+01  0.34256410225E+02  0.42816038920E+02  0.00000000000E+00 0. -1.
</event>
<event>
 7    1  0.2297343E-008  0.4614232E+02  0.7816164E-02  0.1320468E+00
        -11   -1    0    0    0    0  0.00000000000E+00  0.00000000000E+00  0.45593999997E+02  0.45594000000E+02  0.51100000000E-03 0.  1.
         11   -1    0    0    0    0 -0.00000000000E+00 -0.00000000000E+00 -0.45593999997E+02  0.45594000000E+02  0.51100000000E-03 0. -1.
    9900012    2    1    2    0    0 -0.27661250534E+02 -0.21462867671E+02  0.28342795051E+02  0.46142317620E+02  0.99999987122E+01 0.  0.
         12    1    1    2    0    0  0.27661250534E+02  0.21462867671E+02 -0.28342795051E+02  0.45045682380E+02  0.00000000000E+00 0. -1.
         11    1    3    3    0    0  0.28461322261E+00 -0.92342187121E-01  0.10668860462E+00  0.31767040385E+00  0.51100000000E-03 0. -1.
        -11    1    3    3    0    0 -0.22374680049E+02 -0.17646698087E+02  0.18391489000E+02  0.33915765192E+02  0.51100000000E-03 0.  1.
         12    1    3    3    0    0 -0.55711837076E+01 -0.37238273971E+01  0.98446174469E+01  0.11908882024E+02  0.00000000000E+00 0. -1.
</event>
<event>
 7    1  0.2297343E-008  0.4614232E+02  0.7816164E-02  0.1320468E+00
        -11   -1    0    0    0    0  0.00000000000E+00  0.00000000000E+00  0.45593999997E+02  0.45594000000E+02  0.51100000000E-03 0.  1.
         11   -1    0    0    0    0 -0.00000000000E+00 -0.00000000000E+00 -0.45593999997E+02  0.45594000000E+02  0.51100000000E-03 0. -1.
    9900012    2    1    2    0    0 -0.24494390084E+02 -0.29934014535E+02  0.23088808652E+02  0.46142318112E+02  0.10000003202E+02 0.  0.
         12    1    1    2    0    0  0.24494390084E+02  0.29934014535E+02 -0.23088808652E+02  0.45045681888E+02  0.00000000000E+00 0. -1.
         11    1    3    3    0    0 -0.74944954806E+01 -0.81188044914E+01  0.26124399943E+01  0.11353734710E+02  0.51100000000E-03 0. -1.
        -11    1    3    3    0    0 -0.54172921837E+01 -0.72142826664E+01  0.38352155837E+01  0.98031529535E+01  0.51100000000E-03 0.  1.
        -12    1    3    3    0    0 -0.11582602420E+02 -0.14600927377E+02  0.16641153074E+02  0.24985430449E+02  0.00000000000E+00 0.  1.
</event>
<event>
 7    1  0.2297343E-008  0.4614232E+02  0.7816164E-02  0.1320468E+00
        -11   -1    0    0    0    0  0.00000000000E+00  0.00000000000E+00  0.45593999997E+02  0.45594000000E+02  0.51100000000E-03 0.  1.
         11   -1    0    0    0    0 -0.00000000000E+00 -0.00000000000E+00 -0.45593999997E+02  0.45594000000E+02  0.51100000000E-03 0. -1.
    9900012    2    1    2    0    0  0.76458048019E-01  0.40053717906E+02  0.20610857207E+02  0.46142316536E+02  0.99999888328E+01 0.  0.
         12    1    1    2    0    0 -0.76458048019E-01 -0.40053717906E+02 -0.20610857207E+02  0.45045683464E+02  0.00000000000E+00 0. -1.
         11    1    3    3    0    0 -0.93055970646E+00  0.22032720179E+02  0.12373209197E+02  0.25286419398E+02  0.51100000000E-03 0.  1.
        -11    1    3    3    0    0  0.11916137382E+01  0.67469978094E+01  0.65058381269E+01  0.94481666336E+01  0.51100000000E-03 0. -1.
         12    1    3    3    0    0 -0.18459598368E+00  0.11273999917E+02  0.17318098827E+01  0.11407730505E+02  0.00000000000E+00 0. -1.
</event>
<event>
 7    1  0.2297343E-008  0.4614232E+02  0.7816164E-02  0.1320468E+00
        -11   -1    0    0    0    0  0.00000000000E+00  0.00000000000E+00  0.45593999997E+02  0.45594000000E+02  0.51100000000E-03 0.  1.
         11   -1    0    0    0    0 -0.00000000000E+00 -0.00000000000E+00 -0.45593999997E+02  0.45594000000E+02  0.51100000000E-03 0. -1.
    9900012    2    1    2    0    0 -0.52528211344E+01 -0.86963420115E+01  0.43885020234E+02  0.46142317685E+02  0.99999993094E+01 0.  0.
         12    1    1    2    0    0  0.52528211344E+01  0.86963420115E+01 -0.43885020234E+02  0.45045682315E+02  0.00000000000E+00 0. -1.
         11    1    3    3    0    0 -0.56530795730E+00  0.97163754657E+00  0.12108421414E+01  0.16522080865E+01  0.51100000000E-03 0. -1.
        -11    1    3    3    0    0 -0.16993040430E+01 -0.90955138379E+01  0.35729638888E+02  0.36908306674E+02  0.51100000000E-03 0.  1.
        -12    1    3    3    0    0 -0.29882091341E+01 -0.57246572019E+00  0.69445392050E+01  0.75818029254E+01  0.00000000000E+00 0.  1.
</event>
<event>
 7    1  0.2297343E-008  0.4614232E+02  0.7816164E-02  0.1320468E+00
        -11   -1    0    0    0    0  0.00000000000E+00  0.00000000000E+00  0.45593999997E+02  0.45594000000E+02  0.51100000000E-03 0.  1.
         11   -1    0    0    0    0 -0.00000000000E+00 -0.00000000000E+00 -0.45593999997E+02  0.45594000000E+02  0.51100000000E-03 0. -1.
    9900012    2    1    2    0    0 -0.13822771535E+02 -0.40513228570E+02  0.14025790162E+02  0.46142317723E+02  0.99999996527E+01 0.  0.
         12    1    1    2    0    0  0.13822771535E+02  0.40513228570E+02 -0.14025790162E+02  0.45045682277E+02  0.00000000000E+00 0. -1.
         11    1    3    3    0    0 -0.65761964518E+01 -0.25682305841E+02  0.11179821634E+02  0.28771784878E+02  0.51100000000E-03 0. -1.
        -11    1    3    3    0    0 -0.47243023976E+01 -0.12823804044E+02  0.34404676661E+01  0.14092757052E+02  0.51100000000E-03 0.  1.
         12    1    3    3    0    0 -0.25222726860E+01 -0.20071186859E+01 -0.59449913784E+00  0.32777757926E+01  0.00000000000E+00 0. -1.
</event>
<event>
 7    1  0.2297343E-008  0.4614232E+02  0.7816164E-02  0.1320468E+00
        -11   -1    0    0    0    0  0.00000000000E+00  0.00000000000E+00  0.45593999997E+02  0.45594000000E+02  0.51100000000E-03 0. -1.
         11   -1    0    0    0    0 -0.00000000000E+00 -0.00000000000E+00 -0.45593999997E+02  0.45594000000E+02  0.51100000000E-03 0.  1.
    9900012    2    1    2    0    0 -0.25750785046E+02 -0.35077671686E+02 -0.11643350274E+02  0.46142316666E+02  0.99999900181E+01 0.  0.
         12    1    1    2    0    0  0.25750785046E+02  0.35077671686E+02  0.11643350274E+02  0.45045683334E+02  0.00000000000E+00 0. -1.
         11    1    3    3    0    0 -0.21192446356E+01 -0.27362830670E+01 -0.33867023587E+01  0.48423337323E+01  0.51100000000E-03 0. -1.
        -11    1    3    3    0    0 -0.42673234352E+01 -0.46965923657E+01 -0.34031472117E+01  0.72006555504E+01  0.51100000000E-03 0.  1.
         12    1    3    3    0    0 -0.19364216975E+02 -0.27644796253E+02 -0.48535007039E+01  0.34099327384E+02  0.00000000000E+00 0. -1.
</event>
<event>
 7    1  0.2297343E-008  0.4614232E+02  0.7816164E-02  0.1320468E+00
        -11   -1    0    0    0    0  0.00000000000E+00  0.00000000000E+00  0.45593999997E+02  0.45594000000E+02  0.51100000000E-03 0. -1.
         11   -1    0    0    0    0 -0.00000000000E+00 -0.00000000000E+00 -0.45593999997E+02  0.45594000000E+02  0.51100000000E-03 0.  1.
    9900012    2    1    2    0    0 -0.31791433917E+02 -0.29508360087E+02 -0.12152154825E+02  0.46142318160E+02  0.10000003638E+02 0.  0.
         12    1    1    2    0    0  0.31791433917E+02  0.29508360087E+02  0.12152154825E+02  0.45045681840E+02  0.00000000000E+00 0. -1.
         11    1    3    3    0    0 -0.27612519773E+01 -0.42263776555E+01 -0.32171254834E+01  0.59863742955E+01  0.51100000000E-03 0. -1.
        -11    1    3    3    0    0 -0.28718602383E+02 -0.24288369052E+02 -0.97246572806E+01  0.38849092056E+02  0.51100000000E-03 0.  1.
        -12    1    3    3    0    0 -0.31157955615E+00 -0.99361337964E+00  0.78962793895E+00  0.13068518087E+01  0.00000000000E+00 0.  1.
</event>
<event>
 7    1  0.2297343E-008  0.4614232E+02  0.7816164E-02  0.1320468E+00
        -11   -1    0    0    0    0  0.00000000000E+00  0.00000000000E+00  0.45593999997E+02  0.45594000000E+02  0.51100000000E-03 0.  1.
         11   -1    0    0    0    0 -0.00000000000E+00 -0.00000000000E+00 -0.45593999997E+02  0.45594000000E+02  0.51100000000E-03 0. -1.
    9900012    2    1    2    0    0 -0.24155049578E+01  0.11172434495E+02  0.43571269578E+02  0.46142317750E+02  0.99999998995E+01 0.  0.
         12    1    1    2    0    0  0.24155049578E+01 -0.11172434495E+02 -0.43571269578E+02  0.45045682250E+02  0.00000000000E+00 0. -1.
         11    1    3    3    0    0  0.16046180030E+01  0.54648153623E+00  0.21209369457E+01  0.27151086155E+01  0.51100000000E-03 0. -1.
        -11    1    3    3    0    0 -0.26400079263E+01  0.46165552718E+01  0.29546439307E+02  0.30021230828E+02  0.51100000000E-03 0.  1.
         12    1    3    3    0    0 -0.13801150345E+01  0.60093976874E+01  0.11903893325E+02  0.13405978307E+02  0.00000000000E+00 0. -1.
</event>
<event>
 7    1  0.2297343E-008  0.4614232E+02  0.7816164E-02  0.1320468E+00
        -11   -1    0    0    0    0  0.00000000000E+00  0.00000000000E+00  0.45593999997E+02  0.45594000000E+02  0.51100000000E-03 0.  1.
         11   -1    0    0    0    0 -0.00000000000E+00 -0.00000000000E+00 -0.45593999997E+02  0.45594000000E+02  0.51100000000E-03 0. -1.
    9900012    2    1    2    0    0 -0.26613950272E+02  0.16421911465E+02  0.32421165869E+02  0.46142317393E+02  0.99999966435E+01 0.  0.
         12    1    1    2    0    0  0.26613950272E+02 -0.16421911465E+02 -0.32421165869E+02  0.45045682607E+02  0.00000000000E+00 0. -1.
         11    1    3    3    0    0 -0.10092400141E+02  0.76387997026E+01  0.15381063161E+02  0.19919460477E+02  0.51100000000E-03 0. -1.
        -11    1    3    3    0    0 -0.61903747813E+01  0.65245838226E+01  0.53746974301E+01  0.10477514339E+02  0.51100000000E-03 0.  1.
         12    1    3    3    0    0 -0.10331175350E+02  0.22585279395E+01  0.11665405278E+02  0.15745342577E+02  0.00000000000E+00 0. -1.
</event>
<event>
 7    1  0.2297343E-008  0.4614232E+02  0.7816164E-02  0.1320468E+00
        -11   -1    0    0    0    0  0.00000000000E+00  0.00000000000E+00  0.45593999997E+02  0.45594000000E+02  0.51100000000E-03 0. -1.
         11   -1    0    0    0    0 -0.00000000000E+00 -0.00000000000E+00 -0.45593999997E+02  0.45594000000E+02  0.51100000000E-03 0.  1.
    9900012    2    1    2    0    0  0.23072872424E+02  0.38629671344E+02 -0.21223962640E+01  0.46142317455E+02  0.99999972081E+01 0.  0.
         12    1    1    2    0    0 -0.23072872424E+02 -0.38629671344E+02  0.21223962640E+01  0.45045682545E+02  0.00000000000E+00 0. -1.
         11    1    3    3    0    0  0.42280601065E+01  0.14656541196E+02 -0.24504951202E+01  0.15449777302E+02  0.51100000000E-03 0. -1.
        -11    1    3    3    0    0  0.91218404965E+01  0.89786807612E+01  0.68962073633E+00  0.12817966269E+02  0.51100000000E-03 0.  1.
        -12    1    3    3    0    0  0.97229718208E+01  0.14994449387E+02 -0.36152188012E+00  0.17874573883E+02  0.00000000000E+00 0.  1.
</event>
<event>
 7    1  0.2297343E-008  0.4614232E+02  0.7816164E-02  0.1320468E+00
        -11   -1    0    0    0    0  0.00000000000E+00  0.00000000000E+00  0.45593999997E+02  0.45594000000E+02  0.51100000000E-03 0.  1.
         11   -1    0    0    0    0 -0.00000000000E+00 -0.00000000000E+00 -0.45593999997E+02  0.45594000000E+02  0.51100000000E-03 0. -1.
    9900012    2    1    2    0    0 -0.11424979481E+02 -0.38597622227E+02  0.20218973936E+02  0.46142317580E+02  0.99999983449E+01 0.  0.
         12    1    1    2    0    0  0.11424979481E+02  0.38597622227E+02 -0.20218973936E+02  0.45045682420E+02  0.00000000000E+00 0. -1.
         11    1    3    3    0    0 -0.32926323652E+01 -0.15377001626E+02  0.10752728210E+02  0.19050322074E+02  0.51100000000E-03 0. -1.
        -11    1    3    3    0    0 -0.37899949702E+01 -0.81741087315E+01  0.44961262881E+00  0.90212120697E+01  0.51100000000E-03 0.  1.
        -12    1    3    3    0    0 -0.43423521459E+01 -0.15046511869E+02  0.90166330976E+01  0.18070783436E+02  0.00000000000E+00 0.  1.
</event>
<event>
 7    1  0.2297343E-008  0.4614232E+02  0.7816164E-02  0.1320468E+00
        -11   -1    0    0    0    0  0.00000000000E+00  0.00000000000E+00  0.45593999997E+02  0.45594000000E+02  0.51100000000E-03 0.  1.
         11   -1    0    0    0    0 -0.00000000000E+00 -0.00000000000E+00 -0.45593999997E+02  0.45594000000E+02  0.51100000000E-03 0. -1.
    9900012    2    1    2    0    0  0.43715598233E+02  0.89296714568E+01 -0.61903894345E+01  0.46142317826E+02  0.10000000589E+02 0.  0.
         12    1    1    2    0    0 -0.43715598233E+02 -0.89296714568E+01  0.61903894345E+01  0.45045682174E+02  0.00000000000E+00 0. -1.
         11    1    3    3    0    0  0.18691680888E+02  0.23483482996E+01 -0.32849926898E+01  0.19122888155E+02  0.51100000000E-03 0. -1.
        -11    1    3    3    0    0  0.10396835392E+02 -0.51628710190E+00  0.44701946317E+00  0.10419240145E+02  0.51100000000E-03 0.  1.
         12    1    3    3    0    0  0.14627081953E+02  0.70976102591E+01 -0.33524162079E+01  0.16600189525E+02  0.00000000000E+00 0. -1.
</event>
<event>
 7    1  0.2297343E-008  0.4614232E+02  0.7816164E-02  0.1320468E+00
        -11   -1    0    0    0    0  0.00000000000E+00  0.00000000000E+00  0.45593999997E+02  0.45594000000E+02  0.51100000000E-03 0.  1.
         11   -1    0    0    0    0 -0.00000000000E+00 -0.00000000000E+00 -0.45593999997E+02  0.45594000000E+02  0.51100000000E-03 0. -1.
    9900012    2    1    2    0    0 -0.20740846733E+01  0.37883854154E+02  0.24282199369E+02  0.46142318309E+02  0.10000005000E+02 0.  0.
         12    1    1    2    0    0  0.20740846733E+01 -0.37883854154E+02 -0.24282199369E+02  0.45045681691E+02  0.00000000000E+00 0. -1.
         11    1    3    3    0    0  0.27066972394E+01  0.13791381823E+02  0.10729943124E+02  0.17682197325E+02  0.51100000000E-03 0. -1.
        -11    1    3    3    0    0 -0.36338689012E+01  0.14508690476E+02  0.10717400171E+02  0.18400265465E+02  0.51100000000E-03 0.  1.
         12    1    3    3    0    0 -0.11469130115E+01  0.95837818549E+01  0.28348560732E+01  0.10059855519E+02  0.00000000000E+00 0. -1.
</event>
<event>
 7    1  0.2297343E-008  0.4614232E+02  0.7816164E-02  0.1320468E+00
        -11   -1    0    0    0    0  0.00000000000E+00  0.00000000000E+00  0.45593999997E+02  0.45594000000E+02  0.51100000000E-03 0.  1.
         11   -1    0    0    0    0 -0.00000000000E+00 -0.00000000000E+00 -0.45593999997E+02  0.45594000000E+02  0.51100000000E-03 0. -1.
    9900012    2    1    2    0    0 -0.47310065108E+01  0.31571342294E+02  0.31780205853E+02  0.46142316956E+02  0.99999926551E+01 0.  0.
         12    1    1    2    0    0  0.47310065108E+01 -0.31571342294E+02 -0.31780205853E+02  0.45045683044E+02  0.00000000000E+00 0. -1.
         11    1    3    3    0    0 -0.74019695154E+00  0.22064842562E+00  0.25429581214E+01  0.26576706950E+01  0.51100000000E-03 0. -1.
        -11    1    3    3    0    0  0.63234307211E+00  0.39035249893E+01  0.62005121912E+01  0.73541632289E+01  0.51100000000E-03 0.  1.
        -12    1    3    3    0    0 -0.46231526314E+01  0.27447168879E+02  0.23036735541E+02  0.36130483032E+02  0.00000000000E+00 0.  1.
</event>
<event>
 7    1  0.2297343E-008  0.4614232E+02  0.7816164E-02  0.1320468E+00
        -11   -1    0    0    0    0  0.00000000000E+00  0.00000000000E+00  0.45593999997E+02  0.45594000000E+02  0.51100000000E-03 0.  1.
         11   -1    0    0    0    0 -0.00000000000E+00 -0.00000000000E+00 -0.45593999997E+02  0.45594000000E+02  0.51100000000E-03 0. -1.
    9900012    2    1    2    0    0  0.54920502001E+01  0.15423324077E+02  0.41965128027E+02  0.46142317506E+02  0.99999976743E+01 0.  0.
         12    1    1    2    0    0 -0.54920502001E+01 -0.15423324077E+02 -0.41965128027E+02  0.45045682494E+02  0.00000000000E+00 0. -1.
         11    1    3    3    0    0  0.27946911222E+01  0.60633232778E+00  0.32450085488E+01  0.43252766504E+01  0.51100000000E-03 0.  1.
        -11    1    3    3    0    0  0.18227661494E+01  0.21732093003E+01  0.10596287954E+02  0.10969349742E+02  0.51100000000E-03 0. -1.
        -12    1    3    3    0    0  0.87459292854E+00  0.12643782449E+02  0.28123831524E+02  0.30847691113E+02  0.00000000000E+00 0.  1.
</event>
<event>
 7    1  0.2297343E-008  0.4614232E+02  0.7816164E-02  0.1320468E+00
        -11   -1    0    0    0    0  0.00000000000E+00  0.00000000000E+00  0.45593999997E+02  0.45594000000E+02  0.51100000000E-03 0.  1.
         11   -1    0    0    0    0 -0.00000000000E+00 -0.00000000000E+00 -0.45593999997E+02  0.45594000000E+02  0.51100000000E-03 0. -1.
    9900012    2    1    2    0    0  0.15236388111E+02  0.26149036571E+02  0.33364560478E+02  0.46142317275E+02  0.99999955676E+01 0.  0.
         12    1    1    2    0    0 -0.15236388111E+02 -0.26149036571E+02 -0.33364560478E+02  0.45045682725E+02  0.00000000000E+00 0. -1.
         11    1    3    3    0    0  0.28710654604E+00  0.35556921985E+00  0.40290225312E+01  0.40548591168E+01  0.51100000000E-03 0. -1.
        -11    1    3    3    0    0  0.37628505184E+00  0.31149886669E+01  0.21576145058E+01  0.38078925211E+01  0.51100000000E-03 0.  1.
        -12    1    3    3    0    0  0.14572996513E+02  0.22678478684E+02  0.27177923441E+02  0.38279565637E+02  0.00000000000E+00 0.  1.
</event>
<event>
 7    1  0.2297343E-008  0.4614232E+02  0.7816164E-02  0.1320468E+00
        -11   -1    0    0    0    0  0.00000000000E+00  0.00000000000E+00  0.45593999997E+02  0.45594000000E+02  0.51100000000E-03 0.  1.
         11   -1    0    0    0    0 -0.00000000000E+00 -0.00000000000E+00 -0.45593999997E+02  0.45594000000E+02  0.51100000000E-03 0. -1.
    9900012    2    1    2    0    0 -0.25102655724E+02 -0.35262472327E+02  0.12471099087E+02  0.46142316617E+02  0.99999895644E+01 0.  0.
         12    1    1    2    0    0  0.25102655724E+02  0.35262472327E+02 -0.12471099087E+02  0.45045683383E+02  0.00000000000E+00 0. -1.
         11    1    3    3    0    0 -0.84886297853E+00 -0.17842069778E+01  0.23889793698E+01  0.31001912177E+01  0.51100000000E-03 0. -1.
        -11    1    3    3    0    0 -0.12271779865E+01 -0.81555711751E+00  0.16251048183E+01  0.21936419840E+01  0.51100000000E-03 0.  1.
         12    1    3    3    0    0 -0.23026614759E+02 -0.32662708232E+02  0.84570148991E+01  0.40848483415E+02  0.00000000000E+00 0. -1.
</event>
<event>
 7    1  0.2297343E-008  0.4614232E+02  0.7816164E-02  0.1320468E+00
        -11   -1    0    0    0    0  0.00000000000E+00  0.00000000000E+00  0.45593999997E+02  0.45594000000E+02  0.51100000000E-03 0.  1.
         11   -1    0    0    0    0 -0.00000000000E+00 -0.00000000000E+00 -0.45593999997E+02  0.45594000000E+02  0.51100000000E-03 0. -1.
    9900012    2    1    2    0    0  0.10238679284E+02  0.28752347688E+02  0.33129825990E+02  0.46142318507E+02  0.10000006803E+02 0.  0.
         12    1    1    2    0    0 -0.10238679284E+02 -0.28752347688E+02 -0.33129825990E+02  0.45045681493E+02  0.00000000000E+00 0. -1.
         11    1    3    3    0    0  0.14155496532E+01  0.26466909968E+01  0.45237845978E+00  0.30353583949E+01  0.51100000000E-03 0. -1.
        -11    1    3    3    0    0  0.33612395457E+01  0.38564905883E+01  0.73528854321E+01  0.89574201297E+01  0.51100000000E-03 0.  1.
         12    1    3    3    0    0  0.54618900851E+01  0.22249166103E+02  0.25324562098E+02  0.34149539983E+02  0.00000000000E+00 0. -1.
</event>
<event>
 7    1  0.2297343E-008  0.4614232E+02  0.7816164E-02  0.1320468E+00
        -11   -1    0    0    0    0  0.00000000000E+00  0.00000000000E+00  0.45593999997E+02  0.45594000000E+02  0.51100000000E-03 0. -1.
         11   -1    0    0    0    0 -0.00000000000E+00 -0.00000000000E+00 -0.45593999997E+02  0.45594000000E+02  0.51100000000E-03 0.  1.
    9900012    2    1    2    0    0  0.50204980897E+00  0.32424043692E+02 -0.31265675823E+02  0.46142321539E+02  0.10000034453E+02 0.  0.
         12    1    1    2    0    0 -0.50204980897E+00 -0.32424043692E+02  0.31265675823E+02  0.45045678461E+02  0.00000000000E+00 0. -1.
         11    1    3    3    0    0  0.56937648423E+00  0.68340774087E+00  0.26910401680E+00  0.92932930334E+00  0.51100000000E-03 0. -1.
        -11    1    3    3    0    0 -0.69833675557E+00  0.15574039121E+02 -0.19927387458E+02  0.25300971126E+02  0.51100000000E-03 0.  1.
        -12    1    3    3    0    0  0.63101008031E+00  0.16166596830E+02 -0.11607392381E+02  0.19912021110E+02  0.00000000000E+00 0.  1.
</event>
<event>
 7    1  0.2297343E-008  0.4614232E+02  0.7816164E-02  0.1320468E+00
        -11   -1    0    0    0    0  0.00000000000E+00  0.00000000000E+00  0.45593999997E+02  0.45594000000E+02  0.51100000000E-03 0. -1.
         11   -1    0    0    0    0 -0.00000000000E+00 -0.00000000000E+00 -0.45593999997E+02  0.45594000000E+02  0.51100000000E-03 0.  1.
    9900012    2    1    2    0    0 -0.41053116011E+01  0.25623214906E+02 -0.36819977274E+02  0.46142318165E+02  0.10000003687E+02 0.  0.
         12    1    1    2    0    0  0.41053116011E+01 -0.25623214906E+02  0.36819977274E+02  0.45045681835E+02  0.00000000000E+00 0. -1.
         11    1    3    3    0    0  0.44186183222E+00  0.11297940178E+01 -0.35614654527E+01  0.37624078504E+01  0.51100000000E-03 0. -1.
        -11    1    3    3    0    0 -0.23285562797E+01  0.11884424949E+02 -0.22925315223E+02  0.25927433522E+02  0.51100000000E-03 0.  1.
         12    1    3    3    0    0 -0.22186171536E+01  0.12608995939E+02 -0.10333196599E+02  0.16452476793E+02  0.00000000000E+00 0. -1.
</event>
<event>
 7    1  0.2297343E-008  0.4614231E+02  0.7816164E-02  0.1320468E+00
        -11   -1    0    0    0    0  0.00000000000E+00  0.00000000000E+00  0.45593999997E+02  0.45594000000E+02  0.51100000000E-03 0. -1.
         11   -1    0    0    0    0 -0.00000000000E+00 -0.00000000000E+00 -0.45593999997E+02  0.45594000000E+02  0.51100000000E-03 0.  1.
    9900012    2    1    2    0    0 -0.96637146890E+01  0.39595480432E+02 -0.19181355806E+02  0.46142313605E+02  0.99999621020E+01 0.  0.
         12    1    1    2    0    0  0.96637146890E+01 -0.39595480432E+02  0.19181355806E+02  0.45045686395E+02  0.00000000000E+00 0. -1.
         11    1    3    3    0    0  0.12392151315E+01  0.28259823167E+01 -0.66063083882E+00  0.31556716500E+01  0.51100000000E-03 0. -1.
        -11    1    3    3    0    0 -0.29908085418E+01  0.97255049247E+01 -0.21535489362E+01  0.10400392063E+02  0.51100000000E-03 0.  1.
        -12    1    3    3    0    0 -0.79121212787E+01  0.27043993190E+02 -0.16367176031E+02  0.32586249892E+02  0.00000000000E+00 0.  1.
</event>
<event>
 7    1  0.2297343E-008  0.4614232E+02  0.7816164E-02  0.1320468E+00
        -11   -1    0    0    0    0  0.00000000000E+00  0.00000000000E+00  0.45593999997E+02  0.45594000000E+02  0.51100000000E-03 0.  1.
         11   -1    0    0    0    0 -0.00000000000E+00 -0.00000000000E+00 -0.45593999997E+02  0.45594000000E+02  0.51100000000E-03 0. -1.
    9900012    2    1    2    0    0  0.36870286118E+02 -0.21309215793E+02  0.14683758909E+02  0.46142318167E+02  0.10000003697E+02 0.  0.
         12    1    1    2    0    0 -0.36870286118E+02  0.21309215793E+02 -0.14683758909E+02  0.45045681833E+02  0.00000000000E+00 0. -1.
         11    1    3    3    0    0  0.20398214739E+02 -0.15696792866E+02  0.79560698437E+01  0.26940221202E+02  0.51100000000E-03 0. -1.
        -11    1    3    3    0    0  0.30024763940E+01 -0.29587539874E+01  0.10380044429E+01  0.43412605472E+01  0.51100000000E-03 0.  1.
        -12    1    3    3    0    0  0.13469594985E+02 -0.26536689392E+01  0.56896846227E+01  0.14860836417E+02  0.00000000000E+00 0.  1.
</event>
<event>
 7    1  0.2297343E-008  0.4614232E+02  0.7816164E-02  0.1320468E+00
        -11   -1    0    0    0    0  0.00000000000E+00  0.00000000000E+00  0.45593999997E+02  0.45594000000E+02  0.51100000000E-03 0.  1.
         11   -1    0    0    0    0 -0.00000000000E+00 -0.00000000000E+00 -0.45593999997E+02  0.45594000000E+02  0.51100000000E-03 0. -1.
    9900012    2    1    2    0    0  0.34162665637E+02  0.26786918425E+02  0.12020263139E+02  0.46142318208E+02  0.10000004077E+02 0.  0.
         12    1    1    2    0    0 -0.34162665637E+02 -0.26786918425E+02 -0.12020263139E+02  0.45045681792E+02  0.00000000000E+00 0. -1.
         11    1    3    3    0    0 -0.52668374051E-02 -0.14030282313E+00 -0.29949531369E+00  0.33077231715E+00  0.51100000000E-03 0. -1.
        -11    1    3    3    0    0  0.38757232405E+01  0.62365858520E+01  0.93839426605E+00  0.74024872703E+01  0.51100000000E-03 0.  1.
        -12    1    3    3    0    0  0.30292209234E+02  0.20690635397E+02  0.11381364187E+02  0.38409058621E+02  0.00000000000E+00 0.  1.
</event>
<event>
 7    1  0.2297343E-008  0.4614232E+02  0.7816164E-02  0.1320468E+00
        -11   -1    0    0    0    0  0.00000000000E+00  0.00000000000E+00  0.45593999997E+02  0.45594000000E+02  0.51100000000E-03 0.  1.
         11   -1    0    0    0    0 -0.00000000000E+00 -0.00000000000E+00 -0.45593999997E+02  0.45594000000E+02  0.51100000000E-03 0. -1.
    9900012    2    1    2    0    0 -0.18904003021E+02 -0.90697381748E+01  0.39868434020E+02  0.46142317499E+02  0.99999976081E+01 0.  0.
         12    1    1    2    0    0  0.18904003021E+02  0.90697381748E+01 -0.39868434020E+02  0.45045682501E+02  0.00000000000E+00 0. -1.
         11    1    3    3    0    0 -0.28979762252E+01 -0.54735822364E+00  0.14979978484E+01  0.33078490053E+01  0.51100000000E-03 0. -1.
        -11    1    3    3    0    0 -0.97040030961E+01 -0.19902786826E+01  0.21671650109E+02  0.23828329863E+02  0.51100000000E-03 0.  1.
         12    1    3    3    0    0 -0.63020236994E+01 -0.65321012686E+01  0.16698786063E+02  0.19006138631E+02  0.00000000000E+00 0. -1.
</event>
<event>
 7    1  0.2297343E-008  0.4614231E+02  0.7816164E-02  0.1320468E+00
        -11   -1    0    0    0    0  0.00000000000E+00  0.00000000000E+00  0.45593999997E+02  0.45594000000E+02  0.51100000000E-03 0. -1.
         11   -1    0    0    0    0 -0.00000000000E+00 -0.00000000000E+00 -0.45593999997E+02  0.45594000000E+02  0.51100000000E-03 0.  1.
    9900012    2    1    2    0    0 -0.31133740501E+02  0.61239875412E+01 -0.31973438031E+02  0.46142314740E+02  0.99999724538E+01 0.  0.
         12    1    1    2    0    0  0.31133740501E+02 -0.61239875412E+01  0.31973438031E+02  0.45045685260E+02  0.00000000000E+00 0. -1.
         11    1    3    3    0    0 -0.12756947146E+02  0.41159584321E+01 -0.15452317829E+02  0.20456171217E+02  0.51100000000E-03 0. -1.
        -11    1    3    3    0    0 -0.13970048375E+02  0.40032947077E+01 -0.14209382495E+02  0.20324742834E+02  0.51100000000E-03 0.  1.
         12    1    3    3    0    0 -0.44067449797E+01 -0.19952655986E+01 -0.23117377070E+01  0.53614006893E+01  0.00000000000E+00 0. -1.
</event>
<event>
 7    1  0.2297343E-008  0.4614232E+02  0.7816164E-02  0.1320468E+00
        -11   -1    0    0    0    0  0.00000000000E+00  0.00000000000E+00  0.45593999997E+02  0.45594000000E+02  0.51100000000E-03 0.  1.
         11   -1    0    0    0    0 -0.00000000000E+00 -0.00000000000E+00 -0.45593999997E+02  0.45594000000E+02  0.51100000000E-03 0. -1.
    9900012    2    1    2    0    0  0.76361119636E+01 -0.13986194290E+02  0.42132998786E+02  0.46142318482E+02  0.10000006577E+02 0.  0.
         12    1    1    2    0    0 -0.76361119636E+01  0.13986194290E+02 -0.42132998786E+02  0.45045681518E+02  0.00000000000E+00 0. -1.
         11    1    3    3    0    0 -0.84722671406E-01 -0.83878258410E+01  0.20179728300E+02  0.21853700712E+02  0.51100000000E-03 0. -1.
        -11    1    3    3    0    0  0.27784128994E+01 -0.42913798917E+01  0.13146729853E+02  0.14105744423E+02  0.51100000000E-03 0.  1.
         12    1    3    3    0    0  0.49424217356E+01 -0.13069885576E+01  0.88065406327E+01  0.10182873348E+02  0.00000000000E+00 0. -1.
</event>
<event>
 7    1  0.2297343E-008  0.4614232E+02  0.7816164E-02  0.1320468E+00
        -11   -1    0    0    0    0  0.00000000000E+00  0.00000000000E+00  0.45593999997E+02  0.45594000000E+02  0.51100000000E-03 0.  1.
         11   -1    0    0    0    0 -0.00000000000E+00 -0.00000000000E+00 -0.45593999997E+02  0.45594000000E+02  0.51100000000E-03 0. -1.
    9900012    2    1    2    0    0 -0.25328790375E+02 -0.71053692388E+01  0.36566099418E+02  0.46142317404E+02  0.99999967426E+01 0.  0.
         12    1    1    2    0    0  0.25328790375E+02  0.71053692388E+01 -0.36566099418E+02  0.45045682596E+02  0.00000000000E+00 0. -1.
         11    1    3    3    0    0 -0.26304730951E+01 -0.32869206024E+01  0.45341395472E+01  0.61872172618E+01  0.51100000000E-03 0. -1.
        -11    1    3    3    0    0 -0.91926714839E+01 -0.34404247537E+01  0.17829241507E+02  0.20352483496E+02  0.51100000000E-03 0.  1.
         12    1    3    3    0    0 -0.13505645796E+02 -0.37802388273E+00  0.14202718364E+02  0.19602616646E+02  0.00000000000E+00 0. -1.
</event>
<event>
 7    1  0.2297343E-008  0.4614232E+02  0.7816164E-02  0.1320468E+00
        -11   -1    0    0    0    0  0.00000000000E+00  0.00000000000E+00  0.45593999997E+02  0.45594000000E+02  0.51100000000E-03 0.  1.
         11   -1    0    0    0    0 -0.00000000000E+00 -0.00000000000E+00 -0.45593999997E+02  0.45594000000E+02  0.51100000000E-03 0. -1.
    9900012    2    1    2    0    0 -0.17652905396E+02  0.68229407972E+01  0.40877083206E+02  0.46142317393E+02  0.99999966476E+01 0.  0.
         12    1    1    2    0    0  0.17652905396E+02 -0.68229407972E+01 -0.40877083206E+02  0.45045682607E+02  0.00000000000E+00 0. -1.
         11    1    3    3    0    0 -0.94900466901E+01  0.27809390898E+01  0.21745131286E+02  0.23888184177E+02  0.51100000000E-03 0. -1.
        -11    1    3    3    0    0 -0.26800752043E+01  0.33893118730E+01  0.14226858014E+02  0.14868548258E+02  0.51100000000E-03 0.  1.
         12    1    3    3    0    0 -0.54827835021E+01  0.65268983432E+00  0.49050939063E+01  0.73855849586E+01  0.00000000000E+00 0. -1.
</event>
<event>
 7    1  0.2297343E-008  0.4614232E+02  0.7816164E-02  0.1320468E+00
        -11   -1    0    0    0    0  0.00000000000E+00  0.00000000000E+00  0.45593999997E+02  0.45594000000E+02  0.51100000000E-03 0. -1.
         11   -1    0    0    0    0 -0.00000000000E+00 -0.00000000000E+00 -0.45593999997E+02  0.45594000000E+02  0.51100000000E-03 0.  1.
    9900012    2    1    2    0    0  0.42752928910E+02  0.14114707008E+02  0.14406899310E+01  0.46142317946E+02  0.10000001683E+02 0.  0.
         12    1    1    2    0    0 -0.42752928910E+02 -0.14114707008E+02 -0.14406899310E+01  0.45045682054E+02  0.00000000000E+00 0. -1.
         11    1    3    3    0    0  0.20391504245E+01  0.21487007976E+01 -0.20699473227E+00  0.29694943428E+01  0.51100000000E-03 0. -1.
        -11    1    3    3    0    0  0.38894343364E+02  0.11180143265E+02 -0.19041378725E+00  0.40469764106E+02  0.51100000000E-03 0.  1.
        -12    1    3    3    0    0  0.18194351210E+01  0.78586294543E+00  0.18380984505E+01  0.27030594966E+01  0.00000000000E+00 0.  1.
</event>
<event>
 7    1  0.2297343E-008  0.4614232E+02  0.7816164E-02  0.1320468E+00
        -11   -1    0    0    0    0  0.00000000000E+00  0.00000000000E+00  0.45593999997E+02  0.45594000000E+02  0.51100000000E-03 0. -1.
         11   -1    0    0    0    0 -0.00000000000E+00 -0.00000000000E+00 -0.45593999997E+02  0.45594000000E+02  0.51100000000E-03 0.  1.
    9900012    2    1    2    0    0 -0.18815147770E+02 -0.20368200284E+01 -0.40877315560E+02  0.46142319310E+02  0.10000014126E+02 0.  0.
         12    1    1    2    0    0  0.18815147770E+02  0.20368200284E+01  0.40877315560E+02  0.45045680690E+02  0.00000000000E+00 0. -1.
         11    1    3    3    0    0 -0.62802511055E+00  0.15562321962E+00  0.48951779391E+00  0.81133350580E+00  0.51100000000E-03 0. -1.
        -11    1    3    3    0    0 -0.98128713160E+01  0.31208154859E-01 -0.23799053483E+02  0.25742734205E+02  0.51100000000E-03 0.  1.
         12    1    3    3    0    0 -0.83742513436E+01 -0.22236514029E+01 -0.17567779870E+02  0.19588251599E+02  0.00000000000E+00 0. -1.
</event>
<event>
 7    1  0.2297343E-008  0.4614232E+02  0.7816164E-02  0.1320468E+00
        -11   -1    0    0    0    0  0.00000000000E+00  0.00000000000E+00  0.45593999997E+02  0.45594000000E+02  0.51100000000E-03 0. -1.
         11   -1    0    0    0    0 -0.00000000000E+00 -0.00000000000E+00 -0.45593999997E+02  0.45594000000E+02  0.51100000000E-03 0.  1.
    9900012    2    1    2    0    0  0.20161326767E+02 -0.35035528776E+02  0.19878283847E+02  0.46142317162E+02  0.99999945405E+01 0.  0.
         12    1    1    2    0    0 -0.20161326767E+02  0.35035528776E+02 -0.19878283847E+02  0.45045682838E+02  0.00000000000E+00 0. -1.
         11    1    3    3    0    0  0.10553917935E+01 -0.74618279022E+00  0.12845199464E+01  0.18222602306E+01  0.51100000000E-03 0. -1.
        -11    1    3    3    0    0  0.74881034656E+01 -0.62416756596E+01  0.30550823617E+01  0.10215857137E+02  0.51100000000E-03 0.  1.
        -12    1    3    3    0    0  0.11617831508E+02 -0.28047670326E+02  0.15538681539E+02  0.34104199795E+02  0.00000000000E+00 0.  1.
</event>
<event>
 7    1  0.2297343E-008  0.4614232E+02  0.7816164E-02  0.1320468E+00
        -11   -1    0    0    0    0  0.00000000000E+00  0.00000000000E+00  0.45593999997E+02  0.45594000000E+02  0.51100000000E-03 0. -1.
         11   -1    0    0    0    0 -0.00000000000E+00 -0.00000000000E+00 -0.45593999997E+02  0.45594000000E+02  0.51100000000E-03 0.  1.
    9900012    2    1    2    0    0 -0.72132349090E+01 -0.20900681026E+02 -0.39245945657E+02  0.46142317901E+02  0.10000001277E+02 0.  0.
         12    1    1    2    0    0  0.72132349090E+01  0.20900681026E+02  0.39245945657E+02  0.45045682099E+02  0.00000000000E+00 0. -1.
         11    1    3    3    0    0 -0.81214356344E+01 -0.12584290273E+02 -0.22427705318E+02  0.26968945929E+02  0.51100000000E-03 0. -1.
        -11    1    3    3    0    0 -0.11171415772E+01 -0.27877577522E+01 -0.82278794780E+01  0.87588583476E+01  0.51100000000E-03 0.  1.
         12    1    3    3    0    0  0.20253423026E+01 -0.55286330010E+01 -0.85903608614E+01  0.10414513624E+02  0.00000000000E+00 0. -1.
</event>
<event>
 7    1  0.2297343E-008  0.4614232E+02  0.7816164E-02  0.1320468E+00
        -11   -1    0    0    0    0  0.00000000000E+00  0.00000000000E+00  0.45593999997E+02  0.45594000000E+02  0.51100000000E-03 0.  1.
         11   -1    0    0    0    0 -0.00000000000E+00 -0.00000000000E+00 -0.45593999997E+02  0.45594000000E+02  0.51100000000E-03 0. -1.
    9900012    2    1    2    0    0  0.44087881299E+00  0.44979899571E+02  0.23932760662E+01  0.46142317522E+02  0.99999978233E+01 0.  0.
         12    1    1    2    0    0 -0.44087881299E+00 -0.44979899571E+02 -0.23932760662E+01  0.45045682478E+02  0.00000000000E+00 0. -1.
         11    1    3    3    0    0  0.10734680960E+01  0.17942613852E+02  0.27193656316E+01  0.18179237478E+02  0.51100000000E-03 0. -1.
        -11    1    3    3    0    0 -0.64924649983E+00  0.26066209187E+02  0.12583750055E+01  0.26104641164E+02  0.51100000000E-03 0.  1.
         12    1    3    3    0    0  0.16657216815E-01  0.97107653211E+00 -0.15844645709E+01  0.18584388799E+01  0.00000000000E+00 0. -1.
</event>
<event>
 7    1  0.2297343E-008  0.4614232E+02  0.7816164E-02  0.1320468E+00
        -11   -1    0    0    0    0  0.00000000000E+00  0.00000000000E+00  0.45593999997E+02  0.45594000000E+02  0.51100000000E-03 0. -1.
         11   -1    0    0    0    0 -0.00000000000E+00 -0.00000000000E+00 -0.45593999997E+02  0.45594000000E+02  0.51100000000E-03 0.  1.
    9900012    2    1    2    0    0 -0.33104194563E+02 -0.22120611538E+02 -0.21069038060E+02  0.46142317440E+02  0.99999970763E+01 0.  0.
         12    1    1    2    0    0  0.33104194563E+02  0.22120611538E+02  0.21069038060E+02  0.45045682560E+02  0.00000000000E+00 0. -1.
         11    1    3    3    0    0 -0.11391392805E+02 -0.40980633916E+01 -0.95543905288E+01  0.15422202574E+02  0.51100000000E-03 0. -1.
        -11    1    3    3    0    0 -0.51922699746E+01 -0.56931340311E+01 -0.46166605584E+01  0.89824828170E+01  0.51100000000E-03 0.  1.
        -12    1    3    3    0    0 -0.16520531784E+02 -0.12329414115E+02 -0.68979869724E+01  0.21737632049E+02  0.00000000000E+00 0.  1.
</event>
<event>
 7    1  0.2297343E-008  0.4614232E+02  0.7816164E-02  0.1320468E+00
        -11   -1    0    0    0    0  0.00000000000E+00  0.00000000000E+00  0.45593999997E+02  0.45594000000E+02  0.51100000000E-03 0.  1.
         11   -1    0    0    0    0 -0.00000000000E+00 -0.00000000000E+00 -0.45593999997E+02  0.45594000000E+02  0.51100000000E-03 0. -1.
    9900012    2    1    2    0    0  0.63561099582E+01  0.33916670282E+02  0.28954664820E+02  0.46142320166E+02  0.10000021934E+02 0.  0.
         12    1    1    2    0    0 -0.63561099582E+01 -0.33916670282E+02 -0.28954664820E+02  0.45045679834E+02  0.00000000000E+00 0. -1.
         11    1    3    3    0    0  0.63402419387E+01  0.13493011306E+02  0.13298690144E+02  0.19977867297E+02  0.51100000000E-03 0. -1.
        -11    1    3    3    0    0  0.46750793052E+00  0.24383469046E+00  0.12774020259E+01  0.13819461706E+01  0.51100000000E-03 0.  1.
        -12    1    3    3    0    0 -0.45163991100E+00  0.20179824286E+02  0.14378572650E+02  0.24782506699E+02  0.00000000000E+00 0.  1.
</event>
<event>
 7    1  0.2297343E-008  0.4614231E+02  0.7816164E-02  0.1320468E+00
        -11   -1    0    0    0    0  0.00000000000E+00  0.00000000000E+00  0.45593999997E+02  0.45594000000E+02  0.51100000000E-03 0.  1.
         11   -1    0    0    0    0 -0.00000000000E+00 -0.00000000000E+00 -0.45593999997E+02  0.45594000000E+02  0.51100000000E-03 0. -1.
    9900012    2    1    2    0    0 -0.42003500325E+02 -0.12199865358E+02  0.10769552865E+02  0.46142311824E+02  0.99999458619E+01 0.  0.
         12    1    1    2    0    0  0.42003500325E+02  0.12199865358E+02 -0.10769552865E+02  0.45045688176E+02  0.00000000000E+00 0. -1.
         11    1    3    3    0    0 -0.21606375862E+02 -0.27658467796E+01  0.80298808488E+01  0.23215606238E+02  0.51100000000E-03 0.  1.
        -11    1    3    3    0    0 -0.11260065389E+02 -0.32185005349E+01  0.13204488844E+01  0.11785219717E+02  0.51100000000E-03 0. -1.
        -12    1    3    3    0    0 -0.91370590740E+01 -0.62155180432E+01  0.14192231318E+01  0.11141485869E+02  0.00000000000E+00 0.  1.
</event>
<event>
 7    1  0.2297343E-008  0.4614232E+02  0.7816164E-02  0.1320468E+00
        -11   -1    0    0    0    0  0.00000000000E+00  0.00000000000E+00  0.45593999997E+02  0.45594000000E+02  0.51100000000E-03 0.  1.
         11   -1    0    0    0    0 -0.00000000000E+00 -0.00000000000E+00 -0.45593999997E+02  0.45594000000E+02  0.51100000000E-03 0. -1.
    9900012    2    1    2    0    0  0.51179871713E+01 -0.23129634788E+02  0.38313702407E+02  0.46142316630E+02  0.99999896866E+01 0.  0.
         12    1    1    2    0    0 -0.51179871713E+01  0.23129634788E+02 -0.38313702407E+02  0.45045683370E+02  0.00000000000E+00 0. -1.
         11    1    3    3    0    0  0.40206216007E+01 -0.50519985795E+01  0.10933556728E+02  0.12697667136E+02  0.51100000000E-03 0. -1.
        -11    1    3    3    0    0  0.34854386219E+01 -0.92281443319E+01  0.11928888284E+02  0.15479189454E+02  0.51100000000E-03 0.  1.
        -12    1    3    3    0    0 -0.23880730513E+01 -0.88494918764E+01  0.15451257395E+02  0.17965460041E+02  0.00000000000E+00 0.  1.
</event>
<event>
 7    1  0.2297343E-008  0.4614232E+02  0.7816164E-02  0.1320468E+00
        -11   -1    0    0    0    0  0.00000000000E+00  0.00000000000E+00  0.45593999997E+02  0.45594000000E+02  0.51100000000E-03 0.  1.
         11   -1    0    0    0    0 -0.00000000000E+00 -0.00000000000E+00 -0.45593999997E+02  0.45594000000E+02  0.51100000000E-03 0. -1.
    9900012    2    1    2    0    0 -0.41787258252E+02 -0.11356389818E+02 -0.12408498845E+02  0.46142318903E+02  0.10000010410E+02 0.  0.
         12    1    1    2    0    0  0.41787258252E+02  0.11356389818E+02  0.12408498845E+02  0.45045681097E+02  0.00000000000E+00 0. -1.
         11    1    3    3    0    0  0.15836481274E+00 -0.28328504056E+00 -0.81899116632E+00  0.88095210980E+00  0.51100000000E-03 0. -1.
        -11    1    3    3    0    0 -0.99226172435E+01 -0.10599948873E+01 -0.46038805492E+01  0.10989888011E+02  0.51100000000E-03 0.  1.
        -12    1    3    3    0    0 -0.32023005822E+02 -0.10013109890E+02 -0.69856271293E+01  0.34271478782E+02  0.00000000000E+00 0.  1.
</event>
<event>
 7    1  0.2297343E-008  0.4614232E+02  0.7816164E-02  0.1320468E+00
        -11   -1    0    0    0    0  0.00000000000E+00  0.00000000000E+00  0.45593999997E+02  0.45594000000E+02  0.51100000000E-03 0.  1.
         11   -1    0    0    0    0 -0.00000000000E+00 -0.00000000000E+00 -0.45593999997E+02  0.45594000000E+02  0.51100000000E-03 0. -1.
    9900012    2    1    2    0    0  0.38135841350E+02  0.23208826998E+02  0.60101144693E+01  0.46142317387E+02  0.99999965919E+01 0.  0.
         12    1    1    2    0    0 -0.38135841350E+02 -0.23208826998E+02 -0.60101144693E+01  0.45045682613E+02  0.00000000000E+00 0. -1.
         11    1    3    3    0    0  0.85375704214E+01  0.52596008150E+01 -0.24695486223E+01  0.10327254238E+02  0.51100000000E-03 0. -1.
        -11    1    3    3    0    0  0.12635837438E+02  0.90325331470E+01  0.24413287858E+01  0.15722949129E+02  0.51100000000E-03 0.  1.
         12    1    3    3    0    0  0.16962433491E+02  0.89166930358E+01  0.60383343058E+01  0.20092114021E+02  0.00000000000E+00 0. -1.
</event>
<event>
 7    1  0.2297343E-008  0.4614232E+02  0.7816164E-02  0.1320468E+00
        -11   -1    0    0    0    0  0.00000000000E+00  0.00000000000E+00  0.45593999997E+02  0.45594000000E+02  0.51100000000E-03 0.  1.
         11   -1    0    0    0    0 -0.00000000000E+00 -0.00000000000E+00 -0.45593999997E+02  0.45594000000E+02  0.51100000000E-03 0. -1.
    9900012    2    1    2    0    0 -0.33610535724E+02  0.26624433751E+02  0.13805248921E+02  0.46142317832E+02  0.10000000646E+02 0.  0.
         12    1    1    2    0    0  0.33610535724E+02 -0.26624433751E+02 -0.13805248921E+02  0.45045682168E+02  0.00000000000E+00 0. -1.
         11    1    3    3    0    0 -0.11943713377E+02  0.12241612567E+02  0.66290374064E+01  0.18342668963E+02  0.51100000000E-03 0. -1.
        -11    1    3    3    0    0 -0.17422013694E+02  0.12359272091E+02  0.83798500483E+01  0.22945589007E+02  0.51100000000E-03 0.  1.
        -12    1    3    3    0    0 -0.42448086523E+01  0.20235490931E+01 -0.12036385335E+01  0.48540598622E+01  0.00000000000E+00 0.  1.
</event>
<event>
 7    1  0.2297343E-008  0.4614232E+02  0.7816164E-02  0.1320468E+00
        -11   -1    0    0    0    0  0.00000000000E+00  0.00000000000E+00  0.45593999997E+02  0.45594000000E+02  0.51100000000E-03 0.  1.
         11   -1    0    0    0    0 -0.00000000000E+00 -0.00000000000E+00 -0.45593999997E+02  0.45594000000E+02  0.51100000000E-03 0. -1.
    9900012    2    1    2    0    0 -0.25226537445E+02 -0.20225899063E+02  0.31363168986E+02  0.46142317041E+02  0.99999934377E+01 0.  0.
         12    1    1    2    0    0  0.25226537445E+02  0.20225899063E+02 -0.31363168986E+02  0.45045682959E+02  0.00000000000E+00 0. -1.
         11    1    3    3    0    0  0.35552262808E+00 -0.51929999244E+00  0.40009869325E-01  0.63061071350E+00  0.51100000000E-03 0. -1.
        -11    1    3    3    0    0 -0.23315221008E+02 -0.19287819671E+02  0.30739140486E+02  0.43133679143E+02  0.51100000000E-03 0.  1.
         12    1    3    3    0    0 -0.22668390653E+01 -0.41877939938E+00  0.58401863065E+00  0.23780271854E+01  0.00000000000E+00 0. -1.
</event>
<event>
 7    1  0.2297343E-008  0.4614232E+02  0.7816164E-02  0.1320468E+00
        -11   -1    0    0    0    0  0.00000000000E+00  0.00000000000E+00  0.45593999997E+02  0.45594000000E+02  0.51100000000E-03 0. -1.
         11   -1    0    0    0    0 -0.00000000000E+00 -0.00000000000E+00 -0.45593999997E+02  0.45594000000E+02  0.51100000000E-03 0.  1.
    9900012    2    1    2    0    0  0.31545566969E+02  0.72329924085E+01 -0.31331685962E+02  0.46142317412E+02  0.99999968149E+01 0.  0.
         12    1    1    2    0    0 -0.31545566969E+02 -0.72329924085E+01  0.31331685962E+02  0.45045682588E+02  0.00000000000E+00 0. -1.
         11    1    3    3    0    0  0.10060375712E+02  0.34361058575E+01 -0.14872744789E+02  0.18281589667E+02  0.51100000000E-03 0. -1.
        -11    1    3    3    0    0  0.40942469877E+01  0.24744363648E+00 -0.59713922380E+01  0.72444193881E+01  0.51100000000E-03 0.  1.
         12    1    3    3    0    0  0.17390944269E+02  0.35494429145E+01 -0.10487548935E+02  0.20616308356E+02  0.00000000000E+00 0. -1.
</event>
<event>
 7    1  0.2297343E-008  0.4614232E+02  0.7816164E-02  0.1320468E+00
        -11   -1    0    0    0    0  0.00000000000E+00  0.00000000000E+00  0.45593999997E+02  0.45594000000E+02  0.51100000000E-03 0.  1.
         11   -1    0    0    0    0 -0.00000000000E+00 -0.00000000000E+00 -0.45593999997E+02  0.45594000000E+02  0.51100000000E-03 0. -1.
    9900012    2    1    2    0    0  0.56165739734E+01 -0.19335700201E+02  0.40295141018E+02  0.46142316577E+02  0.99999891986E+01 0.  0.
         12    1    1    2    0    0 -0.56165739734E+01  0.19335700201E+02 -0.40295141018E+02  0.45045683423E+02  0.00000000000E+00 0. -1.
         11    1    3    3    0    0  0.62033804133E+00 -0.27636337066E+01  0.44229964139E+01  0.52521793656E+01  0.51100000000E-03 0. -1.
        -11    1    3    3    0    0  0.38146972437E+01 -0.16847472361E+02  0.35706862250E+02  0.39665718851E+02  0.51100000000E-03 0.  1.
         12    1    3    3    0    0  0.11815386884E+01  0.27540586631E+00  0.16528235398E+00  0.12244183598E+01  0.00000000000E+00 0. -1.
</event>
<event>
 7    1  0.2297343E-008  0.4614232E+02  0.7816164E-02  0.1320468E+00
        -11   -1    0    0    0    0  0.00000000000E+00  0.00000000000E+00  0.45593999997E+02  0.45594000000E+02  0.51100000000E-03 0.  1.
         11   -1    0    0    0    0 -0.00000000000E+00 -0.00000000000E+00 -0.45593999997E+02  0.45594000000E+02  0.51100000000E-03 0. -1.
    9900012    2    1    2    0    0 -0.27844856114E+02 -0.34754373431E+02 -0.67757546670E+01  0.46142319453E+02  0.10000015432E+02 0.  0.
         12    1    1    2    0    0  0.27844856114E+02  0.34754373431E+02  0.67757546670E+01  0.45045680547E+02  0.00000000000E+00 0. -1.
         11    1    3    3    0    0 -0.20194051838E+01 -0.73803790643E+01 -0.29197248405E+00  0.76572345283E+01  0.51100000000E-03 0. -1.
        -11    1    3    3    0    0 -0.15809557550E+02 -0.15165244544E+02 -0.16451803052E+01  0.21968918283E+02  0.51100000000E-03 0.  1.
         12    1    3    3    0    0 -0.10015893380E+02 -0.12208749822E+02 -0.48386018778E+01  0.16516166642E+02  0.00000000000E+00 0. -1.
</event>
<event>
 7    1  0.2297343E-008  0.4614232E+02  0.7816164E-02  0.1320468E+00
        -11   -1    0    0    0    0  0.00000000000E+00  0.00000000000E+00  0.45593999997E+02  0.45594000000E+02  0.51100000000E-03 0. -1.
         11   -1    0    0    0    0 -0.00000000000E+00 -0.00000000000E+00 -0.45593999997E+02  0.45594000000E+02  0.51100000000E-03 0.  1.
    9900012    2    1    2    0    0 -0.33477551869E+01  0.23788559348E+02 -0.38105255478E+02  0.46142317457E+02  0.99999972309E+01 0.  0.
         12    1    1    2    0    0  0.33477551869E+01 -0.23788559348E+02  0.38105255478E+02  0.45045682543E+02  0.00000000000E+00 0. -1.
         11    1    3    3    0    0 -0.31667804896E+01  0.28297827556E+01 -0.51156851396E+01  0.66487896509E+01  0.51100000000E-03 0. -1.
        -11    1    3    3    0    0 -0.26911151447E+01  0.13940501669E+02 -0.20199855767E+02  0.24690359673E+02  0.51100000000E-03 0.  1.
         12    1    3    3    0    0  0.25101404474E+01  0.70182749241E+01 -0.12789714571E+02  0.14803168134E+02  0.00000000000E+00 0. -1.
</event>
<event>
 7    1  0.2297343E-008  0.4614232E+02  0.7816164E-02  0.1320468E+00
        -11   -1    0    0    0    0  0.00000000000E+00  0.00000000000E+00  0.45593999997E+02  0.45594000000E+02  0.51100000000E-03 0.  1.
         11   -1    0    0    0    0 -0.00000000000E+00 -0.00000000000E+00 -0.45593999997E+02  0.45594000000E+02  0.51100000000E-03 0. -1.
    9900012    2    1    2    0    0 -0.16440677449E+02 -0.30677067578E+02  0.28596068510E+02  0.46142317805E+02  0.10000000404E+02 0.  0.
         12    1    1    2    0    0  0.16440677449E+02  0.30677067578E+02 -0.28596068510E+02  0.45045682195E+02  0.00000000000E+00 0. -1.
         11    1    3    3    0    0 -0.73299315951E+00 -0.36703200753E+01  0.28631466177E+01  0.47123388293E+01  0.51100000000E-03 0. -1.
        -11    1    3    3    0    0 -0.10617778083E+02 -0.22958330989E+02  0.23575628406E+02  0.34577918217E+02  0.51100000000E-03 0.  1.
         12    1    3    3    0    0 -0.50899062067E+01 -0.40484165137E+01  0.21572934860E+01  0.68520607591E+01  0.00000000000E+00 0. -1.
</event>
<event>
 7    1  0.2297343E-008  0.4614232E+02  0.7816164E-02  0.1320468E+00
        -11   -1    0    0    0    0  0.00000000000E+00  0.00000000000E+00  0.45593999997E+02  0.45594000000E+02  0.51100000000E-03 0. -1.
         11   -1    0    0    0    0 -0.00000000000E+00 -0.00000000000E+00 -0.45593999997E+02  0.45594000000E+02  0.51100000000E-03 0.  1.
    9900012    2    1    2    0    0 -0.18030075279E+02 -0.37796393721E+02 -0.16597061381E+02  0.46142318305E+02  0.10000004964E+02 0.  0.
         12    1    1    2    0    0  0.18030075279E+02  0.37796393721E+02  0.16597061381E+02  0.45045681695E+02  0.00000000000E+00 0. -1.
         11    1    3    3    0    0 -0.11106046422E+02 -0.19766189173E+02 -0.13367628539E+02  0.26319954304E+02  0.51100000000E-03 0. -1.
        -11    1    3    3    0    0 -0.25919583987E+01 -0.55781587692E+01  0.35036374678E+00  0.61609137805E+01  0.51100000000E-03 0.  1.
        -12    1    3    3    0    0 -0.43320704585E+01 -0.12452045778E+02 -0.35797965883E+01  0.13661450221E+02  0.00000000000E+00 0.  1.
</event>
<event>
 7    1  0.2297343E-008  0.4614232E+02  0.7816164E-02  0.1320468E+00
        -11   -1    0    0    0    0  0.00000000000E+00  0.00000000000E+00  0.45593999997E+02  0.45594000000E+02  0.51100000000E-03 0.  1.
         11   -1    0    0    0    0 -0.00000000000E+00 -0.00000000000E+00 -0.45593999997E+02  0.45594000000E+02  0.51100000000E-03 0. -1.
    9900012    2    1    2    0    0 -0.37756109845E+02  0.13560913249E+02  0.20486368050E+02  0.46142317913E+02  0.10000001387E+02 0.  0.
         12    1    1    2    0    0  0.37756109845E+02 -0.13560913249E+02 -0.20486368050E+02  0.45045682087E+02  0.00000000000E+00 0. -1.
         11    1    3    3    0    0 -0.10148532107E+02  0.39556306916E+01  0.45757633384E+01  0.11814284933E+02  0.51100000000E-03 0. -1.
        -11    1    3    3    0    0 -0.12644766913E+02  0.39537831209E+01  0.11970357324E+02  0.17855306941E+02  0.51100000000E-03 0.  1.
        -12    1    3    3    0    0 -0.14962810825E+02  0.56514994365E+01  0.39402473884E+01  0.16472726039E+02  0.00000000000E+00 0.  1.
</event>
<event>
 7    1  0.2297343E-008  0.4614232E+02  0.7816164E-02  0.1320468E+00
        -11   -1    0    0    0    0  0.00000000000E+00  0.00000000000E+00  0.45593999997E+02  0.45594000000E+02  0.51100000000E-03 0. -1.
         11   -1    0    0    0    0 -0.00000000000E+00 -0.00000000000E+00 -0.45593999997E+02  0.45594000000E+02  0.51100000000E-03 0.  1.
    9900012    2    1    2    0    0 -0.23336489793E+02 -0.95761647051E+01 -0.37320487968E+02  0.46142317538E+02  0.99999979629E+01 0.  0.
         12    1    1    2    0    0  0.23336489793E+02  0.95761647051E+01  0.37320487968E+02  0.45045682462E+02  0.00000000000E+00 0. -1.
         11    1    3    3    0    0 -0.34438239774E+01  0.61167743968E+00 -0.66160389198E+01  0.74837186029E+01  0.51100000000E-03 0. -1.
        -11    1    3    3    0    0 -0.14954473288E+02 -0.47810993677E+01 -0.17139368839E+02  0.23243346294E+02  0.51100000000E-03 0.  1.
        -12    1    3    3    0    0 -0.49381925279E+01 -0.54067427770E+01 -0.13565080209E+02  0.15415252641E+02  0.00000000000E+00 0.  1.
</event>
<event>
 7    1  0.2297343E-008  0.4614232E+02  0.7816164E-02  0.1320468E+00
        -11   -1    0    0    0    0  0.00000000000E+00  0.00000000000E+00  0.45593999997E+02  0.45594000000E+02  0.51100000000E-03 0.  1.
         11   -1    0    0    0    0 -0.00000000000E+00 -0.00000000000E+00 -0.45593999997E+02  0.45594000000E+02  0.51100000000E-03 0. -1.
    9900012    2    1    2    0    0  0.37200083763E+01  0.29202303646E+02  0.34095460087E+02  0.46142318751E+02  0.10000009031E+02 0.  0.
         12    1    1    2    0    0 -0.37200083763E+01 -0.29202303646E+02 -0.34095460087E+02  0.45045681249E+02  0.00000000000E+00 0. -1.
         11    1    3    3    0    0 -0.48467219591E+00  0.56663686929E+01  0.53455106066E+01  0.78049423577E+01  0.51100000000E-03 0. -1.
        -11    1    3    3    0    0 -0.39129651814E+00  0.17632849115E+02  0.22501091567E+02  0.28589676508E+02  0.51100000000E-03 0.  1.
         12    1    3    3    0    0  0.45959770904E+01  0.59030858387E+01  0.62488579137E+01  0.97476998856E+01  0.00000000000E+00 0. -1.
</event>
<event>
 7    1  0.2297343E-008  0.4614232E+02  0.7816164E-02  0.1320468E+00
        -11   -1    0    0    0    0  0.00000000000E+00  0.00000000000E+00  0.45593999997E+02  0.45594000000E+02  0.51100000000E-03 0.  1.
         11   -1    0    0    0    0 -0.00000000000E+00 -0.00000000000E+00 -0.45593999997E+02  0.45594000000E+02  0.51100000000E-03 0. -1.
    9900012    2    1    2    0    0  0.40010119144E+02  0.20693550533E+02  0.28415656899E+00  0.46142318603E+02  0.10000007673E+02 0.  0.
         12    1    1    2    0    0 -0.40010119144E+02 -0.20693550533E+02 -0.28415656899E+00  0.45045681397E+02  0.00000000000E+00 0. -1.
         11    1    3    3    0    0  0.21397515134E+02  0.88531122540E+01 -0.20254433986E+01  0.23245078441E+02  0.51100000000E-03 0. -1.
        -11    1    3    3    0    0  0.14200055367E+02  0.62212909595E+01  0.42793833627E+00  0.15509002712E+02  0.51100000000E-03 0.  1.
        -12    1    3    3    0    0  0.44125486432E+01  0.56191473193E+01  0.18816616313E+01  0.73882374501E+01  0.00000000000E+00 0.  1.
</event>
<event>
 7    1  0.2297343E-008  0.4614232E+02  0.7816164E-02  0.1320468E+00
        -11   -1    0    0    0    0  0.00000000000E+00  0.00000000000E+00  0.45593999997E+02  0.45594000000E+02  0.51100000000E-03 0. -1.
         11   -1    0    0    0    0 -0.00000000000E+00 -0.00000000000E+00 -0.45593999997E+02  0.45594000000E+02  0.51100000000E-03 0.  1.
    9900012    2    1    2    0    0  0.60900402507E+01  0.42655067856E+02 -0.13136593321E+02  0.46142317763E+02  0.10000000019E+02 0.  0.
         12    1    1    2    0    0 -0.60900402507E+01 -0.42655067856E+02  0.13136593321E+02  0.45045682237E+02  0.00000000000E+00 0. -1.
         11    1    3    3    0    0  0.30474963558E+01  0.11062012647E+02 -0.12387138755E+01  0.11540787242E+02  0.51100000000E-03 0. -1.
        -11    1    3    3    0    0  0.84502675965E+00  0.26359630205E+02 -0.74935335048E+01  0.27417097210E+02  0.51100000000E-03 0.  1.
        -12    1    3    3    0    0  0.21975171352E+01  0.52334250049E+01 -0.44043459408E+01  0.71844333116E+01  0.00000000000E+00 0.  1.
</event>
<event>
 7    1  0.2297343E-008  0.4614232E+02  0.7816164E-02  0.1320468E+00
        -11   -1    0    0    0    0  0.00000000000E+00  0.00000000000E+00  0.45593999997E+02  0.45594000000E+02  0.51100000000E-03 0. -1.
         11   -1    0    0    0    0 -0.00000000000E+00 -0.00000000000E+00 -0.45593999997E+02  0.45594000000E+02  0.51100000000E-03 0.  1.
    9900012    2    1    2    0    0  0.22779553347E+02 -0.36328513515E+02 -0.13800164252E+02  0.46142317873E+02  0.10000001018E+02 0.  0.
         12    1    1    2    0    0 -0.22779553347E+02  0.36328513515E+02  0.13800164252E+02  0.45045682127E+02  0.00000000000E+00 0. -1.
         11    1    3    3    0    0  0.65873931417E+01 -0.89945105488E+01 -0.45311926978E+01  0.12034395537E+02  0.51100000000E-03 0. -1.
        -11    1    3    3    0    0  0.10621395808E+02 -0.20190059221E+02 -0.10221768470E+02  0.24998741792E+02  0.51100000000E-03 0.  1.
         12    1    3    3    0    0  0.55707643978E+01 -0.71439437455E+01  0.95279691657E+00  0.91091805437E+01  0.00000000000E+00 0. -1.
</event>
<event>
 7    1  0.2297343E-008  0.4614232E+02  0.7816164E-02  0.1320468E+00
        -11   -1    0    0    0    0  0.00000000000E+00  0.00000000000E+00  0.45593999997E+02  0.45594000000E+02  0.51100000000E-03 0.  1.
         11   -1    0    0    0    0 -0.00000000000E+00 -0.00000000000E+00 -0.45593999997E+02  0.45594000000E+02  0.51100000000E-03 0. -1.
    9900012    2    1    2    0    0 -0.12094667286E+02 -0.26118321992E+02  0.34650625959E+02  0.46142316524E+02  0.99999887224E+01 0.  0.
         12    1    1    2    0    0  0.12094667286E+02  0.26118321992E+02 -0.34650625959E+02  0.45045683476E+02  0.00000000000E+00 0. -1.
         11    1    3    3    0    0 -0.20741001433E+01 -0.47076619346E+01  0.23039837031E+01  0.56366934864E+01  0.51100000000E-03 0. -1.
        -11    1    3    3    0    0 -0.12820726229E+01 -0.54278424127E+01  0.42123688572E+01  0.69892227835E+01  0.51100000000E-03 0.  1.
        -12    1    3    3    0    0 -0.87384945197E+01 -0.15982817644E+02  0.28134273399E+02  0.33516400254E+02  0.00000000000E+00 0.  1.
</event>
<event>
 7    1  0.2297343E-008  0.4614232E+02  0.7816164E-02  0.1320468E+00
        -11   -1    0    0    0    0  0.00000000000E+00  0.00000000000E+00  0.45593999997E+02  0.45594000000E+02  0.51100000000E-03 0.  1.
         11   -1    0    0    0    0 -0.00000000000E+00 -0.00000000000E+00 -0.45593999997E+02  0.45594000000E+02  0.51100000000E-03 0. -1.
    9900012    2    1    2    0    0  0.32745774763E+02 -0.23755691691E+02  0.19811482435E+02  0.46142317756E+02  0.99999999569E+01 0.  0.
         12    1    1    2    0    0 -0.32745774763E+02  0.23755691691E+02 -0.19811482435E+02  0.45045682244E+02  0.00000000000E+00 0. -1.
         11    1    3    3    0    0  0.44682510293E+00 -0.11823007398E+01 -0.46986381611E+00  0.13484287073E+01  0.51100000000E-03 0. -1.
        -11    1    3    3    0    0  0.22991295280E+02 -0.16308059993E+02  0.11094111106E+02  0.30292437685E+02  0.51100000000E-03 0.  1.
        -12    1    3    3    0    0  0.93076543799E+01 -0.62653309582E+01  0.91872351444E+01  0.14501451364E+02  0.00000000000E+00 0.  1.
</event>
<event>
 7    1  0.2297343E-008  0.4614232E+02  0.7816164E-02  0.1320468E+00
        -11   -1    0    0    0    0  0.00000000000E+00  0.00000000000E+00  0.45593999997E+02  0.45594000000E+02  0.51100000000E-03 0. -1.
         11   -1    0    0    0    0 -0.00000000000E+00 -0.00000000000E+00 -0.45593999997E+02  0.45594000000E+02  0.51100000000E-03 0.  1.
    9900012    2    1    2    0    0 -0.13896467737E+02  0.38066813454E+02 -0.19670266706E+02  0.46142317694E+02  0.99999993845E+01 0.  0.
         12    1    1    2    0    0  0.13896467737E+02 -0.38066813454E+02  0.19670266706E+02  0.45045682306E+02  0.00000000000E+00 0. -1.
         11    1    3    3    0    0  0.26796909777E+00  0.18366096833E+01 -0.21994534839E+01  0.28779399673E+01  0.51100000000E-03 0. -1.
        -11    1    3    3    0    0 -0.96347575631E+01  0.17660616021E+02 -0.60930638277E+01  0.21020260194E+02  0.51100000000E-03 0.  1.
        -12    1    3    3    0    0 -0.45296792720E+01  0.18569587750E+02 -0.11377749395E+02  0.22244117532E+02  0.00000000000E+00 0.  1.
</event>
<event>
 7    1  0.2297343E-008  0.4614232E+02  0.7816164E-02  0.1320468E+00
        -11   -1    0    0    0    0  0.00000000000E+00  0.00000000000E+00  0.45593999997E+02  0.45594000000E+02  0.51100000000E-03 0. -1.
         11   -1    0    0    0    0 -0.00000000000E+00 -0.00000000000E+00 -0.45593999997E+02  0.45594000000E+02  0.51100000000E-03 0.  1.
    9900012    2    1    2    0    0  0.30037470264E+02  0.18255668203E+02 -0.28170808887E+02  0.46142317468E+02  0.99999973303E+01 0.  0.
         12    1    1    2    0    0 -0.30037470264E+02 -0.18255668203E+02  0.28170808887E+02  0.45045682532E+02  0.00000000000E+00 0. -1.
         11    1    3    3    0    0  0.12656433090E+01  0.31166201215E+01 -0.42042335009E+01  0.53843062282E+01  0.51100000000E-03 0. -1.
        -11    1    3    3    0    0  0.15359131425E+02  0.50042241525E+01 -0.11967533969E+02  0.20103906264E+02  0.51100000000E-03 0.  1.
        -12    1    3    3    0    0  0.13412695530E+02  0.10134823929E+02 -0.11999041417E+02  0.20654104976E+02  0.00000000000E+00 0.  1.
</event>
<event>
 7    1  0.2297343E-008  0.4614232E+02  0.7816164E-02  0.1320468E+00
        -11   -1    0    0    0    0  0.00000000000E+00  0.00000000000E+00  0.45593999997E+02  0.45594000000E+02  0.51100000000E-03 0.  1.
         11   -1    0    0    0    0 -0.00000000000E+00 -0.00000000000E+00 -0.45593999997E+02  0.45594000000E+02  0.51100000000E-03 0. -1.
    9900012    2    1    2    0    0  0.39314911794E+01 -0.30150192637E+02  0.33235862595E+02  0.46142319837E+02  0.10000018931E+02 0.  0.
         12    1    1    2    0    0 -0.39314911794E+01  0.30150192637E+02 -0.33235862595E+02  0.45045680163E+02  0.00000000000E+00 0. -1.
         11    1    3    3    0    0  0.26804497569E+01 -0.84647669158E+01  0.85571589211E+01  0.12331344570E+02  0.51100000000E-03 0.  1.
        -11    1    3    3    0    0 -0.15307958652E+01 -0.94569802685E+00  0.40276052420E+01  0.44112679566E+01  0.51100000000E-03 0. -1.
         12    1    3    3    0    0  0.27818372877E+01 -0.20739727694E+02  0.20651098431E+02  0.29399707311E+02  0.00000000000E+00 0. -1.
</event>
<event>
 7    1  0.2297343E-008  0.4614232E+02  0.7816164E-02  0.1320468E+00
        -11   -1    0    0    0    0  0.00000000000E+00  0.00000000000E+00  0.45593999997E+02  0.45594000000E+02  0.51100000000E-03 0. -1.
         11   -1    0    0    0    0 -0.00000000000E+00 -0.00000000000E+00 -0.45593999997E+02  0.45594000000E+02  0.51100000000E-03 0.  1.
    9900012    2    1    2    0    0 -0.32249572536E+02  0.27574007792E+02 -0.15124570065E+02  0.46142318141E+02  0.10000003463E+02 0.  0.
         12    1    1    2    0    0  0.32249572536E+02 -0.27574007792E+02  0.15124570065E+02  0.45045681859E+02  0.00000000000E+00 0. -1.
         11    1    3    3    0    0 -0.15349498108E+02  0.91505279256E+01 -0.36286171876E+01  0.18234750243E+02  0.51100000000E-03 0. -1.
        -11    1    3    3    0    0 -0.96555396037E+01  0.84528343251E+01 -0.78980901713E+01  0.15068499653E+02  0.51100000000E-03 0.  1.
        -12    1    3    3    0    0 -0.72445348245E+01  0.99706455415E+01 -0.35978627064E+01  0.12839068245E+02  0.00000000000E+00 0.  1.
</event>
<event>
 7    1  0.2297343E-008  0.4614232E+02  0.7816164E-02  0.1320468E+00
        -11   -1    0    0    0    0  0.00000000000E+00  0.00000000000E+00  0.45593999997E+02  0.45594000000E+02  0.51100000000E-03 0.  1.
         11   -1    0    0    0    0 -0.00000000000E+00 -0.00000000000E+00 -0.45593999997E+02  0.45594000000E+02  0.51100000000E-03 0. -1.
    9900012    2    1    2    0    0 -0.16314312965E+02  0.16908294972E+02  0.38432620790E+02  0.46142316664E+02  0.99999899979E+01 0.  0.
         12    1    1    2    0    0  0.16314312965E+02 -0.16908294972E+02 -0.38432620790E+02  0.45045683336E+02  0.00000000000E+00 0. -1.
         11    1    3    3    0    0 -0.62317953113E+01  0.27555572219E+01  0.63737033634E+01  0.93301909536E+01  0.51100000000E-03 0. -1.
        -11    1    3    3    0    0 -0.52007953506E+01  0.32122617858E+01  0.10828164337E+02  0.12434469881E+02  0.51100000000E-03 0.  1.
         12    1    3    3    0    0 -0.48817223030E+01  0.10940475964E+02  0.21230753090E+02  0.24377655829E+02  0.00000000000E+00 0. -1.
</event>
<event>
 7    1  0.2297343E-008  0.4614232E+02  0.7816164E-02  0.1320468E+00
        -11   -1    0    0    0    0  0.00000000000E+00  0.00000000000E+00  0.45593999997E+02  0.45594000000E+02  0.51100000000E-03 0.  1.
         11   -1    0    0    0    0 -0.00000000000E+00 -0.00000000000E+00 -0.45593999997E+02  0.45594000000E+02  0.51100000000E-03 0. -1.
    9900012    2    1    2    0    0 -0.43250815197E+02 -0.53340361460E+01  0.11403004087E+02  0.46142318086E+02  0.10000002965E+02 0.  0.
         12    1    1    2    0    0  0.43250815197E+02  0.53340361460E+01 -0.11403004087E+02  0.45045681914E+02  0.00000000000E+00 0. -1.
         11    1    3    3    0    0 -0.88314552018E+01 -0.10024804217E+01  0.96914766354E-01  0.88886984824E+01  0.51100000000E-03 0. -1.
        -11    1    3    3    0    0 -0.21060258025E+02 -0.17559385791E+01  0.30844346623E+01  0.21357235912E+02  0.51100000000E-03 0.  1.
        -12    1    3    3    0    0 -0.13359101971E+02 -0.25756171452E+01  0.82216546587E+01  0.15896383692E+02  0.00000000000E+00 0.  1.
</event>
<event>
 7    1  0.2297343E-008  0.4614232E+02  0.7816164E-02  0.1320468E+00
        -11   -1    0    0    0    0  0.00000000000E+00  0.00000000000E+00  0.45593999997E+02  0.45594000000E+02  0.51100000000E-03 0.  1.
         11   -1    0    0    0    0 -0.00000000000E+00 -0.00000000000E+00 -0.45593999997E+02  0.45594000000E+02  0.51100000000E-03 0. -1.
    9900012    2    1    2    0    0  0.24400024439E+02 -0.58931034782E+00  0.37860334797E+02  0.46142318406E+02  0.10000005878E+02 0.  0.
         12    1    1    2    0    0 -0.24400024439E+02  0.58931034782E+00 -0.37860334797E+02  0.45045681594E+02  0.00000000000E+00 0. -1.
         11    1    3    3    0    0  0.84190308061E+01 -0.42957495265E+01  0.10005766411E+02  0.13764043935E+02  0.51100000000E-03 0. -1.
        -11    1    3    3    0    0  0.27999464923E+01  0.17004360210E+00  0.58011607042E+01  0.64437629506E+01  0.51100000000E-03 0.  1.
        -12    1    3    3    0    0  0.13181047141E+02  0.35363955766E+01  0.22053407682E+02  0.25934511520E+02  0.00000000000E+00 0.  1.
</event>
<event>
 7    1  0.2297343E-008  0.4614232E+02  0.7816164E-02  0.1320468E+00
        -11   -1    0    0    0    0  0.00000000000E+00  0.00000000000E+00  0.45593999997E+02  0.45594000000E+02  0.51100000000E-03 0. -1.
         11   -1    0    0    0    0 -0.00000000000E+00 -0.00000000000E+00 -0.45593999997E+02  0.45594000000E+02  0.51100000000E-03 0.  1.
    9900012    2    1    2    0    0  0.53594858104E+01  0.35297584450E+02 -0.27467616000E+02  0.46142317800E+02  0.10000000357E+02 0.  0.
         12    1    1    2    0    0 -0.53594858104E+01 -0.35297584450E+02  0.27467616000E+02  0.45045682200E+02  0.00000000000E+00 0. -1.
         11    1    3    3    0    0 -0.23683762435E-01 -0.15043887297E+00  0.30012633646E+00  0.33655438500E+00  0.51100000000E-03 0. -1.
        -11    1    3    3    0    0  0.85407572304E+00  0.76257308099E+01 -0.28588286927E+01  0.81886578559E+01  0.51100000000E-03 0.  1.
        -12    1    3    3    0    0  0.45290938497E+01  0.27822292513E+02 -0.24908913644E+02  0.37617105559E+02  0.00000000000E+00 0.  1.
</event>
<event>
 7    1  0.2297343E-008  0.4614232E+02  0.7816164E-02  0.1320468E+00
        -11   -1    0    0    0    0  0.00000000000E+00  0.00000000000E+00  0.45593999997E+02  0.45594000000E+02  0.51100000000E-03 0.  1.
         11   -1    0    0    0    0 -0.00000000000E+00 -0.00000000000E+00 -0.45593999997E+02  0.45594000000E+02  0.51100000000E-03 0. -1.
    9900012    2    1    2    0    0  0.15491467594E+02  0.29910998470E+02  0.29907526732E+02  0.46142317044E+02  0.99999934650E+01 0.  0.
         12    1    1    2    0    0 -0.15491467594E+02 -0.29910998470E+02 -0.29907526732E+02  0.45045682956E+02  0.00000000000E+00 0. -1.
         11    1    3    3    0    0  0.68490969618E+01  0.69368056290E+01  0.10515535732E+02  0.14338964172E+02  0.51100000000E-03 0. -1.
        -11    1    3    3    0    0  0.61100829333E+01  0.14462640592E+02  0.15646250930E+02  0.22165429271E+02  0.51100000000E-03 0.  1.
         12    1    3    3    0    0  0.25322876986E+01  0.85115522491E+01  0.37457400706E+01  0.96379236018E+01  0.00000000000E+00 0. -1.
</event>
<event>
 7    1  0.2297343E-008  0.4614232E+02  0.7816164E-02  0.1320468E+00
        -11   -1    0    0    0    0  0.00000000000E+00  0.00000000000E+00  0.45593999997E+02  0.45594000000E+02  0.51100000000E-03 0.  1.
         11   -1    0    0    0    0 -0.00000000000E+00 -0.00000000000E+00 -0.45593999997E+02  0.45594000000E+02  0.51100000000E-03 0. -1.
    9900012    2    1    2    0    0 -0.24627228940E+02 -0.29776998392E+02  0.23150451967E+02  0.46142318024E+02  0.10000002393E+02 0.  0.
         12    1    1    2    0    0  0.24627228940E+02  0.29776998392E+02 -0.23150451967E+02  0.45045681976E+02  0.00000000000E+00 0. -1.
         11    1    3    3    0    0  0.22658067491E+00 -0.12197164191E+01 -0.25681608360E+00  0.12668866197E+01  0.51100000000E-03 0. -1.
        -11    1    3    3    0    0 -0.16773071485E+01 -0.28433039414E+00  0.14084546179E+01  0.22086076417E+01  0.51100000000E-03 0.  1.
        -12    1    3    3    0    0 -0.23176502466E+02 -0.28272951578E+02  0.21998813432E+02  0.42666823762E+02  0.00000000000E+00 0.  1.
</event>
<event>
 7    1  0.2297343E-008  0.4614233E+02  0.7816164E-02  0.1320468E+00
        -11   -1    0    0    0    0  0.00000000000E+00  0.00000000000E+00  0.45593999997E+02  0.45594000000E+02  0.51100000000E-03 0.  1.
         11   -1    0    0    0    0 -0.00000000000E+00 -0.00000000000E+00 -0.45593999997E+02  0.45594000000E+02  0.51100000000E-03 0. -1.
    9900012    2    1    2    0    0  0.14252507031E+02 -0.14240198114E+02  0.40288895443E+02  0.46142331007E+02  0.10000120790E+02 0.  0.
         12    1    1    2    0    0 -0.14252507031E+02  0.14240198114E+02 -0.40288895443E+02  0.45045668993E+02  0.00000000000E+00 0. -1.
         11    1    3    3    0    0  0.82616843084E+01 -0.43813625040E+01  0.18469409307E+02  0.20701952695E+02  0.51100000000E-03 0. -1.
        -11    1    3    3    0    0  0.26522159399E+01 -0.69146281799E+01  0.18377130353E+02  0.19813259513E+02  0.51100000000E-03 0.  1.
         12    1    3    3    0    0  0.33386067826E+01 -0.29442074297E+01  0.34423557827E+01  0.56271187986E+01  0.00000000000E+00 0. -1.
</event>
<event>
 7    1  0.2297343E-008  0.4614232E+02  0.7816164E-02  0.1320468E+00
        -11   -1    0    0    0    0  0.00000000000E+00  0.00000000000E+00  0.45593999997E+02  0.45594000000E+02  0.51100000000E-03 0.  1.
         11   -1    0    0    0    0 -0.00000000000E+00 -0.00000000000E+00 -0.45593999997E+02  0.45594000000E+02  0.51100000000E-03 0. -1.
    9900012    2    1    2    0    0  0.18779095447E+02 -0.19735144047E+02  0.35874544552E+02  0.46142320039E+02  0.10000020769E+02 0.  0.
         12    1    1    2    0    0 -0.18779095447E+02  0.19735144047E+02 -0.35874544552E+02  0.45045679961E+02  0.00000000000E+00 0. -1.
         11    1    3    3    0    0  0.11149023230E+00  0.48658379582E+00  0.46902982262E+00  0.68496941383E+00  0.51100000000E-03 0. -1.
        -11    1    3    3    0    0  0.15873791784E+01  0.43244853018E+00  0.28281345132E+01  0.32718694157E+01  0.51100000000E-03 0.  1.
         12    1    3    3    0    0  0.17080226036E+02 -0.20654176373E+02  0.32577380216E+02  0.42185481209E+02  0.00000000000E+00 0. -1.
</event>
<event>
 7    1  0.2297343E-008  0.4614232E+02  0.7816164E-02  0.1320468E+00
        -11   -1    0    0    0    0  0.00000000000E+00  0.00000000000E+00  0.45593999997E+02  0.45594000000E+02  0.51100000000E-03 0.  1.
         11   -1    0    0    0    0 -0.00000000000E+00 -0.00000000000E+00 -0.45593999997E+02  0.45594000000E+02  0.51100000000E-03 0. -1.
    9900012    2    1    2    0    0 -0.93365365131E+00  0.40446608470E+01  0.44854014595E+02  0.46142316347E+02  0.99999871046E+01 0.  0.
         12    1    1    2    0    0  0.93365365131E+00 -0.40446608470E+01 -0.44854014595E+02  0.45045683653E+02  0.00000000000E+00 0. -1.
         11    1    3    3    0    0 -0.22165157615E+01  0.22292419231E+01  0.78061811800E+01  0.84153981812E+01  0.51100000000E-03 0. -1.
        -11    1    3    3    0    0 -0.55409571992E+00 -0.19720684549E+01  0.49928422391E+01  0.53967165891E+01  0.51100000000E-03 0.  1.
        -12    1    3    3    0    0  0.18369578301E+01  0.37874873788E+01  0.32054991176E+02  0.32330201577E+02  0.00000000000E+00 0.  1.
</event>
<event>
 7    1  0.2297343E-008  0.4614232E+02  0.7816164E-02  0.1320468E+00
        -11   -1    0    0    0    0  0.00000000000E+00  0.00000000000E+00  0.45593999997E+02  0.45594000000E+02  0.51100000000E-03 0.  1.
         11   -1    0    0    0    0 -0.00000000000E+00 -0.00000000000E+00 -0.45593999997E+02  0.45594000000E+02  0.51100000000E-03 0. -1.
    9900012    2    1    2    0    0 -0.17268329541E+02  0.41009370348E+02  0.70106907834E+01  0.46142318224E+02  0.10000004218E+02 0.  0.
         12    1    1    2    0    0  0.17268329541E+02 -0.41009370348E+02 -0.70106907834E+01  0.45045681776E+02  0.00000000000E+00 0. -1.
         11    1    3    3    0    0 -0.55631872703E+01  0.13692345508E+02 -0.14226015866E+01  0.14847665596E+02  0.51100000000E-03 0. -1.
        -11    1    3    3    0    0 -0.10077036174E+02  0.17608036219E+02  0.54180105641E+01  0.20998677013E+02  0.51100000000E-03 0.  1.
         12    1    3    3    0    0 -0.16281060961E+01  0.97089886201E+01  0.30152818060E+01  0.10295975615E+02  0.00000000000E+00 0. -1.
</event>
<event>
 7    1  0.2297343E-008  0.4614232E+02  0.7816164E-02  0.1320468E+00
        -11   -1    0    0    0    0  0.00000000000E+00  0.00000000000E+00  0.45593999997E+02  0.45594000000E+02  0.51100000000E-03 0.  1.
         11   -1    0    0    0    0 -0.00000000000E+00 -0.00000000000E+00 -0.45593999997E+02  0.45594000000E+02  0.51100000000E-03 0. -1.
    9900012    2    1    2    0    0  0.75988887862E+01 -0.37115710581E+02  0.24367899537E+02  0.46142316404E+02  0.99999876288E+01 0.  0.
         12    1    1    2    0    0 -0.75988887862E+01  0.37115710581E+02 -0.24367899537E+02  0.45045683596E+02  0.00000000000E+00 0. -1.
         11    1    3    3    0    0  0.79739236614E+00 -0.50201453610E+00  0.13843439968E+01  0.16745930080E+01  0.51100000000E-03 0. -1.
        -11    1    3    3    0    0  0.35297682486E+01 -0.10250909928E+02  0.30709835737E+01  0.11268156842E+02  0.51100000000E-03 0.  1.
         12    1    3    3    0    0  0.32717281715E+01 -0.26362786118E+02  0.19912571966E+02  0.33199566555E+02  0.00000000000E+00 0. -1.
</event>
<event>
 7    1  0.2297343E-008  0.4614232E+02  0.7816164E-02  0.1320468E+00
        -11   -1    0    0    0    0  0.00000000000E+00  0.00000000000E+00  0.45593999997E+02  0.45594000000E+02  0.51100000000E-03 0.  1.
         11   -1    0    0    0    0 -0.00000000000E+00 -0.00000000000E+00 -0.45593999997E+02  0.45594000000E+02  0.51100000000E-03 0. -1.
    9900012    2    1    2    0    0 -0.97780193635E+01  0.24047366467E+00  0.43970966469E+02  0.46142318936E+02  0.10000010715E+02 0.  0.
         12    1    1    2    0    0  0.97780193635E+01 -0.24047366467E+00 -0.43970966469E+02  0.45045681064E+02  0.00000000000E+00 0. -1.
         11    1    3    3    0    0 -0.25611521645E+01  0.20059145462E+01  0.12066178115E+02  0.12497033573E+02  0.51100000000E-03 0. -1.
        -11    1    3    3    0    0 -0.52077127902E+01  0.22349351969E+01  0.22878143838E+02  0.23569570925E+02  0.51100000000E-03 0.  1.
         12    1    3    3    0    0 -0.20091544088E+01 -0.40003760784E+01  0.90266445167E+01  0.10075714438E+02  0.00000000000E+00 0. -1.
</event>
<event>
 7    1  0.2297343E-008  0.4614232E+02  0.7816164E-02  0.1320468E+00
        -11   -1    0    0    0    0  0.00000000000E+00  0.00000000000E+00  0.45593999997E+02  0.45594000000E+02  0.51100000000E-03 0. -1.
         11   -1    0    0    0    0 -0.00000000000E+00 -0.00000000000E+00 -0.45593999997E+02  0.45594000000E+02  0.51100000000E-03 0.  1.
    9900012    2    1    2    0    0 -0.29647053175E+01 -0.44687290253E+02  0.48342667741E+01  0.46142317376E+02  0.99999964884E+01 0.  0.
         12    1    1    2    0    0  0.29647053175E+01  0.44687290253E+02 -0.48342667741E+01  0.45045682624E+02  0.00000000000E+00 0. -1.
         11    1    3    3    0    0  0.16889120660E+01 -0.24017326795E+02  0.21151672627E+01  0.24169367869E+02  0.51100000000E-03 0. -1.
        -11    1    3    3    0    0 -0.38320072998E+01 -0.19647319387E+02  0.36720473464E+01  0.20351544684E+02  0.51100000000E-03 0.  1.
         12    1    3    3    0    0 -0.82161008371E+00 -0.10226440713E+01 -0.95294783500E+00  0.16214048237E+01  0.00000000000E+00 0. -1.
</event>
<event>
 7    1  0.2297343E-008  0.4614232E+02  0.7816164E-02  0.1320468E+00
        -11   -1    0    0    0    0  0.00000000000E+00  0.00000000000E+00  0.45593999997E+02  0.45594000000E+02  0.51100000000E-03 0.  1.
         11   -1    0    0    0    0 -0.00000000000E+00 -0.00000000000E+00 -0.45593999997E+02  0.45594000000E+02  0.51100000000E-03 0. -1.
    9900012    2    1    2    0    0  0.34507784234E+02 -0.25447387632E+02  0.13811471691E+02  0.46142318073E+02  0.10000002841E+02 0.  0.
         12    1    1    2    0    0 -0.34507784234E+02  0.25447387632E+02 -0.13811471691E+02  0.45045681927E+02  0.00000000000E+00 0. -1.
         11    1    3    3    0    0  0.63758439897E+01 -0.87145840525E+00  0.32990866976E+01  0.72315143388E+01  0.51100000000E-03 0. -1.
        -11    1    3    3    0    0  0.13653024377E+02 -0.11131341972E+02  0.62999169924E+01  0.18708308398E+02  0.51100000000E-03 0.  1.
         12    1    3    3    0    0  0.14478915867E+02 -0.13444587255E+02  0.42124680008E+01  0.20202495336E+02  0.00000000000E+00 0. -1.
</event>
<event>
 7    1  0.2297343E-008  0.4614232E+02  0.7816164E-02  0.1320468E+00
        -11   -1    0    0    0    0  0.00000000000E+00  0.00000000000E+00  0.45593999997E+02  0.45594000000E+02  0.51100000000E-03 0.  1.
         11   -1    0    0    0    0 -0.00000000000E+00 -0.00000000000E+00 -0.45593999997E+02  0.45594000000E+02  0.51100000000E-03 0. -1.
    9900012    2    1    2    0    0 -0.13433052841E+02  0.16352491076E+02  0.39765092649E+02  0.46142318005E+02  0.10000002227E+02 0.  0.
         12    1    1    2    0    0  0.13433052841E+02 -0.16352491076E+02 -0.39765092649E+02  0.45045681995E+02  0.00000000000E+00 0. -1.
         11    1    3    3    0    0  0.94874135774E+00  0.84022923770E+00  0.53722486886E+00  0.13764832569E+01  0.51100000000E-03 0. -1.
        -11    1    3    3    0    0 -0.10633333947E+02  0.90018681487E+01  0.23139860442E+02  0.27010267725E+02  0.51100000000E-03 0.  1.
        -12    1    3    3    0    0 -0.37484602509E+01  0.65103936892E+01  0.16088007338E+02  0.17755567024E+02  0.00000000000E+00 0.  1.
</event>
<event>
 7    1  0.2297343E-008  0.4614232E+02  0.7816164E-02  0.1320468E+00
        -11   -1    0    0    0    0  0.00000000000E+00  0.00000000000E+00  0.45593999997E+02  0.45594000000E+02  0.51100000000E-03 0.  1.
         11   -1    0    0    0    0 -0.00000000000E+00 -0.00000000000E+00 -0.45593999997E+02  0.45594000000E+02  0.51100000000E-03 0. -1.
    9900012    2    1    2    0    0  0.31156445547E+02 -0.25951827099E+02  0.19618667645E+02  0.46142317088E+02  0.99999938586E+01 0.  0.
         12    1    1    2    0    0 -0.31156445547E+02  0.25951827099E+02 -0.19618667645E+02  0.45045682912E+02  0.00000000000E+00 0. -1.
         11    1    3    3    0    0  0.21933273900E+01 -0.36125389656E+01  0.30548426760E+01  0.52147087027E+01  0.51100000000E-03 0. -1.
        -11    1    3    3    0    0  0.19058556554E+02 -0.15925421215E+02  0.15025600290E+02  0.29027853575E+02  0.51100000000E-03 0.  1.
         12    1    3    3    0    0  0.99045616023E+01 -0.64138669186E+01  0.15382246786E+01  0.11899754810E+02  0.00000000000E+00 0. -1.
</event>
<event>
 7    1  0.2297343E-008  0.4614232E+02  0.7816164E-02  0.1320468E+00
        -11   -1    0    0    0    0  0.00000000000E+00  0.00000000000E+00  0.45593999997E+02  0.45594000000E+02  0.51100000000E-03 0. -1.
         11   -1    0    0    0    0 -0.00000000000E+00 -0.00000000000E+00 -0.45593999997E+02  0.45594000000E+02  0.51100000000E-03 0.  1.
    9900012    2    1    2    0    0  0.25577577697E+02  0.37070508883E+02 -0.82364660659E+00  0.46142317594E+02  0.99999984765E+01 0.  0.
         12    1    1    2    0    0 -0.25577577697E+02 -0.37070508883E+02  0.82364660659E+00  0.45045682406E+02  0.00000000000E+00 0. -1.
         11    1    3    3    0    0  0.93263153035E+01  0.11360138805E+02  0.20718076382E+01  0.14843358716E+02  0.51100000000E-03 0.  1.
        -11    1    3    3    0    0  0.11557839243E+02  0.21026170506E+02 -0.46498486840E+01  0.24439815613E+02  0.51100000000E-03 0. -1.
         12    1    3    3    0    0  0.46934231496E+01  0.46841995718E+01  0.17543944392E+01  0.68591432656E+01  0.00000000000E+00 0. -1.
</event>
<event>
 7    1  0.2297343E-008  0.4614231E+02  0.7816164E-02  0.1320468E+00
        -11   -1    0    0    0    0  0.00000000000E+00  0.00000000000E+00  0.45593999997E+02  0.45594000000E+02  0.51100000000E-03 0.  1.
         11   -1    0    0    0    0 -0.00000000000E+00 -0.00000000000E+00 -0.45593999997E+02  0.45594000000E+02  0.51100000000E-03 0. -1.
    9900012    2    1    2    0    0 -0.32535897715E+02  0.32607557966E+01  0.30982197964E+02  0.46142314755E+02  0.99999725921E+01 0.  0.
         12    1    1    2    0    0  0.32535897715E+02 -0.32607557966E+01 -0.30982197964E+02  0.45045685245E+02  0.00000000000E+00 0. -1.
         11    1    3    3    0    0 -0.15257488092E+01 -0.15315877697E+01  0.17414983957E+01  0.27760560961E+01  0.51100000000E-03 0. -1.
        -11    1    3    3    0    0 -0.56671319914E+01 -0.15971433158E+01  0.52285377633E+01  0.78743164264E+01  0.51100000000E-03 0.  1.
        -12    1    3    3    0    0 -0.25343016915E+02  0.63894868820E+01  0.24012161804E+02  0.35491942233E+02  0.00000000000E+00 0.  1.
</event>
<event>
 7    1  0.2297343E-008  0.4614232E+02  0.7816164E-02  0.1320468E+00
        -11   -1    0    0    0    0  0.00000000000E+00  0.00000000000E+00  0.45593999997E+02  0.45594000000E+02  0.51100000000E-03 0. -1.
         11   -1    0    0    0    0 -0.00000000000E+00 -0.00000000000E+00 -0.45593999997E+02  0.45594000000E+02  0.51100000000E-03 0.  1.
    9900012    2    1    2    0    0  0.10388052914E+01 -0.40651831903E+02  0.19376868646E+02  0.46142316611E+02  0.99999895089E+01 0.  0.
         12    1    1    2    0    0 -0.10388052914E+01  0.40651831903E+02 -0.19376868646E+02  0.45045683389E+02  0.00000000000E+00 0. -1.
         11    1    3    3    0    0 -0.16233353555E+01 -0.17440854544E+02  0.10707742014E+02  0.20529840823E+02  0.51100000000E-03 0. -1.
        -11    1    3    3    0    0 -0.20235377698E+00 -0.13635529814E+02  0.24917262651E+01  0.13862803482E+02  0.51100000000E-03 0.  1.
         12    1    3    3    0    0  0.28644944239E+01 -0.95754475447E+01  0.61774003674E+01  0.11749672305E+02  0.00000000000E+00 0. -1.
</event>
<event>
 7    1  0.2297343E-008  0.4614232E+02  0.7816164E-02  0.1320468E+00
        -11   -1    0    0    0    0  0.00000000000E+00  0.00000000000E+00  0.45593999997E+02  0.45594000000E+02  0.51100000000E-03 0.  1.
         11   -1    0    0    0    0 -0.00000000000E+00 -0.00000000000E+00 -0.45593999997E+02  0.45594000000E+02  0.51100000000E-03 0. -1.
    9900012    2    1    2    0    0  0.37354825095E+02  0.98641482635E+00  0.25154671855E+02  0.46142317763E+02  0.10000000018E+02 0.  0.
         12    1    1    2    0    0 -0.37354825095E+02 -0.98641482635E+00 -0.25154671855E+02  0.45045682237E+02  0.00000000000E+00 0. -1.
         11    1    3    3    0    0  0.17307598109E+00 -0.36322813849E+00 -0.54095711116E+00  0.67418456898E+00  0.51100000000E-03 0. -1.
        -11    1    3    3    0    0  0.15425943416E+02  0.21568942146E+01  0.86386921360E+01  0.17811202234E+02  0.51100000000E-03 0.  1.
         12    1    3    3    0    0  0.21755805698E+02 -0.80725124974E+00  0.17056936830E+02  0.27656930961E+02  0.00000000000E+00 0. -1.
</event>
<event>
 7    1  0.2297343E-008  0.4614232E+02  0.7816164E-02  0.1320468E+00
        -11   -1    0    0    0    0  0.00000000000E+00  0.00000000000E+00  0.45593999997E+02  0.45594000000E+02  0.51100000000E-03 0.  1.
         11   -1    0    0    0    0 -0.00000000000E+00 -0.00000000000E+00 -0.45593999997E+02  0.45594000000E+02  0.51100000000E-03 0. -1.
    9900012    2    1    2    0    0 -0.24477597854E+02  0.21371929269E+02  0.31196176938E+02  0.46142316379E+02  0.99999873947E+01 0.  0.
         12    1    1    2    0    0  0.24477597854E+02 -0.21371929269E+02 -0.31196176938E+02  0.45045683621E+02  0.00000000000E+00 0. -1.
         11    1    3    3    0    0 -0.80356754555E-01  0.40576361703E+00  0.13954257458E+00  0.43654749128E+00  0.51100000000E-03 0. -1.
        -11    1    3    3    0    0 -0.10493853840E+02  0.10387219343E+02  0.20599703608E+02  0.25344882780E+02  0.51100000000E-03 0.  1.
        -12    1    3    3    0    0 -0.13903387260E+02  0.10578946308E+02  0.10456930755E+02  0.20360886108E+02  0.00000000000E+00 0.  1.
</event>
<event>
 7    1  0.2297343E-008  0.4614232E+02  0.7816164E-02  0.1320468E+00
        -11   -1    0    0    0    0  0.00000000000E+00  0.00000000000E+00  0.45593999997E+02  0.45594000000E+02  0.51100000000E-03 0. -1.
         11   -1    0    0    0    0 -0.00000000000E+00 -0.00000000000E+00 -0.45593999997E+02  0.45594000000E+02  0.51100000000E-03 0.  1.
    9900012    2    1    2    0    0  0.10864773744E+01 -0.31383412324E+02 -0.32295734282E+02  0.46142318132E+02  0.10000003378E+02 0.  0.
         12    1    1    2    0    0 -0.10864773744E+01  0.31383412324E+02  0.32295734282E+02  0.45045681868E+02  0.00000000000E+00 0. -1.
         11    1    3    3    0    0 -0.12779971899E+00 -0.16252035666E+02 -0.10150430485E+02  0.19161843214E+02  0.51100000000E-03 0. -1.
        -11    1    3    3    0    0  0.60147787409E+00 -0.77875183515E+01 -0.90541891397E+01  0.11957656917E+02  0.51100000000E-03 0.  1.
         12    1    3    3    0    0  0.61279921932E+00 -0.73438583065E+01 -0.13091114657E+02  0.15022818001E+02  0.00000000000E+00 0. -1.
</event>
<event>
 7    1  0.2297343E-008  0.4614232E+02  0.7816164E-02  0.1320468E+00
        -11   -1    0    0    0    0  0.00000000000E+00  0.00000000000E+00  0.45593999997E+02  0.45594000000E+02  0.51100000000E-03 0. -1.
         11   -1    0    0    0    0 -0.00000000000E+00 -0.00000000000E+00 -0.45593999997E+02  0.45594000000E+02  0.51100000000E-03 0.  1.
    9900012    2    1    2    0    0 -0.44746301532E+01 -0.42360052232E+02 -0.14653231154E+02  0.46142317372E+02  0.99999964550E+01 0.  0.
         12    1    1    2    0    0  0.44746301532E+01  0.42360052232E+02  0.14653231154E+02  0.45045682628E+02  0.00000000000E+00 0. -1.
         11    1    3    3    0    0  0.62557423900E+00 -0.29076592181E+00 -0.36625373967E+00  0.78104418103E+00  0.51100000000E-03 0. -1.
        -11    1    3    3    0    0  0.18138379296E+00 -0.25152097693E+02 -0.63454397768E+01  0.25940808096E+02  0.51100000000E-03 0.  1.
        -12    1    3    3    0    0 -0.52815881852E+01 -0.16917188618E+02 -0.79415376373E+01  0.19420465095E+02  0.00000000000E+00 0.  1.
</event>
<event>
 7    1  0.2297343E-008  0.4614232E+02  0.7816164E-02  0.1320468E+00
        -11   -1    0    0    0    0  0.00000000000E+00  0.00000000000E+00  0.45593999997E+02  0.45594000000E+02  0.51100000000E-03 0.  1.
         11   -1    0    0    0    0 -0.00000000000E+00 -0.00000000000E+00 -0.45593999997E+02  0.45594000000E+02  0.51100000000E-03 0. -1.
    9900012    2    1    2    0    0  0.24423957160E+02 -0.96790074529E+01  0.36590993308E+02  0.46142315858E+02  0.99999826427E+01 0.  0.
         12    1    1    2    0    0 -0.24423957160E+02  0.96790074529E+01 -0.36590993308E+02  0.45045684142E+02  0.00000000000E+00 0. -1.
         11    1    3    3    0    0  0.23876438672E+01 -0.19690991486E+01  0.23160278369E+01  0.38655115957E+01  0.51100000000E-03 0. -1.
        -11    1    3    3    0    0 -0.26935790133E+00  0.18085314007E+00 -0.25897461558E+00  0.41512606509E+00  0.51100000000E-03 0.  1.
        -12    1    3    3    0    0  0.22305671194E+02 -0.78907614444E+01  0.34533940086E+02  0.41861678197E+02  0.00000000000E+00 0.  1.
</event>
<event>
 7    1  0.2297343E-008  0.4614232E+02  0.7816164E-02  0.1320468E+00
        -11   -1    0    0    0    0  0.00000000000E+00  0.00000000000E+00  0.45593999997E+02  0.45594000000E+02  0.51100000000E-03 0.  1.
         11   -1    0    0    0    0 -0.00000000000E+00 -0.00000000000E+00 -0.45593999997E+02  0.45594000000E+02  0.51100000000E-03 0. -1.
    9900012    2    1    2    0    0  0.43956743389E+02  0.66557984782E+01  0.72538493473E+01  0.46142320151E+02  0.10000021792E+02 0.  0.
         12    1    1    2    0    0 -0.43956743389E+02 -0.66557984782E+01 -0.72538493473E+01  0.45045679849E+02  0.00000000000E+00 0. -1.
         11    1    3    3    0    0  0.13139866516E+01 -0.73305225560E-01 -0.13436530771E+01  0.18807813348E+01  0.51100000000E-03 0. -1.
        -11    1    3    3    0    0  0.22036526742E+02  0.49432791200E+01  0.26447201458E+01  0.22738493007E+02  0.51100000000E-03 0.  1.
         12    1    3    3    0    0  0.20606229995E+02  0.17858245838E+01  0.59527822786E+01  0.21523045809E+02  0.00000000000E+00 0. -1.
</event>
<event>
 7    1  0.2297343E-008  0.4614232E+02  0.7816164E-02  0.1320468E+00
        -11   -1    0    0    0    0  0.00000000000E+00  0.00000000000E+00  0.45593999997E+02  0.45594000000E+02  0.51100000000E-03 0. -1.
         11   -1    0    0    0    0 -0.00000000000E+00 -0.00000000000E+00 -0.45593999997E+02  0.45594000000E+02  0.51100000000E-03 0.  1.
    9900012    2    1    2    0    0  0.91586896590E+01 -0.43231553313E+02 -0.87329695529E+01  0.46142317017E+02  0.99999932190E+01 0.  0.
         12    1    1    2    0    0 -0.91586896590E+01  0.43231553313E+02  0.87329695529E+01  0.45045682983E+02  0.00000000000E+00 0. -1.
         11    1    3    3    0    0  0.21332314219E+01 -0.72554645217E+01 -0.59884268098E+00  0.75862411340E+01  0.51100000000E-03 0. -1.
        -11    1    3    3    0    0  0.39100245831E+01 -0.29722474023E+02 -0.35228244987E+01  0.30184831406E+02  0.51100000000E-03 0.  1.
         12    1    3    3    0    0  0.31154336540E+01 -0.62536147682E+01 -0.46113023732E+01  0.83712444773E+01  0.00000000000E+00 0. -1.
</event>
<event>
 7    1  0.2297343E-008  0.4614232E+02  0.7816164E-02  0.1320468E+00
        -11   -1    0    0    0    0  0.00000000000E+00  0.00000000000E+00  0.45593999997E+02  0.45594000000E+02  0.51100000000E-03 0. -1.
         11   -1    0    0    0    0 -0.00000000000E+00 -0.00000000000E+00 -0.45593999997E+02  0.45594000000E+02  0.51100000000E-03 0.  1.
    9900012    2    1    2    0    0 -0.28351304210E+02  0.32185250905E+01 -0.34856249696E+02  0.46142317665E+02  0.99999991211E+01 0.  0.
         12    1    1    2    0    0  0.28351304210E+02 -0.32185250905E+01  0.34856249696E+02  0.45045682335E+02  0.00000000000E+00 0. -1.
         11    1    3    3    0    0 -0.11380138988E+02 -0.29936404876E+01 -0.12482304648E+02  0.17154514751E+02  0.51100000000E-03 0. -1.
        -11    1    3    3    0    0 -0.14079928643E+01 -0.12449102542E+00 -0.31648161713E+01  0.34661222686E+01  0.51100000000E-03 0.  1.
         12    1    3    3    0    0 -0.15563172358E+02  0.63366566035E+01 -0.19209128877E+02  0.25521680645E+02  0.00000000000E+00 0. -1.
</event>
<event>
 7    1  0.2297343E-008  0.4614232E+02  0.7816164E-02  0.1320468E+00
        -11   -1    0    0    0    0  0.00000000000E+00  0.00000000000E+00  0.45593999997E+02  0.45594000000E+02  0.51100000000E-03 0.  1.
         11   -1    0    0    0    0 -0.00000000000E+00 -0.00000000000E+00 -0.45593999997E+02  0.45594000000E+02  0.51100000000E-03 0. -1.
    9900012    2    1    2    0    0 -0.39787696529E+02  0.15048066691E+02  0.14819193366E+02  0.46142316541E+02  0.99999888755E+01 0.  0.
         12    1    1    2    0    0  0.39787696529E+02 -0.15048066691E+02 -0.14819193366E+02  0.45045683459E+02  0.00000000000E+00 0. -1.
         11    1    3    3    0    0 -0.76265123530E+01  0.93612591280E+00  0.98230448080E+00  0.77462858680E+01  0.51100000000E-03 0.  1.
        -11    1    3    3    0    0 -0.18463211023E+01  0.33142093260E+00  0.26907624038E+01  0.32800829291E+01  0.51100000000E-03 0. -1.
        -12    1    3    3    0    0 -0.30314863074E+02  0.13780519845E+02  0.11146126482E+02  0.35115947744E+02  0.00000000000E+00 0.  1.
</event>
<event>
 7    1  0.2297343E-008  0.4614231E+02  0.7816164E-02  0.1320468E+00
        -11   -1    0    0    0    0  0.00000000000E+00  0.00000000000E+00  0.45593999997E+02  0.45594000000E+02  0.51100000000E-03 0. -1.
         11   -1    0    0    0    0 -0.00000000000E+00 -0.00000000000E+00 -0.45593999997E+02  0.45594000000E+02  0.51100000000E-03 0.  1.
    9900012    2    1    2    0    0  0.30661344292E+01  0.11937073812E+02 -0.43326888267E+02  0.46142310323E+02  0.99999321737E+01 0.  0.
         12    1    1    2    0    0 -0.30661344292E+01 -0.11937073812E+02  0.43326888267E+02  0.45045689677E+02  0.00000000000E+00 0. -1.
         11    1    3    3    0    0  0.19043353815E+01  0.11805944979E+01 -0.17546156016E+02  0.17688637252E+02  0.51100000000E-03 0. -1.
        -11    1    3    3    0    0  0.25932130321E+00  0.75481691512E+01 -0.22668817544E+02  0.23893877755E+02  0.51100000000E-03 0.  1.
         12    1    3    3    0    0  0.90247774450E+00  0.32083101627E+01 -0.31119147067E+01  0.45597953157E+01  0.00000000000E+00 0. -1.
</event>
<event>
 7    1  0.2297343E-008  0.4614232E+02  0.7816164E-02  0.1320468E+00
        -11   -1    0    0    0    0  0.00000000000E+00  0.00000000000E+00  0.45593999997E+02  0.45594000000E+02  0.51100000000E-03 0. -1.
         11   -1    0    0    0    0 -0.00000000000E+00 -0.00000000000E+00 -0.45593999997E+02  0.45594000000E+02  0.51100000000E-03 0.  1.
    9900012    2    1    2    0    0  0.28541126331E+02 -0.34753069719E+02  0.25964809740E+01  0.46142318069E+02  0.10000002811E+02 0.  0.
         12    1    1    2    0    0 -0.28541126331E+02  0.34753069719E+02 -0.25964809740E+01  0.45045681931E+02  0.00000000000E+00 0. -1.
         11    1    3    3    0    0  0.52992319131E+01 -0.45727606872E+01 -0.79190826051E+00  0.70440839095E+01  0.51100000000E-03 0. -1.
        -11    1    3    3    0    0  0.19874387057E+02 -0.28288560365E+02  0.49640529786E+01  0.34926719438E+02  0.51100000000E-03 0.  1.
        -12    1    3    3    0    0  0.33675073608E+01 -0.18917486668E+01 -0.15756637441E+01  0.41715147223E+01  0.00000000000E+00 0.  1.
</event>
<event>
 7    1  0.2297343E-008  0.4614232E+02  0.7816164E-02  0.1320468E+00
        -11   -1    0    0    0    0  0.00000000000E+00  0.00000000000E+00  0.45593999997E+02  0.45594000000E+02  0.51100000000E-03 0.  1.
         11   -1    0    0    0    0 -0.00000000000E+00 -0.00000000000E+00 -0.45593999997E+02  0.45594000000E+02  0.51100000000E-03 0. -1.
    9900012    2    1    2    0    0  0.10474534393E+02 -0.24735626417E+02  0.36160011450E+02  0.46142317487E+02  0.99999974986E+01 0.  0.
         12    1    1    2    0    0 -0.10474534393E+02  0.24735626417E+02 -0.36160011450E+02  0.45045682513E+02  0.00000000000E+00 0. -1.
         11    1    3    3    0    0  0.26950479781E+01 -0.39346519722E+01  0.84958876114E+01  0.97429398188E+01  0.51100000000E-03 0.  1.
        -11    1    3    3    0    0  0.28589121720E+01 -0.13857614269E+02  0.11914527823E+02  0.18497643783E+02  0.51100000000E-03 0. -1.
         12    1    3    3    0    0  0.49205742429E+01 -0.69433601764E+01  0.15749596016E+02  0.17901733885E+02  0.00000000000E+00 0. -1.
</event>
<event>
 7    1  0.2297343E-008  0.4614232E+02  0.7816164E-02  0.1320468E+00
        -11   -1    0    0    0    0  0.00000000000E+00  0.00000000000E+00  0.45593999997E+02  0.45594000000E+02  0.51100000000E-03 0.  1.
         11   -1    0    0    0    0 -0.00000000000E+00 -0.00000000000E+00 -0.45593999997E+02  0.45594000000E+02  0.51100000000E-03 0. -1.
    9900012    2    1    2    0    0 -0.31664225871E+02  0.31114913434E+02  0.76388767151E+01  0.46142317904E+02  0.10000001300E+02 0.  0.
         12    1    1    2    0    0  0.31664225871E+02 -0.31114913434E+02 -0.76388767151E+01  0.45045682096E+02  0.00000000000E+00 0. -1.
         11    1    3    3    0    0 -0.25907437574E+02  0.25579299753E+02  0.55575086415E+01  0.36829089047E+02  0.51100000000E-03 0. -1.
        -11    1    3    3    0    0 -0.59718911423E+01  0.57709297007E+01  0.26020055538E+01  0.87027321335E+01  0.51100000000E-03 0.  1.
         12    1    3    3    0    0  0.21510284435E+00 -0.23531601985E+00 -0.52063748016E+00  0.61049672284E+00  0.00000000000E+00 0. -1.
</event>
<event>
 7    1  0.2297343E-008  0.4614232E+02  0.7816164E-02  0.1320468E+00
        -11   -1    0    0    0    0  0.00000000000E+00  0.00000000000E+00  0.45593999997E+02  0.45594000000E+02  0.51100000000E-03 0. -1.
         11   -1    0    0    0    0 -0.00000000000E+00 -0.00000000000E+00 -0.45593999997E+02  0.45594000000E+02  0.51100000000E-03 0.  1.
    9900012    2    1    2    0    0 -0.37160923191E+02  0.74067694247E+01 -0.24358143568E+02  0.46142316480E+02  0.99999883152E+01 0.  0.
         12    1    1    2    0    0  0.37160923191E+02 -0.74067694247E+01  0.24358143568E+02  0.45045683520E+02  0.00000000000E+00 0. -1.
         11    1    3    3    0    0 -0.10643096583E+02  0.34242157051E+01 -0.49357552343E+01  0.12221392640E+02  0.51100000000E-03 0. -1.
        -11    1    3    3    0    0 -0.14100497254E+02  0.51589403570E+01 -0.13153219348E+02  0.19961108884E+02  0.51100000000E-03 0.  1.
        -12    1    3    3    0    0 -0.12417329354E+02 -0.11763866374E+01 -0.62691689859E+01  0.13959814955E+02  0.00000000000E+00 0.  1.
</event>
<event>
 7    1  0.2297343E-008  0.4614232E+02  0.7816164E-02  0.1320468E+00
        -11   -1    0    0    0    0  0.00000000000E+00  0.00000000000E+00  0.45593999997E+02  0.45594000000E+02  0.51100000000E-03 0.  1.
         11   -1    0    0    0    0 -0.00000000000E+00 -0.00000000000E+00 -0.45593999997E+02  0.45594000000E+02  0.51100000000E-03 0. -1.
    9900012    2    1    2    0    0  0.40742692380E+02  0.19101638428E+02  0.20673720514E+01  0.46142316519E+02  0.99999886767E+01 0.  0.
         12    1    1    2    0    0 -0.40742692380E+02 -0.19101638428E+02 -0.20673720514E+01  0.45045683481E+02  0.00000000000E+00 0. -1.
         11    1    3    3    0    0  0.11629946176E+02  0.22007293600E+01  0.24735658282E+01  0.12092038122E+02  0.51100000000E-03 0. -1.
        -11    1    3    3    0    0  0.21949072734E+02  0.10361121410E+02  0.73988718696E+00  0.24282958305E+02  0.51100000000E-03 0.  1.
         12    1    3    3    0    0  0.71636734702E+01  0.65397876583E+01 -0.11460809637E+01  0.97673200919E+01  0.00000000000E+00 0. -1.
</event>
<event>
 7    1  0.2297343E-008  0.4614232E+02  0.7816164E-02  0.1320468E+00
        -11   -1    0    0    0    0  0.00000000000E+00  0.00000000000E+00  0.45593999997E+02  0.45594000000E+02  0.51100000000E-03 0.  1.
         11   -1    0    0    0    0 -0.00000000000E+00 -0.00000000000E+00 -0.45593999997E+02  0.45594000000E+02  0.51100000000E-03 0. -1.
    9900012    2    1    2    0    0 -0.29527937607E+02  0.33108035346E+02  0.78148856708E+01  0.46142317167E+02  0.99999945830E+01 0.  0.
         12    1    1    2    0    0  0.29527937607E+02 -0.33108035346E+02 -0.78148856708E+01  0.45045682833E+02  0.00000000000E+00 0. -1.
         11    1    3    3    0    0 -0.53436232376E+01  0.83007935016E+01  0.92892384401E+00  0.99156634589E+01  0.51100000000E-03 0. -1.
        -11    1    3    3    0    0 -0.19646925452E+02  0.16941877111E+02  0.22740579582E+01  0.26042277543E+02  0.51100000000E-03 0.  1.
         12    1    3    3    0    0 -0.45373889181E+01  0.78653647335E+01  0.46119038686E+01  0.10184376165E+02  0.00000000000E+00 0. -1.
</event>
<event>
 7    1  0.2297343E-008  0.4614232E+02  0.7816164E-02  0.1320468E+00
        -11   -1    0    0    0    0  0.00000000000E+00  0.00000000000E+00  0.45593999997E+02  0.45594000000E+02  0.51100000000E-03 0. -1.
         11   -1    0    0    0    0 -0.00000000000E+00 -0.00000000000E+00 -0.45593999997E+02  0.45594000000E+02  0.51100000000E-03 0.  1.
    9900012    2    1    2    0    0  0.60254253974E+01  0.19857917092E+00 -0.44640432168E+02  0.46142319085E+02  0.10000012072E+02 0.  0.
         12    1    1    2    0    0 -0.60254253974E+01 -0.19857917092E+00  0.44640432168E+02  0.45045680915E+02  0.00000000000E+00 0. -1.
         11    1    3    3    0    0  0.30334980259E+00 -0.14088973459E+01 -0.53093486408E+01  0.55014721743E+01  0.51100000000E-03 0. -1.
        -11    1    3    3    0    0 -0.39697227603E+00 -0.17394737626E+01 -0.20189659453E+02  0.20268342435E+02  0.51100000000E-03 0.  1.
        -12    1    3    3    0    0  0.61190478708E+01  0.33469502794E+01 -0.19141424074E+02  0.20372504476E+02  0.00000000000E+00 0.  1.
</event>
<event>
 7    1  0.2297343E-008  0.4614232E+02  0.7816164E-02  0.1320468E+00
        -11   -1    0    0    0    0  0.00000000000E+00  0.00000000000E+00  0.45593999997E+02  0.45594000000E+02  0.51100000000E-03 0. -1.
         11   -1    0    0    0    0 -0.00000000000E+00 -0.00000000000E+00 -0.45593999997E+02  0.45594000000E+02  0.51100000000E-03 0.  1.
    9900012    2    1    2    0    0  0.20061827281E+02 -0.18798426106E+02 -0.35682709236E+02  0.46142317895E+02  0.10000001222E+02 0.  0.
         12    1    1    2    0    0 -0.20061827281E+02  0.18798426106E+02  0.35682709236E+02  0.45045682105E+02  0.00000000000E+00 0. -1.
         11    1    3    3    0    0  0.22660209117E+01 -0.18955381172E+01 -0.27256267627E+01  0.40195717479E+01  0.51100000000E-03 0. -1.
        -11    1    3    3    0    0  0.13265469197E+02 -0.16005574586E+02 -0.22186768129E+02  0.30404009129E+02  0.51100000000E-03 0.  1.
        -12    1    3    3    0    0  0.45303371718E+01 -0.89731340265E+00 -0.10770314344E+02  0.11718737018E+02  0.00000000000E+00 0.  1.
</event>
<event>
 7    1  0.2297343E-008  0.4614232E+02  0.7816164E-02  0.1320468E+00
        -11   -1    0    0    0    0  0.00000000000E+00  0.00000000000E+00  0.45593999997E+02  0.45594000000E+02  0.51100000000E-03 0.  1.
         11   -1    0    0    0    0 -0.00000000000E+00 -0.00000000000E+00 -0.45593999997E+02  0.45594000000E+02  0.51100000000E-03 0. -1.
    9900012    2    1    2    0    0  0.25146421399E+02 -0.96094733282E+00  0.37361043471E+02  0.46142317652E+02  0.99999990017E+01 0.  0.
         12    1    1    2    0    0 -0.25146421399E+02  0.96094733282E+00 -0.37361043471E+02  0.45045682348E+02  0.00000000000E+00 0. -1.
         11    1    3    3    0    0  0.42596535003E+01 -0.14917581530E+01  0.51495169199E+01  0.68474458814E+01  0.51100000000E-03 0. -1.
        -11    1    3    3    0    0  0.10013372342E+02  0.85738826678E+00  0.22775567505E+02  0.24894361123E+02  0.51100000000E-03 0.  1.
        -12    1    3    3    0    0  0.10873395557E+02 -0.32657744656E+00  0.94359590467E+01  0.14400510647E+02  0.00000000000E+00 0.  1.
</event>
<event>
 7    1  0.2297343E-008  0.4614232E+02  0.7816164E-02  0.1320468E+00
        -11   -1    0    0    0    0  0.00000000000E+00  0.00000000000E+00  0.45593999997E+02  0.45594000000E+02  0.51100000000E-03 0.  1.
         11   -1    0    0    0    0 -0.00000000000E+00 -0.00000000000E+00 -0.45593999997E+02  0.45594000000E+02  0.51100000000E-03 0. -1.
    9900012    2    1    2    0    0  0.37131690597E+02  0.18832840681E+02  0.17195212951E+02  0.46142315599E+02  0.99999802842E+01 0.  0.
         12    1    1    2    0    0 -0.37131690597E+02 -0.18832840681E+02 -0.17195212951E+02  0.45045684401E+02  0.00000000000E+00 0. -1.
         11    1    3    3    0    0  0.18915595553E+02  0.56957523278E+01  0.10607310189E+02  0.22422229581E+02  0.51100000000E-03 0.  1.
        -11    1    3    3    0    0 -0.16804064354E+00  0.11919926319E+00  0.23997361149E+00  0.31628107367E+00  0.51100000000E-03 0. -1.
        -12    1    3    3    0    0  0.18384135688E+02  0.13017889090E+02  0.63479291510E+01  0.23403804944E+02  0.00000000000E+00 0.  1.
</event>
<event>
 7    1  0.2297343E-008  0.4614232E+02  0.7816164E-02  0.1320468E+00
        -11   -1    0    0    0    0  0.00000000000E+00  0.00000000000E+00  0.45593999997E+02  0.45594000000E+02  0.51100000000E-03 0.  1.
         11   -1    0    0    0    0 -0.00000000000E+00 -0.00000000000E+00 -0.45593999997E+02  0.45594000000E+02  0.51100000000E-03 0. -1.
    9900012    2    1    2    0    0  0.42404749299E+01 -0.28670635649E+02  0.34483713443E+02  0.46142317977E+02  0.10000001964E+02 0.  0.
         12    1    1    2    0    0 -0.42404749299E+01  0.28670635649E+02 -0.34483713443E+02  0.45045682023E+02  0.00000000000E+00 0. -1.
         11    1    3    3    0    0  0.21426925483E+01 -0.86265491517E+01  0.88787590694E+01  0.12563472629E+02  0.51100000000E-03 0. -1.
        -11    1    3    3    0    0  0.14328504181E+01 -0.20196710632E+02  0.25866082549E+02  0.32848354713E+02  0.51100000000E-03 0.  1.
         12    1    3    3    0    0  0.66493196349E+00  0.15262413425E+00 -0.26112817600E+00  0.73049063425E+00  0.00000000000E+00 0. -1.
</event>
<event>
 7    1  0.2297343E-008  0.4614232E+02  0.7816164E-02  0.1320468E+00
        -11   -1    0    0    0    0  0.00000000000E+00  0.00000000000E+00  0.45593999997E+02  0.45594000000E+02  0.51100000000E-03 0.  1.
         11   -1    0    0    0    0 -0.00000000000E+00 -0.00000000000E+00 -0.45593999997E+02  0.45594000000E+02  0.51100000000E-03 0. -1.
    9900012    2    1    2    0    0  0.12188321709E+02  0.41447856268E+02  0.12752783865E+02  0.46142317948E+02  0.10000001701E+02 0.  0.
         12    1    1    2    0    0 -0.12188321709E+02 -0.41447856268E+02 -0.12752783865E+02  0.45045682052E+02  0.00000000000E+00 0. -1.
         11    1    3    3    0    0  0.24715306543E+01  0.84099045500E+01  0.49471328772E+01  0.10065241293E+02  0.51100000000E-03 0. -1.
        -11    1    3    3    0    0 -0.12995177368E+00  0.11877050428E+02  0.23436505693E+01  0.12106771352E+02  0.51100000000E-03 0.  1.
         12    1    3    3    0    0  0.98467428281E+01  0.21160901290E+02  0.54620004181E+01  0.23970305303E+02  0.00000000000E+00 0. -1.
</event>
<event>
 7    1  0.2297343E-008  0.4614231E+02  0.7816164E-02  0.1320468E+00
        -11   -1    0    0    0    0  0.00000000000E+00  0.00000000000E+00  0.45593999997E+02  0.45594000000E+02  0.51100000000E-03 0. -1.
         11   -1    0    0    0    0 -0.00000000000E+00 -0.00000000000E+00 -0.45593999997E+02  0.45594000000E+02  0.51100000000E-03 0.  1.
    9900012    2    1    2    0    0  0.43262919815E+02 -0.10490812432E+02 -0.68830545920E+01  0.46142314114E+02  0.99999667408E+01 0.  0.
         12    1    1    2    0    0 -0.43262919815E+02  0.10490812432E+02  0.68830545920E+01  0.45045685886E+02  0.00000000000E+00 0. -1.
         11    1    3    3    0    0  0.12860512540E+01 -0.21345102909E+01 -0.53565935530E+00  0.25489200097E+01  0.51100000000E-03 0. -1.
        -11    1    3    3    0    0  0.71890643108E+01 -0.13585860317E+01 -0.31480017805E+01  0.79648174581E+01  0.51100000000E-03 0.  1.
        -12    1    3    3    0    0  0.34787804251E+02 -0.69977161096E+01 -0.31993934561E+01  0.35628576646E+02  0.00000000000E+00 0.  1.
</event>
<event>
 7    1  0.2297343E-008  0.4614232E+02  0.7816164E-02  0.1320468E+00
        -11   -1    0    0    0    0  0.00000000000E+00  0.00000000000E+00  0.45593999997E+02  0.45594000000E+02  0.51100000000E-03 0.  1.
         11   -1    0    0    0    0 -0.00000000000E+00 -0.00000000000E+00 -0.45593999997E+02  0.45594000000E+02  0.51100000000E-03 0. -1.
    9900012    2    1    2    0    0  0.18755890458E+02 -0.21751267242E+02  0.34701764875E+02  0.46142317199E+02  0.99999948785E+01 0.  0.
         12    1    1    2    0    0 -0.18755890458E+02  0.21751267242E+02 -0.34701764875E+02  0.45045682801E+02  0.00000000000E+00 0. -1.
         11    1    3    3    0    0  0.18634337401E+01 -0.42277630825E+01  0.67232595317E+01  0.81577316073E+01  0.51100000000E-03 0. -1.
        -11    1    3    3    0    0  0.16529470629E+02 -0.12787270985E+02  0.23618846410E+02  0.31537083006E+02  0.51100000000E-03 0.  1.
         12    1    3    3    0    0  0.36298608929E+00 -0.47362331747E+01  0.43596589331E+01  0.64475025862E+01  0.00000000000E+00 0. -1.
</event>
<event>
 7    1  0.2297343E-008  0.4614232E+02  0.7816164E-02  0.1320468E+00
        -11   -1    0    0    0    0  0.00000000000E+00  0.00000000000E+00  0.45593999997E+02  0.45594000000E+02  0.51100000000E-03 0.  1.
         11   -1    0    0    0    0 -0.00000000000E+00 -0.00000000000E+00 -0.45593999997E+02  0.45594000000E+02  0.51100000000E-03 0. -1.
    9900012    2    1    2    0    0  0.22932023740E+02  0.37555428122E+02 -0.96345990359E+01  0.46142318822E+02  0.10000009672E+02 0.  0.
         12    1    1    2    0    0 -0.22932023740E+02 -0.37555428122E+02  0.96345990359E+01  0.45045681178E+02  0.00000000000E+00 0. -1.
         11    1    3    3    0    0  0.31571402842E+01  0.11859164677E+01 -0.11367354843E+01  0.35589465387E+01  0.51100000000E-03 0. -1.
        -11    1    3    3    0    0  0.77922900153E+01  0.97716964727E+01 -0.15401453985E+01  0.12592771091E+02  0.51100000000E-03 0.  1.
        -12    1    3    3    0    0  0.11982593441E+02  0.26597815181E+02 -0.69577181530E+01  0.29990601192E+02  0.00000000000E+00 0.  1.
</event>
<event>
 7    1  0.2297343E-008  0.4614232E+02  0.7816164E-02  0.1320468E+00
        -11   -1    0    0    0    0  0.00000000000E+00  0.00000000000E+00  0.45593999997E+02  0.45594000000E+02  0.51100000000E-03 0.  1.
         11   -1    0    0    0    0 -0.00000000000E+00 -0.00000000000E+00 -0.45593999997E+02  0.45594000000E+02  0.51100000000E-03 0. -1.
    9900012    2    1    2    0    0 -0.39629266881E+02 -0.18183868636E+02  0.11312884203E+02  0.46142320728E+02  0.10000027056E+02 0.  0.
         12    1    1    2    0    0  0.39629266881E+02  0.18183868636E+02 -0.11312884203E+02  0.45045679272E+02  0.00000000000E+00 0. -1.
         11    1    3    3    0    0 -0.87077482843E+01 -0.45395119865E+01  0.43800559957E+01  0.10752531797E+02  0.51100000000E-03 0.  1.
        -11    1    3    3    0    0 -0.26422621680E+02 -0.96655548620E+01  0.31952250225E+01  0.28315849810E+02  0.51100000000E-03 0. -1.
         12    1    3    3    0    0 -0.44988969162E+01 -0.39788017875E+01  0.37376031846E+01  0.70739391214E+01  0.00000000000E+00 0. -1.
</event>
<event>
 7    1  0.2297343E-008  0.4614232E+02  0.7816164E-02  0.1320468E+00
        -11   -1    0    0    0    0  0.00000000000E+00  0.00000000000E+00  0.45593999997E+02  0.45594000000E+02  0.51100000000E-03 0. -1.
         11   -1    0    0    0    0 -0.00000000000E+00 -0.00000000000E+00 -0.45593999997E+02  0.45594000000E+02  0.51100000000E-03 0.  1.
    9900012    2    1    2    0    0  0.42023386629E+02 -0.11858038210E+02  0.11069570813E+02  0.46142317722E+02  0.99999996398E+01 0.  0.
         12    1    1    2    0    0 -0.42023386629E+02  0.11858038210E+02 -0.11069570813E+02  0.45045682278E+02  0.00000000000E+00 0. -1.
         11    1    3    3    0    0  0.11528068170E+02 -0.42024795746E+00  0.27255699049E+01  0.11853341117E+02  0.51100000000E-03 0. -1.
        -11    1    3    3    0    0  0.17276679087E+02 -0.45760774748E+01  0.16128997185E+01  0.17945070942E+02  0.51100000000E-03 0.  1.
         12    1    3    3    0    0  0.13218639371E+02 -0.68617127782E+01  0.67311011894E+01  0.16343905662E+02  0.00000000000E+00 0. -1.
</event>
<event>
 7    1  0.2297343E-008  0.4614232E+02  0.7816164E-02  0.1320468E+00
        -11   -1    0    0    0    0  0.00000000000E+00  0.00000000000E+00  0.45593999997E+02  0.45594000000E+02  0.51100000000E-03 0. -1.
         11   -1    0    0    0    0 -0.00000000000E+00 -0.00000000000E+00 -0.45593999997E+02  0.45594000000E+02  0.51100000000E-03 0.  1.
    9900012    2    1    2    0    0  0.26214729395E+02  0.91652592996E+01 -0.35466878687E+02  0.46142317642E+02  0.99999989147E+01 0.  0.
         12    1    1    2    0    0 -0.26214729395E+02 -0.91652592996E+01  0.35466878687E+02  0.45045682358E+02  0.00000000000E+00 0. -1.
         11    1    3    3    0    0  0.80244331787E+01  0.39019479908E+01 -0.12612246585E+02  0.15449449509E+02  0.51100000000E-03 0. -1.
        -11    1    3    3    0    0  0.17939922604E+02  0.59885655676E+01 -0.19170750942E+02  0.26929935621E+02  0.51100000000E-03 0.  1.
         12    1    3    3    0    0  0.25037361196E+00 -0.72525425882E+00 -0.36838811604E+01  0.37629325120E+01  0.00000000000E+00 0. -1.
</event>
<event>
 7    1  0.2297343E-008  0.4614232E+02  0.7816164E-02  0.1320468E+00
        -11   -1    0    0    0    0  0.00000000000E+00  0.00000000000E+00  0.45593999997E+02  0.45594000000E+02  0.51100000000E-03 0.  1.
         11   -1    0    0    0    0 -0.00000000000E+00 -0.00000000000E+00 -0.45593999997E+02  0.45594000000E+02  0.51100000000E-03 0. -1.
    9900012    2    1    2    0    0 -0.43085026841E+01 -0.17943339546E+02  0.41092418244E+02  0.46142318003E+02  0.10000002202E+02 0.  0.
         12    1    1    2    0    0  0.43085026841E+01  0.17943339546E+02 -0.41092418244E+02  0.45045681997E+02  0.00000000000E+00 0. -1.
         11    1    3    3    0    0 -0.45612951683E+01 -0.34802420439E+01  0.14023817457E+02  0.15152061068E+02  0.51100000000E-03 0. -1.
        -11    1    3    3    0    0  0.31705339674E+00  0.12758365394E+00  0.15347898000E+00  0.37464183370E+00  0.51100000000E-03 0.  1.
        -12    1    3    3    0    0 -0.64260912529E-01 -0.14590681156E+02  0.26915121807E+02  0.30615615100E+02  0.00000000000E+00 0.  1.
</event>
<event>
 7    1  0.2297343E-008  0.4614232E+02  0.7816164E-02  0.1320468E+00
        -11   -1    0    0    0    0  0.00000000000E+00  0.00000000000E+00  0.45593999997E+02  0.45594000000E+02  0.51100000000E-03 0. -1.
         11   -1    0    0    0    0 -0.00000000000E+00 -0.00000000000E+00 -0.45593999997E+02  0.45594000000E+02  0.51100000000E-03 0.  1.
    9900012    2    1    2    0    0  0.14950578506E+02 -0.42372660978E+02 -0.31861132561E+01  0.46142317480E+02  0.99999974399E+01 0.  0.
         12    1    1    2    0    0 -0.14950578506E+02  0.42372660978E+02  0.31861132561E+01  0.45045682520E+02  0.00000000000E+00 0. -1.
         11    1    3    3    0    0  0.12399091339E+02 -0.33169289044E+02 -0.50156162770E-01  0.35411039488E+02  0.51100000000E-03 0. -1.
        -11    1    3    3    0    0  0.20093722132E+01 -0.19480586067E+01  0.24924857482E-01  0.27987730412E+01  0.51100000000E-03 0.  1.
         12    1    3    3    0    0  0.54211495368E+00 -0.72553133267E+01 -0.31608819508E+01  0.79325049511E+01  0.00000000000E+00 0. -1.
</event>
<event>
 7    1  0.2297343E-008  0.4614232E+02  0.7816164E-02  0.1320468E+00
        -11   -1    0    0    0    0  0.00000000000E+00  0.00000000000E+00  0.45593999997E+02  0.45594000000E+02  0.51100000000E-03 0. -1.
         11   -1    0    0    0    0 -0.00000000000E+00 -0.00000000000E+00 -0.45593999997E+02  0.45594000000E+02  0.51100000000E-03 0.  1.
    9900012    2    1    2    0    0 -0.36693979299E+02 -0.76958719248E+01 -0.24968760286E+02  0.46142317059E+02  0.99999935932E+01 0.  0.
         12    1    1    2    0    0  0.36693979299E+02  0.76958719248E+01  0.24968760286E+02  0.45045682941E+02  0.00000000000E+00 0. -1.
         11    1    3    3    0    0 -0.34281911498E+01  0.16455171929E+01 -0.10666713234E+01  0.39494315243E+01  0.51100000000E-03 0. -1.
        -11    1    3    3    0    0 -0.33597932103E+01  0.23433193720E+00 -0.23407303978E+01  0.41014803338E+01  0.51100000000E-03 0.  1.
        -12    1    3    3    0    0 -0.29905994939E+02 -0.95757210549E+01 -0.21561358565E+02  0.38091405200E+02  0.00000000000E+00 0.  1.
</event>
<event>
 7    1  0.2297343E-008  0.4614232E+02  0.7816164E-02  0.1320468E+00
        -11   -1    0    0    0    0  0.00000000000E+00  0.00000000000E+00  0.45593999997E+02  0.45594000000E+02  0.51100000000E-03 0. -1.
         11   -1    0    0    0    0 -0.00000000000E+00 -0.00000000000E+00 -0.45593999997E+02  0.45594000000E+02  0.51100000000E-03 0.  1.
    9900012    2    1    2    0    0  0.61233558419E+00  0.44609451744E+02 -0.62237730100E+01  0.46142317740E+02  0.99999998059E+01 0.  0.
         12    1    1    2    0    0 -0.61233558419E+00 -0.44609451744E+02  0.62237730100E+01  0.45045682260E+02  0.00000000000E+00 0. -1.
         11    1    3    3    0    0  0.50522782738E+00  0.77247783777E+01  0.18017137070E+01  0.79481839866E+01  0.51100000000E-03 0. -1.
        -11    1    3    3    0    0 -0.16957226444E+01  0.14583431327E+02 -0.54999399973E+01  0.15678051052E+02  0.51100000000E-03 0.  1.
        -12    1    3    3    0    0  0.18028304012E+01  0.22301242040E+02 -0.25255467198E+01  0.22516082701E+02  0.00000000000E+00 0.  1.
</event>
<event>
 7    1  0.2297343E-008  0.4614232E+02  0.7816164E-02  0.1320468E+00
        -11   -1    0    0    0    0  0.00000000000E+00  0.00000000000E+00  0.45593999997E+02  0.45594000000E+02  0.51100000000E-03 0.  1.
         11   -1    0    0    0    0 -0.00000000000E+00 -0.00000000000E+00 -0.45593999997E+02  0.45594000000E+02  0.51100000000E-03 0. -1.
    9900012    2    1    2    0    0 -0.54312664372E+01 -0.43408042485E+02  0.10740424896E+02  0.46142317249E+02  0.99999953332E+01 0.  0.
         12    1    1    2    0    0  0.54312664372E+01  0.43408042485E+02 -0.10740424896E+02  0.45045682751E+02  0.00000000000E+00 0. -1.
         11    1    3    3    0    0 -0.11772551391E+01 -0.75261555146E+01  0.36721518076E+01  0.84565741084E+01  0.51100000000E-03 0. -1.
        -11    1    3    3    0    0 -0.53824314454E+01 -0.25311296415E+02  0.78075165599E+01  0.27029421185E+02  0.51100000000E-03 0.  1.
        -12    1    3    3    0    0  0.11284201473E+01 -0.10570590556E+02 -0.73924347177E+00  0.10656321956E+02  0.00000000000E+00 0.  1.
</event>
<event>
 7    1  0.2297343E-008  0.4614232E+02  0.7816164E-02  0.1320468E+00
        -11   -1    0    0    0    0  0.00000000000E+00  0.00000000000E+00  0.45593999997E+02  0.45594000000E+02  0.51100000000E-03 0.  1.
         11   -1    0    0    0    0 -0.00000000000E+00 -0.00000000000E+00 -0.45593999997E+02  0.45594000000E+02  0.51100000000E-03 0. -1.
    9900012    2    1    2    0    0  0.11308781106E+02  0.32516467997E+02  0.29050030571E+02  0.46142317663E+02  0.99999991017E+01 0.  0.
         12    1    1    2    0    0 -0.11308781106E+02 -0.32516467997E+02 -0.29050030571E+02  0.45045682337E+02  0.00000000000E+00 0. -1.
         11    1    3    3    0    0 -0.11512615318E+01  0.27874915444E+01  0.33689666272E+01  0.45216643641E+01  0.51100000000E-03 0. -1.
        -11    1    3    3    0    0  0.48297179220E+01  0.17095942020E+02  0.11562588846E+02  0.21196482488E+02  0.51100000000E-03 0.  1.
         12    1    3    3    0    0  0.76303247162E+01  0.12633034432E+02  0.14118475098E+02  0.20424170811E+02  0.00000000000E+00 0. -1.
</event>
<event>
 7    1  0.2297343E-008  0.4614232E+02  0.7816164E-02  0.1320468E+00
        -11   -1    0    0    0    0  0.00000000000E+00  0.00000000000E+00  0.45593999997E+02  0.45594000000E+02  0.51100000000E-03 0.  1.
         11   -1    0    0    0    0 -0.00000000000E+00 -0.00000000000E+00 -0.45593999997E+02  0.45594000000E+02  0.51100000000E-03 0. -1.
    9900012    2    1    2    0    0 -0.10144696187E+02 -0.14747257026E+02  0.41336632212E+02  0.46142316376E+02  0.99999873708E+01 0.  0.
         12    1    1    2    0    0  0.10144696187E+02  0.14747257026E+02 -0.41336632212E+02  0.45045683624E+02  0.00000000000E+00 0. -1.
         11    1    3    3    0    0 -0.37379290937E+01 -0.30557316733E+01  0.16991998279E+02  0.17664586486E+02  0.51100000000E-03 0. -1.
        -11    1    3    3    0    0 -0.57580150292E+01 -0.42103984021E+01  0.13772842304E+02  0.15510428014E+02  0.51100000000E-03 0.  1.
         12    1    3    3    0    0 -0.64875206362E+00 -0.74811269503E+01  0.10571791630E+02  0.12967301876E+02  0.00000000000E+00 0. -1.
</event>
<event>
 7    1  0.2297343E-008  0.4614232E+02  0.7816164E-02  0.1320468E+00
        -11   -1    0    0    0    0  0.00000000000E+00  0.00000000000E+00  0.45593999997E+02  0.45594000000E+02  0.51100000000E-03 0.  1.
         11   -1    0    0    0    0 -0.00000000000E+00 -0.00000000000E+00 -0.45593999997E+02  0.45594000000E+02  0.51100000000E-03 0. -1.
    9900012    2    1    2    0    0  0.36058024681E+02  0.31260918212E+01  0.26817160371E+02  0.46142315586E+02  0.99999801643E+01 0.  0.
         12    1    1    2    0    0 -0.36058024681E+02 -0.31260918212E+01 -0.26817160371E+02  0.45045684414E+02  0.00000000000E+00 0. -1.
         11    1    3    3    0    0  0.12028253890E+02  0.38797472111E+01  0.80403919265E+01  0.14979293463E+02  0.51100000000E-03 0. -1.
        -11    1    3    3    0    0  0.55672500253E+00  0.90353327975E-02  0.25669973493E+01  0.26266899357E+01  0.51100000000E-03 0.  1.
        -12    1    3    3    0    0  0.23473045788E+02 -0.76269072269E+00  0.16209771096E+02  0.28536332187E+02  0.00000000000E+00 0.  1.
</event>
<event>
 7    1  0.2297343E-008  0.4614232E+02  0.7816164E-02  0.1320468E+00
        -11   -1    0    0    0    0  0.00000000000E+00  0.00000000000E+00  0.45593999997E+02  0.45594000000E+02  0.51100000000E-03 0.  1.
         11   -1    0    0    0    0 -0.00000000000E+00 -0.00000000000E+00 -0.45593999997E+02  0.45594000000E+02  0.51100000000E-03 0. -1.
    9900012    2    1    2    0    0 -0.20027135925E+02 -0.12894213537E+02  0.38233056279E+02  0.46142317537E+02  0.99999979583E+01 0.  0.
         12    1    1    2    0    0  0.20027135925E+02  0.12894213537E+02 -0.38233056279E+02  0.45045682463E+02  0.00000000000E+00 0. -1.
         11    1    3    3    0    0 -0.37127387866E+01 -0.13660371965E-01  0.10283126531E+02  0.10932854495E+02  0.51100000000E-03 0. -1.
        -11    1    3    3    0    0 -0.84232032381E+01 -0.43313554595E+01  0.15537804840E+02  0.18197097912E+02  0.51100000000E-03 0.  1.
         12    1    3    3    0    0 -0.78911939007E+01 -0.85491977058E+01  0.12412124908E+02  0.17012365130E+02  0.00000000000E+00 0. -1.
</event>
<event>
 7    1  0.2297343E-008  0.4614232E+02  0.7816164E-02  0.1320468E+00
        -11   -1    0    0    0    0  0.00000000000E+00  0.00000000000E+00  0.45593999997E+02  0.45594000000E+02  0.51100000000E-03 0.  1.
         11   -1    0    0    0    0 -0.00000000000E+00 -0.00000000000E+00 -0.45593999997E+02  0.45594000000E+02  0.51100000000E-03 0. -1.
    9900012    2    1    2    0    0  0.39230224902E+02  0.65150284319E+01  0.21157914943E+02  0.46142317564E+02  0.99999982069E+01 0.  0.
         12    1    1    2    0    0 -0.39230224902E+02 -0.65150284319E+01 -0.21157914943E+02  0.45045682436E+02  0.00000000000E+00 0. -1.
         11    1    3    3    0    0  0.14962944769E+02  0.57828945831E+01  0.10220829955E+02  0.19020960837E+02  0.51100000000E-03 0.  1.
        -11    1    3    3    0    0 -0.12278676589E+00 -0.27308407034E+00  0.47854099429E+00  0.56449379420E+00  0.51100000000E-03 0. -1.
        -12    1    3    3    0    0  0.24390066899E+02  0.10052179191E+01  0.10458543994E+02  0.26556862934E+02  0.00000000000E+00 0.  1.
</event>
<event>
 7    1  0.2297343E-008  0.4614232E+02  0.7816164E-02  0.1320468E+00
        -11   -1    0    0    0    0  0.00000000000E+00  0.00000000000E+00  0.45593999997E+02  0.45594000000E+02  0.51100000000E-03 0.  1.
         11   -1    0    0    0    0 -0.00000000000E+00 -0.00000000000E+00 -0.45593999997E+02  0.45594000000E+02  0.51100000000E-03 0. -1.
    9900012    2    1    2    0    0 -0.19841065299E+02  0.32487332498E+02  0.24083583889E+02  0.46142315879E+02  0.99999828356E+01 0.  0.
         12    1    1    2    0    0  0.19841065299E+02 -0.32487332498E+02 -0.24083583889E+02  0.45045684121E+02  0.00000000000E+00 0. -1.
         11    1    3    3    0    0 -0.12879103517E+02  0.23661087471E+02  0.17263326350E+02  0.31995949816E+02  0.51100000000E-03 0. -1.
        -11    1    3    3    0    0 -0.75249605882E+01  0.82311624012E+01  0.51460092646E+01  0.12282445927E+02  0.51100000000E-03 0.  1.
         12    1    3    3    0    0  0.56299880696E+00  0.59508262574E+00  0.16742482748E+01  0.18639201361E+01  0.00000000000E+00 0. -1.
</event>
<event>
 7    1  0.2297343E-008  0.4614232E+02  0.7816164E-02  0.1320468E+00
        -11   -1    0    0    0    0  0.00000000000E+00  0.00000000000E+00  0.45593999997E+02  0.45594000000E+02  0.51100000000E-03 0.  1.
         11   -1    0    0    0    0 -0.00000000000E+00 -0.00000000000E+00 -0.45593999997E+02  0.45594000000E+02  0.51100000000E-03 0. -1.
    9900012    2    1    2    0    0  0.17279950738E+02 -0.12045343342E+01  0.41582038041E+02  0.46142317764E+02  0.10000000026E+02 0.  0.
         12    1    1    2    0    0 -0.17279950738E+02  0.12045343342E+01 -0.41582038041E+02  0.45045682236E+02  0.00000000000E+00 0. -1.
         11    1    3    3    0    0  0.73094999466E+01 -0.22994810061E+00  0.82833715255E+01  0.11049701792E+02  0.51100000000E-03 0. -1.
        -11    1    3    3    0    0  0.76814563505E+01 -0.22422665608E+01  0.20046334318E+02  0.21584440016E+02  0.51100000000E-03 0.  1.
        -12    1    3    3    0    0  0.22889944405E+01  0.12676803272E+01  0.13252332198E+02  0.13508175956E+02  0.00000000000E+00 0.  1.
</event>
<event>
 7    1  0.2297343E-008  0.4614232E+02  0.7816164E-02  0.1320468E+00
        -11   -1    0    0    0    0  0.00000000000E+00  0.00000000000E+00  0.45593999997E+02  0.45594000000E+02  0.51100000000E-03 0.  1.
         11   -1    0    0    0    0 -0.00000000000E+00 -0.00000000000E+00 -0.45593999997E+02  0.45594000000E+02  0.51100000000E-03 0. -1.
    9900012    2    1    2    0    0  0.37638827153E+02 -0.79846174609E+01  0.23423877232E+02  0.46142318187E+02  0.10000003880E+02 0.  0.
         12    1    1    2    0    0 -0.37638827153E+02  0.79846174609E+01 -0.23423877232E+02  0.45045681813E+02  0.00000000000E+00 0. -1.
         11    1    3    3    0    0  0.10660005062E+02 -0.63447439567E+01  0.70662790084E+01  0.14276686698E+02  0.51100000000E-03 0. -1.
        -11    1    3    3    0    0  0.27053499429E+02 -0.14032052045E+01  0.16126799431E+02  0.31526726382E+02  0.51100000000E-03 0.  1.
        -12    1    3    3    0    0 -0.74677337406E-01 -0.23666829975E+00  0.23079879231E+00  0.33890510672E+00  0.00000000000E+00 0.  1.
</event>
<event>
 7    1  0.2297343E-008  0.4614232E+02  0.7816164E-02  0.1320468E+00
        -11   -1    0    0    0    0  0.00000000000E+00  0.00000000000E+00  0.45593999997E+02  0.45594000000E+02  0.51100000000E-03 0. -1.
         11   -1    0    0    0    0 -0.00000000000E+00 -0.00000000000E+00 -0.45593999997E+02  0.45594000000E+02  0.51100000000E-03 0.  1.
    9900012    2    1    2    0    0 -0.35603243310E+02 -0.61758112041E+01 -0.26895760181E+02  0.46142317699E+02  0.99999994376E+01 0.  0.
         12    1    1    2    0    0  0.35603243310E+02  0.61758112041E+01  0.26895760181E+02  0.45045682301E+02  0.00000000000E+00 0. -1.
         11    1    3    3    0    0  0.61410825493E-01  0.25953716684E+00  0.30505116977E+00  0.40520033040E+00  0.51100000000E-03 0. -1.
        -11    1    3    3    0    0 -0.14725525985E+02 -0.49993524129E+00 -0.82968840226E+01  0.16909445158E+02  0.51100000000E-03 0.  1.
        -12    1    3    3    0    0 -0.20939128150E+02 -0.59354131297E+01 -0.18903927328E+02  0.28827672211E+02  0.00000000000E+00 0.  1.
</event>
<event>
 7    1  0.2297343E-008  0.4614232E+02  0.7816164E-02  0.1320468E+00
        -11   -1    0    0    0    0  0.00000000000E+00  0.00000000000E+00  0.45593999997E+02  0.45594000000E+02  0.51100000000E-03 0. -1.
         11   -1    0    0    0    0 -0.00000000000E+00 -0.00000000000E+00 -0.45593999997E+02  0.45594000000E+02  0.51100000000E-03 0.  1.
    9900012    2    1    2    0    0 -0.39020101544E+02  0.11790524478E+02  0.19171037511E+02  0.46142317951E+02  0.10000001735E+02 0.  0.
         12    1    1    2    0    0  0.39020101544E+02 -0.11790524478E+02 -0.19171037511E+02  0.45045682049E+02  0.00000000000E+00 0. -1.
         11    1    3    3    0    0 -0.24360728513E+02  0.65492658882E+01  0.85411803944E+01  0.26632494066E+02  0.51100000000E-03 0. -1.
        -11    1    3    3    0    0 -0.40738804715E+01 -0.82024838823E+00  0.24746106253E+01  0.48366318366E+01  0.51100000000E-03 0.  1.
        -12    1    3    3    0    0 -0.10585492559E+02  0.60615069783E+01  0.81552464916E+01  0.14673192049E+02  0.00000000000E+00 0.  1.
</event>
<event>
 7    1  0.2297343E-008  0.4614232E+02  0.7816164E-02  0.1320468E+00
        -11   -1    0    0    0    0  0.00000000000E+00  0.00000000000E+00  0.45593999997E+02  0.45594000000E+02  0.51100000000E-03 0. -1.
         11   -1    0    0    0    0 -0.00000000000E+00 -0.00000000000E+00 -0.45593999997E+02  0.45594000000E+02  0.51100000000E-03 0.  1.
    9900012    2    1    2    0    0 -0.32270753827E+02 -0.30015319923E+02 -0.93162417406E+01  0.46142319377E+02  0.10000014732E+02 0.  0.
         12    1    1    2    0    0  0.32270753827E+02  0.30015319923E+02  0.93162417406E+01  0.45045680623E+02  0.00000000000E+00 0. -1.
         11    1    3    3    0    0 -0.73883331100E+01 -0.54373927505E+01 -0.32756117125E+00  0.91793247382E+01  0.51100000000E-03 0.  1.
        -11    1    3    3    0    0 -0.15399894897E+02 -0.19708700717E+02 -0.79885429327E+01  0.26256550902E+02  0.51100000000E-03 0. -1.
         12    1    3    3    0    0 -0.94825258193E+01 -0.48692264553E+01 -0.10001376367E+01  0.10706443736E+02  0.00000000000E+00 0. -1.
</event>
<event>
 7    1  0.2297343E-008  0.4614232E+02  0.7816164E-02  0.1320468E+00
        -11   -1    0    0    0    0  0.00000000000E+00  0.00000000000E+00  0.45593999997E+02  0.45594000000E+02  0.51100000000E-03 0.  1.
         11   -1    0    0    0    0 -0.00000000000E+00 -0.00000000000E+00 -0.45593999997E+02  0.45594000000E+02  0.51100000000E-03 0. -1.
    9900012    2    1    2    0    0 -0.27456540282E+02  0.33990282853E+02  0.10950455452E+02  0.46142318661E+02  0.10000008210E+02 0.  0.
         12    1    1    2    0    0  0.27456540282E+02 -0.33990282853E+02 -0.10950455452E+02  0.45045681339E+02  0.00000000000E+00 0. -1.
         11    1    3    3    0    0 -0.20820124647E+02  0.19063392380E+02  0.66138806117E+01  0.28993687871E+02  0.51100000000E-03 0.  1.
        -11    1    3    3    0    0 -0.15637818123E+01  0.60858671412E+01  0.68242583172E+00  0.63205140371E+01  0.51100000000E-03 0. -1.
        -12    1    3    3    0    0 -0.50726338220E+01  0.88410233318E+01  0.36541490087E+01  0.10828116753E+02  0.00000000000E+00 0.  1.
</event>
<event>
 7    1  0.2297343E-008  0.4614232E+02  0.7816164E-02  0.1320468E+00
        -11   -1    0    0    0    0  0.00000000000E+00  0.00000000000E+00  0.45593999997E+02  0.45594000000E+02  0.51100000000E-03 0.  1.
         11   -1    0    0    0    0 -0.00000000000E+00 -0.00000000000E+00 -0.45593999997E+02  0.45594000000E+02  0.51100000000E-03 0. -1.
    9900012    2    1    2    0    0  0.16141374194E+02 -0.35325789366E+02  0.22817934997E+02  0.46142317491E+02  0.99999975341E+01 0.  0.
         12    1    1    2    0    0 -0.16141374194E+02  0.35325789366E+02 -0.22817934997E+02  0.45045682509E+02  0.00000000000E+00 0. -1.
         11    1    3    3    0    0  0.28192177523E+01 -0.75813863643E+01  0.77432210042E+01  0.11197449697E+02  0.51100000000E-03 0. -1.
        -11    1    3    3    0    0  0.92283081343E+01 -0.21187799566E+02  0.14299272150E+02  0.27176344599E+02  0.51100000000E-03 0.  1.
         12    1    3    3    0    0  0.40938483078E+01 -0.65566034353E+01  0.77544184315E+00  0.77685231948E+01  0.00000000000E+00 0. -1.
</event>
<event>
 7    1  0.2297343E-008  0.4614232E+02  0.7816164E-02  0.1320468E+00
        -11   -1    0    0    0    0  0.00000000000E+00  0.00000000000E+00  0.45593999997E+02  0.45594000000E+02  0.51100000000E-03 0.  1.
         11   -1    0    0    0    0 -0.00000000000E+00 -0.00000000000E+00 -0.45593999997E+02  0.45594000000E+02  0.51100000000E-03 0. -1.
    9900012    2    1    2    0    0 -0.37558468381E+02 -0.23737274629E+02  0.74173168086E+01  0.46142319380E+02  0.10000014761E+02 0.  0.
         12    1    1    2    0    0  0.37558468381E+02  0.23737274629E+02 -0.74173168086E+01  0.45045680620E+02  0.00000000000E+00 0. -1.
         11    1    3    3    0    0 -0.54306479665E+01 -0.16015126396E+01  0.33669466540E+01  0.65873446929E+01  0.51100000000E-03 0. -1.
        -11    1    3    3    0    0 -0.19516535307E+02 -0.10821025916E+02  0.36128843894E+01  0.22606253253E+02  0.51100000000E-03 0.  1.
         12    1    3    3    0    0 -0.12611285107E+02 -0.11314736073E+02  0.43748576517E+00  0.16948721434E+02  0.00000000000E+00 0. -1.
</event>
<event>
 7    1  0.2297343E-008  0.4614233E+02  0.7816164E-02  0.1320468E+00
        -11   -1    0    0    0    0  0.00000000000E+00  0.00000000000E+00  0.45593999997E+02  0.45594000000E+02  0.51100000000E-03 0.  1.
         11   -1    0    0    0    0 -0.00000000000E+00 -0.00000000000E+00 -0.45593999997E+02  0.45594000000E+02  0.51100000000E-03 0. -1.
    9900012    2    1    2    0    0  0.22087158688E+01  0.38642409815E+02  0.23043405939E+02  0.46142325187E+02  0.10000067714E+02 0.  0.
         12    1    1    2    0    0 -0.22087158688E+01 -0.38642409815E+02 -0.23043405939E+02  0.45045674813E+02  0.00000000000E+00 0. -1.
         11    1    3    3    0    0  0.16908899442E+00  0.70186591587E+00  0.81453057235E-01  0.72652715953E+00  0.51100000000E-03 0. -1.
        -11    1    3    3    0    0 -0.88332419591E+00  0.29207932092E+02  0.21041881695E+02  0.36008948114E+02  0.51100000000E-03 0.  1.
        -12    1    3    3    0    0  0.29229510703E+01  0.87326118070E+01  0.19200711865E+01  0.94068499133E+01  0.00000000000E+00 0.  1.
</event>
<event>
 7    1  0.2297343E-008  0.4614232E+02  0.7816164E-02  0.1320468E+00
        -11   -1    0    0    0    0  0.00000000000E+00  0.00000000000E+00  0.45593999997E+02  0.45594000000E+02  0.51100000000E-03 0.  1.
         11   -1    0    0    0    0 -0.00000000000E+00 -0.00000000000E+00 -0.45593999997E+02  0.45594000000E+02  0.51100000000E-03 0. -1.
    9900012    2    1    2    0    0 -0.91533770208E+01 -0.55654828045E+01  0.43753338820E+02  0.46142316881E+02  0.99999919735E+01 0.  0.
         12    1    1    2    0    0  0.91533770208E+01  0.55654828045E+01 -0.43753338820E+02  0.45045683119E+02  0.00000000000E+00 0. -1.
         11    1    3    3    0    0 -0.77624278054E+00 -0.92069713412E+00  0.90624453542E+01  0.91421087352E+01  0.51100000000E-03 0. -1.
        -11    1    3    3    0    0 -0.71698493724E+01 -0.63298141458E+01  0.32896263480E+02  0.34258392232E+02  0.51100000000E-03 0.  1.
         12    1    3    3    0    0 -0.12072848679E+01  0.16850284755E+01  0.17946299865E+01  0.27418159136E+01  0.00000000000E+00 0. -1.
</event>
<event>
 7    1  0.2297343E-008  0.4614232E+02  0.7816164E-02  0.1320468E+00
        -11   -1    0    0    0    0  0.00000000000E+00  0.00000000000E+00  0.45593999997E+02  0.45594000000E+02  0.51100000000E-03 0.  1.
         11   -1    0    0    0    0 -0.00000000000E+00 -0.00000000000E+00 -0.45593999997E+02  0.45594000000E+02  0.51100000000E-03 0. -1.
    9900012    2    1    2    0    0  0.27786155334E+02  0.10791482296E+02  0.33772576827E+02  0.46142318032E+02  0.10000002473E+02 0.  0.
         12    1    1    2    0    0 -0.27786155334E+02 -0.10791482296E+02 -0.33772576827E+02  0.45045681968E+02  0.00000000000E+00 0. -1.
         11    1    3    3    0    0  0.14666942917E+02  0.50452622582E+01  0.19447547381E+02  0.24875308746E+02  0.51100000000E-03 0. -1.
        -11    1    3    3    0    0  0.11434293114E+02  0.53538278277E+01  0.14818711125E+02  0.19467941111E+02  0.51100000000E-03 0.  1.
         12    1    3    3    0    0  0.16849193024E+01  0.39239221016E+00 -0.49368167848E+00  0.17990681760E+01  0.00000000000E+00 0. -1.
</event>
<event>
 7    1  0.2297343E-008  0.4614232E+02  0.7816164E-02  0.1320468E+00
        -11   -1    0    0    0    0  0.00000000000E+00  0.00000000000E+00  0.45593999997E+02  0.45594000000E+02  0.51100000000E-03 0.  1.
         11   -1    0    0    0    0 -0.00000000000E+00 -0.00000000000E+00 -0.45593999997E+02  0.45594000000E+02  0.51100000000E-03 0. -1.
    9900012    2    1    2    0    0  0.23917475375E+02  0.24906887818E+02  0.28926026904E+02  0.46142315173E+02  0.99999763988E+01 0.  0.
         12    1    1    2    0    0 -0.23917475375E+02 -0.24906887818E+02 -0.28926026904E+02  0.45045684827E+02  0.00000000000E+00 0. -1.
         11    1    3    3    0    0  0.20644463290E+01  0.28638470015E+01  0.33233889826E+00  0.35459847290E+01  0.51100000000E-03 0. -1.
        -11    1    3    3    0    0  0.20097068005E+02  0.19204064839E+02  0.27453199331E+02  0.39068739454E+02  0.51100000000E-03 0.  1.
        -12    1    3    3    0    0  0.17559610405E+01  0.28389759771E+01  0.11404886748E+01  0.35275909899E+01  0.00000000000E+00 0.  1.
</event>
<event>
 7    1  0.2297343E-008  0.4614232E+02  0.7816164E-02  0.1320468E+00
        -11   -1    0    0    0    0  0.00000000000E+00  0.00000000000E+00  0.45593999997E+02  0.45594000000E+02  0.51100000000E-03 0. -1.
         11   -1    0    0    0    0 -0.00000000000E+00 -0.00000000000E+00 -0.45593999997E+02  0.45594000000E+02  0.51100000000E-03 0.  1.
    9900012    2    1    2    0    0  0.35221580319E+02 -0.27952290993E+02  0.26875853475E+01  0.46142318665E+02  0.10000008244E+02 0.  0.
         12    1    1    2    0    0 -0.35221580319E+02  0.27952290993E+02 -0.26875853475E+01  0.45045681335E+02  0.00000000000E+00 0. -1.
         11    1    3    3    0    0  0.15575943416E+02 -0.85026707585E+01 -0.54533702423E+00  0.17753952125E+02  0.51100000000E-03 0. -1.
        -11    1    3    3    0    0  0.15736627636E+02 -0.12058988164E+02  0.18204059766E+01  0.19909156765E+02  0.51100000000E-03 0.  1.
         12    1    3    3    0    0  0.39090092666E+01 -0.73906320708E+01  0.14125163951E+01  0.84792097756E+01  0.00000000000E+00 0. -1.
</event>
<event>
 7    1  0.2297343E-008  0.4614232E+02  0.7816164E-02  0.1320468E+00
        -11   -1    0    0    0    0  0.00000000000E+00  0.00000000000E+00  0.45593999997E+02  0.45594000000E+02  0.51100000000E-03 0.  1.
         11   -1    0    0    0    0 -0.00000000000E+00 -0.00000000000E+00 -0.45593999997E+02  0.45594000000E+02  0.51100000000E-03 0. -1.
    9900012    2    1    2    0    0  0.15467819647E+02 -0.95821060149E+01  0.41207321520E+02  0.46142317109E+02  0.99999940511E+01 0.  0.
         12    1    1    2    0    0 -0.15467819647E+02  0.95821060149E+01 -0.41207321520E+02  0.45045682891E+02  0.00000000000E+00 0. -1.
         11    1    3    3    0    0 -0.22405781394E+00 -0.10663984672E+01  0.26035027280E+00  0.11203526768E+01  0.51100000000E-03 0. -1.
        -11    1    3    3    0    0  0.10186992770E+02 -0.75399026782E+01  0.32587693168E+02  0.34965450095E+02  0.51100000000E-03 0.  1.
         12    1    3    3    0    0  0.55048846906E+01 -0.97580486946E+00  0.83592780790E+01  0.10056514337E+02  0.00000000000E+00 0. -1.
</event>
<event>
 7    1  0.2297343E-008  0.4614232E+02  0.7816164E-02  0.1320468E+00
        -11   -1    0    0    0    0  0.00000000000E+00  0.00000000000E+00  0.45593999997E+02  0.45594000000E+02  0.51100000000E-03 0. -1.
         11   -1    0    0    0    0 -0.00000000000E+00 -0.00000000000E+00 -0.45593999997E+02  0.45594000000E+02  0.51100000000E-03 0.  1.
    9900012    2    1    2    0    0 -0.25370708140E+01 -0.44557056142E+02 -0.61111009596E+01  0.46142317240E+02  0.99999952519E+01 0.  0.
         12    1    1    2    0    0  0.25370708140E+01  0.44557056142E+02  0.61111009596E+01  0.45045682760E+02  0.00000000000E+00 0. -1.
         11    1    3    3    0    0  0.13297447646E+01 -0.54748688069E+00 -0.86786054975E-01  0.14406578719E+01  0.51100000000E-03 0. -1.
        -11    1    3    3    0    0  0.43240757933E+00 -0.14006914976E+01 -0.11110103740E+00  0.14701213174E+01  0.51100000000E-03 0.  1.
        -12    1    3    3    0    0 -0.42992231579E+01 -0.42608877763E+02 -0.59132138672E+01  0.43231538051E+02  0.00000000000E+00 0.  1.
</event>
<event>
 7    1  0.2297343E-008  0.4614232E+02  0.7816164E-02  0.1320468E+00
        -11   -1    0    0    0    0  0.00000000000E+00  0.00000000000E+00  0.45593999997E+02  0.45594000000E+02  0.51100000000E-03 0. -1.
         11   -1    0    0    0    0 -0.00000000000E+00 -0.00000000000E+00 -0.45593999997E+02  0.45594000000E+02  0.51100000000E-03 0.  1.
    9900012    2    1    2    0    0  0.34213317713E+02 -0.28839689182E+02  0.51802279630E+01  0.46142317157E+02  0.99999944900E+01 0.  0.
         12    1    1    2    0    0 -0.34213317713E+02  0.28839689182E+02 -0.51802279630E+01  0.45045682843E+02  0.00000000000E+00 0. -1.
         11    1    3    3    0    0  0.10572163350E+02 -0.51975613547E+01  0.11963762198E+01  0.11841308976E+02  0.51100000000E-03 0. -1.
        -11    1    3    3    0    0  0.21816108626E+02 -0.18681524992E+02  0.41066690643E+01  0.29013905333E+02  0.51100000000E-03 0.  1.
         12    1    3    3    0    0  0.18250457369E+01 -0.49606028354E+01 -0.12281732105E+00  0.52871028481E+01  0.00000000000E+00 0. -1.
</event>
<event>
 7    1  0.2297343E-008  0.4614232E+02  0.7816164E-02  0.1320468E+00
        -11   -1    0    0    0    0  0.00000000000E+00  0.00000000000E+00  0.45593999997E+02  0.45594000000E+02  0.51100000000E-03 0. -1.
         11   -1    0    0    0    0 -0.00000000000E+00 -0.00000000000E+00 -0.45593999997E+02  0.45594000000E+02  0.51100000000E-03 0.  1.
    9900012    2    1    2    0    0 -0.12217968641E+02 -0.42423659864E+02  0.89480661781E+01  0.46142316941E+02  0.99999925172E+01 0.  0.
         12    1    1    2    0    0  0.12217968641E+02  0.42423659864E+02 -0.89480661781E+01  0.45045683059E+02  0.00000000000E+00 0. -1.
         11    1    3    3    0    0 -0.44744753516E+01 -0.80095059175E+01  0.26102957423E+01  0.95386979635E+01  0.51100000000E-03 0. -1.
        -11    1    3    3    0    0 -0.80091988534E+01 -0.34604563185E+02  0.66670604973E+01  0.36139628601E+02  0.51100000000E-03 0.  1.
         12    1    3    3    0    0  0.26570556409E+00  0.19040923802E+00 -0.32929006150E+00  0.46399037631E+00  0.00000000000E+00 0. -1.
</event>
<event>
 7    1  0.2297343E-008  0.4614232E+02  0.7816164E-02  0.1320468E+00
        -11   -1    0    0    0    0  0.00000000000E+00  0.00000000000E+00  0.45593999997E+02  0.45594000000E+02  0.51100000000E-03 0.  1.
         11   -1    0    0    0    0 -0.00000000000E+00 -0.00000000000E+00 -0.45593999997E+02  0.45594000000E+02  0.51100000000E-03 0. -1.
    9900012    2    1    2    0    0 -0.10133626372E+02  0.26582475164E+02  0.34925565673E+02  0.46142317556E+02  0.99999981301E+01 0.  0.
         12    1    1    2    0    0  0.10133626372E+02 -0.26582475164E+02 -0.34925565673E+02  0.45045682444E+02  0.00000000000E+00 0. -1.
         11    1    3    3    0    0 -0.11715310882E+01  0.32703388429E+00  0.28968340294E+01  0.31418281155E+01  0.51100000000E-03 0. -1.
        -11    1    3    3    0    0 -0.39831373063E+01  0.53547542935E+01  0.43701877956E+01  0.79773001682E+01  0.51100000000E-03 0.  1.
        -12    1    3    3    0    0 -0.49789579774E+01  0.20900686986E+02  0.27658543848E+02  0.35023189272E+02  0.00000000000E+00 0.  1.
</event>
<event>
 7    1  0.2297343E-008  0.4614232E+02  0.7816164E-02  0.1320468E+00
        -11   -1    0    0    0    0  0.00000000000E+00  0.00000000000E+00  0.45593999997E+02  0.45594000000E+02  0.51100000000E-03 0.  1.
         11   -1    0    0    0    0 -0.00000000000E+00 -0.00000000000E+00 -0.45593999997E+02  0.45594000000E+02  0.51100000000E-03 0. -1.
    9900012    2    1    2    0    0 -0.47305113992E+01 -0.37587527784E+02  0.24370339556E+02  0.46142318375E+02  0.10000005597E+02 0.  0.
         12    1    1    2    0    0  0.47305113992E+01  0.37587527784E+02 -0.24370339556E+02  0.45045681625E+02  0.00000000000E+00 0. -1.
         11    1    3    3    0    0  0.20336449491E+01 -0.13679435226E+02  0.90733253375E+01  0.16540492521E+02  0.51100000000E-03 0. -1.
        -11    1    3    3    0    0 -0.15084070232E+00 -0.21990256528E+01 -0.51528233947E-01  0.22047952647E+01  0.51100000000E-03 0.  1.
        -12    1    3    3    0    0 -0.66133156459E+01 -0.21709066905E+02  0.15348542452E+02  0.27397030590E+02  0.00000000000E+00 0.  1.
</event>
<event>
 7    1  0.2297343E-008  0.4614232E+02  0.7816164E-02  0.1320468E+00
        -11   -1    0    0    0    0  0.00000000000E+00  0.00000000000E+00  0.45593999997E+02  0.45594000000E+02  0.51100000000E-03 0. -1.
         11   -1    0    0    0    0 -0.00000000000E+00 -0.00000000000E+00 -0.45593999997E+02  0.45594000000E+02  0.51100000000E-03 0.  1.
    9900012    2    1    2    0    0  0.41185231694E+02  0.17413108081E+02  0.54473749981E+01  0.46142317220E+02  0.99999950658E+01 0.  0.
         12    1    1    2    0    0 -0.41185231694E+02 -0.17413108081E+02 -0.54473749981E+01  0.45045682780E+02  0.00000000000E+00 0. -1.
         11    1    3    3    0    0  0.18236913993E+02  0.10770852664E+02  0.19099365969E+01  0.21266032944E+02  0.51100000000E-03 0. -1.
        -11    1    3    3    0    0  0.11154740243E+02  0.37549936431E+01 -0.12259681220E+01  0.11833478155E+02  0.51100000000E-03 0.  1.
        -12    1    3    3    0    0  0.11793577458E+02  0.28872617740E+01  0.47634065232E+01  0.13042806121E+02  0.00000000000E+00 0.  1.
</event>
<event>
 7    1  0.2297343E-008  0.4614232E+02  0.7816164E-02  0.1320468E+00
        -11   -1    0    0    0    0  0.00000000000E+00  0.00000000000E+00  0.45593999997E+02  0.45594000000E+02  0.51100000000E-03 0.  1.
         11   -1    0    0    0    0 -0.00000000000E+00 -0.00000000000E+00 -0.45593999997E+02  0.45594000000E+02  0.51100000000E-03 0. -1.
    9900012    2    1    2    0    0  0.54359672109E+01 -0.20054452438E+02  0.39967269503E+02  0.46142318369E+02  0.10000005545E+02 0.  0.
         12    1    1    2    0    0 -0.54359672109E+01  0.20054452438E+02 -0.39967269503E+02  0.45045681631E+02  0.00000000000E+00 0. -1.
         11    1    3    3    0    0  0.23761592317E+01 -0.66187114766E+01  0.10362602152E+02  0.12523457906E+02  0.51100000000E-03 0.  1.
        -11    1    3    3    0    0 -0.24553061297E+01 -0.70313443295E+01  0.12819520214E+02  0.14825937746E+02  0.51100000000E-03 0. -1.
        -12    1    3    3    0    0  0.55151141089E+01 -0.64043966318E+01  0.16785147137E+02  0.18792922717E+02  0.00000000000E+00 0.  1.
</event>
<event>
 7    1  0.2297343E-008  0.4614232E+02  0.7816164E-02  0.1320468E+00
        -11   -1    0    0    0    0  0.00000000000E+00  0.00000000000E+00  0.45593999997E+02  0.45594000000E+02  0.51100000000E-03 0. -1.
         11   -1    0    0    0    0 -0.00000000000E+00 -0.00000000000E+00 -0.45593999997E+02  0.45594000000E+02  0.51100000000E-03 0.  1.
    9900012    2    1    2    0    0 -0.41996401872E+02  0.89379789857E+01 -0.13620874188E+02  0.46142318163E+02  0.10000003661E+02 0.  0.
         12    1    1    2    0    0  0.41996401872E+02 -0.89379789857E+01  0.13620874188E+02  0.45045681837E+02  0.00000000000E+00 0. -1.
         11    1    3    3    0    0 -0.68067475191E+01  0.48791496716E+01 -0.90812431898E+00  0.84239303977E+01  0.51100000000E-03 0. -1.
        -11    1    3    3    0    0 -0.24039723914E+02  0.39420066578E+01 -0.86753759734E+01  0.25859425572E+02  0.51100000000E-03 0.  1.
         12    1    3    3    0    0 -0.11149930439E+02  0.11682265633E+00 -0.40373738952E+01  0.11858962193E+02  0.00000000000E+00 0. -1.
</event>
<event>
 7    1  0.2297343E-008  0.4614232E+02  0.7816164E-02  0.1320468E+00
        -11   -1    0    0    0    0  0.00000000000E+00  0.00000000000E+00  0.45593999997E+02  0.45594000000E+02  0.51100000000E-03 0.  1.
         11   -1    0    0    0    0 -0.00000000000E+00 -0.00000000000E+00 -0.45593999997E+02  0.45594000000E+02  0.51100000000E-03 0. -1.
    9900012    2    1    2    0    0  0.34370715359E+02  0.92231168397E+01  0.27617051709E+02  0.46142317592E+02  0.99999984575E+01 0.  0.
         12    1    1    2    0    0 -0.34370715359E+02 -0.92231168397E+01 -0.27617051709E+02  0.45045682408E+02  0.00000000000E+00 0. -1.
         11    1    3    3    0    0  0.28691055713E+01 -0.31408654772E+00  0.16020586486E+01  0.33010618464E+01  0.51100000000E-03 0. -1.
        -11    1    3    3    0    0  0.12274608395E+02  0.81721830271E+01  0.10616275407E+02  0.18170192361E+02  0.51100000000E-03 0.  1.
        -12    1    3    3    0    0  0.19227001393E+02  0.13650203603E+01  0.15398717653E+02  0.24671063384E+02  0.00000000000E+00 0.  1.
</event>
<event>
 7    1  0.2297343E-008  0.4614232E+02  0.7816164E-02  0.1320468E+00
        -11   -1    0    0    0    0  0.00000000000E+00  0.00000000000E+00  0.45593999997E+02  0.45594000000E+02  0.51100000000E-03 0. -1.
         11   -1    0    0    0    0 -0.00000000000E+00 -0.00000000000E+00 -0.45593999997E+02  0.45594000000E+02  0.51100000000E-03 0.  1.
    9900012    2    1    2    0    0 -0.23620409258E+02 -0.51554180910E+01 -0.38008044056E+02  0.46142317830E+02  0.10000000628E+02 0.  0.
         12    1    1    2    0    0  0.23620409258E+02  0.51554180910E+01  0.38008044056E+02  0.45045682170E+02  0.00000000000E+00 0. -1.
         11    1    3    3    0    0 -0.30384089672E+01 -0.81365049621E+00 -0.21629517291E+01  0.38173703810E+01  0.51100000000E-03 0. -1.
        -11    1    3    3    0    0 -0.10727891597E+02  0.17312819232E+00 -0.11793620470E+02  0.15943873919E+02  0.51100000000E-03 0.  1.
        -12    1    3    3    0    0 -0.98541086931E+01 -0.45148957871E+01 -0.24051471857E+02  0.26381073530E+02  0.00000000000E+00 0.  1.
</event>
<event>
 7    1  0.2297343E-008  0.4614232E+02  0.7816164E-02  0.1320468E+00
        -11   -1    0    0    0    0  0.00000000000E+00  0.00000000000E+00  0.45593999997E+02  0.45594000000E+02  0.51100000000E-03 0.  1.
         11   -1    0    0    0    0 -0.00000000000E+00 -0.00000000000E+00 -0.45593999997E+02  0.45594000000E+02  0.51100000000E-03 0. -1.
    9900012    2    1    2    0    0  0.16495040428E+02 -0.31825430999E+02  0.27279463661E+02  0.46142317026E+02  0.99999932949E+01 0.  0.
         12    1    1    2    0    0 -0.16495040428E+02  0.31825430999E+02 -0.27279463661E+02  0.45045682974E+02  0.00000000000E+00 0. -1.
         11    1    3    3    0    0  0.23237935201E+01 -0.47515807251E+01  0.63819349520E+01  0.82889462360E+01  0.51100000000E-03 0. -1.
        -11    1    3    3    0    0  0.89168913194E+00 -0.88011217650E+01  0.74478001704E+01  0.11563934515E+02  0.51100000000E-03 0.  1.
         12    1    3    3    0    0  0.13279557776E+02 -0.18272728509E+02  0.13449728539E+02  0.26289436275E+02  0.00000000000E+00 0. -1.
</event>
<event>
 7    1  0.2297343E-008  0.4614232E+02  0.7816164E-02  0.1320468E+00
        -11   -1    0    0    0    0  0.00000000000E+00  0.00000000000E+00  0.45593999997E+02  0.45594000000E+02  0.51100000000E-03 0.  1.
         11   -1    0    0    0    0 -0.00000000000E+00 -0.00000000000E+00 -0.45593999997E+02  0.45594000000E+02  0.51100000000E-03 0. -1.
    9900012    2    1    2    0    0  0.46991918057E+01 -0.44630195181E+02  0.38957575713E+01  0.46142315939E+02  0.99999833803E+01 0.  0.
         12    1    1    2    0    0 -0.46991918057E+01  0.44630195181E+02 -0.38957575713E+01  0.45045684061E+02  0.00000000000E+00 0. -1.
         11    1    3    3    0    0  0.28340454020E+01 -0.18365595658E+02 -0.28108551172E+01  0.18794356173E+02  0.51100000000E-03 0. -1.
        -11    1    3    3    0    0  0.13266550162E+01 -0.13802409740E+02  0.50857600980E+01  0.14769275006E+02  0.51100000000E-03 0.  1.
        -12    1    3    3    0    0  0.53849138742E+00 -0.12462189783E+02  0.16208525905E+01  0.12578684760E+02  0.00000000000E+00 0.  1.
</event>
<event>
 7    1  0.2297343E-008  0.4614232E+02  0.7816164E-02  0.1320468E+00
        -11   -1    0    0    0    0  0.00000000000E+00  0.00000000000E+00  0.45593999997E+02  0.45594000000E+02  0.51100000000E-03 0.  1.
         11   -1    0    0    0    0 -0.00000000000E+00 -0.00000000000E+00 -0.45593999997E+02  0.45594000000E+02  0.51100000000E-03 0. -1.
    9900012    2    1    2    0    0  0.20643478463E+02  0.38959387505E+02  0.92263982411E+01  0.46142317606E+02  0.99999985833E+01 0.  0.
         12    1    1    2    0    0 -0.20643478463E+02 -0.38959387505E+02 -0.92263982411E+01  0.45045682394E+02  0.00000000000E+00 0. -1.
         11    1    3    3    0    0  0.11686520810E+02  0.17314756696E+02  0.56796380907E+01  0.21647952725E+02  0.51100000000E-03 0. -1.
        -11    1    3    3    0    0  0.74646446384E+01  0.20832498320E+02  0.44465946993E+01  0.22571799009E+02  0.51100000000E-03 0.  1.
         12    1    3    3    0    0  0.14923130146E+01  0.81213248931E+00 -0.89983454896E+00  0.19225658712E+01  0.00000000000E+00 0. -1.
</event>
<event>
 7    1  0.2297343E-008  0.4614232E+02  0.7816164E-02  0.1320468E+00
        -11   -1    0    0    0    0  0.00000000000E+00  0.00000000000E+00  0.45593999997E+02  0.45594000000E+02  0.51100000000E-03 0.  1.
         11   -1    0    0    0    0 -0.00000000000E+00 -0.00000000000E+00 -0.45593999997E+02  0.45594000000E+02  0.51100000000E-03 0. -1.
    9900012    2    1    2    0    0  0.18083597187E+02 -0.14369506901E+02  0.38673169296E+02  0.46142320527E+02  0.10000025218E+02 0.  0.
         12    1    1    2    0    0 -0.18083597187E+02  0.14369506901E+02 -0.38673169296E+02  0.45045679473E+02  0.00000000000E+00 0. -1.
         11    1    3    3    0    0  0.11475978691E+00  0.85639160449E+00  0.19911686506E+01  0.21705596618E+01  0.51100000000E-03 0. -1.
        -11    1    3    3    0    0  0.75382275288E+01 -0.80868095106E+01  0.21826271250E+02  0.24466456206E+02  0.51100000000E-03 0.  1.
         12    1    3    3    0    0  0.10430609871E+02 -0.71390889951E+01  0.14855729396E+02  0.19505304659E+02  0.00000000000E+00 0. -1.
</event>
<event>
 7    1  0.2297343E-008  0.4614232E+02  0.7816164E-02  0.1320468E+00
        -11   -1    0    0    0    0  0.00000000000E+00  0.00000000000E+00  0.45593999997E+02  0.45594000000E+02  0.51100000000E-03 0.  1.
         11   -1    0    0    0    0 -0.00000000000E+00 -0.00000000000E+00 -0.45593999997E+02  0.45594000000E+02  0.51100000000E-03 0. -1.
    9900012    2    1    2    0    0  0.34547452318E+02  0.19138072548E+02  0.21663822139E+02  0.46142317941E+02  0.10000001641E+02 0.  0.
         12    1    1    2    0    0 -0.34547452318E+02 -0.19138072548E+02 -0.21663822139E+02  0.45045682059E+02  0.00000000000E+00 0. -1.
         11    1    3    3    0    0  0.19943341631E+02  0.82718251539E+01  0.12260751113E+02  0.24829135806E+02  0.51100000000E-03 0. -1.
        -11    1    3    3    0    0  0.14895760681E+02  0.95779606132E+01  0.92610115972E+01  0.19984677927E+02  0.51100000000E-03 0.  1.
         12    1    3    3    0    0 -0.29164999431E+00  0.12882867808E+01  0.14205942906E+00  0.13285042078E+01  0.00000000000E+00 0. -1.
</event>
<event>
 7    1  0.2297343E-008  0.4614232E+02  0.7816164E-02  0.1320468E+00
        -11   -1    0    0    0    0  0.00000000000E+00  0.00000000000E+00  0.45593999997E+02  0.45594000000E+02  0.51100000000E-03 0.  1.
         11   -1    0    0    0    0 -0.00000000000E+00 -0.00000000000E+00 -0.45593999997E+02  0.45594000000E+02  0.51100000000E-03 0. -1.
    9900012    2    1    2    0    0 -0.19205148114E+02 -0.70200689044E+00  0.40740432253E+02  0.46142319320E+02  0.10000014213E+02 0.  0.
         12    1    1    2    0    0  0.19205148114E+02  0.70200689044E+00 -0.40740432253E+02  0.45045680680E+02  0.00000000000E+00 0. -1.
         11    1    3    3    0    0 -0.96274232427E+00 -0.15216963112E+01  0.36378271765E+01  0.40590909417E+01  0.51100000000E-03 0. -1.
        -11    1    3    3    0    0 -0.39486059911E+01 -0.15505353505E+01  0.35343767918E+01  0.55215458627E+01  0.51100000000E-03 0.  1.
        -12    1    3    3    0    0 -0.14293799799E+02  0.23702247712E+01  0.33568228285E+02  0.36561682515E+02  0.00000000000E+00 0.  1.
</event>
<event>
 7    1  0.2297343E-008  0.4614232E+02  0.7816164E-02  0.1320468E+00
        -11   -1    0    0    0    0  0.00000000000E+00  0.00000000000E+00  0.45593999997E+02  0.45594000000E+02  0.51100000000E-03 0. -1.
         11   -1    0    0    0    0 -0.00000000000E+00 -0.00000000000E+00 -0.45593999997E+02  0.45594000000E+02  0.51100000000E-03 0.  1.
    9900012    2    1    2    0    0 -0.85578444274E+01 -0.41437701573E+02 -0.15452956501E+02  0.46142315662E+02  0.99999808548E+01 0.  0.
         12    1    1    2    0    0  0.85578444274E+01  0.41437701573E+02  0.15452956501E+02  0.45045684338E+02  0.00000000000E+00 0. -1.
         11    1    3    3    0    0  0.48145697243E+00 -0.63246543759E+00  0.29807612374E+00  0.84891871384E+00  0.51100000000E-03 0. -1.
        -11    1    3    3    0    0  0.14107247953E+00 -0.10972994173E+02 -0.64280230760E+01  0.12717939436E+02  0.51100000000E-03 0.  1.
         12    1    3    3    0    0 -0.91803738794E+01 -0.29832241962E+02 -0.93230095483E+01  0.32575457512E+02  0.00000000000E+00 0. -1.
</event>
<event>
 7    1  0.2297343E-008  0.4614232E+02  0.7816164E-02  0.1320468E+00
        -11   -1    0    0    0    0  0.00000000000E+00  0.00000000000E+00  0.45593999997E+02  0.45594000000E+02  0.51100000000E-03 0. -1.
         11   -1    0    0    0    0 -0.00000000000E+00 -0.00000000000E+00 -0.45593999997E+02  0.45594000000E+02  0.51100000000E-03 0.  1.
    9900012    2    1    2    0    0  0.11273473895E+02 -0.40059585287E+02 -0.17240995061E+02  0.46142317657E+02  0.99999990471E+01 0.  0.
         12    1    1    2    0    0 -0.11273473895E+02  0.40059585287E+02  0.17240995061E+02  0.45045682343E+02  0.00000000000E+00 0. -1.
         11    1    3    3    0    0 -0.12230966655E+01 -0.30387076849E+01 -0.18539126687E+01  0.37638679961E+01  0.51100000000E-03 0. -1.
        -11    1    3    3    0    0  0.51503432611E+01 -0.16012928915E+02 -0.96628383036E+01  0.19398720898E+02  0.51100000000E-03 0.  1.
        -12    1    3    3    0    0  0.73462272998E+01 -0.21007948688E+02 -0.57242440891E+01  0.22979728762E+02  0.00000000000E+00 0.  1.
</event>
<event>
 7    1  0.2297343E-008  0.4614232E+02  0.7816164E-02  0.1320468E+00
        -11   -1    0    0    0    0  0.00000000000E+00  0.00000000000E+00  0.45593999997E+02  0.45594000000E+02  0.51100000000E-03 0.  1.
         11   -1    0    0    0    0 -0.00000000000E+00 -0.00000000000E+00 -0.45593999997E+02  0.45594000000E+02  0.51100000000E-03 0. -1.
    9900012    2    1    2    0    0 -0.18832176364E+02 -0.36303996967E+02  0.18880742779E+02  0.46142317518E+02  0.99999977798E+01 0.  0.
         12    1    1    2    0    0  0.18832176364E+02  0.36303996967E+02 -0.18880742779E+02  0.45045682482E+02  0.00000000000E+00 0. -1.
         11    1    3    3    0    0 -0.85897509907E-01 -0.16955362825E+01  0.13696829349E+01  0.21813420802E+01  0.51100000000E-03 0. -1.
        -11    1    3    3    0    0 -0.34199267558E+01 -0.11225500210E+02  0.17453655888E+01  0.11863981426E+02  0.51100000000E-03 0.  1.
        -12    1    3    3    0    0 -0.15326352098E+02 -0.23382960475E+02  0.15765694256E+02  0.32096994011E+02  0.00000000000E+00 0.  1.
</event>
<event>
 7    1  0.2297343E-008  0.4614232E+02  0.7816164E-02  0.1320468E+00
        -11   -1    0    0    0    0  0.00000000000E+00  0.00000000000E+00  0.45593999997E+02  0.45594000000E+02  0.51100000000E-03 0.  1.
         11   -1    0    0    0    0 -0.00000000000E+00 -0.00000000000E+00 -0.45593999997E+02  0.45594000000E+02  0.51100000000E-03 0. -1.
    9900012    2    1    2    0    0  0.14719289717E+01  0.44878648798E+02  0.35852167242E+01  0.46142317945E+02  0.10000001679E+02 0.  0.
         12    1    1    2    0    0 -0.14719289717E+01 -0.44878648798E+02 -0.35852167242E+01  0.45045682055E+02  0.00000000000E+00 0. -1.
         11    1    3    3    0    0 -0.25471227932E+01  0.33866943367E+01  0.13447407759E+00  0.42397661011E+01  0.51100000000E-03 0. -1.
        -11    1    3    3    0    0  0.95053711932E+00  0.92609555350E+01  0.18124129885E+01  0.94843902987E+01  0.51100000000E-03 0.  1.
        -12    1    3    3    0    0  0.30685146455E+01  0.32230998926E+02  0.16383296582E+01  0.32418161545E+02  0.00000000000E+00 0.  1.
</event>
<event>
 7    1  0.2297343E-008  0.4614232E+02  0.7816164E-02  0.1320468E+00
        -11   -1    0    0    0    0  0.00000000000E+00  0.00000000000E+00  0.45593999997E+02  0.45594000000E+02  0.51100000000E-03 0.  1.
         11   -1    0    0    0    0 -0.00000000000E+00 -0.00000000000E+00 -0.45593999997E+02  0.45594000000E+02  0.51100000000E-03 0. -1.
    9900012    2    1    2    0    0  0.36355237794E+02  0.22791217086E+02  0.13710236963E+02  0.46142317755E+02  0.99999999415E+01 0.  0.
         12    1    1    2    0    0 -0.36355237794E+02 -0.22791217086E+02 -0.13710236963E+02  0.45045682245E+02  0.00000000000E+00 0. -1.
         11    1    3    3    0    0  0.38729678399E+01  0.46940849797E+01 -0.17585870663E+00  0.60881228824E+01  0.51100000000E-03 0. -1.
        -11    1    3    3    0    0  0.11553979479E+02  0.58694154616E+01  0.21970126502E+01  0.13144251387E+02  0.51100000000E-03 0.  1.
        -12    1    3    3    0    0  0.20928290475E+02  0.12227716645E+02  0.11689083019E+02  0.26909943486E+02  0.00000000000E+00 0.  1.
</event>
<event>
 7    1  0.2297343E-008  0.4614232E+02  0.7816164E-02  0.1320468E+00
        -11   -1    0    0    0    0  0.00000000000E+00  0.00000000000E+00  0.45593999997E+02  0.45594000000E+02  0.51100000000E-03 0.  1.
         11   -1    0    0    0    0 -0.00000000000E+00 -0.00000000000E+00 -0.45593999997E+02  0.45594000000E+02  0.51100000000E-03 0. -1.
    9900012    2    1    2    0    0  0.29037202265E+02  0.31838207536E+01  0.34290197602E+02  0.46142317837E+02  0.10000000688E+02 0.  0.
         12    1    1    2    0    0 -0.29037202265E+02 -0.31838207536E+01 -0.34290197602E+02  0.45045682163E+02  0.00000000000E+00 0. -1.
         11    1    3    3    0    0  0.13204101977E+02  0.33808052912E+01  0.17111037082E+02  0.21876145541E+02  0.51100000000E-03 0.  1.
        -11    1    3    3    0    0  0.12542185406E+01  0.13086037130E+01  0.46269317139E+01  0.49693063069E+01  0.51100000000E-03 0. -1.
        -12    1    3    3    0    0  0.14578881747E+02 -0.15055882506E+01  0.12552228806E+02  0.19296865988E+02  0.00000000000E+00 0.  1.
</event>
<event>
 7    1  0.2297343E-008  0.4614232E+02  0.7816164E-02  0.1320468E+00
        -11   -1    0    0    0    0  0.00000000000E+00  0.00000000000E+00  0.45593999997E+02  0.45594000000E+02  0.51100000000E-03 0. -1.
         11   -1    0    0    0    0 -0.00000000000E+00 -0.00000000000E+00 -0.45593999997E+02  0.45594000000E+02  0.51100000000E-03 0.  1.
    9900012    2    1    2    0    0  0.32267552218E+02  0.22157015940E+02 -0.22293165201E+02  0.46142317675E+02  0.99999992123E+01 0.  0.
         12    1    1    2    0    0 -0.32267552218E+02 -0.22157015940E+02  0.22293165201E+02  0.45045682325E+02  0.00000000000E+00 0. -1.
         11    1    3    3    0    0  0.21614629225E+02  0.11700792553E+02 -0.10370261407E+02  0.26676638934E+02  0.51100000000E-03 0. -1.
        -11    1    3    3    0    0  0.49952525852E+00 -0.57532027679E-01  0.13178092671E+00  0.51980947651E+00  0.51100000000E-03 0.  1.
        -12    1    3    3    0    0  0.10153397734E+02  0.10513755414E+02 -0.12054684721E+02  0.18945869264E+02  0.00000000000E+00 0.  1.
</event>
<event>
 7    1  0.2297343E-008  0.4614232E+02  0.7816164E-02  0.1320468E+00
        -11   -1    0    0    0    0  0.00000000000E+00  0.00000000000E+00  0.45593999997E+02  0.45594000000E+02  0.51100000000E-03 0.  1.
         11   -1    0    0    0    0 -0.00000000000E+00 -0.00000000000E+00 -0.45593999997E+02  0.45594000000E+02  0.51100000000E-03 0. -1.
    9900012    2    1    2    0    0 -0.20334278437E+02  0.32450174512E+02  0.23719545627E+02  0.46142317075E+02  0.99999937450E+01 0.  0.
         12    1    1    2    0    0  0.20334278437E+02 -0.32450174512E+02 -0.23719545627E+02  0.45045682925E+02  0.00000000000E+00 0. -1.
         11    1    3    3    0    0 -0.45694528474E+01  0.99854475445E+01  0.10208904444E+02  0.14993691747E+02  0.51100000000E-03 0. -1.
        -11    1    3    3    0    0 -0.15131619172E+02  0.17818159729E+02  0.11216151474E+02  0.25927876293E+02  0.51100000000E-03 0.  1.
         12    1    3    3    0    0 -0.63320641746E+00  0.46465672384E+01  0.22944897084E+01  0.52207490353E+01  0.00000000000E+00 0. -1.
</event>
<event>
 7    1  0.2297343E-008  0.4614232E+02  0.7816164E-02  0.1320468E+00
        -11   -1    0    0    0    0  0.00000000000E+00  0.00000000000E+00  0.45593999997E+02  0.45594000000E+02  0.51100000000E-03 0.  1.
         11   -1    0    0    0    0 -0.00000000000E+00 -0.00000000000E+00 -0.45593999997E+02  0.45594000000E+02  0.51100000000E-03 0. -1.
    9900012    2    1    2    0    0  0.68961090138E+01 -0.12439396490E+01  0.44497301162E+02  0.46142317453E+02  0.99999971920E+01 0.  0.
         12    1    1    2    0    0 -0.68961090138E+01  0.12439396490E+01 -0.44497301162E+02  0.45045682547E+02  0.00000000000E+00 0. -1.
         11    1    3    3    0    0  0.41240863772E+01  0.10632209303E+01  0.17614510745E+02  0.18122072625E+02  0.51100000000E-03 0. -1.
        -11    1    3    3    0    0 -0.32585326156E+00 -0.15592637138E+01  0.22729105358E+02  0.22784857127E+02  0.51100000000E-03 0.  1.
         12    1    3    3    0    0  0.30978758982E+01 -0.74789686544E+00  0.41536850592E+01  0.52353877004E+01  0.00000000000E+00 0. -1.
</event>
<event>
 7    1  0.2297343E-008  0.4614232E+02  0.7816164E-02  0.1320468E+00
        -11   -1    0    0    0    0  0.00000000000E+00  0.00000000000E+00  0.45593999997E+02  0.45594000000E+02  0.51100000000E-03 0.  1.
         11   -1    0    0    0    0 -0.00000000000E+00 -0.00000000000E+00 -0.45593999997E+02  0.45594000000E+02  0.51100000000E-03 0. -1.
    9900012    2    1    2    0    0 -0.13387740891E+02  0.33391080099E+02  0.27109365152E+02  0.46142317462E+02  0.99999972712E+01 0.  0.
         12    1    1    2    0    0  0.13387740891E+02 -0.33391080099E+02 -0.27109365152E+02  0.45045682538E+02  0.00000000000E+00 0. -1.
         11    1    3    3    0    0 -0.17808508354E+01  0.12912182095E+02  0.78297776833E+01  0.15205304831E+02  0.51100000000E-03 0. -1.
        -11    1    3    3    0    0 -0.64507537931E+01  0.97286391062E+01  0.61218238056E+01  0.13180871380E+02  0.51100000000E-03 0.  1.
         12    1    3    3    0    0 -0.51561362629E+01  0.10750258898E+02  0.13157763663E+02  0.17756141251E+02  0.00000000000E+00 0. -1.
</event>
<event>
 7    1  0.2297343E-008  0.4614231E+02  0.7816164E-02  0.1320468E+00
        -11   -1    0    0    0    0  0.00000000000E+00  0.00000000000E+00  0.45593999997E+02  0.45594000000E+02  0.51100000000E-03 0.  1.
         11   -1    0    0    0    0 -0.00000000000E+00 -0.00000000000E+00 -0.45593999997E+02  0.45594000000E+02  0.51100000000E-03 0. -1.
    9900012    2    1    2    0    0 -0.64542424955E+01 -0.34675378439E+02 -0.28019184037E+02  0.46142314411E+02  0.99999694546E+01 0.  0.
         12    1    1    2    0    0  0.64542424955E+01  0.34675378439E+02  0.28019184037E+02  0.45045685589E+02  0.00000000000E+00 0. -1.
         11    1    3    3    0    0 -0.33755620383E+01 -0.25213995397E+02 -0.18969503448E+02  0.31732980387E+02  0.51100000000E-03 0. -1.
        -11    1    3    3    0    0 -0.26814863381E+01 -0.94381514349E+01 -0.96021873706E+01  0.13728476756E+02  0.51100000000E-03 0.  1.
         12    1    3    3    0    0 -0.39719411909E+00 -0.23231606919E-01  0.55250678127E+00  0.68085726783E+00  0.00000000000E+00 0. -1.
</event>
<event>
 7    1  0.2297343E-008  0.4614233E+02  0.7816164E-02  0.1320468E+00
        -11   -1    0    0    0    0  0.00000000000E+00  0.00000000000E+00  0.45593999997E+02  0.45594000000E+02  0.51100000000E-03 0.  1.
         11   -1    0    0    0    0 -0.00000000000E+00 -0.00000000000E+00 -0.45593999997E+02  0.45594000000E+02  0.51100000000E-03 0. -1.
    9900012    2    1    2    0    0  0.15286963434E+01  0.22840426613E+02  0.38795496785E+02  0.46142327942E+02  0.10000092835E+02 0.  0.
         12    1    1    2    0    0 -0.15286963434E+01 -0.22840426613E+02 -0.38795496785E+02  0.45045672058E+02  0.00000000000E+00 0. -1.
         11    1    3    3    0    0 -0.27405356146E+00  0.63956286792E+01  0.59076646265E+01  0.87108939356E+01  0.51100000000E-03 0. -1.
        -11    1    3    3    0    0 -0.10745813188E+01  0.12098687137E+02  0.18523680967E+02  0.22150839990E+02  0.51100000000E-03 0.  1.
         12    1    3    3    0    0  0.28773312236E+01  0.43461107974E+01  0.14364151192E+02  0.15280594016E+02  0.00000000000E+00 0. -1.
</event>
<event>
 7    1  0.2297343E-008  0.4614232E+02  0.7816164E-02  0.1320468E+00
        -11   -1    0    0    0    0  0.00000000000E+00  0.00000000000E+00  0.45593999997E+02  0.45594000000E+02  0.51100000000E-03 0.  1.
         11   -1    0    0    0    0 -0.00000000000E+00 -0.00000000000E+00 -0.45593999997E+02  0.45594000000E+02  0.51100000000E-03 0. -1.
    9900012    2    1    2    0    0  0.90627125271E+01 -0.16157764165E+02  0.41059803524E+02  0.46142316892E+02  0.99999920786E+01 0.  0.
         12    1    1    2    0    0 -0.90627125271E+01  0.16157764165E+02 -0.41059803524E+02  0.45045683108E+02  0.00000000000E+00 0. -1.
         11    1    3    3    0    0  0.12980639566E+01 -0.43302767116E+01  0.11706404439E+02  0.12548951016E+02  0.51100000000E-03 0. -1.
        -11    1    3    3    0    0  0.52919072778E+01 -0.10061750906E+02  0.28088865884E+02  0.30302268906E+02  0.51100000000E-03 0.  1.
         12    1    3    3    0    0  0.24727412927E+01 -0.17657365475E+01  0.12645332012E+01  0.32910969710E+01  0.00000000000E+00 0. -1.
</event>
<event>
 7    1  0.2297343E-008  0.4614232E+02  0.7816164E-02  0.1320468E+00
        -11   -1    0    0    0    0  0.00000000000E+00  0.00000000000E+00  0.45593999997E+02  0.45594000000E+02  0.51100000000E-03 0.  1.
         11   -1    0    0    0    0 -0.00000000000E+00 -0.00000000000E+00 -0.45593999997E+02  0.45594000000E+02  0.51100000000E-03 0. -1.
    9900012    2    1    2    0    0 -0.19025074687E+02  0.34331952705E+02  0.22101517048E+02  0.46142317641E+02  0.99999989006E+01 0.  0.
         12    1    1    2    0    0  0.19025074687E+02 -0.34331952705E+02 -0.22101517048E+02  0.45045682359E+02  0.00000000000E+00 0. -1.
         11    1    3    3    0    0 -0.45706217520E+01  0.57385677734E+01  0.60115033647E+01  0.94847201463E+01  0.51100000000E-03 0. -1.
        -11    1    3    3    0    0 -0.91550743185E+01  0.20339789620E+02  0.14790561922E+02  0.26763466700E+02  0.51100000000E-03 0.  1.
         12    1    3    3    0    0 -0.52993786169E+01  0.82535953120E+01  0.12994517612E+01  0.98941307945E+01  0.00000000000E+00 0. -1.
</event>
<event>
 7    1  0.2297343E-008  0.4614232E+02  0.7816164E-02  0.1320468E+00
        -11   -1    0    0    0    0  0.00000000000E+00  0.00000000000E+00  0.45593999997E+02  0.45594000000E+02  0.51100000000E-03 0.  1.
         11   -1    0    0    0    0 -0.00000000000E+00 -0.00000000000E+00 -0.45593999997E+02  0.45594000000E+02  0.51100000000E-03 0. -1.
    9900012    2    1    2    0    0  0.14253876304E+02 -0.26512238482E+02  0.33511814269E+02  0.46142317913E+02  0.10000001388E+02 0.  0.
         12    1    1    2    0    0 -0.14253876304E+02  0.26512238482E+02 -0.33511814269E+02  0.45045682087E+02  0.00000000000E+00 0. -1.
         11    1    3    3    0    0  0.34248376547E+01 -0.33898976712E+01  0.67149089462E+01  0.82650421414E+01  0.51100000000E-03 0.  1.
        -11    1    3    3    0    0  0.32556442600E+01 -0.12049247523E+02  0.81519591292E+01  0.14907649825E+02  0.51100000000E-03 0. -1.
         12    1    3    3    0    0  0.75733943896E+01 -0.11073093288E+02  0.18644946194E+02  0.22969625947E+02  0.00000000000E+00 0. -1.
</event>
<event>
 7    1  0.2297343E-008  0.4614232E+02  0.7816164E-02  0.1320468E+00
        -11   -1    0    0    0    0  0.00000000000E+00  0.00000000000E+00  0.45593999997E+02  0.45594000000E+02  0.51100000000E-03 0.  1.
         11   -1    0    0    0    0 -0.00000000000E+00 -0.00000000000E+00 -0.45593999997E+02  0.45594000000E+02  0.51100000000E-03 0. -1.
    9900012    2    1    2    0    0  0.28657143427E+02 -0.13054649662E+02  0.32209590763E+02  0.46142317806E+02  0.10000000409E+02 0.  0.
         12    1    1    2    0    0 -0.28657143427E+02  0.13054649662E+02 -0.32209590763E+02  0.45045682194E+02  0.00000000000E+00 0. -1.
         11    1    3    3    0    0  0.12651204265E+02 -0.14757714851E+01  0.14817282029E+02  0.19539260933E+02  0.51100000000E-03 0. -1.
        -11    1    3    3    0    0  0.25338178962E+00 -0.75712177803E+00  0.16864422408E+01  0.18658840829E+01  0.51100000000E-03 0.  1.
        -12    1    3    3    0    0  0.15752557373E+02 -0.10821756398E+02  0.15705866493E+02  0.24737172790E+02  0.00000000000E+00 0.  1.
</event>
<event>
 7    1  0.2297343E-008  0.4614232E+02  0.7816164E-02  0.1320468E+00
        -11   -1    0    0    0    0  0.00000000000E+00  0.00000000000E+00  0.45593999997E+02  0.45594000000E+02  0.51100000000E-03 0.  1.
         11   -1    0    0    0    0 -0.00000000000E+00 -0.00000000000E+00 -0.45593999997E+02  0.45594000000E+02  0.51100000000E-03 0. -1.
    9900012    2    1    2    0    0 -0.12801738866E+02 -0.22865982425E+02  0.36638447703E+02  0.46142317406E+02  0.99999967614E+01 0.  0.
         12    1    1    2    0    0  0.12801738866E+02  0.22865982425E+02 -0.36638447703E+02  0.45045682594E+02  0.00000000000E+00 0. -1.
         11    1    3    3    0    0 -0.47552383039E+01 -0.31332511706E+01  0.10698351179E+02  0.12119582189E+02  0.51100000000E-03 0. -1.
        -11    1    3    3    0    0 -0.50391134014E+01 -0.78754835456E+01  0.14631815553E+02  0.17363926157E+02  0.51100000000E-03 0.  1.
         12    1    3    3    0    0 -0.30073871608E+01 -0.11857247709E+02  0.11308280970E+02  0.16658809059E+02  0.00000000000E+00 0. -1.
</event>
<event>
 7    1  0.2297343E-008  0.4614232E+02  0.7816164E-02  0.1320468E+00
        -11   -1    0    0    0    0  0.00000000000E+00  0.00000000000E+00  0.45593999997E+02  0.45594000000E+02  0.51100000000E-03 0. -1.
         11   -1    0    0    0    0 -0.00000000000E+00 -0.00000000000E+00 -0.45593999997E+02  0.45594000000E+02  0.51100000000E-03 0.  1.
    9900012    2    1    2    0    0 -0.89232934332E+01 -0.17851751877E+02 -0.40383205656E+02  0.46142317523E+02  0.99999978271E+01 0.  0.
         12    1    1    2    0    0  0.89232934332E+01  0.17851751877E+02  0.40383205656E+02  0.45045682477E+02  0.00000000000E+00 0. -1.
         11    1    3    3    0    0 -0.24384512291E+01 -0.43840516953E+01 -0.15762463320E+02  0.16541499444E+02  0.51100000000E-03 0. -1.
        -11    1    3    3    0    0 -0.74769676215E+01 -0.94126209984E+01 -0.20303852645E+02  0.23595527359E+02  0.51100000000E-03 0.  1.
         12    1    3    3    0    0  0.99212541739E+00 -0.40550791832E+01 -0.43168896910E+01  0.60052907199E+01  0.00000000000E+00 0. -1.
</event>
<event>
 7    1  0.2297343E-008  0.4614232E+02  0.7816164E-02  0.1320468E+00
        -11   -1    0    0    0    0  0.00000000000E+00  0.00000000000E+00  0.45593999997E+02  0.45594000000E+02  0.51100000000E-03 0. -1.
         11   -1    0    0    0    0 -0.00000000000E+00 -0.00000000000E+00 -0.45593999997E+02  0.45594000000E+02  0.51100000000E-03 0.  1.
    9900012    2    1    2    0    0  0.61361338298E+01 -0.29051826762E+02 -0.33874071303E+02  0.46142317819E+02  0.10000000525E+02 0.  0.
         12    1    1    2    0    0 -0.61361338298E+01  0.29051826762E+02  0.33874071303E+02  0.45045682181E+02  0.00000000000E+00 0. -1.
         11    1    3    3    0    0 -0.45213318598E+00 -0.14246775457E+01 -0.34712609388E+01  0.37793892752E+01  0.51100000000E-03 0. -1.
        -11    1    3    3    0    0  0.87961297958E+00 -0.16889708818E+02 -0.21160042119E+02  0.27088436014E+02  0.51100000000E-03 0.  1.
         12    1    3    3    0    0  0.57086540362E+01 -0.10737440398E+02 -0.92427682452E+01  0.15274492530E+02  0.00000000000E+00 0. -1.
</event>
<event>
 7    1  0.2297343E-008  0.4614232E+02  0.7816164E-02  0.1320468E+00
        -11   -1    0    0    0    0  0.00000000000E+00  0.00000000000E+00  0.45593999997E+02  0.45594000000E+02  0.51100000000E-03 0. -1.
         11   -1    0    0    0    0 -0.00000000000E+00 -0.00000000000E+00 -0.45593999997E+02  0.45594000000E+02  0.51100000000E-03 0.  1.
    9900012    2    1    2    0    0  0.33606802970E+02 -0.21894896465E+02  0.20501457616E+02  0.46142318060E+02  0.10000002721E+02 0.  0.
         12    1    1    2    0    0 -0.33606802970E+02  0.21894896465E+02 -0.20501457616E+02  0.45045681940E+02  0.00000000000E+00 0. -1.
         11    1    3    3    0    0  0.86951321367E+01 -0.83210312986E+01  0.89068268035E+01  0.14972523125E+02  0.51100000000E-03 0. -1.
        -11    1    3    3    0    0  0.14892337268E+02 -0.11013570299E+02  0.63984462506E+01  0.19596442399E+02  0.51100000000E-03 0.  1.
         12    1    3    3    0    0  0.10019333566E+02 -0.25602948673E+01  0.51961845621E+01  0.11573352535E+02  0.00000000000E+00 0. -1.
</event>
<event>
 7    1  0.2297343E-008  0.4614232E+02  0.7816164E-02  0.1320468E+00
        -11   -1    0    0    0    0  0.00000000000E+00  0.00000000000E+00  0.45593999997E+02  0.45594000000E+02  0.51100000000E-03 0.  1.
         11   -1    0    0    0    0 -0.00000000000E+00 -0.00000000000E+00 -0.45593999997E+02  0.45594000000E+02  0.51100000000E-03 0. -1.
    9900012    2    1    2    0    0  0.41038582550E+02  0.10426121184E+02 -0.15370237330E+02  0.46142318118E+02  0.10000003254E+02 0.  0.
         12    1    1    2    0    0 -0.41038582550E+02 -0.10426121184E+02  0.15370237330E+02  0.45045681882E+02  0.00000000000E+00 0. -1.
         11    1    3    3    0    0  0.27147100579E+02  0.24855420764E+01 -0.11401210011E+02  0.29548783042E+02  0.51100000000E-03 0. -1.
        -11    1    3    3    0    0  0.70561729813E+01  0.30441366966E+01 -0.22971524111E+01  0.80208013834E+01  0.51100000000E-03 0.  1.
         12    1    3    3    0    0  0.68353089895E+01  0.48964424109E+01 -0.16718749076E+01  0.85727336930E+01  0.00000000000E+00 0. -1.
</event>
<event>
 7    1  0.2297343E-008  0.4614232E+02  0.7816164E-02  0.1320468E+00
        -11   -1    0    0    0    0  0.00000000000E+00  0.00000000000E+00  0.45593999997E+02  0.45594000000E+02  0.51100000000E-03 0. -1.
         11   -1    0    0    0    0 -0.00000000000E+00 -0.00000000000E+00 -0.45593999997E+02  0.45594000000E+02  0.51100000000E-03 0.  1.
    9900012    2    1    2    0    0  0.14477243870E+02  0.41087229919E+02 -0.11461348937E+02  0.46142316834E+02  0.99999915438E+01 0.  0.
         12    1    1    2    0    0 -0.14477243870E+02 -0.41087229919E+02  0.11461348937E+02  0.45045683166E+02  0.00000000000E+00 0. -1.
         11    1    3    3    0    0 -0.41416430861E+00  0.53184439469E+00  0.46920635326E+00  0.82130712754E+00  0.51100000000E-03 0. -1.
        -11    1    3    3    0    0  0.11809521179E+02  0.37354424276E+02 -0.11633982765E+02  0.40867681102E+02  0.51100000000E-03 0.  1.
        -12    1    3    3    0    0  0.30818869996E+01  0.32009612482E+01 -0.29657252504E+00  0.44533286038E+01  0.00000000000E+00 0.  1.
</event>
<event>
 7    1  0.2297343E-008  0.4614232E+02  0.7816164E-02  0.1320468E+00
        -11   -1    0    0    0    0  0.00000000000E+00  0.00000000000E+00  0.45593999997E+02  0.45594000000E+02  0.51100000000E-03 0. -1.
         11   -1    0    0    0    0 -0.00000000000E+00 -0.00000000000E+00 -0.45593999997E+02  0.45594000000E+02  0.51100000000E-03 0.  1.
    9900012    2    1    2    0    0 -0.41959568597E+02  0.15389487955E+02  0.56277612622E+01  0.46142318374E+02  0.10000005587E+02 0.  0.
         12    1    1    2    0    0  0.41959568597E+02 -0.15389487955E+02 -0.56277612622E+01  0.45045681626E+02  0.00000000000E+00 0. -1.
         11    1    3    3    0    0 -0.44646954180E+01  0.40716411201E+01  0.18822240127E+01  0.63288651496E+01  0.51100000000E-03 0. -1.
        -11    1    3    3    0    0 -0.37709067937E+02  0.11350819951E+02  0.35839709251E+01  0.39543138041E+02  0.51100000000E-03 0.  1.
        -12    1    3    3    0    0  0.21419475878E+00 -0.32973115978E-01  0.16156632437E+00  0.27031518315E+00  0.00000000000E+00 0.  1.
</event>
<event>
 7    1  0.2297343E-008  0.4614232E+02  0.7816164E-02  0.1320468E+00
        -11   -1    0    0    0    0  0.00000000000E+00  0.00000000000E+00  0.45593999997E+02  0.45594000000E+02  0.51100000000E-03 0.  1.
         11   -1    0    0    0    0 -0.00000000000E+00 -0.00000000000E+00 -0.45593999997E+02  0.45594000000E+02  0.51100000000E-03 0. -1.
    9900012    2    1    2    0    0  0.84542189646E+00 -0.10228862466E+02  0.43860792828E+02  0.46142317487E+02  0.99999975006E+01 0.  0.
         12    1    1    2    0    0 -0.84542189646E+00  0.10228862466E+02 -0.43860792828E+02  0.45045682513E+02  0.00000000000E+00 0. -1.
         11    1    3    3    0    0  0.16889757059E+01 -0.13440548181E+01  0.11341428562E+02  0.11545004304E+02  0.51100000000E-03 0. -1.
        -11    1    3    3    0    0  0.10616365928E+01 -0.75836440168E+01  0.14199224181E+02  0.16132473351E+02  0.51100000000E-03 0.  1.
        -12    1    3    3    0    0 -0.19051904022E+01 -0.13011636308E+01  0.18320140086E+02  0.18464839832E+02  0.00000000000E+00 0.  1.
</event>
<event>
 7    1  0.2297343E-008  0.4614232E+02  0.7816164E-02  0.1320468E+00
        -11   -1    0    0    0    0  0.00000000000E+00  0.00000000000E+00  0.45593999997E+02  0.45594000000E+02  0.51100000000E-03 0. -1.
         11   -1    0    0    0    0 -0.00000000000E+00 -0.00000000000E+00 -0.45593999997E+02  0.45594000000E+02  0.51100000000E-03 0.  1.
    9900012    2    1    2    0    0  0.11571591968E+02  0.40748917159E+02  0.15321145002E+02  0.46142317915E+02  0.10000001404E+02 0.  0.
         12    1    1    2    0    0 -0.11571591968E+02 -0.40748917159E+02 -0.15321145002E+02  0.45045682085E+02  0.00000000000E+00 0. -1.
         11    1    3    3    0    0  0.76157243012E+01  0.19075338085E+02  0.56148197887E+01  0.21293050068E+02  0.51100000000E-03 0. -1.
        -11    1    3    3    0    0  0.55956533829E+01  0.18046545511E+02  0.80810858878E+01  0.20549771071E+02  0.51100000000E-03 0.  1.
         12    1    3    3    0    0 -0.16397857161E+01  0.36270335634E+01  0.16252393255E+01  0.42994967764E+01  0.00000000000E+00 0. -1.
</event>
<event>
 7    1  0.2297343E-008  0.4614232E+02  0.7816164E-02  0.1320468E+00
        -11   -1    0    0    0    0  0.00000000000E+00  0.00000000000E+00  0.45593999997E+02  0.45594000000E+02  0.51100000000E-03 0.  1.
         11   -1    0    0    0    0 -0.00000000000E+00 -0.00000000000E+00 -0.45593999997E+02  0.45594000000E+02  0.51100000000E-03 0. -1.
    9900012    2    1    2    0    0 -0.36752396087E+02 -0.82408783560E+01  0.24707545582E+02  0.46142317600E+02  0.99999985270E+01 0.  0.
         12    1    1    2    0    0  0.36752396087E+02  0.82408783560E+01 -0.24707545582E+02  0.45045682400E+02  0.00000000000E+00 0. -1.
         11    1    3    3    0    0 -0.21934259077E+01 -0.89080068783E+00  0.33312809046E+01  0.40868173197E+01  0.51100000000E-03 0. -1.
        -11    1    3    3    0    0 -0.19761261382E+02 -0.12636220604E+01  0.14955572006E+02  0.24814780402E+02  0.51100000000E-03 0.  1.
        -12    1    3    3    0    0 -0.14797708798E+02 -0.60864556079E+01  0.64206926718E+01  0.17240719878E+02  0.00000000000E+00 0.  1.
</event>
<event>
 7    1  0.2297343E-008  0.4614232E+02  0.7816164E-02  0.1320468E+00
        -11   -1    0    0    0    0  0.00000000000E+00  0.00000000000E+00  0.45593999997E+02  0.45594000000E+02  0.51100000000E-03 0. -1.
         11   -1    0    0    0    0 -0.00000000000E+00 -0.00000000000E+00 -0.45593999997E+02  0.45594000000E+02  0.51100000000E-03 0.  1.
    9900012    2    1    2    0    0 -0.42093972758E+02 -0.61111253927E+01 -0.14827848559E+02  0.46142317754E+02  0.99999999381E+01 0.  0.
         12    1    1    2    0    0  0.42093972758E+02  0.61111253927E+01  0.14827848559E+02  0.45045682246E+02  0.00000000000E+00 0. -1.
         11    1    3    3    0    0 -0.10616031669E+02 -0.12182082369E+01 -0.68586638401E+00  0.10707687550E+02  0.51100000000E-03 0. -1.
        -11    1    3    3    0    0 -0.10545753101E+02 -0.19711486944E+00 -0.76218240327E+01  0.13013222682E+02  0.51100000000E-03 0.  1.
        -12    1    3    3    0    0 -0.20932187987E+02 -0.46958022864E+01 -0.65201581426E+01  0.22421407522E+02  0.00000000000E+00 0.  1.
</event>
<event>
 7    1  0.2297343E-008  0.4614232E+02  0.7816164E-02  0.1320468E+00
        -11   -1    0    0    0    0  0.00000000000E+00  0.00000000000E+00  0.45593999997E+02  0.45594000000E+02  0.51100000000E-03 0.  1.
         11   -1    0    0    0    0 -0.00000000000E+00 -0.00000000000E+00 -0.45593999997E+02  0.45594000000E+02  0.51100000000E-03 0. -1.
    9900012    2    1    2    0    0  0.15034463973E+02  0.19266200223E+02  0.37840347840E+02  0.46142317603E+02  0.99999985563E+01 0.  0.
         12    1    1    2    0    0 -0.15034463973E+02 -0.19266200223E+02 -0.37840347840E+02  0.45045682397E+02  0.00000000000E+00 0. -1.
         11    1    3    3    0    0 -0.11545587856E+01  0.10368997754E+01  0.34605791892E+01  0.37925948531E+01  0.51100000000E-03 0. -1.
        -11    1    3    3    0    0  0.55606262321E+01  0.50731401791E+01  0.13728627537E+02  0.15656708775E+02  0.51100000000E-03 0.  1.
         12    1    3    3    0    0  0.10628396526E+02  0.13156160269E+02  0.20651141114E+02  0.26693013975E+02  0.00000000000E+00 0. -1.
</event>
<event>
 7    1  0.2297343E-008  0.4614232E+02  0.7816164E-02  0.1320468E+00
        -11   -1    0    0    0    0  0.00000000000E+00  0.00000000000E+00  0.45593999997E+02  0.45594000000E+02  0.51100000000E-03 0. -1.
         11   -1    0    0    0    0 -0.00000000000E+00 -0.00000000000E+00 -0.45593999997E+02  0.45594000000E+02  0.51100000000E-03 0.  1.
    9900012    2    1    2    0    0 -0.19602744725E+01  0.11765470507E+02 -0.43437824480E+02  0.46142316879E+02  0.99999919598E+01 0.  0.
         12    1    1    2    0    0  0.19602744725E+01 -0.11765470507E+02  0.43437824480E+02  0.45045683121E+02  0.00000000000E+00 0. -1.
         11    1    3    3    0    0  0.28685306900E+00  0.37178884930E+01 -0.26153124902E+02  0.26417625213E+02  0.51100000000E-03 0.  1.
        -11    1    3    3    0    0 -0.18657883815E+01  0.86174276229E+01 -0.16039237357E+02  0.18302960427E+02  0.51100000000E-03 0. -1.
        -12    1    3    3    0    0 -0.38133915996E+00 -0.56984560891E+00 -0.12454622212E+01  0.14217312395E+01  0.00000000000E+00 0.  1.
</event>
<event>
 7    1  0.2297343E-008  0.4614232E+02  0.7816164E-02  0.1320468E+00
        -11   -1    0    0    0    0  0.00000000000E+00  0.00000000000E+00  0.45593999997E+02  0.45594000000E+02  0.51100000000E-03 0.  1.
         11   -1    0    0    0    0 -0.00000000000E+00 -0.00000000000E+00 -0.45593999997E+02  0.45594000000E+02  0.51100000000E-03 0. -1.
    9900012    2    1    2    0    0  0.27434791849E+02 -0.32548382291E+02  0.14732566366E+02  0.46142317573E+02  0.99999982875E+01 0.  0.
         12    1    1    2    0    0 -0.27434791849E+02  0.32548382291E+02 -0.14732566366E+02  0.45045682427E+02  0.00000000000E+00 0. -1.
         11    1    3    3    0    0  0.20056938544E+02 -0.18588101787E+02  0.11291735173E+02  0.29585496367E+02  0.51100000000E-03 0. -1.
        -11    1    3    3    0    0  0.69016224488E+01 -0.12318092922E+02  0.41329464367E+01  0.14712207590E+02  0.51100000000E-03 0.  1.
        -12    1    3    3    0    0  0.47623085621E+00 -0.16421875818E+01 -0.69211524381E+00  0.18446136161E+01  0.00000000000E+00 0.  1.
</event>
<event>
 7    1  0.2297343E-008  0.4614232E+02  0.7816164E-02  0.1320468E+00
        -11   -1    0    0    0    0  0.00000000000E+00  0.00000000000E+00  0.45593999997E+02  0.45594000000E+02  0.51100000000E-03 0.  1.
         11   -1    0    0    0    0 -0.00000000000E+00 -0.00000000000E+00 -0.45593999997E+02  0.45594000000E+02  0.51100000000E-03 0. -1.
    9900012    2    1    2    0    0  0.36579572856E+02  0.19798526649E+02  0.17293542974E+02  0.46142318338E+02  0.10000005259E+02 0.  0.
         12    1    1    2    0    0 -0.36579572856E+02 -0.19798526649E+02 -0.17293542974E+02  0.45045681662E+02  0.00000000000E+00 0. -1.
         11    1    3    3    0    0  0.14069617404E+01 -0.14202893339E+00  0.21875637042E+01  0.26048318137E+01  0.51100000000E-03 0. -1.
        -11    1    3    3    0    0  0.22320202689E+02  0.13101972118E+02  0.67331932172E+01  0.26743018017E+02  0.51100000000E-03 0.  1.
        -12    1    3    3    0    0  0.12852408426E+02  0.68385834645E+01  0.83727860530E+01  0.16794468507E+02  0.00000000000E+00 0.  1.
</event>
<event>
 7    1  0.2297343E-008  0.4614232E+02  0.7816164E-02  0.1320468E+00
        -11   -1    0    0    0    0  0.00000000000E+00  0.00000000000E+00  0.45593999997E+02  0.45594000000E+02  0.51100000000E-03 0.  1.
         11   -1    0    0    0    0 -0.00000000000E+00 -0.00000000000E+00 -0.45593999997E+02  0.45594000000E+02  0.51100000000E-03 0. -1.
    9900012    2    1    2    0    0 -0.40947131930E+02 -0.18212184831E+02  0.45565439639E+01  0.46142318936E+02  0.10000010715E+02 0.  0.
         12    1    1    2    0    0  0.40947131930E+02  0.18212184831E+02 -0.45565439639E+01  0.45045681064E+02  0.00000000000E+00 0. -1.
         11    1    3    3    0    0 -0.51967345241E+01 -0.37462781619E+01 -0.12489224503E+01  0.65269025830E+01  0.51100000000E-03 0. -1.
        -11    1    3    3    0    0 -0.18364971246E-01 -0.56935125304E+00 -0.50392028877E+00  0.76054851263E+00  0.51100000000E-03 0.  1.
        -12    1    3    3    0    0 -0.35732032435E+02 -0.13896555416E+02  0.63093867030E+01  0.38854867841E+02  0.00000000000E+00 0.  1.
</event>
<event>
 7    1  0.2297343E-008  0.4614231E+02  0.7816164E-02  0.1320468E+00
        -11   -1    0    0    0    0  0.00000000000E+00  0.00000000000E+00  0.45593999997E+02  0.45594000000E+02  0.51100000000E-03 0.  1.
         11   -1    0    0    0    0 -0.00000000000E+00 -0.00000000000E+00 -0.45593999997E+02  0.45594000000E+02  0.51100000000E-03 0. -1.
    9900012    2    1    2    0    0 -0.19486141474E+02 -0.24258503451E+02  0.32571908114E+02  0.46142313221E+02  0.99999585961E+01 0.  0.
         12    1    1    2    0    0  0.19486141474E+02  0.24258503451E+02 -0.32571908114E+02  0.45045686779E+02  0.00000000000E+00 0. -1.
         11    1    3    3    0    0 -0.84249552229E+01 -0.12742116716E+02  0.13099069581E+02  0.20122798838E+02  0.51100000000E-03 0. -1.
        -11    1    3    3    0    0 -0.11470386359E+02 -0.94898985624E+01  0.18467034209E+02  0.23720440356E+02  0.51100000000E-03 0.  1.
         12    1    3    3    0    0  0.40920010786E+00 -0.20264881726E+01  0.10058043237E+01  0.22990740265E+01  0.00000000000E+00 0. -1.
</event>
<event>
 7    1  0.2297343E-008  0.4614232E+02  0.7816164E-02  0.1320468E+00
        -11   -1    0    0    0    0  0.00000000000E+00  0.00000000000E+00  0.45593999997E+02  0.45594000000E+02  0.51100000000E-03 0.  1.
         11   -1    0    0    0    0 -0.00000000000E+00 -0.00000000000E+00 -0.45593999997E+02  0.45594000000E+02  0.51100000000E-03 0. -1.
    9900012    2    1    2    0    0 -0.25995360694E+02 -0.33463007975E+02  0.15283385398E+02  0.46142317081E+02  0.99999938027E+01 0.  0.
         12    1    1    2    0    0  0.25995360694E+02  0.33463007975E+02 -0.15283385398E+02  0.45045682919E+02  0.00000000000E+00 0. -1.
         11    1    3    3    0    0 -0.45974585759E+00  0.15120192245E+00  0.43156778115E+00  0.64844374140E+00  0.51100000000E-03 0. -1.
        -11    1    3    3    0    0 -0.19462280155E+02 -0.21239575073E+02  0.12927186088E+02  0.31575497439E+02  0.51100000000E-03 0.  1.
        -12    1    3    3    0    0 -0.60733346815E+01 -0.12374634825E+02  0.19246315287E+01  0.13918375901E+02  0.00000000000E+00 0.  1.
</event>
<event>
 7    1  0.2297343E-008  0.4614232E+02  0.7816164E-02  0.1320468E+00
        -11   -1    0    0    0    0  0.00000000000E+00  0.00000000000E+00  0.45593999997E+02  0.45594000000E+02  0.51100000000E-03 0. -1.
         11   -1    0    0    0    0 -0.00000000000E+00 -0.00000000000E+00 -0.45593999997E+02  0.45594000000E+02  0.51100000000E-03 0.  1.
    9900012    2    1    2    0    0  0.19612426028E+02  0.10246416617E+02 -0.39236171668E+02  0.46142317905E+02  0.10000001313E+02 0.  0.
         12    1    1    2    0    0 -0.19612426028E+02 -0.10246416617E+02  0.39236171668E+02  0.45045682095E+02  0.00000000000E+00 0. -1.
         11    1    3    3    0    0  0.90137169866E+01  0.49471682378E+01 -0.13995405333E+02  0.17366431360E+02  0.51100000000E-03 0. -1.
        -11    1    3    3    0    0  0.11543214596E+02  0.53045115415E+01 -0.22044112174E+02  0.25442612439E+02  0.51100000000E-03 0.  1.
        -12    1    3    3    0    0 -0.94450555386E+00 -0.52631623579E-02 -0.31966541610E+01  0.33332741062E+01  0.00000000000E+00 0.  1.
</event>
<event>
 7    1  0.2297343E-008  0.4614232E+02  0.7816164E-02  0.1320468E+00
        -11   -1    0    0    0    0  0.00000000000E+00  0.00000000000E+00  0.45593999997E+02  0.45594000000E+02  0.51100000000E-03 0.  1.
         11   -1    0    0    0    0 -0.00000000000E+00 -0.00000000000E+00 -0.45593999997E+02  0.45594000000E+02  0.51100000000E-03 0. -1.
    9900012    2    1    2    0    0 -0.18696346650E+02  0.30833173926E+02  0.26997696785E+02  0.46142316255E+02  0.99999862618E+01 0.  0.
         12    1    1    2    0    0  0.18696346650E+02 -0.30833173926E+02 -0.26997696785E+02  0.45045683745E+02  0.00000000000E+00 0. -1.
         11    1    3    3    0    0 -0.88045580669E+00  0.94652869103E+01  0.61282838130E+01  0.11310292723E+02  0.51100000000E-03 0. -1.
        -11    1    3    3    0    0 -0.74627305818E+01  0.10448574069E+02  0.97344588493E+01  0.16112874888E+02  0.51100000000E-03 0.  1.
        -12    1    3    3    0    0 -0.10353160261E+02  0.10919312947E+02  0.11134954123E+02  0.18719148644E+02  0.00000000000E+00 0.  1.
</event>
<event>
 7    1  0.2297343E-008  0.4614232E+02  0.7816164E-02  0.1320468E+00
        -11   -1    0    0    0    0  0.00000000000E+00  0.00000000000E+00  0.45593999997E+02  0.45594000000E+02  0.51100000000E-03 0.  1.
         11   -1    0    0    0    0 -0.00000000000E+00 -0.00000000000E+00 -0.45593999997E+02  0.45594000000E+02  0.51100000000E-03 0. -1.
    9900012    2    1    2    0    0 -0.40606753413E+02 -0.19130693584E+02 -0.37711741917E+01  0.46142316361E+02  0.99999872297E+01 0.  0.
         12    1    1    2    0    0  0.40606753413E+02  0.19130693584E+02  0.37711741917E+01  0.45045683639E+02  0.00000000000E+00 0. -1.
         11    1    3    3    0    0 -0.15329123697E+02 -0.72996918658E+01 -0.37384124989E+01  0.17385144892E+02  0.51100000000E-03 0. -1.
        -11    1    3    3    0    0 -0.36405187943E+01  0.33830165763E+00  0.13417664993E+01  0.38946325505E+01  0.51100000000E-03 0.  1.
         12    1    3    3    0    0 -0.21637110922E+02 -0.12169303376E+02 -0.13745281921E+01  0.24862538918E+02  0.00000000000E+00 0. -1.
</event>
<event>
 7    1  0.2297343E-008  0.4614232E+02  0.7816164E-02  0.1320468E+00
        -11   -1    0    0    0    0  0.00000000000E+00  0.00000000000E+00  0.45593999997E+02  0.45594000000E+02  0.51100000000E-03 0. -1.
         11   -1    0    0    0    0 -0.00000000000E+00 -0.00000000000E+00 -0.45593999997E+02  0.45594000000E+02  0.51100000000E-03 0.  1.
    9900012    2    1    2    0    0 -0.36803219832E+02  0.11650628582E+02 -0.23214205581E+02  0.46142317886E+02  0.10000001139E+02 0.  0.
         12    1    1    2    0    0  0.36803219832E+02 -0.11650628582E+02  0.23214205581E+02  0.45045682114E+02  0.00000000000E+00 0. -1.
         11    1    3    3    0    0 -0.15008790853E+01 -0.19745766725E+00  0.14752555264E+00  0.15209837635E+01  0.51100000000E-03 0. -1.
        -11    1    3    3    0    0 -0.25770106512E+02  0.51523985868E+01 -0.17566433256E+02  0.31610523223E+02  0.51100000000E-03 0.  1.
        -12    1    3    3    0    0 -0.95322342352E+01  0.66956876620E+01 -0.57952978780E+01  0.13010810900E+02  0.00000000000E+00 0.  1.
</event>
<event>
 7    1  0.2297343E-008  0.4614232E+02  0.7816164E-02  0.1320468E+00
        -11   -1    0    0    0    0  0.00000000000E+00  0.00000000000E+00  0.45593999997E+02  0.45594000000E+02  0.51100000000E-03 0.  1.
         11   -1    0    0    0    0 -0.00000000000E+00 -0.00000000000E+00 -0.45593999997E+02  0.45594000000E+02  0.51100000000E-03 0. -1.
    9900012    2    1    2    0    0 -0.10259964823E+02 -0.42496268126E+02  0.10858811247E+02  0.46142318026E+02  0.10000002416E+02 0.  0.
         12    1    1    2    0    0  0.10259964823E+02  0.42496268126E+02 -0.10858811247E+02  0.45045681974E+02  0.00000000000E+00 0. -1.
         11    1    3    3    0    0 -0.16912867339E+01 -0.10393692217E+02  0.58605875025E+00  0.10546693977E+02  0.51100000000E-03 0. -1.
        -11    1    3    3    0    0 -0.77733829883E+01 -0.30891892780E+02  0.79068918487E+01  0.32821539598E+02  0.51100000000E-03 0.  1.
         12    1    3    3    0    0 -0.79529510116E+00 -0.12106831286E+01  0.23658606482E+01  0.27740844513E+01  0.00000000000E+00 0. -1.
</event>
<event>
 7    1  0.2297343E-008  0.4614232E+02  0.7816164E-02  0.1320468E+00
        -11   -1    0    0    0    0  0.00000000000E+00  0.00000000000E+00  0.45593999997E+02  0.45594000000E+02  0.51100000000E-03 0. -1.
         11   -1    0    0    0    0 -0.00000000000E+00 -0.00000000000E+00 -0.45593999997E+02  0.45594000000E+02  0.51100000000E-03 0.  1.
    9900012    2    1    2    0    0  0.44104138323E+02  0.81882317354E+01 -0.41099006051E+01  0.46142318307E+02  0.10000004982E+02 0.  0.
         12    1    1    2    0    0 -0.44104138323E+02 -0.81882317354E+01  0.41099006051E+01  0.45045681693E+02  0.00000000000E+00 0. -1.
         11    1    3    3    0    0  0.21958975719E+02  0.38004042160E+01  0.98934733482E+00  0.22307364148E+02  0.51100000000E-03 0. -1.
        -11    1    3    3    0    0  0.10522823408E+02  0.30091541990E+01  0.29331858102E+00  0.10948555043E+02  0.51100000000E-03 0.  1.
         12    1    3    3    0    0  0.11622339196E+02  0.13786733203E+01 -0.53925665210E+01  0.12886399117E+02  0.00000000000E+00 0. -1.
</event>
<event>
 7    1  0.2297343E-008  0.4614231E+02  0.7816164E-02  0.1320468E+00
        -11   -1    0    0    0    0  0.00000000000E+00  0.00000000000E+00  0.45593999997E+02  0.45594000000E+02  0.51100000000E-03 0.  1.
         11   -1    0    0    0    0 -0.00000000000E+00 -0.00000000000E+00 -0.45593999997E+02  0.45594000000E+02  0.51100000000E-03 0. -1.
    9900012    2    1    2    0    0 -0.14700223492E+02 -0.46299063103E-01  0.42579515951E+02  0.46142313271E+02  0.99999590511E+01 0.  0.
         12    1    1    2    0    0  0.14700223492E+02  0.46299063103E-01 -0.42579515951E+02  0.45045686729E+02  0.00000000000E+00 0. -1.
         11    1    3    3    0    0 -0.12245011386E+02  0.98285945873E+00  0.32893234642E+02  0.35112265692E+02  0.51100000000E-03 0.  1.
        -11    1    3    3    0    0 -0.14172585065E+01  0.32536925086E+00  0.29342960738E+00  0.14834379054E+01  0.51100000000E-03 0. -1.
         12    1    3    3    0    0 -0.10379535995E+01 -0.13545277727E+01  0.93928517018E+01  0.95466096733E+01  0.00000000000E+00 0. -1.
</event>
<event>
 7    1  0.2297343E-008  0.4614232E+02  0.7816164E-02  0.1320468E+00
        -11   -1    0    0    0    0  0.00000000000E+00  0.00000000000E+00  0.45593999997E+02  0.45594000000E+02  0.51100000000E-03 0.  1.
         11   -1    0    0    0    0 -0.00000000000E+00 -0.00000000000E+00 -0.45593999997E+02  0.45594000000E+02  0.51100000000E-03 0. -1.
    9900012    2    1    2    0    0 -0.31069840064E+02  0.26356538340E+02  0.19212271587E+02  0.46142318139E+02  0.10000003441E+02 0.  0.
         12    1    1    2    0    0  0.31069840064E+02 -0.26356538340E+02 -0.19212271587E+02  0.45045681861E+02  0.00000000000E+00 0. -1.
         11    1    3    3    0    0 -0.74043196072E+01  0.74167199111E+01  0.69259533251E+01  0.12561867409E+02  0.51100000000E-03 0. -1.
        -11    1    3    3    0    0 -0.54256154577E+01  0.67511418922E+01  0.66797813085E+01  0.10937764787E+02  0.51100000000E-03 0.  1.
         12    1    3    3    0    0 -0.18239904999E+02  0.12188676537E+02  0.56065369533E+01  0.22642685942E+02  0.00000000000E+00 0. -1.
</event>
<event>
 7    1  0.2297343E-008  0.4614232E+02  0.7816164E-02  0.1320468E+00
        -11   -1    0    0    0    0  0.00000000000E+00  0.00000000000E+00  0.45593999997E+02  0.45594000000E+02  0.51100000000E-03 0.  1.
         11   -1    0    0    0    0 -0.00000000000E+00 -0.00000000000E+00 -0.45593999997E+02  0.45594000000E+02  0.51100000000E-03 0. -1.
    9900012    2    1    2    0    0 -0.14735198321E+02 -0.11245492559E+01  0.42552586283E+02  0.46142320075E+02  0.10000021099E+02 0.  0.
         12    1    1    2    0    0  0.14735198321E+02  0.11245492559E+01 -0.42552586283E+02  0.45045679925E+02  0.00000000000E+00 0. -1.
         11    1    3    3    0    0 -0.29849173095E+01  0.13521582973E+01  0.16754228707E+02  0.17071679566E+02  0.51100000000E-03 0. -1.
        -11    1    3    3    0    0 -0.70941488702E+01  0.38509217444E+00  0.19376818349E+02  0.20638225064E+02  0.51100000000E-03 0.  1.
        -12    1    3    3    0    0 -0.46561321410E+01 -0.28617997276E+01  0.64215392266E+01  0.84324154448E+01  0.00000000000E+00 0.  1.
</event>
<event>
 7    1  0.2297343E-008  0.4614233E+02  0.7816164E-02  0.1320468E+00
        -11   -1    0    0    0    0  0.00000000000E+00  0.00000000000E+00  0.45593999997E+02  0.45594000000E+02  0.51100000000E-03 0.  1.
         11   -1    0    0    0    0 -0.00000000000E+00 -0.00000000000E+00 -0.45593999997E+02  0.45594000000E+02  0.51100000000E-03 0. -1.
    9900012    2    1    2    0    0 -0.43879375519E+01 -0.19479863927E+01  0.44789105011E+02  0.46142327904E+02  0.10000092489E+02 0.  0.
         12    1    1    2    0    0  0.43879375519E+01  0.19479863927E+01 -0.44789105011E+02  0.45045672096E+02  0.00000000000E+00 0. -1.
         11    1    3    3    0    0 -0.11302271331E+01 -0.75492172208E+00  0.10038408772E+01  0.16896795397E+01  0.51100000000E-03 0. -1.
        -11    1    3    3    0    0 -0.35568102248E+01 -0.14785278932E+01  0.10826709911E+02  0.11491500836E+02  0.51100000000E-03 0.  1.
        -12    1    3    3    0    0  0.29909980598E+00  0.28546322261E+00  0.32958554222E+02  0.32961147528E+02  0.00000000000E+00 0.  1.
</event>
<event>
 7    1  0.2297343E-008  0.4614232E+02  0.7816164E-02  0.1320468E+00
        -11   -1    0    0    0    0  0.00000000000E+00  0.00000000000E+00  0.45593999997E+02  0.45594000000E+02  0.51100000000E-03 0.  1.
         11   -1    0    0    0    0 -0.00000000000E+00 -0.00000000000E+00 -0.45593999997E+02  0.45594000000E+02  0.51100000000E-03 0. -1.
    9900012    2    1    2    0    0  0.17784998159E+01 -0.46074498398E+01  0.44774119959E+02  0.46142317923E+02  0.10000001480E+02 0.  0.
         12    1    1    2    0    0 -0.17784998159E+01  0.46074498398E+01 -0.44774119959E+02  0.45045682077E+02  0.00000000000E+00 0. -1.
         11    1    3    3    0    0 -0.16026067939E+01 -0.36975121999E+01  0.22979199799E+02  0.23329885740E+02  0.51100000000E-03 0. -1.
        -11    1    3    3    0    0  0.56702647733E+00 -0.24909678638E+01  0.15786639734E+02  0.15992011577E+02  0.51100000000E-03 0.  1.
         12    1    3    3    0    0  0.28140801325E+01  0.15810302239E+01  0.60082804263E+01  0.68204206060E+01  0.00000000000E+00 0. -1.
</event>
<event>
 7    1  0.2297343E-008  0.4614232E+02  0.7816164E-02  0.1320468E+00
        -11   -1    0    0    0    0  0.00000000000E+00  0.00000000000E+00  0.45593999997E+02  0.45594000000E+02  0.51100000000E-03 0.  1.
         11   -1    0    0    0    0 -0.00000000000E+00 -0.00000000000E+00 -0.45593999997E+02  0.45594000000E+02  0.51100000000E-03 0. -1.
    9900012    2    1    2    0    0 -0.66976538460E+01  0.19519112475E+02  0.40040718840E+02  0.46142317808E+02  0.10000000430E+02 0.  0.
         12    1    1    2    0    0  0.66976538460E+01 -0.19519112475E+02 -0.40040718840E+02  0.45045682192E+02  0.00000000000E+00 0. -1.
         11    1    3    3    0    0 -0.35062349437E+01  0.92056073578E+01  0.11371175043E+02  0.15044617391E+02  0.51100000000E-03 0. -1.
        -11    1    3    3    0    0 -0.33247876852E+01  0.24260563326E+01  0.11098453248E+02  0.11837044700E+02  0.51100000000E-03 0.  1.
         12    1    3    3    0    0  0.13336878287E+00  0.78874487847E+01  0.17571090549E+02  0.19260655717E+02  0.00000000000E+00 0. -1.
</event>
<event>
 7    1  0.2297343E-008  0.4614232E+02  0.7816164E-02  0.1320468E+00
        -11   -1    0    0    0    0  0.00000000000E+00  0.00000000000E+00  0.45593999997E+02  0.45594000000E+02  0.51100000000E-03 0.  1.
         11   -1    0    0    0    0 -0.00000000000E+00 -0.00000000000E+00 -0.45593999997E+02  0.45594000000E+02  0.51100000000E-03 0. -1.
    9900012    2    1    2    0    0 -0.27887588860E+02 -0.65872700596E+01  0.34756350642E+02  0.46142315975E+02  0.99999837169E+01 0.  0.
         12    1    1    2    0    0  0.27887588860E+02  0.65872700596E+01 -0.34756350642E+02  0.45045684025E+02  0.00000000000E+00 0. -1.
         11    1    3    3    0    0 -0.12281476640E+02 -0.44634743983E+01  0.10602790890E+02  0.16827847370E+02  0.51100000000E-03 0. -1.
        -11    1    3    3    0    0 -0.11341308020E+02 -0.23000558644E+01  0.13176386251E+02  0.17536609692E+02  0.51100000000E-03 0.  1.
         12    1    3    3    0    0 -0.42648041992E+01  0.17626020299E+00  0.10977173502E+02  0.11777858914E+02  0.00000000000E+00 0. -1.
</event>
<event>
 7    1  0.2297343E-008  0.4614232E+02  0.7816164E-02  0.1320468E+00
        -11   -1    0    0    0    0  0.00000000000E+00  0.00000000000E+00  0.45593999997E+02  0.45594000000E+02  0.51100000000E-03 0. -1.
         11   -1    0    0    0    0 -0.00000000000E+00 -0.00000000000E+00 -0.45593999997E+02  0.45594000000E+02  0.51100000000E-03 0.  1.
    9900012    2    1    2    0    0  0.44022729670E+02 -0.67308766923E+01 -0.67681656294E+01  0.46142317691E+02  0.99999993630E+01 0.  0.
         12    1    1    2    0    0 -0.44022729670E+02  0.67308766923E+01  0.67681656294E+01  0.45045682309E+02  0.00000000000E+00 0. -1.
         11    1    3    3    0    0  0.21152001515E+02 -0.63325203304E+01 -0.75813150985E-01  0.22079713081E+02  0.51100000000E-03 0. -1.
        -11    1    3    3    0    0  0.86225022183E+01 -0.42729510387E+00 -0.89234431896E+00  0.86790785372E+01  0.51100000000E-03 0.  1.
         12    1    3    3    0    0  0.14248225937E+02  0.28938742029E-01 -0.58000081594E+01  0.15383526073E+02  0.00000000000E+00 0. -1.
</event>
<event>
 7    1  0.2297343E-008  0.4614232E+02  0.7816164E-02  0.1320468E+00
        -11   -1    0    0    0    0  0.00000000000E+00  0.00000000000E+00  0.45593999997E+02  0.45594000000E+02  0.51100000000E-03 0. -1.
         11   -1    0    0    0    0 -0.00000000000E+00 -0.00000000000E+00 -0.45593999997E+02  0.45594000000E+02  0.51100000000E-03 0.  1.
    9900012    2    1    2    0    0  0.80319024073E+01  0.40304520317E+02 -0.18443096214E+02  0.46142316386E+02  0.99999874633E+01 0.  0.
         12    1    1    2    0    0 -0.80319024073E+01 -0.40304520317E+02  0.18443096214E+02  0.45045683614E+02  0.00000000000E+00 0. -1.
         11    1    3    3    0    0  0.10877907515E+01  0.19069366024E+02 -0.54558994608E+01  0.19864310924E+02  0.51100000000E-03 0.  1.
        -11    1    3    3    0    0  0.32037555793E+01  0.39713877448E+01 -0.20315871667E+01  0.54921140837E+01  0.51100000000E-03 0. -1.
        -12    1    3    3    0    0  0.37403560765E+01  0.17263766548E+02 -0.10955609587E+02  0.20785891379E+02  0.00000000000E+00 0.  1.
</event>
<event>
 7    1  0.2297343E-008  0.4614232E+02  0.7816164E-02  0.1320468E+00
        -11   -1    0    0    0    0  0.00000000000E+00  0.00000000000E+00  0.45593999997E+02  0.45594000000E+02  0.51100000000E-03 0.  1.
         11   -1    0    0    0    0 -0.00000000000E+00 -0.00000000000E+00 -0.45593999997E+02  0.45594000000E+02  0.51100000000E-03 0. -1.
    9900012    2    1    2    0    0  0.38966830201E+02  0.17724546744E+02  0.14019271587E+02  0.46142318864E+02  0.10000010053E+02 0.  0.
         12    1    1    2    0    0 -0.38966830201E+02 -0.17724546744E+02 -0.14019271587E+02  0.45045681136E+02  0.00000000000E+00 0. -1.
         11    1    3    3    0    0  0.17116197800E+02  0.58051742473E+01  0.12623203886E+01  0.18117884209E+02  0.51100000000E-03 0. -1.
        -11    1    3    3    0    0  0.53846377201E+01  0.26069915735E+01  0.38604476344E+01  0.71199567864E+01  0.51100000000E-03 0.  1.
         12    1    3    3    0    0  0.16465994681E+02  0.93123809229E+01  0.88965035640E+01  0.20904477869E+02  0.00000000000E+00 0. -1.
</event>
<event>
 7    1  0.2297343E-008  0.4614232E+02  0.7816164E-02  0.1320468E+00
        -11   -1    0    0    0    0  0.00000000000E+00  0.00000000000E+00  0.45593999997E+02  0.45594000000E+02  0.51100000000E-03 0. -1.
         11   -1    0    0    0    0 -0.00000000000E+00 -0.00000000000E+00 -0.45593999997E+02  0.45594000000E+02  0.51100000000E-03 0.  1.
    9900012    2    1    2    0    0  0.39292360666E+02 -0.19442945664E+02 -0.10353536575E+02  0.46142318050E+02  0.10000002630E+02 0.  0.
         12    1    1    2    0    0 -0.39292360666E+02  0.19442945664E+02  0.10353536575E+02  0.45045681950E+02  0.00000000000E+00 0. -1.
         11    1    3    3    0    0  0.22525865353E+01 -0.71108923288E+00 -0.67539898199E+00  0.24568186832E+01  0.51100000000E-03 0. -1.
        -11    1    3    3    0    0  0.35126420707E+02 -0.14589158329E+02 -0.87393208031E+01  0.39026717782E+02  0.51100000000E-03 0.  1.
        -12    1    3    3    0    0  0.19133534228E+01 -0.41426981022E+01 -0.93881678997E+00  0.46587815844E+01  0.00000000000E+00 0.  1.
</event>
<event>
 7    1  0.2297343E-008  0.4614232E+02  0.7816164E-02  0.1320468E+00
        -11   -1    0    0    0    0  0.00000000000E+00  0.00000000000E+00  0.45593999997E+02  0.45594000000E+02  0.51100000000E-03 0.  1.
         11   -1    0    0    0    0 -0.00000000000E+00 -0.00000000000E+00 -0.45593999997E+02  0.45594000000E+02  0.51100000000E-03 0. -1.
    9900012    2    1    2    0    0 -0.26281813507E+02 -0.38826414798E+01  0.36377257437E+02  0.46142317802E+02  0.10000000369E+02 0.  0.
         12    1    1    2    0    0  0.26281813507E+02  0.38826414798E+01 -0.36377257437E+02  0.45045682198E+02  0.00000000000E+00 0. -1.
         11    1    3    3    0    0 -0.55562069000E+01 -0.21147550536E+01  0.10462828783E+02  0.12033885925E+02  0.51100000000E-03 0. -1.
        -11    1    3    3    0    0 -0.15693650691E+02  0.41533597008E+00  0.23136383240E+02  0.27959889228E+02  0.51100000000E-03 0.  1.
         12    1    3    3    0    0 -0.50319559163E+01 -0.21832223962E+01  0.27780454142E+01  0.61485426483E+01  0.00000000000E+00 0. -1.
</event>
<event>
 7    1  0.2297343E-008  0.4614232E+02  0.7816164E-02  0.1320468E+00
        -11   -1    0    0    0    0  0.00000000000E+00  0.00000000000E+00  0.45593999997E+02  0.45594000000E+02  0.51100000000E-03 0. -1.
         11   -1    0    0    0    0 -0.00000000000E+00 -0.00000000000E+00 -0.45593999997E+02  0.45594000000E+02  0.51100000000E-03 0.  1.
    9900012    2    1    2    0    0 -0.27258780856E+02 -0.35470457301E+02 -0.52838449940E+01  0.46142317711E+02  0.99999995450E+01 0.  0.
         12    1    1    2    0    0  0.27258780856E+02  0.35470457301E+02  0.52838449940E+01  0.45045682289E+02  0.00000000000E+00 0. -1.
         11    1    3    3    0    0  0.33106311387E+00 -0.17347078956E+00 -0.49424849227E+00  0.61965856198E+00  0.51100000000E-03 0. -1.
        -11    1    3    3    0    0 -0.24285754856E+02 -0.28007781074E+02 -0.55488008056E+01  0.37483634832E+02  0.51100000000E-03 0.  1.
        -12    1    3    3    0    0 -0.33040891142E+01 -0.72892054382E+01  0.75920430385E+00  0.80390243170E+01  0.00000000000E+00 0.  1.
</event>
<event>
 7    1  0.2297343E-008  0.4614232E+02  0.7816164E-02  0.1320468E+00
        -11   -1    0    0    0    0  0.00000000000E+00  0.00000000000E+00  0.45593999997E+02  0.45594000000E+02  0.51100000000E-03 0.  1.
         11   -1    0    0    0    0 -0.00000000000E+00 -0.00000000000E+00 -0.45593999997E+02  0.45594000000E+02  0.51100000000E-03 0. -1.
    9900012    2    1    2    0    0  0.43853416676E+02 -0.22460368505E+01 -0.10047218904E+02  0.46142318260E+02  0.10000004553E+02 0.  0.
         12    1    1    2    0    0 -0.43853416676E+02  0.22460368505E+01  0.10047218904E+02  0.45045681740E+02  0.00000000000E+00 0. -1.
         11    1    3    3    0    0  0.56951345030E+01 -0.18422463398E+01  0.15785782873E+01  0.61903423374E+01  0.51100000000E-03 0. -1.
        -11    1    3    3    0    0  0.20922993893E+02 -0.11331396590E+01 -0.57543041674E+01  0.21729420048E+02  0.51100000000E-03 0.  1.
         12    1    3    3    0    0  0.17235288280E+02  0.72934914817E+00 -0.58714930240E+01  0.18222555875E+02  0.00000000000E+00 0. -1.
</event>
<event>
 7    1  0.2297343E-008  0.4614232E+02  0.7816164E-02  0.1320468E+00
        -11   -1    0    0    0    0  0.00000000000E+00  0.00000000000E+00  0.45593999997E+02  0.45594000000E+02  0.51100000000E-03 0. -1.
         11   -1    0    0    0    0 -0.00000000000E+00 -0.00000000000E+00 -0.45593999997E+02  0.45594000000E+02  0.51100000000E-03 0.  1.
    9900012    2    1    2    0    0  0.40379308317E+02 -0.90600010461E+01  0.17791609048E+02  0.46142317503E+02  0.99999976441E+01 0.  0.
         12    1    1    2    0    0 -0.40379308317E+02  0.90600010461E+01 -0.17791609048E+02  0.45045682497E+02  0.00000000000E+00 0. -1.
         11    1    3    3    0    0  0.33686278216E+01  0.17400680261E+01  0.10411378317E+01  0.39318517752E+01  0.51100000000E-03 0. -1.
        -11    1    3    3    0    0  0.33741007469E+02 -0.86592689392E+01  0.14930883045E+02  0.37899469553E+02  0.51100000000E-03 0.  1.
        -12    1    3    3    0    0  0.32696730264E+01 -0.21408001331E+01  0.18195881711E+01  0.43109961751E+01  0.00000000000E+00 0.  1.
</event>
<event>
 7    1  0.2297343E-008  0.4614232E+02  0.7816164E-02  0.1320468E+00
        -11   -1    0    0    0    0  0.00000000000E+00  0.00000000000E+00  0.45593999997E+02  0.45594000000E+02  0.51100000000E-03 0.  1.
         11   -1    0    0    0    0 -0.00000000000E+00 -0.00000000000E+00 -0.45593999997E+02  0.45594000000E+02  0.51100000000E-03 0. -1.
    9900012    2    1    2    0    0  0.32664597173E+02 -0.21800107463E+02  0.22065651740E+02  0.46142316737E+02  0.99999906643E+01 0.  0.
         12    1    1    2    0    0 -0.32664597173E+02  0.21800107463E+02 -0.22065651740E+02  0.45045683263E+02  0.00000000000E+00 0. -1.
         11    1    3    3    0    0  0.26245994669E+01 -0.22804675045E+01 -0.52433224643E+00  0.35162450095E+01  0.51100000000E-03 0. -1.
        -11    1    3    3    0    0  0.81661267251E+01 -0.29175671257E+01  0.59596221368E+01  0.10522115752E+02  0.51100000000E-03 0.  1.
        -12    1    3    3    0    0  0.21873870981E+02 -0.16602072833E+02  0.16630361850E+02  0.32103955976E+02  0.00000000000E+00 0.  1.
</event>
<event>
 7    1  0.2297343E-008  0.4614232E+02  0.7816164E-02  0.1320468E+00
        -11   -1    0    0    0    0  0.00000000000E+00  0.00000000000E+00  0.45593999997E+02  0.45594000000E+02  0.51100000000E-03 0.  1.
         11   -1    0    0    0    0 -0.00000000000E+00 -0.00000000000E+00 -0.45593999997E+02  0.45594000000E+02  0.51100000000E-03 0. -1.
    9900012    2    1    2    0    0  0.13566642114E+02  0.99123058131E+01  0.41794806988E+02  0.46142317898E+02  0.10000001253E+02 0.  0.
         12    1    1    2    0    0 -0.13566642114E+02 -0.99123058131E+01 -0.41794806988E+02  0.45045682102E+02  0.00000000000E+00 0. -1.
         11    1    3    3    0    0 -0.19236237218E-01 -0.28581389647E+00  0.65354303254E+01  0.65417053905E+01  0.51100000000E-03 0. -1.
        -11    1    3    3    0    0  0.10908014481E+01 -0.48822027309E+00  0.52303596903E+01  0.53651532676E+01  0.51100000000E-03 0.  1.
         12    1    3    3    0    0  0.12495076904E+02  0.10686339983E+02  0.30029016973E+02  0.34235459240E+02  0.00000000000E+00 0. -1.
</event>
<event>
 7    1  0.2297343E-008  0.4614232E+02  0.7816164E-02  0.1320468E+00
        -11   -1    0    0    0    0  0.00000000000E+00  0.00000000000E+00  0.45593999997E+02  0.45594000000E+02  0.51100000000E-03 0.  1.
         11   -1    0    0    0    0 -0.00000000000E+00 -0.00000000000E+00 -0.45593999997E+02  0.45594000000E+02  0.51100000000E-03 0. -1.
    9900012    2    1    2    0    0 -0.28192983669E+02  0.13165492805E+02  0.32572055987E+02  0.46142319184E+02  0.10000012977E+02 0.  0.
         12    1    1    2    0    0  0.28192983669E+02 -0.13165492805E+02 -0.32572055987E+02  0.45045680816E+02  0.00000000000E+00 0. -1.
         11    1    3    3    0    0 -0.26357022872E+01  0.28357886670E+01  0.33341434622E+01  0.51093186237E+01  0.51100000000E-03 0. -1.
        -11    1    3    3    0    0 -0.74973012350E+01  0.59249212141E+01  0.60355717631E+01  0.11302315868E+02  0.51100000000E-03 0.  1.
        -12    1    3    3    0    0 -0.18059980147E+02  0.44047829238E+01  0.23202340762E+02  0.29730684693E+02  0.00000000000E+00 0.  1.
</event>
<event>
 7    1  0.2297343E-008  0.4614233E+02  0.7816164E-02  0.1320468E+00
        -11   -1    0    0    0    0  0.00000000000E+00  0.00000000000E+00  0.45593999997E+02  0.45594000000E+02  0.51100000000E-03 0. -1.
         11   -1    0    0    0    0 -0.00000000000E+00 -0.00000000000E+00 -0.45593999997E+02  0.45594000000E+02  0.51100000000E-03 0.  1.
    9900012    2    1    2    0    0 -0.89245461552E+01  0.25014503258E+02 -0.36383230578E+02  0.46142330235E+02  0.10000113747E+02 0.  0.
         12    1    1    2    0    0  0.89245461552E+01 -0.25014503258E+02  0.36383230578E+02  0.45045669765E+02  0.00000000000E+00 0. -1.
         11    1    3    3    0    0 -0.40152640054E+01  0.49661054968E+01 -0.61945982844E+01  0.88970555244E+01  0.51100000000E-03 0. -1.
        -11    1    3    3    0    0 -0.67227944180E+01  0.14836754993E+02 -0.22960148281E+02  0.28151264143E+02  0.51100000000E-03 0.  1.
         12    1    3    3    0    0  0.18135122682E+01  0.52116427683E+01 -0.72284840119E+01  0.90940105675E+01  0.00000000000E+00 0. -1.
</event>
<event>
 7    1  0.2297343E-008  0.4614233E+02  0.7816164E-02  0.1320468E+00
        -11   -1    0    0    0    0  0.00000000000E+00  0.00000000000E+00  0.45593999997E+02  0.45594000000E+02  0.51100000000E-03 0.  1.
         11   -1    0    0    0    0 -0.00000000000E+00 -0.00000000000E+00 -0.45593999997E+02  0.45594000000E+02  0.51100000000E-03 0. -1.
    9900012    2    1    2    0    0 -0.11938563312E+02 -0.27975036380E+02  0.33226203741E+02  0.46142327961E+02  0.10000093011E+02 0.  0.
         12    1    1    2    0    0  0.11938563312E+02  0.27975036380E+02 -0.33226203741E+02  0.45045672039E+02  0.00000000000E+00 0. -1.
         11    1    3    3    0    0 -0.66680622343E+01 -0.12413655472E+02  0.20528998669E+02  0.24899832986E+02  0.51100000000E-03 0. -1.
        -11    1    3    3    0    0 -0.40678709750E+01 -0.85553527595E+01  0.96047126953E+01  0.13490446298E+02  0.51100000000E-03 0.  1.
         12    1    3    3    0    0 -0.12026301025E+01 -0.70060281485E+01  0.30924923765E+01  0.77520486763E+01  0.00000000000E+00 0. -1.
</event>
<event>
 7    1  0.2297343E-008  0.4614232E+02  0.7816164E-02  0.1320468E+00
        -11   -1    0    0    0    0  0.00000000000E+00  0.00000000000E+00  0.45593999997E+02  0.45594000000E+02  0.51100000000E-03 0.  1.
         11   -1    0    0    0    0 -0.00000000000E+00 -0.00000000000E+00 -0.45593999997E+02  0.45594000000E+02  0.51100000000E-03 0. -1.
    9900012    2    1    2    0    0  0.28653408294E+02 -0.85064804029E+01  0.33700674634E+02  0.46142317782E+02  0.10000000192E+02 0.  0.
         12    1    1    2    0    0 -0.28653408294E+02  0.85064804029E+01 -0.33700674634E+02  0.45045682218E+02  0.00000000000E+00 0. -1.
         11    1    3    3    0    0  0.41429568212E+01 -0.49732308134E+01  0.78343510191E+01  0.10162390078E+02  0.51100000000E-03 0. -1.
        -11    1    3    3    0    0  0.16920915919E+02 -0.37891952684E+01  0.16667849207E+02  0.24051872979E+02  0.51100000000E-03 0.  1.
        -12    1    3    3    0    0  0.75895355536E+01  0.25594567894E+00  0.91984744075E+01  0.11928054726E+02  0.00000000000E+00 0.  1.
</event>
<event>
 7    1  0.2297343E-008  0.4614232E+02  0.7816164E-02  0.1320468E+00
        -11   -1    0    0    0    0  0.00000000000E+00  0.00000000000E+00  0.45593999997E+02  0.45594000000E+02  0.51100000000E-03 0.  1.
         11   -1    0    0    0    0 -0.00000000000E+00 -0.00000000000E+00 -0.45593999997E+02  0.45594000000E+02  0.51100000000E-03 0. -1.
    9900012    2    1    2    0    0 -0.22392259077E+02 -0.12760463342E+02  0.36944157666E+02  0.46142317888E+02  0.10000001157E+02 0.  0.
         12    1    1    2    0    0  0.22392259077E+02  0.12760463342E+02 -0.36944157666E+02  0.45045682112E+02  0.00000000000E+00 0. -1.
         11    1    3    3    0    0 -0.11084099450E+02 -0.35335470607E+01  0.15700980492E+02  0.19541340898E+02  0.51100000000E-03 0. -1.
        -11    1    3    3    0    0 -0.96358949174E+01 -0.91682153808E+01  0.14599135519E+02  0.19749465874E+02  0.51100000000E-03 0.  1.
         12    1    3    3    0    0 -0.16722647100E+01 -0.58700900118E-01  0.66440416552E+01  0.68515111160E+01  0.00000000000E+00 0. -1.
</event>
<event>
 7    1  0.2297343E-008  0.4614232E+02  0.7816164E-02  0.1320468E+00
        -11   -1    0    0    0    0  0.00000000000E+00  0.00000000000E+00  0.45593999997E+02  0.45594000000E+02  0.51100000000E-03 0. -1.
         11   -1    0    0    0    0 -0.00000000000E+00 -0.00000000000E+00 -0.45593999997E+02  0.45594000000E+02  0.51100000000E-03 0.  1.
    9900012    2    1    2    0    0 -0.13286195014E+02 -0.38171117708E+01 -0.42872137313E+02  0.46142317876E+02  0.10000001047E+02 0.  0.
         12    1    1    2    0    0  0.13286195014E+02  0.38171117708E+01  0.42872137313E+02  0.45045682124E+02  0.00000000000E+00 0. -1.
         11    1    3    3    0    0 -0.30075938247E+01  0.59043107616E+00 -0.14256968085E+02  0.14582707866E+02  0.51100000000E-03 0. -1.
        -11    1    3    3    0    0 -0.20432160281E+01  0.17436526696E+01 -0.92931911620E+01  0.96735959501E+01  0.51100000000E-03 0.  1.
         12    1    3    3    0    0 -0.82353851609E+01 -0.61511955166E+01 -0.19321978066E+02  0.21886014059E+02  0.00000000000E+00 0. -1.
</event>
<event>
 7    1  0.2297343E-008  0.4614232E+02  0.7816164E-02  0.1320468E+00
        -11   -1    0    0    0    0  0.00000000000E+00  0.00000000000E+00  0.45593999997E+02  0.45594000000E+02  0.51100000000E-03 0.  1.
         11   -1    0    0    0    0 -0.00000000000E+00 -0.00000000000E+00 -0.45593999997E+02  0.45594000000E+02  0.51100000000E-03 0. -1.
    9900012    2    1    2    0    0 -0.32798600957E+02  0.16177654641E+02  0.26299217724E+02  0.46142316663E+02  0.99999899823E+01 0.  0.
         12    1    1    2    0    0  0.32798600957E+02 -0.16177654641E+02 -0.26299217724E+02  0.45045683337E+02  0.00000000000E+00 0. -1.
         11    1    3    3    0    0 -0.86726609632E+01  0.64956313393E+01  0.31704497790E+01  0.11289819606E+02  0.51100000000E-03 0.  1.
        -11    1    3    3    0    0 -0.11355711879E+01  0.52916354549E+00  0.17427485321E+01  0.21463244601E+01  0.51100000000E-03 0. -1.
        -12    1    3    3    0    0 -0.22990368806E+02  0.91528597564E+01  0.21386019413E+02  0.32706172596E+02  0.00000000000E+00 0.  1.
</event>
<event>
 7    1  0.2297343E-008  0.4614232E+02  0.7816164E-02  0.1320468E+00
        -11   -1    0    0    0    0  0.00000000000E+00  0.00000000000E+00  0.45593999997E+02  0.45594000000E+02  0.51100000000E-03 0. -1.
         11   -1    0    0    0    0 -0.00000000000E+00 -0.00000000000E+00 -0.45593999997E+02  0.45594000000E+02  0.51100000000E-03 0.  1.
    9900012    2    1    2    0    0  0.39455183712E+02  0.21190211418E+02  0.48349591731E+01  0.46142318610E+02  0.10000007743E+02 0.  0.
         12    1    1    2    0    0 -0.39455183712E+02 -0.21190211418E+02 -0.48349591731E+01  0.45045681390E+02  0.00000000000E+00 0. -1.
         11    1    3    3    0    0  0.46043564464E+01  0.29151893697E+01  0.74784769601E+00  0.55007002995E+01  0.51100000000E-03 0. -1.
        -11    1    3    3    0    0  0.33072785343E+02  0.15769748468E+02  0.15762218070E+01  0.36673949508E+02  0.51100000000E-03 0.  1.
         12    1    3    3    0    0  0.17780419221E+01  0.25052735806E+01  0.25108896701E+01  0.39676688025E+01  0.00000000000E+00 0. -1.
</event>
<event>
 7    1  0.2297343E-008  0.4614232E+02  0.7816164E-02  0.1320468E+00
        -11   -1    0    0    0    0  0.00000000000E+00  0.00000000000E+00  0.45593999997E+02  0.45594000000E+02  0.51100000000E-03 0. -1.
         11   -1    0    0    0    0 -0.00000000000E+00 -0.00000000000E+00 -0.45593999997E+02  0.45594000000E+02  0.51100000000E-03 0.  1.
    9900012    2    1    2    0    0  0.19435915365E+02  0.59106059887E-01 -0.40636868569E+02  0.46142318890E+02  0.10000010292E+02 0.  0.
         12    1    1    2    0    0 -0.19435915365E+02 -0.59106059887E-01  0.40636868569E+02  0.45045681110E+02  0.00000000000E+00 0. -1.
         11    1    3    3    0    0  0.77045389966E+00  0.58268880810E+00 -0.18469864605E+01  0.20843427513E+01  0.51100000000E-03 0. -1.
        -11    1    3    3    0    0  0.47103438373E+01 -0.12052265030E+01 -0.31916443128E+01  0.58160556797E+01  0.51100000000E-03 0.  1.
        -12    1    3    3    0    0  0.13955117629E+02  0.68164375477E+00 -0.35598237795E+02  0.38241920459E+02  0.00000000000E+00 0.  1.
</event>
<event>
 7    1  0.2297343E-008  0.4614232E+02  0.7816164E-02  0.1320468E+00
        -11   -1    0    0    0    0  0.00000000000E+00  0.00000000000E+00  0.45593999997E+02  0.45594000000E+02  0.51100000000E-03 0.  1.
         11   -1    0    0    0    0 -0.00000000000E+00 -0.00000000000E+00 -0.45593999997E+02  0.45594000000E+02  0.51100000000E-03 0. -1.
    9900012    2    1    2    0    0  0.40619803741E+02  0.17970976114E+02 -0.74959360182E+01  0.46142317684E+02  0.99999993002E+01 0.  0.
         12    1    1    2    0    0 -0.40619803741E+02 -0.17970976114E+02  0.74959360182E+01  0.45045682316E+02  0.00000000000E+00 0. -1.
         11    1    3    3    0    0  0.30741648223E+01  0.39685628914E+01 -0.12411154442E+00  0.50214922796E+01  0.51100000000E-03 0. -1.
        -11    1    3    3    0    0  0.17666821405E+02  0.72816829766E+01 -0.77570237416E+00  0.19124361426E+02  0.51100000000E-03 0.  1.
         12    1    3    3    0    0  0.19878817515E+02  0.67207302461E+01 -0.65961220996E+01  0.21996463979E+02  0.00000000000E+00 0. -1.
</event>
<event>
 7    1  0.2297343E-008  0.4614232E+02  0.7816164E-02  0.1320468E+00
        -11   -1    0    0    0    0  0.00000000000E+00  0.00000000000E+00  0.45593999997E+02  0.45594000000E+02  0.51100000000E-03 0. -1.
         11   -1    0    0    0    0 -0.00000000000E+00 -0.00000000000E+00 -0.45593999997E+02  0.45594000000E+02  0.51100000000E-03 0.  1.
    9900012    2    1    2    0    0 -0.54231132022E+01 -0.11825332678E+02 -0.43126149217E+02  0.46142318786E+02  0.10000009344E+02 0.  0.
         12    1    1    2    0    0  0.54231132022E+01  0.11825332678E+02  0.43126149217E+02  0.45045681214E+02  0.00000000000E+00 0. -1.
         11    1    3    3    0    0 -0.28052709921E+01 -0.27281823012E+01 -0.26426649747E+02  0.26714796295E+02  0.51100000000E-03 0. -1.
        -11    1    3    3    0    0 -0.20877213493E+01 -0.27822509904E+01 -0.73656308046E+01  0.81456748288E+01  0.51100000000E-03 0.  1.
         12    1    3    3    0    0 -0.53012086084E+00 -0.63148993869E+01 -0.93338686659E+01  0.11281847662E+02  0.00000000000E+00 0. -1.
</event>
<event>
 7    1  0.2297343E-008  0.4614232E+02  0.7816164E-02  0.1320468E+00
        -11   -1    0    0    0    0  0.00000000000E+00  0.00000000000E+00  0.45593999997E+02  0.45594000000E+02  0.51100000000E-03 0.  1.
         11   -1    0    0    0    0 -0.00000000000E+00 -0.00000000000E+00 -0.45593999997E+02  0.45594000000E+02  0.51100000000E-03 0. -1.
    9900012    2    1    2    0    0 -0.10007767328E+02 -0.34067615929E+02  0.27719227610E+02  0.46142318283E+02  0.10000004763E+02 0.  0.
         12    1    1    2    0    0  0.10007767328E+02  0.34067615929E+02 -0.27719227610E+02  0.45045681717E+02  0.00000000000E+00 0. -1.
         11    1    3    3    0    0 -0.68104644981E+01 -0.16337574617E+02  0.12944646432E+02  0.21928580496E+02  0.51100000000E-03 0.  1.
        -11    1    3    3    0    0  0.12438439117E+01 -0.11293017740E+02  0.85776525284E+01  0.14235712856E+02  0.51100000000E-03 0. -1.
         12    1    3    3    0    0 -0.44411467418E+01 -0.64370235718E+01  0.61969286493E+01  0.99780249314E+01  0.00000000000E+00 0. -1.
</event>
<event>
 7    1  0.2297343E-008  0.4614232E+02  0.7816164E-02  0.1320468E+00
        -11   -1    0    0    0    0  0.00000000000E+00  0.00000000000E+00  0.45593999997E+02  0.45594000000E+02  0.51100000000E-03 0. -1.
         11   -1    0    0    0    0 -0.00000000000E+00 -0.00000000000E+00 -0.45593999997E+02  0.45594000000E+02  0.51100000000E-03 0.  1.
    9900012    2    1    2    0    0 -0.27487542731E+02 -0.35610987111E+02  0.23251021025E+01  0.46142317541E+02  0.99999979922E+01 0.  0.
         12    1    1    2    0    0  0.27487542731E+02  0.35610987111E+02 -0.23251021025E+01  0.45045682459E+02  0.00000000000E+00 0. -1.
         11    1    3    3    0    0 -0.50577029419E+01 -0.47104815324E+01  0.12827826967E+01  0.70295467154E+01  0.51100000000E-03 0.  1.
        -11    1    3    3    0    0 -0.11367793188E+02 -0.89203631016E+01  0.12626997227E+01  0.14504965036E+02  0.51100000000E-03 0. -1.
        -12    1    3    3    0    0 -0.11062046601E+02 -0.21980142477E+02 -0.22038031693E+00  0.24607805790E+02  0.00000000000E+00 0.  1.
</event>
<event>
 7    1  0.2297343E-008  0.4614232E+02  0.7816164E-02  0.1320468E+00
        -11   -1    0    0    0    0  0.00000000000E+00  0.00000000000E+00  0.45593999997E+02  0.45594000000E+02  0.51100000000E-03 0.  1.
         11   -1    0    0    0    0 -0.00000000000E+00 -0.00000000000E+00 -0.45593999997E+02  0.45594000000E+02  0.51100000000E-03 0. -1.
    9900012    2    1    2    0    0  0.36034024775E+02  0.25265011941E+02  0.96094567457E+01  0.46142318423E+02  0.10000006034E+02 0.  0.
         12    1    1    2    0    0 -0.36034024775E+02 -0.25265011941E+02 -0.96094567457E+01  0.45045681577E+02  0.00000000000E+00 0. -1.
         11    1    3    3    0    0  0.15739796613E+02  0.11730720682E+02  0.80601993447E+00  0.19646899846E+02  0.51100000000E-03 0. -1.
        -11    1    3    3    0    0  0.84644345174E+01  0.89050553347E+01  0.42224738059E+01  0.12991379739E+02  0.51100000000E-03 0.  1.
         12    1    3    3    0    0  0.11829793644E+02  0.46292359239E+01  0.45809630053E+01  0.13504038838E+02  0.00000000000E+00 0. -1.
</event>
<event>
 7    1  0.2297343E-008  0.4614232E+02  0.7816164E-02  0.1320468E+00
        -11   -1    0    0    0    0  0.00000000000E+00  0.00000000000E+00  0.45593999997E+02  0.45594000000E+02  0.51100000000E-03 0.  1.
         11   -1    0    0    0    0 -0.00000000000E+00 -0.00000000000E+00 -0.45593999997E+02  0.45594000000E+02  0.51100000000E-03 0. -1.
    9900012    2    1    2    0    0  0.13596714628E+02 -0.13041918410E+02  0.40916392404E+02  0.46142318167E+02  0.10000003697E+02 0.  0.
         12    1    1    2    0    0 -0.13596714628E+02  0.13041918410E+02 -0.40916392404E+02  0.45045681833E+02  0.00000000000E+00 0. -1.
         11    1    3    3    0    0  0.13675512635E+01 -0.63383858018E+01  0.14547267520E+02  0.15926968437E+02  0.51100000000E-03 0. -1.
        -11    1    3    3    0    0  0.51140152947E+01 -0.51106319792E+01  0.15795447426E+02  0.17371467161E+02  0.51100000000E-03 0.  1.
         12    1    3    3    0    0  0.71151480694E+01 -0.15929006294E+01  0.10573677457E+02  0.12843882569E+02  0.00000000000E+00 0. -1.
</event>
<event>
 7    1  0.2297343E-008  0.4614232E+02  0.7816164E-02  0.1320468E+00
        -11   -1    0    0    0    0  0.00000000000E+00  0.00000000000E+00  0.45593999997E+02  0.45594000000E+02  0.51100000000E-03 0.  1.
         11   -1    0    0    0    0 -0.00000000000E+00 -0.00000000000E+00 -0.45593999997E+02  0.45594000000E+02  0.51100000000E-03 0. -1.
    9900012    2    1    2    0    0  0.39934653233E+01 -0.26372209354E+01  0.44790744916E+02  0.46142317302E+02  0.99999958167E+01 0.  0.
         12    1    1    2    0    0 -0.39934653233E+01  0.26372209354E+01 -0.44790744916E+02  0.45045682698E+02  0.00000000000E+00 0. -1.
         11    1    3    3    0    0  0.15807523473E+00  0.73914616155E+00  0.62963672593E+01  0.63415743907E+01  0.51100000000E-03 0. -1.
        -11    1    3    3    0    0  0.15456862927E+01 -0.23640655559E+00  0.54952877719E+00  0.16574125356E+01  0.51100000000E-03 0.  1.
        -12    1    3    3    0    0  0.22897037959E+01 -0.31399605413E+01  0.37944848880E+02  0.38143330376E+02  0.00000000000E+00 0.  1.
</event>
<event>
 7    1  0.2297343E-008  0.4614232E+02  0.7816164E-02  0.1320468E+00
        -11   -1    0    0    0    0  0.00000000000E+00  0.00000000000E+00  0.45593999997E+02  0.45594000000E+02  0.51100000000E-03 0.  1.
         11   -1    0    0    0    0 -0.00000000000E+00 -0.00000000000E+00 -0.45593999997E+02  0.45594000000E+02  0.51100000000E-03 0. -1.
    9900012    2    1    2    0    0  0.86280191535E+01  0.30201300230E+02  0.32288577343E+02  0.46142317888E+02  0.10000001154E+02 0.  0.
         12    1    1    2    0    0 -0.86280191535E+01 -0.30201300230E+02 -0.32288577343E+02  0.45045682112E+02  0.00000000000E+00 0. -1.
         11    1    3    3    0    0  0.57577059838E+01  0.15126676043E+02  0.16819962686E+02  0.23342635912E+02  0.51100000000E-03 0. -1.
        -11    1    3    3    0    0  0.27922624884E+01  0.14882154046E+02  0.11988013646E+02  0.19312889745E+02  0.51100000000E-03 0.  1.
         12    1    3    3    0    0  0.78050681275E-01  0.19247014159E+00  0.34806010108E+01  0.34867922308E+01  0.00000000000E+00 0. -1.
</event>
<event>
 7    1  0.2297343E-008  0.4614232E+02  0.7816164E-02  0.1320468E+00
        -11   -1    0    0    0    0  0.00000000000E+00  0.00000000000E+00  0.45593999997E+02  0.45594000000E+02  0.51100000000E-03 0.  1.
         11   -1    0    0    0    0 -0.00000000000E+00 -0.00000000000E+00 -0.45593999997E+02  0.45594000000E+02  0.51100000000E-03 0. -1.
    9900012    2    1    2    0    0 -0.31881743608E+02 -0.29264124005E+01  0.31687601684E+02  0.46142316905E+02  0.99999921914E+01 0.  0.
         12    1    1    2    0    0  0.31881743608E+02  0.29264124005E+01 -0.31687601684E+02  0.45045683095E+02  0.00000000000E+00 0. -1.
         11    1    3    3    0    0 -0.65162675193E+01  0.24195548205E+01  0.41064248738E+01  0.80733334762E+01  0.51100000000E-03 0. -1.
        -11    1    3    3    0    0 -0.21862276918E+02 -0.36586000499E+01  0.21709687104E+02  0.31026682401E+02  0.51100000000E-03 0.  1.
         12    1    3    3    0    0 -0.35031991704E+01 -0.16873671710E+01  0.58714897061E+01  0.70423010278E+01  0.00000000000E+00 0. -1.
</event>
<event>
 7    1  0.2297343E-008  0.4614232E+02  0.7816164E-02  0.1320468E+00
        -11   -1    0    0    0    0  0.00000000000E+00  0.00000000000E+00  0.45593999997E+02  0.45594000000E+02  0.51100000000E-03 0. -1.
         11   -1    0    0    0    0 -0.00000000000E+00 -0.00000000000E+00 -0.45593999997E+02  0.45594000000E+02  0.51100000000E-03 0.  1.
    9900012    2    1    2    0    0  0.16173740994E+02  0.33193952276E+02 -0.25800874299E+02  0.46142317853E+02  0.10000000839E+02 0.  0.
         12    1    1    2    0    0 -0.16173740994E+02 -0.33193952276E+02  0.25800874299E+02  0.45045682147E+02  0.00000000000E+00 0. -1.
         11    1    3    3    0    0  0.75902121298E+00  0.48375127725E+01 -0.41411515929E+01  0.64130164355E+01  0.51100000000E-03 0. -1.
        -11    1    3    3    0    0  0.32459072973E+01  0.14524968286E+02 -0.96797853229E+01  0.17754122396E+02  0.51100000000E-03 0.  1.
         12    1    3    3    0    0  0.12168812484E+02  0.13831471218E+02 -0.11979937383E+02  0.21975179022E+02  0.00000000000E+00 0. -1.
</event>
<event>
 7    1  0.2297343E-008  0.4614232E+02  0.7816164E-02  0.1320468E+00
        -11   -1    0    0    0    0  0.00000000000E+00  0.00000000000E+00  0.45593999997E+02  0.45594000000E+02  0.51100000000E-03 0.  1.
         11   -1    0    0    0    0 -0.00000000000E+00 -0.00000000000E+00 -0.45593999997E+02  0.45594000000E+02  0.51100000000E-03 0. -1.
    9900012    2    1    2    0    0  0.24660549587E+02 -0.36883488718E+02  0.77832449914E+01  0.46142319313E+02  0.10000014153E+02 0.  0.
         12    1    1    2    0    0 -0.24660549587E+02  0.36883488718E+02 -0.77832449914E+01  0.45045680687E+02  0.00000000000E+00 0. -1.
         11    1    3    3    0    0  0.43059968276E+01 -0.10506129441E+02  0.23352672563E+01  0.11591972996E+02  0.51100000000E-03 0. -1.
        -11    1    3    3    0    0  0.13213830711E+02 -0.22103952233E+02  0.33610342521E+01  0.25970879421E+02  0.51100000000E-03 0.  1.
         12    1    3    3    0    0  0.71407220478E+01 -0.42734070436E+01  0.20869434830E+01  0.85794668964E+01  0.00000000000E+00 0. -1.
</event>
<event>
 7    1  0.2297343E-008  0.4614232E+02  0.7816164E-02  0.1320468E+00
        -11   -1    0    0    0    0  0.00000000000E+00  0.00000000000E+00  0.45593999997E+02  0.45594000000E+02  0.51100000000E-03 0.  1.
         11   -1    0    0    0    0 -0.00000000000E+00 -0.00000000000E+00 -0.45593999997E+02  0.45594000000E+02  0.51100000000E-03 0. -1.
    9900012    2    1    2    0    0  0.96961600869E+01 -0.43310238131E+02 -0.77020278463E+01  0.46142317851E+02  0.10000000817E+02 0.  0.
         12    1    1    2    0    0 -0.96961600869E+01  0.43310238131E+02  0.77020278463E+01  0.45045682149E+02  0.00000000000E+00 0. -1.
         11    1    3    3    0    0  0.67316250527E+01 -0.14725311176E+02 -0.20283726169E+01  0.16317593598E+02  0.51100000000E-03 0. -1.
        -11    1    3    3    0    0 -0.15085506901E+01 -0.98128966478E+01 -0.10706272949E+01  0.99857352694E+01  0.51100000000E-03 0.  1.
        -12    1    3    3    0    0  0.44730857243E+01 -0.18772030306E+02 -0.46030279345E+01  0.19838988983E+02  0.00000000000E+00 0.  1.
</event>
<event>
 7    1  0.2297343E-008  0.4614232E+02  0.7816164E-02  0.1320468E+00
        -11   -1    0    0    0    0  0.00000000000E+00  0.00000000000E+00  0.45593999997E+02  0.45594000000E+02  0.51100000000E-03 0.  1.
         11   -1    0    0    0    0 -0.00000000000E+00 -0.00000000000E+00 -0.45593999997E+02  0.45594000000E+02  0.51100000000E-03 0. -1.
    9900012    2    1    2    0    0 -0.11171763676E+02 -0.38235635427E+02  0.21031913662E+02  0.46142317494E+02  0.99999975680E+01 0.  0.
         12    1    1    2    0    0  0.11171763676E+02  0.38235635427E+02 -0.21031913662E+02  0.45045682506E+02  0.00000000000E+00 0. -1.
         11    1    3    3    0    0  0.79248037925E+00 -0.77318718864E+01  0.52173710631E+01  0.93611339639E+01  0.51100000000E-03 0. -1.
        -11    1    3    3    0    0 -0.64411503758E+01 -0.14593844606E+02  0.10593312644E+02  0.19149072865E+02  0.51100000000E-03 0.  1.
         12    1    3    3    0    0 -0.55230936795E+01 -0.15909918934E+02  0.52212299550E+01  0.17632110666E+02  0.00000000000E+00 0. -1.
</event>
<event>
 7    1  0.2297343E-008  0.4614232E+02  0.7816164E-02  0.1320468E+00
        -11   -1    0    0    0    0  0.00000000000E+00  0.00000000000E+00  0.45593999997E+02  0.45594000000E+02  0.51100000000E-03 0.  1.
         11   -1    0    0    0    0 -0.00000000000E+00 -0.00000000000E+00 -0.45593999997E+02  0.45594000000E+02  0.51100000000E-03 0. -1.
    9900012    2    1    2    0    0 -0.32609167698E+02 -0.30580168831E+02  0.55325388210E+01  0.46142317305E+02  0.99999958387E+01 0.  0.
         12    1    1    2    0    0  0.32609167698E+02  0.30580168831E+02 -0.55325388210E+01  0.45045682695E+02  0.00000000000E+00 0. -1.
         11    1    3    3    0    0 -0.60632729422E+01 -0.77855499580E+01  0.36083526265E+01  0.10507058383E+02  0.51100000000E-03 0. -1.
        -11    1    3    3    0    0 -0.14025948999E+02 -0.16067556408E+02  0.30346010248E+00  0.21330393867E+02  0.51100000000E-03 0.  1.
         12    1    3    3    0    0 -0.12519945757E+02 -0.67270624644E+01  0.16207260920E+01  0.14304865055E+02  0.00000000000E+00 0. -1.
</event>
<event>
 7    1  0.2297343E-008  0.4614232E+02  0.7816164E-02  0.1320468E+00
        -11   -1    0    0    0    0  0.00000000000E+00  0.00000000000E+00  0.45593999997E+02  0.45594000000E+02  0.51100000000E-03 0.  1.
         11   -1    0    0    0    0 -0.00000000000E+00 -0.00000000000E+00 -0.45593999997E+02  0.45594000000E+02  0.51100000000E-03 0. -1.
    9900012    2    1    2    0    0 -0.29714308359E+02  0.19402531409E+02  0.27743740817E+02  0.46142317622E+02  0.99999987347E+01 0.  0.
         12    1    1    2    0    0  0.29714308359E+02 -0.19402531409E+02 -0.27743740817E+02  0.45045682378E+02  0.00000000000E+00 0. -1.
         11    1    3    3    0    0 -0.93472023892E+01  0.10364620112E+02  0.71162605353E+01  0.15666419720E+02  0.51100000000E-03 0. -1.
        -11    1    3    3    0    0 -0.14289034935E+02  0.71095813397E+01  0.13417950422E+02  0.20850996619E+02  0.51100000000E-03 0.  1.
        -12    1    3    3    0    0 -0.60780710350E+01  0.19283299579E+01  0.72095298597E+01  0.96249012842E+01  0.00000000000E+00 0.  1.
</event>
<event>
 7    1  0.2297343E-008  0.4614232E+02  0.7816164E-02  0.1320468E+00
        -11   -1    0    0    0    0  0.00000000000E+00  0.00000000000E+00  0.45593999997E+02  0.45594000000E+02  0.51100000000E-03 0.  1.
         11   -1    0    0    0    0 -0.00000000000E+00 -0.00000000000E+00 -0.45593999997E+02  0.45594000000E+02  0.51100000000E-03 0. -1.
    9900012    2    1    2    0    0  0.85435616250E+01  0.21280872362E+02  0.38771708066E+02  0.46142319629E+02  0.10000017034E+02 0.  0.
         12    1    1    2    0    0 -0.85435616250E+01 -0.21280872362E+02 -0.38771708066E+02  0.45045680371E+02  0.00000000000E+00 0. -1.
         11    1    3    3    0    0 -0.53540162185E+00  0.13635954746E+01  0.17088770645E+00  0.14748730062E+01  0.51100000000E-03 0. -1.
        -11    1    3    3    0    0  0.85324334420E+01  0.15168433137E+02  0.32968312020E+02  0.37279932698E+02  0.51100000000E-03 0.  1.
        -12    1    3    3    0    0  0.54652980483E+00  0.47488437503E+01  0.56325083398E+01  0.73875139249E+01  0.00000000000E+00 0.  1.
</event>
<event>
 7    1  0.2297343E-008  0.4614232E+02  0.7816164E-02  0.1320468E+00
        -11   -1    0    0    0    0  0.00000000000E+00  0.00000000000E+00  0.45593999997E+02  0.45594000000E+02  0.51100000000E-03 0.  1.
         11   -1    0    0    0    0 -0.00000000000E+00 -0.00000000000E+00 -0.45593999997E+02  0.45594000000E+02  0.51100000000E-03 0. -1.
    9900012    2    1    2    0    0  0.22275685399E+02  0.12653917817E+02  0.37051121669E+02  0.46142318597E+02  0.10000007626E+02 0.  0.
         12    1    1    2    0    0 -0.22275685399E+02 -0.12653917817E+02 -0.37051121669E+02  0.45045681403E+02  0.00000000000E+00 0. -1.
         11    1    3    3    0    0  0.65167505005E+01  0.28356052019E+01  0.18347975162E+02  0.19676302670E+02  0.51100000000E-03 0. -1.
        -11    1    3    3    0    0  0.98555623445E-01 -0.39302261221E-01  0.49173010047E+00  0.50304734517E+00  0.51100000000E-03 0.  1.
        -12    1    3    3    0    0  0.15660379275E+02  0.98576148767E+01  0.18211416406E+02  0.25962968582E+02  0.00000000000E+00 0.  1.
</event>
<event>
 7    1  0.2297343E-008  0.4614232E+02  0.7816164E-02  0.1320468E+00
        -11   -1    0    0    0    0  0.00000000000E+00  0.00000000000E+00  0.45593999997E+02  0.45594000000E+02  0.51100000000E-03 0.  1.
         11   -1    0    0    0    0 -0.00000000000E+00 -0.00000000000E+00 -0.45593999997E+02  0.45594000000E+02  0.51100000000E-03 0. -1.
    9900012    2    1    2    0    0  0.30438751824E+02  0.73186853335E+01  0.32388775485E+02  0.46142317132E+02  0.99999942612E+01 0.  0.
         12    1    1    2    0    0 -0.30438751824E+02 -0.73186853335E+01 -0.32388775485E+02  0.45045682868E+02  0.00000000000E+00 0. -1.
         11    1    3    3    0    0  0.25857240324E+01  0.31759956305E+01  0.52719648805E+01  0.66758168773E+01  0.51100000000E-03 0. -1.
        -11    1    3    3    0    0  0.74750595927E+01 -0.74087881825E+00  0.51486712602E+01  0.91068234497E+01  0.51100000000E-03 0.  1.
        -12    1    3    3    0    0  0.20377968199E+02  0.48835685212E+01  0.21968139345E+02  0.30359676805E+02  0.00000000000E+00 0.  1.
</event>
<event>
 7    1  0.2297343E-008  0.4614232E+02  0.7816164E-02  0.1320468E+00
        -11   -1    0    0    0    0  0.00000000000E+00  0.00000000000E+00  0.45593999997E+02  0.45594000000E+02  0.51100000000E-03 0.  1.
         11   -1    0    0    0    0 -0.00000000000E+00 -0.00000000000E+00 -0.45593999997E+02  0.45594000000E+02  0.51100000000E-03 0. -1.
    9900012    2    1    2    0    0  0.34799212487E+02  0.87040264704E-01  0.28602810147E+02  0.46142317477E+02  0.99999974049E+01 0.  0.
         12    1    1    2    0    0 -0.34799212487E+02 -0.87040264704E-01 -0.28602810147E+02  0.45045682523E+02  0.00000000000E+00 0. -1.
         11    1    3    3    0    0  0.23867029651E+00 -0.72921370533E+00  0.14517116681E+01  0.16420058364E+01  0.51100000000E-03 0. -1.
        -11    1    3    3    0    0  0.17272258157E+02 -0.19869061040E+01  0.10367058836E+02  0.20242396273E+02  0.51100000000E-03 0.  1.
        -12    1    3    3    0    0  0.17288284033E+02  0.28031600740E+01  0.16784039643E+02  0.24257915367E+02  0.00000000000E+00 0.  1.
</event>
<event>
 7    1  0.2297343E-008  0.4614232E+02  0.7816164E-02  0.1320468E+00
        -11   -1    0    0    0    0  0.00000000000E+00  0.00000000000E+00  0.45593999997E+02  0.45594000000E+02  0.51100000000E-03 0.  1.
         11   -1    0    0    0    0 -0.00000000000E+00 -0.00000000000E+00 -0.45593999997E+02  0.45594000000E+02  0.51100000000E-03 0. -1.
    9900012    2    1    2    0    0 -0.10672566121E+01  0.39697069685E+02  0.21263046626E+02  0.46142317298E+02  0.99999957778E+01 0.  0.
         12    1    1    2    0    0  0.10672566121E+01 -0.39697069685E+02 -0.21263046626E+02  0.45045682702E+02  0.00000000000E+00 0. -1.
         11    1    3    3    0    0 -0.35412643024E+01  0.13313991764E+02  0.62375116941E+01  0.15123143917E+02  0.51100000000E-03 0. -1.
        -11    1    3    3    0    0  0.23687217273E+01  0.93185436806E+01  0.82115545959E+01  0.12644197408E+02  0.51100000000E-03 0.  1.
         12    1    3    3    0    0  0.10528596297E+00  0.17064534240E+02  0.68139803362E+01  0.18374975973E+02  0.00000000000E+00 0. -1.
</event>
<event>
 7    1  0.2297343E-008  0.4614232E+02  0.7816164E-02  0.1320468E+00
        -11   -1    0    0    0    0  0.00000000000E+00  0.00000000000E+00  0.45593999997E+02  0.45594000000E+02  0.51100000000E-03 0.  1.
         11   -1    0    0    0    0 -0.00000000000E+00 -0.00000000000E+00 -0.45593999997E+02  0.45594000000E+02  0.51100000000E-03 0. -1.
    9900012    2    1    2    0    0  0.10264765962E+02  0.32611582696E+02  0.29329725259E+02  0.46142317300E+02  0.99999957926E+01 0.  0.
         12    1    1    2    0    0 -0.10264765962E+02 -0.32611582696E+02 -0.29329725259E+02  0.45045682700E+02  0.00000000000E+00 0. -1.
         11    1    3    3    0    0  0.13716719731E+01  0.83267488072E+01  0.44276803820E+01  0.95299833959E+01  0.51100000000E-03 0. -1.
        -11    1    3    3    0    0  0.50934583889E-02 -0.26098466459E+00 -0.25008115746E+00  0.36149659045E+00  0.51100000000E-03 0.  1.
        -12    1    3    3    0    0  0.88880005310E+01  0.24545818553E+02  0.25152126034E+02  0.36250837313E+02  0.00000000000E+00 0.  1.
</event>
<event>
 7    1  0.2297343E-008  0.4614232E+02  0.7816164E-02  0.1320468E+00
        -11   -1    0    0    0    0  0.00000000000E+00  0.00000000000E+00  0.45593999997E+02  0.45594000000E+02  0.51100000000E-03 0.  1.
         11   -1    0    0    0    0 -0.00000000000E+00 -0.00000000000E+00 -0.45593999997E+02  0.45594000000E+02  0.51100000000E-03 0. -1.
    9900012    2    1    2    0    0 -0.34864285635E+02  0.21824961941E+02 -0.18364803872E+02  0.46142318766E+02  0.10000009165E+02 0.  0.
         12    1    1    2    0    0  0.34864285635E+02 -0.21824961941E+02  0.18364803872E+02  0.45045681234E+02  0.00000000000E+00 0. -1.
         11    1    3    3    0    0 -0.82753753391E+01  0.35892041798E+01 -0.84581581221E+01  0.12365462495E+02  0.51100000000E-03 0.  1.
        -11    1    3    3    0    0 -0.13301440439E+02  0.10069631044E+02 -0.46585969899E+01  0.17321325391E+02  0.51100000000E-03 0. -1.
         12    1    3    3    0    0 -0.13287469857E+02  0.81661267169E+01 -0.52480487600E+01  0.16455530880E+02  0.00000000000E+00 0. -1.
</event>
<event>
 7    1  0.2297343E-008  0.4614232E+02  0.7816164E-02  0.1320468E+00
        -11   -1    0    0    0    0  0.00000000000E+00  0.00000000000E+00  0.45593999997E+02  0.45594000000E+02  0.51100000000E-03 0.  1.
         11   -1    0    0    0    0 -0.00000000000E+00 -0.00000000000E+00 -0.45593999997E+02  0.45594000000E+02  0.51100000000E-03 0. -1.
    9900012    2    1    2    0    0  0.38465952579E+02 -0.67813447261E+01  0.22438744761E+02  0.46142318625E+02  0.10000007880E+02 0.  0.
         12    1    1    2    0    0 -0.38465952579E+02  0.67813447261E+01 -0.22438744761E+02  0.45045681375E+02  0.00000000000E+00 0. -1.
         11    1    3    3    0    0  0.23321701955E+02 -0.58895470266E+01  0.12106392043E+02  0.26928670128E+02  0.51100000000E-03 0. -1.
        -11    1    3    3    0    0  0.13663594219E+02 -0.11306936235E+01  0.10994514710E+02  0.17574175060E+02  0.51100000000E-03 0.  1.
         12    1    3    3    0    0  0.14806564040E+01  0.23889592404E+00 -0.66216199253E+00  0.16394734379E+01  0.00000000000E+00 0. -1.
</event>
<event>
 7    1  0.2297343E-008  0.4614232E+02  0.7816164E-02  0.1320468E+00
        -11   -1    0    0    0    0  0.00000000000E+00  0.00000000000E+00  0.45593999997E+02  0.45594000000E+02  0.51100000000E-03 0.  1.
         11   -1    0    0    0    0 -0.00000000000E+00 -0.00000000000E+00 -0.45593999997E+02  0.45594000000E+02  0.51100000000E-03 0. -1.
    9900012    2    1    2    0    0 -0.21570881204E+02 -0.21547358984E+02  0.33159039788E+02  0.46142317468E+02  0.99999973303E+01 0.  0.
         12    1    1    2    0    0  0.21570881204E+02  0.21547358984E+02 -0.33159039788E+02  0.45045682532E+02  0.00000000000E+00 0. -1.
         11    1    3    3    0    0  0.40329062601E+00 -0.28012340731E+01  0.26627955275E+01  0.38858764704E+01  0.51100000000E-03 0. -1.
        -11    1    3    3    0    0 -0.83424700241E+01 -0.60664753252E+01  0.79867090652E+01  0.13045552918E+02  0.51100000000E-03 0.  1.
         12    1    3    3    0    0 -0.13631701806E+02 -0.12679649586E+02  0.22509535195E+02  0.29210888080E+02  0.00000000000E+00 0. -1.
</event>
<event>
 7    1  0.2297343E-008  0.4614232E+02  0.7816164E-02  0.1320468E+00
        -11   -1    0    0    0    0  0.00000000000E+00  0.00000000000E+00  0.45593999997E+02  0.45594000000E+02  0.51100000000E-03 0. -1.
         11   -1    0    0    0    0 -0.00000000000E+00 -0.00000000000E+00 -0.45593999997E+02  0.45594000000E+02  0.51100000000E-03 0.  1.
    9900012    2    1    2    0    0 -0.30134738780E+02 -0.30192384487E+02  0.14471728076E+02  0.46142317900E+02  0.10000001268E+02 0.  0.
         12    1    1    2    0    0  0.30134738780E+02  0.30192384487E+02 -0.14471728076E+02  0.45045682100E+02  0.00000000000E+00 0. -1.
         11    1    3    3    0    0 -0.77069416041E+01 -0.61485223180E+01  0.21785361948E+01  0.10096895354E+02  0.51100000000E-03 0. -1.
        -11    1    3    3    0    0 -0.97164587438E+01 -0.15509490255E+02  0.44145387367E+01  0.18826630368E+02  0.51100000000E-03 0.  1.
        -12    1    3    3    0    0 -0.12711338432E+02 -0.85343719137E+01  0.78786531441E+01  0.17218792177E+02  0.00000000000E+00 0.  1.
</event>
<event>
 7    1  0.2297343E-008  0.4614232E+02  0.7816164E-02  0.1320468E+00
        -11   -1    0    0    0    0  0.00000000000E+00  0.00000000000E+00  0.45593999997E+02  0.45594000000E+02  0.51100000000E-03 0. -1.
         11   -1    0    0    0    0 -0.00000000000E+00 -0.00000000000E+00 -0.45593999997E+02  0.45594000000E+02  0.51100000000E-03 0.  1.
    9900012    2    1    2    0    0  0.39182583358E+02  0.16550342544E+02 -0.14829860591E+02  0.46142318275E+02  0.10000004688E+02 0.  0.
         12    1    1    2    0    0 -0.39182583358E+02 -0.16550342544E+02  0.14829860591E+02  0.45045681725E+02  0.00000000000E+00 0. -1.
         11    1    3    3    0    0  0.28880847567E+02  0.12172520455E+02 -0.11498597483E+02  0.33383998483E+02  0.51100000000E-03 0. -1.
        -11    1    3    3    0    0  0.19756730298E+01 -0.35367125723E+00 -0.24118468595E+01  0.31377337066E+01  0.51100000000E-03 0.  1.
         12    1    3    3    0    0  0.83260627612E+01  0.47314933466E+01 -0.91941624882E+00  0.96205860856E+01  0.00000000000E+00 0. -1.
</event>
<event>
 7    1  0.2297343E-008  0.4614232E+02  0.7816164E-02  0.1320468E+00
        -11   -1    0    0    0    0  0.00000000000E+00  0.00000000000E+00  0.45593999997E+02  0.45594000000E+02  0.51100000000E-03 0.  1.
         11   -1    0    0    0    0 -0.00000000000E+00 -0.00000000000E+00 -0.45593999997E+02  0.45594000000E+02  0.51100000000E-03 0. -1.
    9900012    2    1    2    0    0 -0.10683462051E+02 -0.17182842341E+02  0.40245833316E+02  0.46142317282E+02  0.99999956268E+01 0.  0.
         12    1    1    2    0    0  0.10683462051E+02  0.17182842341E+02 -0.40245833316E+02  0.45045682718E+02  0.00000000000E+00 0. -1.
         11    1    3    3    0    0  0.31233730094E+00 -0.25597467777E+01  0.20310216394E+01  0.32825153947E+01  0.51100000000E-03 0. -1.
        -11    1    3    3    0    0 -0.12627642373E+01 -0.16566840977E+01  0.10940869865E+01  0.23529135797E+01  0.51100000000E-03 0.  1.
        -12    1    3    3    0    0 -0.97330351149E+01 -0.12966411465E+02  0.37120724690E+02  0.40506888307E+02  0.00000000000E+00 0.  1.
</event>
<event>
 7    1  0.2297343E-008  0.4614232E+02  0.7816164E-02  0.1320468E+00
        -11   -1    0    0    0    0  0.00000000000E+00  0.00000000000E+00  0.45593999997E+02  0.45594000000E+02  0.51100000000E-03 0. -1.
         11   -1    0    0    0    0 -0.00000000000E+00 -0.00000000000E+00 -0.45593999997E+02  0.45594000000E+02  0.51100000000E-03 0.  1.
    9900012    2    1    2    0    0  0.44039801047E+02  0.69158982161E+01  0.64637189199E+01  0.46142318890E+02  0.10000010291E+02 0.  0.
         12    1    1    2    0    0 -0.44039801047E+02 -0.69158982161E+01 -0.64637189199E+01  0.45045681110E+02  0.00000000000E+00 0. -1.
         11    1    3    3    0    0  0.12469800841E+02 -0.14390966567E+01  0.22507480510E+01  0.12752756535E+02  0.51100000000E-03 0. -1.
        -11    1    3    3    0    0  0.28470297285E+02  0.57461323175E+01  0.32534466084E+01  0.29226029138E+02  0.51100000000E-03 0.  1.
         12    1    3    3    0    0  0.30997029219E+01  0.26088625554E+01  0.95952426055E+00  0.41635332163E+01  0.00000000000E+00 0. -1.
</event>
<event>
 7    1  0.2297343E-008  0.4614232E+02  0.7816164E-02  0.1320468E+00
        -11   -1    0    0    0    0  0.00000000000E+00  0.00000000000E+00  0.45593999997E+02  0.45594000000E+02  0.51100000000E-03 0. -1.
         11   -1    0    0    0    0 -0.00000000000E+00 -0.00000000000E+00 -0.45593999997E+02  0.45594000000E+02  0.51100000000E-03 0.  1.
    9900012    2    1    2    0    0  0.19368543942E+02  0.21266933711E+02 -0.34665407483E+02  0.46142318299E+02  0.10000004908E+02 0.  0.
         12    1    1    2    0    0 -0.19368543942E+02 -0.21266933711E+02  0.34665407483E+02  0.45045681701E+02  0.00000000000E+00 0. -1.
         11    1    3    3    0    0  0.35315569003E+01  0.79555309439E+01 -0.12041815724E+02  0.14858253361E+02  0.51100000000E-03 0. -1.
        -11    1    3    3    0    0  0.10110769197E+02  0.98441378673E+01 -0.19015081198E+02  0.23679274004E+02  0.51100000000E-03 0.  1.
         12    1    3    3    0    0  0.57262178454E+01  0.34672649000E+01 -0.36085105605E+01  0.76047909350E+01  0.00000000000E+00 0. -1.
</event>
<event>
 7    1  0.2297343E-008  0.4614232E+02  0.7816164E-02  0.1320468E+00
        -11   -1    0    0    0    0  0.00000000000E+00  0.00000000000E+00  0.45593999997E+02  0.45594000000E+02  0.51100000000E-03 0. -1.
         11   -1    0    0    0    0 -0.00000000000E+00 -0.00000000000E+00 -0.45593999997E+02  0.45594000000E+02  0.51100000000E-03 0.  1.
    9900012    2    1    2    0    0  0.35968668177E+02 -0.25610014787E+02  0.89160294452E+01  0.46142317311E+02  0.99999958954E+01 0.  0.
         12    1    1    2    0    0 -0.35968668177E+02  0.25610014787E+02 -0.89160294452E+01  0.45045682689E+02  0.00000000000E+00 0. -1.
         11    1    3    3    0    0  0.60930460617E+01 -0.47471120465E+01 -0.66984228109E+00  0.77529976160E+01  0.51100000000E-03 0. -1.
        -11    1    3    3    0    0  0.22113261380E+02 -0.11256651915E+02  0.59949036458E+01  0.25527385514E+02  0.51100000000E-03 0.  1.
        -12    1    3    3    0    0  0.77623607352E+01 -0.96062508259E+01  0.35909680805E+01  0.12861934181E+02  0.00000000000E+00 0.  1.
</event>
<event>
 7    1  0.2297343E-008  0.4614232E+02  0.7816164E-02  0.1320468E+00
        -11   -1    0    0    0    0  0.00000000000E+00  0.00000000000E+00  0.45593999997E+02  0.45594000000E+02  0.51100000000E-03 0.  1.
         11   -1    0    0    0    0 -0.00000000000E+00 -0.00000000000E+00 -0.45593999997E+02  0.45594000000E+02  0.51100000000E-03 0. -1.
    9900012    2    1    2    0    0  0.23101834350E+02 -0.33834559117E+02  0.18725422575E+02  0.46142316615E+02  0.99999895485E+01 0.  0.
         12    1    1    2    0    0 -0.23101834350E+02  0.33834559117E+02 -0.18725422575E+02  0.45045683385E+02  0.00000000000E+00 0. -1.
         11    1    3    3    0    0  0.37011248233E+01 -0.34060644671E+01  0.44936889374E+01  0.67448380736E+01  0.51100000000E-03 0. -1.
        -11    1    3    3    0    0  0.16446625694E+02 -0.20087003058E+02  0.94545757956E+01  0.27629118558E+02  0.51100000000E-03 0.  1.
        -12    1    3    3    0    0  0.29540838330E+01 -0.10341491592E+02  0.47771578422E+01  0.11768359983E+02  0.00000000000E+00 0.  1.
</event>
<event>
 7    1  0.2297343E-008  0.4614232E+02  0.7816164E-02  0.1320468E+00
        -11   -1    0    0    0    0  0.00000000000E+00  0.00000000000E+00  0.45593999997E+02  0.45594000000E+02  0.51100000000E-03 0.  1.
         11   -1    0    0    0    0 -0.00000000000E+00 -0.00000000000E+00 -0.45593999997E+02  0.45594000000E+02  0.51100000000E-03 0. -1.
    9900012    2    1    2    0    0 -0.44589467815E+02  0.33682655726E+01  0.54357951604E+01  0.46142315168E+02  0.99999763511E+01 0.  0.
         12    1    1    2    0    0  0.44589467815E+02 -0.33682655726E+01 -0.54357951604E+01  0.45045684832E+02  0.00000000000E+00 0. -1.
         11    1    3    3    0    0 -0.80514359879E+01  0.28287846436E+01  0.10977817872E+01  0.86042297238E+01  0.51100000000E-03 0. -1.
        -11    1    3    3    0    0 -0.30346634120E+02  0.23573291290E+01  0.14612248185E+01  0.30473109150E+02  0.51100000000E-03 0.  1.
         12    1    3    3    0    0 -0.61913977074E+01 -0.18178482000E+01  0.28767885547E+01  0.70649762943E+01  0.00000000000E+00 0. -1.
</event>
<event>
 7    1  0.2297343E-008  0.4614232E+02  0.7816164E-02  0.1320468E+00
        -11   -1    0    0    0    0  0.00000000000E+00  0.00000000000E+00  0.45593999997E+02  0.45594000000E+02  0.51100000000E-03 0.  1.
         11   -1    0    0    0    0 -0.00000000000E+00 -0.00000000000E+00 -0.45593999997E+02  0.45594000000E+02  0.51100000000E-03 0. -1.
    9900012    2    1    2    0    0 -0.30190716275E+02 -0.21028195002E+02  0.25989406163E+02  0.46142316889E+02  0.99999920488E+01 0.  0.
         12    1    1    2    0    0  0.30190716275E+02  0.21028195002E+02 -0.25989406163E+02  0.45045683111E+02  0.00000000000E+00 0. -1.
         11    1    3    3    0    0 -0.24453910122E+01 -0.15654596026E+01  0.22547427739E+01  0.36762026885E+01  0.51100000000E-03 0. -1.
        -11    1    3    3    0    0 -0.15843617766E+02 -0.56850491890E+01  0.92941651597E+01  0.19228143813E+02  0.51100000000E-03 0.  1.
         12    1    3    3    0    0 -0.11901707496E+02 -0.13777686211E+02  0.14440498229E+02  0.23237970388E+02  0.00000000000E+00 0. -1.
</event>
<event>
 7    1  0.2297343E-008  0.4614232E+02  0.7816164E-02  0.1320468E+00
        -11   -1    0    0    0    0  0.00000000000E+00  0.00000000000E+00  0.45593999997E+02  0.45594000000E+02  0.51100000000E-03 0.  1.
         11   -1    0    0    0    0 -0.00000000000E+00 -0.00000000000E+00 -0.45593999997E+02  0.45594000000E+02  0.51100000000E-03 0. -1.
    9900012    2    1    2    0    0  0.25615094739E+02  0.29002840050E+02  0.23061129216E+02  0.46142317741E+02  0.99999998211E+01 0.  0.
         12    1    1    2    0    0 -0.25615094739E+02 -0.29002840050E+02 -0.23061129216E+02  0.45045682259E+02  0.00000000000E+00 0. -1.
         11    1    3    3    0    0  0.65829464888E+01  0.46431327666E+01  0.30760658898E+01  0.86229953023E+01  0.51100000000E-03 0. -1.
        -11    1    3    3    0    0  0.14130598675E+02  0.22284831852E+02  0.17349305975E+02  0.31579834826E+02  0.51100000000E-03 0.  1.
        -12    1    3    3    0    0  0.49015495748E+01  0.20748754310E+01  0.26357573514E+01  0.59394876129E+01  0.00000000000E+00 0.  1.
</event>
<event>
 7    1  0.2297343E-008  0.4614232E+02  0.7816164E-02  0.1320468E+00
        -11   -1    0    0    0    0  0.00000000000E+00  0.00000000000E+00  0.45593999997E+02  0.45594000000E+02  0.51100000000E-03 0.  1.
         11   -1    0    0    0    0 -0.00000000000E+00 -0.00000000000E+00 -0.45593999997E+02  0.45594000000E+02  0.51100000000E-03 0. -1.
    9900012    2    1    2    0    0  0.17890342505E+02 -0.15478968892E+02  0.38333413810E+02  0.46142318218E+02  0.10000004164E+02 0.  0.
         12    1    1    2    0    0 -0.17890342505E+02  0.15478968892E+02 -0.38333413810E+02  0.45045681782E+02  0.00000000000E+00 0. -1.
         11    1    3    3    0    0  0.18479744668E+01 -0.19123342485E+01  0.86816119770E+01  0.90797807621E+01  0.51100000000E-03 0. -1.
        -11    1    3    3    0    0  0.26645608567E+01 -0.33747300433E+01  0.21044722959E+01  0.47872216713E+01  0.51100000000E-03 0.  1.
         12    1    3    3    0    0  0.13377807181E+02 -0.10191904600E+02  0.27547329537E+02  0.32275315784E+02  0.00000000000E+00 0. -1.
</event>
<event>
 7    1  0.2297343E-008  0.4614232E+02  0.7816164E-02  0.1320468E+00
        -11   -1    0    0    0    0  0.00000000000E+00  0.00000000000E+00  0.45593999997E+02  0.45594000000E+02  0.51100000000E-03 0. -1.
         11   -1    0    0    0    0 -0.00000000000E+00 -0.00000000000E+00 -0.45593999997E+02  0.45594000000E+02  0.51100000000E-03 0.  1.
    9900012    2    1    2    0    0  0.22144166020E+01 -0.44111013793E+02 -0.88559466565E+01  0.46142323516E+02  0.10000052478E+02 0.  0.
         12    1    1    2    0    0 -0.22144166020E+01  0.44111013793E+02  0.88559466565E+01  0.45045676484E+02  0.00000000000E+00 0. -1.
         11    1    3    3    0    0  0.21796574661E+01 -0.11132909331E+02 -0.50173546458E+01  0.12404290578E+02  0.51100000000E-03 0. -1.
        -11    1    3    3    0    0  0.67450497174E+00 -0.32101279287E+02 -0.27908320476E+01  0.32229424950E+02  0.51100000000E-03 0.  1.
         12    1    3    3    0    0 -0.63974583584E+00 -0.87682517493E+00 -0.10477599631E+01  0.15086079882E+01  0.00000000000E+00 0. -1.
</event>
<event>
 7    1  0.2297343E-008  0.4614232E+02  0.7816164E-02  0.1320468E+00
        -11   -1    0    0    0    0  0.00000000000E+00  0.00000000000E+00  0.45593999997E+02  0.45594000000E+02  0.51100000000E-03 0.  1.
         11   -1    0    0    0    0 -0.00000000000E+00 -0.00000000000E+00 -0.45593999997E+02  0.45594000000E+02  0.51100000000E-03 0. -1.
    9900012    2    1    2    0    0 -0.27845678550E+02  0.35335387878E+02 -0.22676113572E+01  0.46142317503E+02  0.99999976426E+01 0.  0.
         12    1    1    2    0    0  0.27845678550E+02 -0.35335387878E+02  0.22676113572E+01  0.45045682497E+02  0.00000000000E+00 0. -1.
         11    1    3    3    0    0 -0.13336342996E+02  0.11312271483E+02 -0.19471268845E+01  0.17595932314E+02  0.51100000000E-03 0. -1.
        -11    1    3    3    0    0 -0.52329410854E+01  0.47075420984E+01 -0.99136722383E+00  0.71082652064E+01  0.51100000000E-03 0.  1.
         12    1    3    3    0    0 -0.92763944691E+01  0.19315574296E+02  0.67088275116E+00  0.21438119983E+02  0.00000000000E+00 0. -1.
</event>
<event>
 7    1  0.2297343E-008  0.4614232E+02  0.7816164E-02  0.1320468E+00
        -11   -1    0    0    0    0  0.00000000000E+00  0.00000000000E+00  0.45593999997E+02  0.45594000000E+02  0.51100000000E-03 0. -1.
         11   -1    0    0    0    0 -0.00000000000E+00 -0.00000000000E+00 -0.45593999997E+02  0.45594000000E+02  0.51100000000E-03 0.  1.
    9900012    2    1    2    0    0 -0.14928903553E+02 -0.41935181096E+02 -0.69052160204E+01  0.46142316710E+02  0.99999904120E+01 0.  0.
         12    1    1    2    0    0  0.14928903553E+02  0.41935181096E+02  0.69052160204E+01  0.45045683290E+02  0.00000000000E+00 0. -1.
         11    1    3    3    0    0 -0.58730717648E+01 -0.17397412489E+02 -0.45267328425E+01  0.18911748828E+02  0.51100000000E-03 0. -1.
        -11    1    3    3    0    0 -0.10187550038E+02 -0.22207715073E+02 -0.14396257997E+01  0.24475320371E+02  0.51100000000E-03 0.  1.
        -12    1    3    3    0    0  0.11317182501E+01 -0.23300535335E+01 -0.93885737827E+00  0.27552475104E+01  0.00000000000E+00 0.  1.
</event>
<event>
 7    1  0.2297343E-008  0.4614232E+02  0.7816164E-02  0.1320468E+00
        -11   -1    0    0    0    0  0.00000000000E+00  0.00000000000E+00  0.45593999997E+02  0.45594000000E+02  0.51100000000E-03 0.  1.
         11   -1    0    0    0    0 -0.00000000000E+00 -0.00000000000E+00 -0.45593999997E+02  0.45594000000E+02  0.51100000000E-03 0. -1.
    9900012    2    1    2    0    0  0.35409575702E+02 -0.23456000053E+01  0.27744796594E+02  0.46142316202E+02  0.99999857797E+01 0.  0.
         12    1    1    2    0    0 -0.35409575702E+02  0.23456000053E+01 -0.27744796594E+02  0.45045683798E+02  0.00000000000E+00 0. -1.
         11    1    3    3    0    0  0.11629477813E+02 -0.25028699345E+01  0.12450931145E+02  0.17220185793E+02  0.51100000000E-03 0. -1.
        -11    1    3    3    0    0  0.14404017956E+02 -0.80093674613E+00  0.12509236594E+02  0.19094455566E+02  0.51100000000E-03 0.  1.
         12    1    3    3    0    0  0.93760799331E+01  0.95820667538E+00  0.27846288558E+01  0.98276748425E+01  0.00000000000E+00 0. -1.
</event>
<event>
 7    1  0.2297343E-008  0.4614232E+02  0.7816164E-02  0.1320468E+00
        -11   -1    0    0    0    0  0.00000000000E+00  0.00000000000E+00  0.45593999997E+02  0.45594000000E+02  0.51100000000E-03 0.  1.
         11   -1    0    0    0    0 -0.00000000000E+00 -0.00000000000E+00 -0.45593999997E+02  0.45594000000E+02  0.51100000000E-03 0. -1.
    9900012    2    1    2    0    0 -0.70265519428E+01  0.16317415401E+02  0.41394239167E+02  0.46142317479E+02  0.99999974268E+01 0.  0.
         12    1    1    2    0    0  0.70265519428E+01 -0.16317415401E+02 -0.41394239167E+02  0.45045682521E+02  0.00000000000E+00 0. -1.
         11    1    3    3    0    0 -0.48513531909E+01  0.37255552873E+01  0.97285295821E+01  0.11491722154E+02  0.51100000000E-03 0. -1.
        -11    1    3    3    0    0  0.13545875317E+01  0.66676441766E+01  0.19675899186E+02  0.20819063267E+02  0.51100000000E-03 0.  1.
         12    1    3    3    0    0 -0.35297862836E+01  0.59242159368E+01  0.11989810399E+02  0.13831532058E+02  0.00000000000E+00 0. -1.
</event>
<event>
 7    1  0.2297343E-008  0.4614232E+02  0.7816164E-02  0.1320468E+00
        -11   -1    0    0    0    0  0.00000000000E+00  0.00000000000E+00  0.45593999997E+02  0.45594000000E+02  0.51100000000E-03 0. -1.
         11   -1    0    0    0    0 -0.00000000000E+00 -0.00000000000E+00 -0.45593999997E+02  0.45594000000E+02  0.51100000000E-03 0.  1.
    9900012    2    1    2    0    0  0.25185262024E+02 -0.17661212374E+02 -0.32907413113E+02  0.46142315595E+02  0.99999802458E+01 0.  0.
         12    1    1    2    0    0 -0.25185262024E+02  0.17661212374E+02  0.32907413113E+02  0.45045684405E+02  0.00000000000E+00 0. -1.
         11    1    3    3    0    0  0.77392532126E+00  0.31734529749E+00 -0.37890327444E+00  0.91827903886E+00  0.51100000000E-03 0. -1.
        -11    1    3    3    0    0  0.17318536598E+02 -0.82452170356E+01 -0.22377783632E+02  0.29473386544E+02  0.51100000000E-03 0.  1.
         12    1    3    3    0    0  0.70928001056E+01 -0.97333406362E+01 -0.10150726206E+02  0.15750650012E+02  0.00000000000E+00 0. -1.
</event>
<event>
 7    1  0.2297343E-008  0.4614232E+02  0.7816164E-02  0.1320468E+00
        -11   -1    0    0    0    0  0.00000000000E+00  0.00000000000E+00  0.45593999997E+02  0.45594000000E+02  0.51100000000E-03 0.  1.
         11   -1    0    0    0    0 -0.00000000000E+00 -0.00000000000E+00 -0.45593999997E+02  0.45594000000E+02  0.51100000000E-03 0. -1.
    9900012    2    1    2    0    0  0.21946230279E+01 -0.43851150369E+02  0.10068464508E+02  0.46142315007E+02  0.99999748854E+01 0.  0.
         12    1    1    2    0    0 -0.21946230279E+01  0.43851150369E+02 -0.10068464508E+02  0.45045684993E+02  0.00000000000E+00 0. -1.
         11    1    3    3    0    0  0.50768042628E+01 -0.23208463956E+02  0.25029442303E+01  0.23888731042E+02  0.51100000000E-03 0.  1.
        -11    1    3    3    0    0 -0.41379825969E+00 -0.85493708839E+00  0.77695983748E-01  0.95298654337E+00  0.51100000000E-03 0. -1.
        -12    1    3    3    0    0 -0.24683829752E+01 -0.19787749325E+02  0.74878242937E+01  0.21300597421E+02  0.00000000000E+00 0.  1.
</event>
<event>
 7    1  0.2297343E-008  0.4614232E+02  0.7816164E-02  0.1320468E+00
        -11   -1    0    0    0    0  0.00000000000E+00  0.00000000000E+00  0.45593999997E+02  0.45594000000E+02  0.51100000000E-03 0. -1.
         11   -1    0    0    0    0 -0.00000000000E+00 -0.00000000000E+00 -0.45593999997E+02  0.45594000000E+02  0.51100000000E-03 0.  1.
    9900012    2    1    2    0    0 -0.28625041820E+02 -0.34480939573E+02 -0.45590967755E+01  0.46142316783E+02  0.99999910821E+01 0.  0.
         12    1    1    2    0    0  0.28625041820E+02  0.34480939573E+02  0.45590967755E+01  0.45045683217E+02  0.00000000000E+00 0. -1.
         11    1    3    3    0    0 -0.98569056383E+01 -0.95591294882E+01 -0.36109750789E+01  0.14197700047E+02  0.51100000000E-03 0. -1.
        -11    1    3    3    0    0 -0.14352017039E+02 -0.21991472153E+02 -0.26113664808E+01  0.26389855545E+02  0.51100000000E-03 0.  1.
         12    1    3    3    0    0 -0.44161191425E+01 -0.29303379324E+01  0.16632447842E+01  0.55547611911E+01  0.00000000000E+00 0. -1.
</event>
<event>
 7    1  0.2297343E-008  0.4614232E+02  0.7816164E-02  0.1320468E+00
        -11   -1    0    0    0    0  0.00000000000E+00  0.00000000000E+00  0.45593999997E+02  0.45594000000E+02  0.51100000000E-03 0.  1.
         11   -1    0    0    0    0 -0.00000000000E+00 -0.00000000000E+00 -0.45593999997E+02  0.45594000000E+02  0.51100000000E-03 0. -1.
    9900012    2    1    2    0    0  0.24575280094E+02  0.18584282745E+01  0.37705640247E+02  0.46142318145E+02  0.10000003499E+02 0.  0.
         12    1    1    2    0    0 -0.24575280094E+02 -0.18584282745E+01 -0.37705640247E+02  0.45045681855E+02  0.00000000000E+00 0. -1.
         11    1    3    3    0    0  0.16182697880E+01  0.21640919779E+00  0.82518667320E+01  0.84118330269E+01  0.51100000000E-03 0. -1.
        -11    1    3    3    0    0  0.39636385886E+01  0.72022987689E+00  0.86699976037E+01  0.95602312025E+01  0.51100000000E-03 0.  1.
         12    1    3    3    0    0  0.18993371718E+02  0.92178919980E+00  0.20783775911E+02  0.28170253915E+02  0.00000000000E+00 0. -1.
</event>
<event>
 7    1  0.2297343E-008  0.4614232E+02  0.7816164E-02  0.1320468E+00
        -11   -1    0    0    0    0  0.00000000000E+00  0.00000000000E+00  0.45593999997E+02  0.45594000000E+02  0.51100000000E-03 0. -1.
         11   -1    0    0    0    0 -0.00000000000E+00 -0.00000000000E+00 -0.45593999997E+02  0.45594000000E+02  0.51100000000E-03 0.  1.
    9900012    2    1    2    0    0 -0.23598714953E+02  0.30604713642E+02 -0.23142291462E+02  0.46142317647E+02  0.99999989611E+01 0.  0.
         12    1    1    2    0    0  0.23598714953E+02 -0.30604713642E+02  0.23142291462E+02  0.45045682353E+02  0.00000000000E+00 0. -1.
         11    1    3    3    0    0 -0.84998544262E+00  0.22154071542E+00 -0.20108596508E-01  0.87861263253E+00  0.51100000000E-03 0. -1.
        -11    1    3    3    0    0 -0.81876324020E+01  0.96405076196E+01 -0.12505036229E+02  0.17786304924E+02  0.51100000000E-03 0.  1.
        -12    1    3    3    0    0 -0.14561097108E+02  0.20742665307E+02 -0.10617146637E+02  0.27477400090E+02  0.00000000000E+00 0.  1.
</event>
<event>
 7    1  0.2297343E-008  0.4614232E+02  0.7816164E-02  0.1320468E+00
        -11   -1    0    0    0    0  0.00000000000E+00  0.00000000000E+00  0.45593999997E+02  0.45594000000E+02  0.51100000000E-03 0.  1.
         11   -1    0    0    0    0 -0.00000000000E+00 -0.00000000000E+00 -0.45593999997E+02  0.45594000000E+02  0.51100000000E-03 0. -1.
    9900012    2    1    2    0    0  0.48312109672E+01 -0.30841456359E+02  0.32474261191E+02  0.46142315748E+02  0.99999816471E+01 0.  0.
         12    1    1    2    0    0 -0.48312109672E+01  0.30841456359E+02 -0.32474261191E+02  0.45045684252E+02  0.00000000000E+00 0. -1.
         11    1    3    3    0    0  0.18134908694E+01 -0.65356087067E+01  0.93509614760E+01  0.11551770907E+02  0.51100000000E-03 0. -1.
        -11    1    3    3    0    0 -0.80754563972E+00 -0.29116510041E+01  0.66992896370E+01  0.73491716153E+01  0.51100000000E-03 0.  1.
        -12    1    3    3    0    0  0.38252657376E+01 -0.21394196648E+02  0.16424010078E+02  0.27241373226E+02  0.00000000000E+00 0.  1.
</event>
<event>
 7    1  0.2297343E-008  0.4614232E+02  0.7816164E-02  0.1320468E+00
        -11   -1    0    0    0    0  0.00000000000E+00  0.00000000000E+00  0.45593999997E+02  0.45594000000E+02  0.51100000000E-03 0.  1.
         11   -1    0    0    0    0 -0.00000000000E+00 -0.00000000000E+00 -0.45593999997E+02  0.45594000000E+02  0.51100000000E-03 0. -1.
    9900012    2    1    2    0    0 -0.31884130398E+01  0.19891681557E+02  0.40289807574E+02  0.46142316886E+02  0.99999920179E+01 0.  0.
         12    1    1    2    0    0  0.31884130398E+01 -0.19891681557E+02 -0.40289807574E+02  0.45045683114E+02  0.00000000000E+00 0. -1.
         11    1    3    3    0    0 -0.19467877125E+01  0.71120682196E+01  0.70154967939E+01  0.10177853029E+02  0.51100000000E-03 0. -1.
        -11    1    3    3    0    0  0.27292934898E+00 -0.17275716167E+00  0.13212874795E+00  0.34898958953E+00  0.51100000000E-03 0.  1.
        -12    1    3    3    0    0 -0.15145546763E+01  0.12952370499E+02  0.33142182032E+02  0.35615474267E+02  0.00000000000E+00 0.  1.
</event>
<event>
 7    1  0.2297343E-008  0.4614232E+02  0.7816164E-02  0.1320468E+00
        -11   -1    0    0    0    0  0.00000000000E+00  0.00000000000E+00  0.45593999997E+02  0.45594000000E+02  0.51100000000E-03 0. -1.
         11   -1    0    0    0    0 -0.00000000000E+00 -0.00000000000E+00 -0.45593999997E+02  0.45594000000E+02  0.51100000000E-03 0.  1.
    9900012    2    1    2    0    0  0.65089445466E+01 -0.44507704975E+02 -0.24106361798E+01  0.46142319541E+02  0.10000016232E+02 0.  0.
         12    1    1    2    0    0 -0.65089445466E+01  0.44507704975E+02  0.24106361798E+01  0.45045680459E+02  0.00000000000E+00 0. -1.
         11    1    3    3    0    0 -0.49024475671E+00 -0.67759970874E+01  0.21019604652E+01  0.71114495364E+01  0.51100000000E-03 0. -1.
        -11    1    3    3    0    0  0.62863267435E+01 -0.35309966140E+02 -0.27876760629E+01  0.35973361684E+02  0.51100000000E-03 0.  1.
         12    1    3    3    0    0  0.71286255978E+00 -0.24217417472E+01 -0.17249205821E+01  0.30575083211E+01  0.00000000000E+00 0. -1.
</event>
<event>
 7    1  0.2297343E-008  0.4614232E+02  0.7816164E-02  0.1320468E+00
        -11   -1    0    0    0    0  0.00000000000E+00  0.00000000000E+00  0.45593999997E+02  0.45594000000E+02  0.51100000000E-03 0.  1.
         11   -1    0    0    0    0 -0.00000000000E+00 -0.00000000000E+00 -0.45593999997E+02  0.45594000000E+02  0.51100000000E-03 0. -1.
    9900012    2    1    2    0    0 -0.21287006505E+02 -0.14858490875E+02  0.36813068306E+02  0.46142318796E+02  0.10000009435E+02 0.  0.
         12    1    1    2    0    0  0.21287006505E+02  0.14858490875E+02 -0.36813068306E+02  0.45045681204E+02  0.00000000000E+00 0. -1.
         11    1    3    3    0    0 -0.37220046508E+00 -0.32516553666E+01  0.21784321660E+01  0.39315852747E+01  0.51100000000E-03 0. -1.
        -11    1    3    3    0    0 -0.13020365454E+02 -0.89407667941E+01  0.22901323241E+02  0.27819738206E+02  0.51100000000E-03 0.  1.
         12    1    3    3    0    0 -0.78944405862E+01 -0.26660687138E+01  0.11733312900E+02  0.14390995315E+02  0.00000000000E+00 0. -1.
</event>
<event>
 7    1  0.2297343E-008  0.4614232E+02  0.7816164E-02  0.1320468E+00
        -11   -1    0    0    0    0  0.00000000000E+00  0.00000000000E+00  0.45593999997E+02  0.45594000000E+02  0.51100000000E-03 0.  1.
         11   -1    0    0    0    0 -0.00000000000E+00 -0.00000000000E+00 -0.45593999997E+02  0.45594000000E+02  0.51100000000E-03 0. -1.
    9900012    2    1    2    0    0 -0.24249925781E+02  0.12253457606E+02  0.35929198831E+02  0.46142318161E+02  0.10000003650E+02 0.  0.
         12    1    1    2    0    0  0.24249925781E+02 -0.12253457606E+02 -0.35929198831E+02  0.45045681839E+02  0.00000000000E+00 0. -1.
         11    1    3    3    0    0 -0.27961047867E+00  0.58928210641E+00  0.12353401793E+01  0.13969613597E+01  0.51100000000E-03 0.  1.
        -11    1    3    3    0    0 -0.11026534242E+02  0.10358743091E+02  0.20687563651E+02  0.25629344625E+02  0.51100000000E-03 0. -1.
        -12    1    3    3    0    0 -0.12943781060E+02  0.13054324080E+01  0.14006295001E+02  0.19116012177E+02  0.00000000000E+00 0.  1.
</event>
<event>
 7    1  0.2297343E-008  0.4614232E+02  0.7816164E-02  0.1320468E+00
        -11   -1    0    0    0    0  0.00000000000E+00  0.00000000000E+00  0.45593999997E+02  0.45594000000E+02  0.51100000000E-03 0.  1.
         11   -1    0    0    0    0 -0.00000000000E+00 -0.00000000000E+00 -0.45593999997E+02  0.45594000000E+02  0.51100000000E-03 0. -1.
    9900012    2    1    2    0    0  0.34317327065E+01 -0.35897404125E+02  0.26994686339E+02  0.46142317601E+02  0.99999985411E+01 0.  0.
         12    1    1    2    0    0 -0.34317327065E+01  0.35897404125E+02 -0.26994686339E+02  0.45045682399E+02  0.00000000000E+00 0. -1.
         11    1    3    3    0    0  0.27451956477E+00 -0.17637978218E+01 -0.70092277035E+00  0.19177165428E+01  0.51100000000E-03 0. -1.
        -11    1    3    3    0    0  0.92133486034E-01 -0.41794803435E+01  0.50078259101E+01  0.65234090112E+01  0.51100000000E-03 0.  1.
        -12    1    3    3    0    0  0.30650796557E+01 -0.29954125959E+02  0.22687783199E+02  0.37701192047E+02  0.00000000000E+00 0.  1.
</event>
<event>
 7    1  0.2297343E-008  0.4614231E+02  0.7816164E-02  0.1320468E+00
        -11   -1    0    0    0    0  0.00000000000E+00  0.00000000000E+00  0.45593999997E+02  0.45594000000E+02  0.51100000000E-03 0.  1.
         11   -1    0    0    0    0 -0.00000000000E+00 -0.00000000000E+00 -0.45593999997E+02  0.45594000000E+02  0.51100000000E-03 0. -1.
    9900012    2    1    2    0    0  0.30575472681E+01 -0.44030403009E+02 -0.90049354962E+01  0.46142313772E+02  0.99999636257E+01 0.  0.
         12    1    1    2    0    0 -0.30575472681E+01  0.44030403009E+02  0.90049354962E+01  0.45045686228E+02  0.00000000000E+00 0. -1.
         11    1    3    3    0    0 -0.16170850776E+01 -0.80802806803E+01 -0.21267415455E+01  0.85105187787E+01  0.51100000000E-03 0. -1.
        -11    1    3    3    0    0  0.12783514292E+01 -0.23537839592E+02 -0.75320916409E+01  0.24746645829E+02  0.51100000000E-03 0.  1.
        -12    1    3    3    0    0  0.33962809164E+01 -0.12412282736E+02  0.65389769018E+00  0.12885149164E+02  0.00000000000E+00 0.  1.
</event>
<event>
 7    1  0.2297343E-008  0.4614232E+02  0.7816164E-02  0.1320468E+00
        -11   -1    0    0    0    0  0.00000000000E+00  0.00000000000E+00  0.45593999997E+02  0.45594000000E+02  0.51100000000E-03 0.  1.
         11   -1    0    0    0    0 -0.00000000000E+00 -0.00000000000E+00 -0.45593999997E+02  0.45594000000E+02  0.51100000000E-03 0. -1.
    9900012    2    1    2    0    0 -0.79968875638E+01  0.31927969945E+02  0.30753342165E+02  0.46142317301E+02  0.99999958058E+01 0.  0.
         12    1    1    2    0    0  0.79968875638E+01 -0.31927969945E+02 -0.30753342165E+02  0.45045682699E+02  0.00000000000E+00 0. -1.
         11    1    3    3    0    0  0.90681877117E+00  0.30195949158E+01  0.35781440837E+01  0.47690029445E+01  0.51100000000E-03 0. -1.
        -11    1    3    3    0    0 -0.28558339369E+01  0.17764652539E+01  0.35757512807E+01  0.49089320382E+01  0.51100000000E-03 0.  1.
        -12    1    3    3    0    0 -0.60478723981E+01  0.27131909775E+02  0.23599446800E+02  0.36464382318E+02  0.00000000000E+00 0.  1.
</event>
<event>
 7    1  0.2297343E-008  0.4614232E+02  0.7816164E-02  0.1320468E+00
        -11   -1    0    0    0    0  0.00000000000E+00  0.00000000000E+00  0.45593999997E+02  0.45594000000E+02  0.51100000000E-03 0.  1.
         11   -1    0    0    0    0 -0.00000000000E+00 -0.00000000000E+00 -0.45593999997E+02  0.45594000000E+02  0.51100000000E-03 0. -1.
    9900012    2    1    2    0    0 -0.84825948430E+01 -0.30014031833E+02  0.32501029234E+02  0.46142318482E+02  0.10000006575E+02 0.  0.
         12    1    1    2    0    0  0.84825948430E+01  0.30014031833E+02 -0.32501029234E+02  0.45045681518E+02  0.00000000000E+00 0. -1.
         11    1    3    3    0    0 -0.33735873043E+01 -0.81755408702E+01  0.58803832329E+01  0.10620709348E+02  0.51100000000E-03 0. -1.
        -11    1    3    3    0    0 -0.35211774445E+01 -0.21374721427E+02  0.23317381312E+02  0.31827310257E+02  0.51100000000E-03 0.  1.
        -12    1    3    3    0    0 -0.15878300942E+01 -0.46376953573E+00  0.33032646890E+01  0.36942988775E+01  0.00000000000E+00 0.  1.
</event>
<event>
 7    1  0.2297343E-008  0.4614232E+02  0.7816164E-02  0.1320468E+00
        -11   -1    0    0    0    0  0.00000000000E+00  0.00000000000E+00  0.45593999997E+02  0.45594000000E+02  0.51100000000E-03 0.  1.
         11   -1    0    0    0    0 -0.00000000000E+00 -0.00000000000E+00 -0.45593999997E+02  0.45594000000E+02  0.51100000000E-03 0. -1.
    9900012    2    1    2    0    0  0.77178838619E+01 -0.61542377314E+01  0.43950803181E+02  0.46142317925E+02  0.10000001496E+02 0.  0.
         12    1    1    2    0    0 -0.77178838619E+01  0.61542377314E+01 -0.43950803181E+02  0.45045682075E+02  0.00000000000E+00 0. -1.
         11    1    3    3    0    0  0.60913527731E+00 -0.46451720530E+01  0.93284800693E+01  0.10438831824E+02  0.51100000000E-03 0. -1.
        -11    1    3    3    0    0  0.57642368622E+01 -0.28739502329E+01  0.21564497250E+02  0.22505856093E+02  0.51100000000E-03 0.  1.
         12    1    3    3    0    0  0.13445117224E+01  0.13648845545E+01  0.13057825861E+02  0.13197630008E+02  0.00000000000E+00 0. -1.
</event>
<event>
 7    1  0.2297343E-008  0.4614232E+02  0.7816164E-02  0.1320468E+00
        -11   -1    0    0    0    0  0.00000000000E+00  0.00000000000E+00  0.45593999997E+02  0.45594000000E+02  0.51100000000E-03 0. -1.
         11   -1    0    0    0    0 -0.00000000000E+00 -0.00000000000E+00 -0.45593999997E+02  0.45594000000E+02  0.51100000000E-03 0.  1.
    9900012    2    1    2    0    0 -0.20757916500E+02  0.60481401310E+01 -0.39517623579E+02  0.46142315747E+02  0.99999816368E+01 0.  0.
         12    1    1    2    0    0  0.20757916500E+02 -0.60481401310E+01  0.39517623579E+02  0.45045684253E+02  0.00000000000E+00 0. -1.
         11    1    3    3    0    0 -0.45056798431E+01  0.44425825556E+01 -0.14331488051E+02  0.15666181431E+02  0.51100000000E-03 0. -1.
        -11    1    3    3    0    0 -0.81614679254E+00 -0.79041592127E+00 -0.45313145635E+00  0.12231848975E+01  0.51100000000E-03 0.  1.
        -12    1    3    3    0    0 -0.15436089865E+02  0.23959734967E+01 -0.24733004072E+02  0.29252949419E+02  0.00000000000E+00 0.  1.
</event>
<event>
 7    1  0.2297343E-008  0.4614231E+02  0.7816164E-02  0.1320468E+00
        -11   -1    0    0    0    0  0.00000000000E+00  0.00000000000E+00  0.45593999997E+02  0.45594000000E+02  0.51100000000E-03 0.  1.
         11   -1    0    0    0    0 -0.00000000000E+00 -0.00000000000E+00 -0.45593999997E+02  0.45594000000E+02  0.51100000000E-03 0. -1.
    9900012    2    1    2    0    0  0.11815142042E+02  0.80568784692E+01  0.42715372951E+02  0.46142312543E+02  0.99999524186E+01 0.  0.
         12    1    1    2    0    0 -0.11815142042E+02 -0.80568784692E+01 -0.42715372951E+02  0.45045687457E+02  0.00000000000E+00 0. -1.
         11    1    3    3    0    0  0.58790745152E+01  0.71004364380E+01  0.15595591197E+02  0.18116351172E+02  0.51100000000E-03 0. -1.
        -11    1    3    3    0    0  0.48898385005E+01  0.18758706229E+01  0.24555737606E+02  0.25108039764E+02  0.51100000000E-03 0.  1.
         12    1    3    3    0    0  0.10462290259E+01 -0.91942859163E+00  0.25640441479E+01  0.29179216066E+01  0.00000000000E+00 0. -1.
</event>
<event>
 7    1  0.2297343E-008  0.4614232E+02  0.7816164E-02  0.1320468E+00
        -11   -1    0    0    0    0  0.00000000000E+00  0.00000000000E+00  0.45593999997E+02  0.45594000000E+02  0.51100000000E-03 0. -1.
         11   -1    0    0    0    0 -0.00000000000E+00 -0.00000000000E+00 -0.45593999997E+02  0.45594000000E+02  0.51100000000E-03 0.  1.
    9900012    2    1    2    0    0 -0.11021111723E+02  0.31568559869E+02 -0.30184012974E+02  0.46142317465E+02  0.99999972989E+01 0.  0.
         12    1    1    2    0    0  0.11021111723E+02 -0.31568559869E+02  0.30184012974E+02  0.45045682535E+02  0.00000000000E+00 0. -1.
         11    1    3    3    0    0  0.13384894357E+01  0.16120568803E+01 -0.16490492596E+01  0.26663917710E+01  0.51100000000E-03 0. -1.
        -11    1    3    3    0    0 -0.10198440948E+02  0.19810259114E+02 -0.21332626161E+02  0.30846969108E+02  0.51100000000E-03 0.  1.
        -12    1    3    3    0    0 -0.21611602106E+01  0.10146243875E+02 -0.72023375539E+01  0.12628956586E+02  0.00000000000E+00 0.  1.
</event>
<event>
 7    1  0.2297343E-008  0.4614232E+02  0.7816164E-02  0.1320468E+00
        -11   -1    0    0    0    0  0.00000000000E+00  0.00000000000E+00  0.45593999997E+02  0.45594000000E+02  0.51100000000E-03 0. -1.
         11   -1    0    0    0    0 -0.00000000000E+00 -0.00000000000E+00 -0.45593999997E+02  0.45594000000E+02  0.51100000000E-03 0.  1.
    9900012    2    1    2    0    0  0.28255752463E+02 -0.16623989689E+02 -0.30892864669E+02  0.46142315769E+02  0.99999818333E+01 0.  0.
         12    1    1    2    0    0 -0.28255752463E+02  0.16623989689E+02  0.30892864669E+02  0.45045684231E+02  0.00000000000E+00 0. -1.
         11    1    3    3    0    0  0.61413447949E+01 -0.55363789720E+01 -0.39540102478E+01  0.91652498773E+01  0.51100000000E-03 0. -1.
        -11    1    3    3    0    0  0.15998617280E+02 -0.74490791367E+01 -0.15410587006E+02  0.23429270731E+02  0.51100000000E-03 0.  1.
        -12    1    3    3    0    0  0.61157903879E+01 -0.36385315801E+01 -0.11528267414E+02  0.13547795160E+02  0.00000000000E+00 0.  1.
</event>
<event>
 7    1  0.2297343E-008  0.4614232E+02  0.7816164E-02  0.1320468E+00
        -11   -1    0    0    0    0  0.00000000000E+00  0.00000000000E+00  0.45593999997E+02  0.45594000000E+02  0.51100000000E-03 0.  1.
         11   -1    0    0    0    0 -0.00000000000E+00 -0.00000000000E+00 -0.45593999997E+02  0.45594000000E+02  0.51100000000E-03 0. -1.
    9900012    2    1    2    0    0  0.34079457913E+02 -0.10548066000E+02  0.27503494479E+02  0.46142319224E+02  0.10000013342E+02 0.  0.
         12    1    1    2    0    0 -0.34079457913E+02  0.10548066000E+02 -0.27503494479E+02  0.45045680776E+02  0.00000000000E+00 0. -1.
         11    1    3    3    0    0  0.82801491144E+01 -0.46305585111E+01  0.10988783539E+02  0.14517448309E+02  0.51100000000E-03 0. -1.
        -11    1    3    3    0    0  0.15145611939E+02 -0.59850632939E+01  0.10721878467E+02  0.19497928653E+02  0.51100000000E-03 0.  1.
         12    1    3    3    0    0  0.10653696860E+02  0.67555805267E-01  0.57928324740E+01  0.12126942263E+02  0.00000000000E+00 0. -1.
</event>
<event>
 7    1  0.2297343E-008  0.4614232E+02  0.7816164E-02  0.1320468E+00
        -11   -1    0    0    0    0  0.00000000000E+00  0.00000000000E+00  0.45593999997E+02  0.45594000000E+02  0.51100000000E-03 0. -1.
         11   -1    0    0    0    0 -0.00000000000E+00 -0.00000000000E+00 -0.45593999997E+02  0.45594000000E+02  0.51100000000E-03 0.  1.
    9900012    2    1    2    0    0 -0.23770748444E+02 -0.33820548067E+02 -0.17895127258E+02  0.46142317269E+02  0.99999955144E+01 0.  0.
         12    1    1    2    0    0  0.23770748444E+02  0.33820548067E+02  0.17895127258E+02  0.45045682731E+02  0.00000000000E+00 0. -1.
         11    1    3    3    0    0  0.11842756571E-01 -0.72250643726E+00  0.17529974848E+00  0.74356308791E+00  0.51100000000E-03 0. -1.
        -11    1    3    3    0    0 -0.12011433616E+02 -0.14395113745E+02 -0.12736705911E+02  0.22665337301E+02  0.51100000000E-03 0.  1.
        -12    1    3    3    0    0 -0.11771157584E+02 -0.18702927884E+02 -0.53337210950E+01  0.22733416880E+02  0.00000000000E+00 0.  1.
</event>
<event>
 7    1  0.2297343E-008  0.4614232E+02  0.7816164E-02  0.1320468E+00
        -11   -1    0    0    0    0  0.00000000000E+00  0.00000000000E+00  0.45593999997E+02  0.45594000000E+02  0.51100000000E-03 0.  1.
         11   -1    0    0    0    0 -0.00000000000E+00 -0.00000000000E+00 -0.45593999997E+02  0.45594000000E+02  0.51100000000E-03 0. -1.
    9900012    2    1    2    0    0 -0.31850728425E+02  0.29563008972E+02  0.11860571306E+02  0.46142317051E+02  0.99999935236E+01 0.  0.
         12    1    1    2    0    0  0.31850728425E+02 -0.29563008972E+02 -0.11860571306E+02  0.45045682949E+02  0.00000000000E+00 0. -1.
         11    1    3    3    0    0 -0.51854600366E+01  0.10102393260E+02  0.31232732772E+01  0.11777189037E+02  0.51100000000E-03 0.  1.
        -11    1    3    3    0    0 -0.34967728321E+01  0.38921914442E+01  0.47056935065E+00  0.52533808402E+01  0.51100000000E-03 0. -1.
         12    1    3    3    0    0 -0.23168495556E+02  0.15568424267E+02  0.82667286784E+01  0.29111747174E+02  0.00000000000E+00 0. -1.
</event>
<event>
 7    1  0.2297343E-008  0.4614232E+02  0.7816164E-02  0.1320468E+00
        -11   -1    0    0    0    0  0.00000000000E+00  0.00000000000E+00  0.45593999997E+02  0.45594000000E+02  0.51100000000E-03 0. -1.
         11   -1    0    0    0    0 -0.00000000000E+00 -0.00000000000E+00 -0.45593999997E+02  0.45594000000E+02  0.51100000000E-03 0.  1.
    9900012    2    1    2    0    0 -0.31903493790E+02 -0.30790893457E+02 -0.79499450042E+01  0.46142315840E+02  0.99999824790E+01 0.  0.
         12    1    1    2    0    0  0.31903493790E+02  0.30790893457E+02  0.79499450042E+01  0.45045684160E+02  0.00000000000E+00 0. -1.
         11    1    3    3    0    0 -0.13993944045E+02 -0.86843514508E+01 -0.39301800409E+01  0.16932062647E+02  0.51100000000E-03 0. -1.
        -11    1    3    3    0    0 -0.71810361105E+01 -0.12046769237E+02 -0.36788172874E+01  0.14499159478E+02  0.51100000000E-03 0.  1.
        -12    1    3    3    0    0 -0.10728513634E+02 -0.10059772769E+02 -0.34094767582E+00  0.14711093715E+02  0.00000000000E+00 0.  1.
</event>
<event>
 7    1  0.2297343E-008  0.4614232E+02  0.7816164E-02  0.1320468E+00
        -11   -1    0    0    0    0  0.00000000000E+00  0.00000000000E+00  0.45593999997E+02  0.45594000000E+02  0.51100000000E-03 0.  1.
         11   -1    0    0    0    0 -0.00000000000E+00 -0.00000000000E+00 -0.45593999997E+02  0.45594000000E+02  0.51100000000E-03 0. -1.
    9900012    2    1    2    0    0  0.33326992577E+02 -0.10602760155E+02 -0.28390255062E+02  0.46142317192E+02  0.99999948140E+01 0.  0.
         12    1    1    2    0    0 -0.33326992577E+02  0.10602760155E+02  0.28390255062E+02  0.45045682808E+02  0.00000000000E+00 0. -1.
         11    1    3    3    0    0  0.20046046950E+01 -0.21335817284E+01 -0.23607997352E-01  0.29276558154E+01  0.51100000000E-03 0. -1.
        -11    1    3    3    0    0  0.13769773558E+02 -0.22055519739E+01 -0.11409332625E+02  0.18017879857E+02  0.51100000000E-03 0.  1.
         12    1    3    3    0    0  0.17552614324E+02 -0.62636264526E+01 -0.16957314440E+02  0.25196781520E+02  0.00000000000E+00 0. -1.
</event>
<event>
 7    1  0.2297343E-008  0.4614232E+02  0.7816164E-02  0.1320468E+00
        -11   -1    0    0    0    0  0.00000000000E+00  0.00000000000E+00  0.45593999997E+02  0.45594000000E+02  0.51100000000E-03 0. -1.
         11   -1    0    0    0    0 -0.00000000000E+00 -0.00000000000E+00 -0.45593999997E+02  0.45594000000E+02  0.51100000000E-03 0.  1.
    9900012    2    1    2    0    0  0.40017752067E+02  0.19419151073E+02 -0.71126473666E+01  0.46142315840E+02  0.99999824797E+01 0.  0.
         12    1    1    2    0    0 -0.40017752067E+02 -0.19419151073E+02  0.71126473666E+01  0.45045684160E+02  0.00000000000E+00 0. -1.
         11    1    3    3    0    0  0.13014843336E+00  0.14312185683E+01  0.19129162832E+00  0.14497992802E+01  0.51100000000E-03 0. -1.
        -11    1    3    3    0    0  0.10940547627E+02  0.31486952646E+01 -0.36680804957E+01  0.11960964803E+02  0.51100000000E-03 0.  1.
        -12    1    3    3    0    0  0.28947056007E+02  0.14839237240E+02 -0.36358584992E+01  0.32731551756E+02  0.00000000000E+00 0.  1.
</event>
<event>
 7    1  0.2297343E-008  0.4614232E+02  0.7816164E-02  0.1320468E+00
        -11   -1    0    0    0    0  0.00000000000E+00  0.00000000000E+00  0.45593999997E+02  0.45594000000E+02  0.51100000000E-03 0.  1.
         11   -1    0    0    0    0 -0.00000000000E+00 -0.00000000000E+00 -0.45593999997E+02  0.45594000000E+02  0.51100000000E-03 0. -1.
    9900012    2    1    2    0    0 -0.35143676663E+02 -0.20562400089E+02  0.19267144320E+02  0.46142321438E+02  0.10000033532E+02 0.  0.
         12    1    1    2    0    0  0.35143676663E+02  0.20562400089E+02 -0.19267144320E+02  0.45045678562E+02  0.00000000000E+00 0. -1.
         11    1    3    3    0    0 -0.17390851583E+02 -0.92480062286E+01  0.11235712553E+02  0.22676167552E+02  0.51100000000E-03 0. -1.
        -11    1    3    3    0    0 -0.12738429641E+02 -0.52141532464E+01  0.29530325245E+01  0.14077477940E+02  0.51100000000E-03 0.  1.
         12    1    3    3    0    0 -0.50143954384E+01 -0.61002406139E+01  0.50783992421E+01  0.93886759461E+01  0.00000000000E+00 0. -1.
</event>
<event>
 7    1  0.2297343E-008  0.4614232E+02  0.7816164E-02  0.1320468E+00
        -11   -1    0    0    0    0  0.00000000000E+00  0.00000000000E+00  0.45593999997E+02  0.45594000000E+02  0.51100000000E-03 0.  1.
         11   -1    0    0    0    0 -0.00000000000E+00 -0.00000000000E+00 -0.45593999997E+02  0.45594000000E+02  0.51100000000E-03 0. -1.
    9900012    2    1    2    0    0 -0.24590302061E+02  0.19036202418E+02  0.32589161974E+02  0.46142318341E+02  0.10000005286E+02 0.  0.
         12    1    1    2    0    0  0.24590302061E+02 -0.19036202418E+02 -0.32589161974E+02  0.45045681659E+02  0.00000000000E+00 0. -1.
         11    1    3    3    0    0 -0.25591092446E+00 -0.25877521012E+00 -0.16136371012E+00  0.39811244479E+00  0.51100000000E-03 0. -1.
        -11    1    3    3    0    0 -0.10300661321E+02  0.80297571979E+01  0.86465580410E+01  0.15663447594E+02  0.51100000000E-03 0.  1.
         12    1    3    3    0    0 -0.14033729815E+02  0.11265220431E+02  0.24103967643E+02  0.30080758302E+02  0.00000000000E+00 0. -1.
</event>
<event>
 7    1  0.2297343E-008  0.4614232E+02  0.7816164E-02  0.1320468E+00
        -11   -1    0    0    0    0  0.00000000000E+00  0.00000000000E+00  0.45593999997E+02  0.45594000000E+02  0.51100000000E-03 0.  1.
         11   -1    0    0    0    0 -0.00000000000E+00 -0.00000000000E+00 -0.45593999997E+02  0.45594000000E+02  0.51100000000E-03 0. -1.
    9900012    2    1    2    0    0  0.63297972490E+01  0.13902994148E+02  0.42376336745E+02  0.46142317683E+02  0.99999992840E+01 0.  0.
         12    1    1    2    0    0 -0.63297972490E+01 -0.13902994148E+02 -0.42376336745E+02  0.45045682317E+02  0.00000000000E+00 0. -1.
         11    1    3    3    0    0  0.43788922558E+00  0.43311085188E+00  0.24692751741E+00  0.66355515511E+00  0.51100000000E-03 0. -1.
        -11    1    3    3    0    0 -0.59399180231E-01  0.94190520880E+00 -0.17401774211E+00  0.95968542797E+00  0.51100000000E-03 0.  1.
        -12    1    3    3    0    0  0.59513072036E+01  0.12527978087E+02  0.42303426970E+02  0.44519077100E+02  0.00000000000E+00 0.  1.
</event>
<event>
 7    1  0.2297343E-008  0.4614232E+02  0.7816164E-02  0.1320468E+00
        -11   -1    0    0    0    0  0.00000000000E+00  0.00000000000E+00  0.45593999997E+02  0.45594000000E+02  0.51100000000E-03 0.  1.
         11   -1    0    0    0    0 -0.00000000000E+00 -0.00000000000E+00 -0.45593999997E+02  0.45594000000E+02  0.51100000000E-03 0. -1.
    9900012    2    1    2    0    0 -0.31839590216E+02  0.18188234011E+02  0.26163758435E+02  0.46142316333E+02  0.99999869777E+01 0.  0.
         12    1    1    2    0    0  0.31839590216E+02 -0.18188234011E+02 -0.26163758435E+02  0.45045683667E+02  0.00000000000E+00 0. -1.
         11    1    3    3    0    0 -0.73652276493E+01  0.22364003655E+01  0.24007602368E+01  0.80629842426E+01  0.51100000000E-03 0. -1.
        -11    1    3    3    0    0 -0.20418541428E+02  0.13261249120E+02  0.22250107493E+02  0.32982493022E+02  0.51100000000E-03 0.  1.
        -12    1    3    3    0    0 -0.40558211391E+01  0.26905845256E+01  0.15128907059E+01  0.50968390684E+01  0.00000000000E+00 0.  1.
</event>
<event>
 7    1  0.2297343E-008  0.4614232E+02  0.7816164E-02  0.1320468E+00
        -11   -1    0    0    0    0  0.00000000000E+00  0.00000000000E+00  0.45593999997E+02  0.45594000000E+02  0.51100000000E-03 0.  1.
         11   -1    0    0    0    0 -0.00000000000E+00 -0.00000000000E+00 -0.45593999997E+02  0.45594000000E+02  0.51100000000E-03 0. -1.
    9900012    2    1    2    0    0 -0.33449755968E+02 -0.22517273066E+02  0.20079837958E+02  0.46142315933E+02  0.99999833286E+01 0.  0.
         12    1    1    2    0    0  0.33449755968E+02  0.22517273066E+02 -0.20079837958E+02  0.45045684067E+02  0.00000000000E+00 0. -1.
         11    1    3    3    0    0 -0.55154453195E+01 -0.20750557597E+01  0.64616426813E+01  0.87452169716E+01  0.51100000000E-03 0. -1.
        -11    1    3    3    0    0 -0.10879652879E+02 -0.69005603025E+01  0.68571657074E+01  0.14594701129E+02  0.51100000000E-03 0.  1.
         12    1    3    3    0    0 -0.17054657770E+02 -0.13541657003E+02  0.67610295692E+01  0.22802397832E+02  0.00000000000E+00 0. -1.
</event>
<event>
 7    1  0.2297343E-008  0.4614231E+02  0.7816164E-02  0.1320468E+00
        -11   -1    0    0    0    0  0.00000000000E+00  0.00000000000E+00  0.45593999997E+02  0.45594000000E+02  0.51100000000E-03 0.  1.
         11   -1    0    0    0    0 -0.00000000000E+00 -0.00000000000E+00 -0.45593999997E+02  0.45594000000E+02  0.51100000000E-03 0. -1.
    9900012    2    1    2    0    0  0.20805116993E+02  0.12379677743E+02  0.37986900891E+02  0.46142312599E+02  0.99999529289E+01 0.  0.
         12    1    1    2    0    0 -0.20805116993E+02 -0.12379677743E+02 -0.37986900891E+02  0.45045687401E+02  0.00000000000E+00 0. -1.
         11    1    3    3    0    0  0.22964271783E+01  0.80009674654E+00  0.33506962601E+01  0.41401567938E+01  0.51100000000E-03 0. -1.
        -11    1    3    3    0    0  0.64831988204E+01 -0.41753114364E+00  0.12626501796E+02  0.14199815036E+02  0.51100000000E-03 0.  1.
        -12    1    3    3    0    0  0.12025490995E+02  0.11997112140E+02  0.22009702835E+02  0.27802340769E+02  0.00000000000E+00 0.  1.
</event>
<event>
 7    1  0.2297343E-008  0.4614232E+02  0.7816164E-02  0.1320468E+00
        -11   -1    0    0    0    0  0.00000000000E+00  0.00000000000E+00  0.45593999997E+02  0.45594000000E+02  0.51100000000E-03 0. -1.
         11   -1    0    0    0    0 -0.00000000000E+00 -0.00000000000E+00 -0.45593999997E+02  0.45594000000E+02  0.51100000000E-03 0.  1.
    9900012    2    1    2    0    0  0.16908680724E+02 -0.11335133340E+02 -0.40183638554E+02  0.46142317198E+02  0.99999948667E+01 0.  0.
         12    1    1    2    0    0 -0.16908680724E+02  0.11335133340E+02  0.40183638554E+02  0.45045682802E+02  0.00000000000E+00 0. -1.
         11    1    3    3    0    0  0.37112661256E+01 -0.12572649972E-01 -0.51140131611E+01  0.63187645311E+01  0.51100000000E-03 0. -1.
        -11    1    3    3    0    0  0.93932969624E+01 -0.11698549914E+02 -0.26815068390E+02  0.30726828521E+02  0.51100000000E-03 0.  1.
        -12    1    3    3    0    0  0.38041176358E+01  0.37598922417E+00 -0.82545570027E+01  0.90967241463E+01  0.00000000000E+00 0.  1.
</event>
<event>
 7    1  0.2297343E-008  0.4614230E+02  0.7816164E-02  0.1320468E+00
        -11   -1    0    0    0    0  0.00000000000E+00  0.00000000000E+00  0.45593999997E+02  0.45594000000E+02  0.51100000000E-03 0.  1.
         11   -1    0    0    0    0 -0.00000000000E+00 -0.00000000000E+00 -0.45593999997E+02  0.45594000000E+02  0.51100000000E-03 0. -1.
    9900012    2    1    2    0    0  0.42905552049E+02  0.13518279200E+02  0.23418746252E+01  0.46142304912E+02  0.99998828319E+01 0.  0.
         12    1    1    2    0    0 -0.42905552049E+02 -0.13518279200E+02 -0.23418746252E+01  0.45045695088E+02  0.00000000000E+00 0. -1.
         11    1    3    3    0    0  0.13280068417E+02  0.44205067404E+01 -0.32286103645E+00  0.14000190588E+02  0.51100000000E-03 0.  1.
        -11    1    3    3    0    0  0.18277069838E+02  0.96527656437E+01  0.17055241611E+01  0.20739719847E+02  0.51100000000E-03 0. -1.
        -12    1    3    3    0    0  0.11348413795E+02 -0.55499318416E+00  0.95921150055E+00  0.11402394476E+02  0.00000000000E+00 0.  1.
</event>
<event>
 7    1  0.2297343E-008  0.4614232E+02  0.7816164E-02  0.1320468E+00
        -11   -1    0    0    0    0  0.00000000000E+00  0.00000000000E+00  0.45593999997E+02  0.45594000000E+02  0.51100000000E-03 0.  1.
         11   -1    0    0    0    0 -0.00000000000E+00 -0.00000000000E+00 -0.45593999997E+02  0.45594000000E+02  0.51100000000E-03 0. -1.
    9900012    2    1    2    0    0 -0.15208356628E+02 -0.37873779527E+02  0.19062953163E+02  0.46142317962E+02  0.10000001833E+02 0.  0.
         12    1    1    2    0    0  0.15208356628E+02  0.37873779527E+02 -0.19062953163E+02  0.45045682038E+02  0.00000000000E+00 0. -1.
         11    1    3    3    0    0 -0.70815571664E+01 -0.17831853799E+02  0.12922519206E+02  0.23132552058E+02  0.51100000000E-03 0. -1.
        -11    1    3    3    0    0 -0.21994719723E+01 -0.99108249390E+01  0.46896512319E+01  0.11182797363E+02  0.51100000000E-03 0.  1.
         12    1    3    3    0    0 -0.59273274897E+01 -0.10131100789E+02  0.14507827246E+01  0.11826968541E+02  0.00000000000E+00 0. -1.
</event>
<event>
 7    1  0.2297343E-008  0.4614232E+02  0.7816164E-02  0.1320468E+00
        -11   -1    0    0    0    0  0.00000000000E+00  0.00000000000E+00  0.45593999997E+02  0.45594000000E+02  0.51100000000E-03 0.  1.
         11   -1    0    0    0    0 -0.00000000000E+00 -0.00000000000E+00 -0.45593999997E+02  0.45594000000E+02  0.51100000000E-03 0. -1.
    9900012    2    1    2    0    0 -0.11294221415E+02  0.52490675687E+01  0.43289736852E+02  0.46142318027E+02  0.10000002426E+02 0.  0.
         12    1    1    2    0    0  0.11294221415E+02 -0.52490675687E+01 -0.43289736852E+02  0.45045681973E+02  0.00000000000E+00 0. -1.
         11    1    3    3    0    0 -0.18037295507E+01  0.30258985057E+01  0.16175721518E+02  0.16554862396E+02  0.51100000000E-03 0.  1.
        -11    1    3    3    0    0 -0.34409355579E+01  0.42311835786E+01  0.11767442666E+02  0.12969797961E+02  0.51100000000E-03 0. -1.
         12    1    3    3    0    0 -0.60495563067E+01 -0.20080145155E+01  0.15346572667E+02  0.16617657670E+02  0.00000000000E+00 0. -1.
</event>
<event>
 7    1  0.2297343E-008  0.4614232E+02  0.7816164E-02  0.1320468E+00
        -11   -1    0    0    0    0  0.00000000000E+00  0.00000000000E+00  0.45593999997E+02  0.45594000000E+02  0.51100000000E-03 0. -1.
         11   -1    0    0    0    0 -0.00000000000E+00 -0.00000000000E+00 -0.45593999997E+02  0.45594000000E+02  0.51100000000E-03 0.  1.
    9900012    2    1    2    0    0 -0.44968126429E+02  0.21729035423E+01 -0.15031808848E+01  0.46142318108E+02  0.10000003166E+02 0.  0.
         12    1    1    2    0    0  0.44968126429E+02 -0.21729035423E+01  0.15031808848E+01  0.45045681892E+02  0.00000000000E+00 0. -1.
         11    1    3    3    0    0 -0.69591570618E+00 -0.55172595702E+00  0.75671897772E-01  0.89130617579E+00  0.51100000000E-03 0. -1.
        -11    1    3    3    0    0 -0.13179210960E+02  0.32221283586E+01 -0.37566730321E+01  0.14077865791E+02  0.51100000000E-03 0.  1.
        -12    1    3    3    0    0 -0.31092999762E+02 -0.49749885931E+00  0.21778202495E+01  0.31173146141E+02  0.00000000000E+00 0.  1.
</event>
<event>
 7    1  0.2297343E-008  0.4614232E+02  0.7816164E-02  0.1320468E+00
        -11   -1    0    0    0    0  0.00000000000E+00  0.00000000000E+00  0.45593999997E+02  0.45594000000E+02  0.51100000000E-03 0. -1.
         11   -1    0    0    0    0 -0.00000000000E+00 -0.00000000000E+00 -0.45593999997E+02  0.45594000000E+02  0.51100000000E-03 0.  1.
    9900012    2    1    2    0    0 -0.34103632176E+02  0.35378550894E+01 -0.29215393590E+02  0.46142319088E+02  0.10000012096E+02 0.  0.
         12    1    1    2    0    0  0.34103632176E+02 -0.35378550894E+01  0.29215393590E+02  0.45045680912E+02  0.00000000000E+00 0. -1.
         11    1    3    3    0    0 -0.49365889406E+01  0.19365229096E+01 -0.31832469912E+01  0.61849084889E+01  0.51100000000E-03 0. -1.
        -11    1    3    3    0    0 -0.17202822955E+02 -0.30230953585E+01 -0.15731994171E+02  0.23506847173E+02  0.51100000000E-03 0.  1.
        -12    1    3    3    0    0 -0.11964220281E+02  0.46244275384E+01 -0.10300152427E+02  0.16450563426E+02  0.00000000000E+00 0.  1.
</event>
<event>
 7    1  0.2297343E-008  0.4614232E+02  0.7816164E-02  0.1320468E+00
        -11   -1    0    0    0    0  0.00000000000E+00  0.00000000000E+00  0.45593999997E+02  0.45594000000E+02  0.51100000000E-03 0.  1.
         11   -1    0    0    0    0 -0.00000000000E+00 -0.00000000000E+00 -0.45593999997E+02  0.45594000000E+02  0.51100000000E-03 0. -1.
    9900012    2    1    2    0    0  0.39207438210E+02 -0.99537439874E+01  0.19819517096E+02  0.46142317762E+02  0.10000000007E+02 0.  0.
         12    1    1    2    0    0 -0.39207438210E+02  0.99537439874E+01 -0.19819517096E+02  0.45045682238E+02  0.00000000000E+00 0. -1.
         11    1    3    3    0    0  0.14827492960E+02 -0.37564388204E+01  0.47482743683E+01  0.16015976081E+02  0.51100000000E-03 0. -1.
        -11    1    3    3    0    0  0.17423281879E+02 -0.29173053485E+01  0.70701493699E+01  0.19028095919E+02  0.51100000000E-03 0.  1.
         12    1    3    3    0    0  0.69566633713E+01 -0.32799998186E+01  0.80010933574E+01  0.11098245762E+02  0.00000000000E+00 0. -1.
</event>
<event>
 7    1  0.2297343E-008  0.4614232E+02  0.7816164E-02  0.1320468E+00
        -11   -1    0    0    0    0  0.00000000000E+00  0.00000000000E+00  0.45593999997E+02  0.45594000000E+02  0.51100000000E-03 0.  1.
         11   -1    0    0    0    0 -0.00000000000E+00 -0.00000000000E+00 -0.45593999997E+02  0.45594000000E+02  0.51100000000E-03 0. -1.
    9900012    2    1    2    0    0  0.37742041215E+02 -0.23861514957E+02 -0.59396902687E+01  0.46142317725E+02  0.99999996719E+01 0.  0.
         12    1    1    2    0    0 -0.37742041215E+02  0.23861514957E+02  0.59396902687E+01  0.45045682275E+02  0.00000000000E+00 0. -1.
         11    1    3    3    0    0  0.12134883621E+01 -0.89373614051E+00 -0.14415288581E+01  0.20855032974E+01  0.51100000000E-03 0. -1.
        -11    1    3    3    0    0  0.15367056334E+01 -0.11270161895E+01 -0.19545971787E+01  0.27298498287E+01  0.51100000000E-03 0.  1.
        -12    1    3    3    0    0  0.34991847219E+02 -0.21840762627E+02 -0.25435642318E+01  0.41326964599E+02  0.00000000000E+00 0.  1.
</event>
<event>
 7    1  0.2297343E-008  0.4614232E+02  0.7816164E-02  0.1320468E+00
        -11   -1    0    0    0    0  0.00000000000E+00  0.00000000000E+00  0.45593999997E+02  0.45594000000E+02  0.51100000000E-03 0.  1.
         11   -1    0    0    0    0 -0.00000000000E+00 -0.00000000000E+00 -0.45593999997E+02  0.45594000000E+02  0.51100000000E-03 0. -1.
    9900012    2    1    2    0    0  0.88651798220E+01  0.55560134454E+01  0.43813844163E+02  0.46142316089E+02  0.99999847530E+01 0.  0.
         12    1    1    2    0    0 -0.88651798220E+01 -0.55560134454E+01 -0.43813844163E+02  0.45045683911E+02  0.00000000000E+00 0. -1.
         11    1    3    3    0    0  0.47843112264E+01  0.54838784152E+01  0.21536574637E+02  0.22732940939E+02  0.51100000000E-03 0. -1.
        -11    1    3    3    0    0  0.36838390479E+01 -0.76266581009E+00  0.22160590341E+02  0.22477635414E+02  0.51100000000E-03 0.  1.
         12    1    3    3    0    0  0.39702954770E+00  0.83480084033E+00  0.11667918528E+00  0.93173973675E+00  0.00000000000E+00 0. -1.
</event>
<event>
 7    1  0.2297343E-008  0.4614232E+02  0.7816164E-02  0.1320468E+00
        -11   -1    0    0    0    0  0.00000000000E+00  0.00000000000E+00  0.45593999997E+02  0.45594000000E+02  0.51100000000E-03 0. -1.
         11   -1    0    0    0    0 -0.00000000000E+00 -0.00000000000E+00 -0.45593999997E+02  0.45594000000E+02  0.51100000000E-03 0.  1.
    9900012    2    1    2    0    0  0.34276443205E+02 -0.96922386986E+01 -0.27573526937E+02  0.46142318326E+02  0.10000005148E+02 0.  0.
         12    1    1    2    0    0 -0.34276443205E+02  0.96922386986E+01  0.27573526937E+02  0.45045681674E+02  0.00000000000E+00 0. -1.
         11    1    3    3    0    0  0.28077229919E+02 -0.82984500767E+01 -0.21292676321E+02  0.36201839439E+02  0.51100000000E-03 0.  1.
        -11    1    3    3    0    0  0.18273905183E+01 -0.56879776699E+00  0.35965965003E+00  0.19473680523E+01  0.51100000000E-03 0. -1.
         12    1    3    3    0    0  0.43718227681E+01 -0.82499085489E+00 -0.66405102656E+01  0.79931108346E+01  0.00000000000E+00 0. -1.
</event>
<event>
 7    1  0.2297343E-008  0.4614232E+02  0.7816164E-02  0.1320468E+00
        -11   -1    0    0    0    0  0.00000000000E+00  0.00000000000E+00  0.45593999997E+02  0.45594000000E+02  0.51100000000E-03 0. -1.
         11   -1    0    0    0    0 -0.00000000000E+00 -0.00000000000E+00 -0.45593999997E+02  0.45594000000E+02  0.51100000000E-03 0.  1.
    9900012    2    1    2    0    0 -0.23073477989E+02  0.26630140006E+02 -0.28063566568E+02  0.46142317501E+02  0.99999976316E+01 0.  0.
         12    1    1    2    0    0  0.23073477989E+02 -0.26630140006E+02  0.28063566568E+02  0.45045682499E+02  0.00000000000E+00 0. -1.
         11    1    3    3    0    0 -0.14231105935E+02  0.20645239060E+02 -0.16139601676E+02  0.29820077372E+02  0.51100000000E-03 0. -1.
        -11    1    3    3    0    0 -0.64506464550E+01  0.57429328792E+01 -0.83358274938E+01  0.12003255309E+02  0.51100000000E-03 0.  1.
         12    1    3    3    0    0 -0.23917255991E+01  0.24196806654E+00 -0.35881373983E+01  0.43189848200E+01  0.00000000000E+00 0. -1.
</event>
<event>
 7    1  0.2297343E-008  0.4614232E+02  0.7816164E-02  0.1320468E+00
        -11   -1    0    0    0    0  0.00000000000E+00  0.00000000000E+00  0.45593999997E+02  0.45594000000E+02  0.51100000000E-03 0.  1.
         11   -1    0    0    0    0 -0.00000000000E+00 -0.00000000000E+00 -0.45593999997E+02  0.45594000000E+02  0.51100000000E-03 0. -1.
    9900012    2    1    2    0    0  0.36141002656E+02  0.48770255024E+01  0.26441559110E+02  0.46142317645E+02  0.99999989389E+01 0.  0.
         12    1    1    2    0    0 -0.36141002656E+02 -0.48770255024E+01 -0.26441559110E+02  0.45045682355E+02  0.00000000000E+00 0. -1.
         11    1    3    3    0    0  0.18741370953E+02  0.21972501832E+01  0.12291730200E+02  0.22520069385E+02  0.51100000000E-03 0.  1.
        -11    1    3    3    0    0  0.76525825862E+01  0.17908968170E+01  0.10632498037E+02  0.13221926729E+02  0.51100000000E-03 0. -1.
         12    1    3    3    0    0  0.97470491166E+01  0.88887850217E+00  0.35173308727E+01  0.10400321531E+02  0.00000000000E+00 0. -1.
</event>
<event>
 7    1  0.2297343E-008  0.4614231E+02  0.7816164E-02  0.1320468E+00
        -11   -1    0    0    0    0  0.00000000000E+00  0.00000000000E+00  0.45593999997E+02  0.45594000000E+02  0.51100000000E-03 0.  1.
         11   -1    0    0    0    0 -0.00000000000E+00 -0.00000000000E+00 -0.45593999997E+02  0.45594000000E+02  0.51100000000E-03 0. -1.
    9900012    2    1    2    0    0  0.40557037344E+02 -0.11920516060E+02 -0.15560932396E+02  0.46142305442E+02  0.99998876595E+01 0.  0.
         12    1    1    2    0    0 -0.40557037344E+02  0.11920516060E+02  0.15560932396E+02  0.45045694558E+02  0.00000000000E+00 0. -1.
         11    1    3    3    0    0  0.45511558374E+01 -0.71698006120E+00  0.16604217448E+00  0.46102765784E+01  0.51100000000E-03 0. -1.
        -11    1    3    3    0    0  0.21778668324E+02 -0.98428509067E+01 -0.75384901207E+01  0.25060345997E+02  0.51100000000E-03 0.  1.
         12    1    3    3    0    0  0.14227213182E+02 -0.13606850920E+01 -0.81884844499E+01  0.16471682866E+02  0.00000000000E+00 0. -1.
</event>
<event>
 7    1  0.2297343E-008  0.4614232E+02  0.7816164E-02  0.1320468E+00
        -11   -1    0    0    0    0  0.00000000000E+00  0.00000000000E+00  0.45593999997E+02  0.45594000000E+02  0.51100000000E-03 0.  1.
         11   -1    0    0    0    0 -0.00000000000E+00 -0.00000000000E+00 -0.45593999997E+02  0.45594000000E+02  0.51100000000E-03 0. -1.
    9900012    2    1    2    0    0 -0.38889671360E+02  0.15384849538E+02 -0.16733600270E+02  0.46142317501E+02  0.99999976310E+01 0.  0.
         12    1    1    2    0    0  0.38889671360E+02 -0.15384849538E+02  0.16733600270E+02  0.45045682499E+02  0.00000000000E+00 0. -1.
         11    1    3    3    0    0 -0.30326287501E+02  0.12810926750E+02 -0.15521523261E+02  0.36396720215E+02  0.51100000000E-03 0. -1.
        -11    1    3    3    0    0 -0.88481237467E+01  0.21628042727E+01 -0.89279962321E+00  0.91522733563E+01  0.51100000000E-03 0.  1.
         12    1    3    3    0    0  0.28473988806E+00  0.41111851460E+00 -0.31927738541E+00  0.59332392985E+00  0.00000000000E+00 0. -1.
</event>
<event>
 7    1  0.2297343E-008  0.4614233E+02  0.7816164E-02  0.1320468E+00
        -11   -1    0    0    0    0  0.00000000000E+00  0.00000000000E+00  0.45593999997E+02  0.45594000000E+02  0.51100000000E-03 0.  1.
         11   -1    0    0    0    0 -0.00000000000E+00 -0.00000000000E+00 -0.45593999997E+02  0.45594000000E+02  0.51100000000E-03 0. -1.
    9900012    2    1    2    0    0  0.52686206285E+00  0.17622768163E+02  0.41452056300E+02  0.46142328589E+02  0.10000098738E+02 0.  0.
         12    1    1    2    0    0 -0.52686206285E+00 -0.17622768163E+02 -0.41452056300E+02  0.45045671411E+02  0.00000000000E+00 0. -1.
         11    1    3    3    0    0 -0.32479935620E+00  0.11932722319E+02  0.18768869051E+02  0.22243331636E+02  0.51100000000E-03 0. -1.
        -11    1    3    3    0    0 -0.19409244440E+01  0.19845909955E+01  0.66032694041E+01  0.71630270279E+01  0.51100000000E-03 0.  1.
         12    1    3    3    0    0  0.27925858630E+01  0.37054548486E+01  0.16079917845E+02  0.16735969925E+02  0.00000000000E+00 0. -1.
</event>
<event>
 7    1  0.2297343E-008  0.4614232E+02  0.7816164E-02  0.1320468E+00
        -11   -1    0    0    0    0  0.00000000000E+00  0.00000000000E+00  0.45593999997E+02  0.45594000000E+02  0.51100000000E-03 0.  1.
         11   -1    0    0    0    0 -0.00000000000E+00 -0.00000000000E+00 -0.45593999997E+02  0.45594000000E+02  0.51100000000E-03 0. -1.
    9900012    2    1    2    0    0  0.16577620037E+02  0.41708785847E+02  0.38305650368E+01  0.46142317283E+02  0.99999956427E+01 0.  0.
         12    1    1    2    0    0 -0.16577620037E+02 -0.41708785847E+02 -0.38305650368E+01  0.45045682717E+02  0.00000000000E+00 0. -1.
         11    1    3    3    0    0  0.26314690076E+01  0.39548971943E+01  0.30677772703E+01  0.56548296700E+01  0.51100000000E-03 0. -1.
        -11    1    3    3    0    0  0.85007860151E+01  0.27239778559E+02 -0.78509683092E+00  0.28546195475E+02  0.51100000000E-03 0.  1.
        -12    1    3    3    0    0  0.54453650140E+01  0.10514110094E+02  0.15478845974E+01  0.11941292138E+02  0.00000000000E+00 0.  1.
</event>
<event>
 7    1  0.2297343E-008  0.4614232E+02  0.7816164E-02  0.1320468E+00
        -11   -1    0    0    0    0  0.00000000000E+00  0.00000000000E+00  0.45593999997E+02  0.45594000000E+02  0.51100000000E-03 0. -1.
         11   -1    0    0    0    0 -0.00000000000E+00 -0.00000000000E+00 -0.45593999997E+02  0.45594000000E+02  0.51100000000E-03 0.  1.
    9900012    2    1    2    0    0 -0.35548860248E+02  0.27550014600E+02  0.25275835390E+01  0.46142318210E+02  0.10000004089E+02 0.  0.
         12    1    1    2    0    0  0.35548860248E+02 -0.27550014600E+02 -0.25275835390E+01  0.45045681790E+02  0.00000000000E+00 0. -1.
         11    1    3    3    0    0  0.14345129461E+00  0.55682682944E+00  0.10625516289E+00  0.58474337334E+00  0.51100000000E-03 0. -1.
        -11    1    3    3    0    0 -0.30362156752E+02  0.23887859717E+02  0.48335167851E+01  0.38933960616E+02  0.51100000000E-03 0.  1.
        -12    1    3    3    0    0 -0.53301547907E+01  0.31053280541E+01 -0.24121884090E+01  0.66236142201E+01  0.00000000000E+00 0.  1.
</event>
<event>
 7    1  0.2297343E-008  0.4614232E+02  0.7816164E-02  0.1320468E+00
        -11   -1    0    0    0    0  0.00000000000E+00  0.00000000000E+00  0.45593999997E+02  0.45594000000E+02  0.51100000000E-03 0.  1.
         11   -1    0    0    0    0 -0.00000000000E+00 -0.00000000000E+00 -0.45593999997E+02  0.45594000000E+02  0.51100000000E-03 0. -1.
    9900012    2    1    2    0    0  0.25255269372E+02 -0.26569812154E+02  0.26178804637E+02  0.46142319173E+02  0.10000012874E+02 0.  0.
         12    1    1    2    0    0 -0.25255269372E+02  0.26569812154E+02 -0.26178804637E+02  0.45045680827E+02  0.00000000000E+00 0. -1.
         11    1    3    3    0    0  0.25128426355E-02  0.13906801509E+00 -0.25704932631E+00  0.29226844591E+00  0.51100000000E-03 0. -1.
        -11    1    3    3    0    0  0.82853030965E+01 -0.99167860827E+01  0.13542866183E+02  0.18718924069E+02  0.51100000000E-03 0.  1.
        -12    1    3    3    0    0  0.16967453433E+02 -0.16792094086E+02  0.12892987781E+02  0.27131126658E+02  0.00000000000E+00 0.  1.
</event>
<event>
 7    1  0.2297343E-008  0.4614232E+02  0.7816164E-02  0.1320468E+00
        -11   -1    0    0    0    0  0.00000000000E+00  0.00000000000E+00  0.45593999997E+02  0.45594000000E+02  0.51100000000E-03 0.  1.
         11   -1    0    0    0    0 -0.00000000000E+00 -0.00000000000E+00 -0.45593999997E+02  0.45594000000E+02  0.51100000000E-03 0. -1.
    9900012    2    1    2    0    0  0.21503722184E+02 -0.38974618548E+02  0.69052557989E+01  0.46142317450E+02  0.99999971640E+01 0.  0.
         12    1    1    2    0    0 -0.21503722184E+02  0.38974618548E+02 -0.69052557989E+01  0.45045682550E+02  0.00000000000E+00 0. -1.
         11    1    3    3    0    0 -0.30590944602E+00 -0.30447184500E+01  0.15262034945E+01  0.34195304351E+01  0.51100000000E-03 0. -1.
        -11    1    3    3    0    0  0.54023166331E+01 -0.10835173950E+02 -0.71093823361E+00  0.12128126523E+02  0.51100000000E-03 0.  1.
        -12    1    3    3    0    0  0.16407314996E+02 -0.25094726149E+02  0.60899905380E+01  0.30594660492E+02  0.00000000000E+00 0.  1.
</event>
<event>
 7    1  0.2297343E-008  0.4614232E+02  0.7816164E-02  0.1320468E+00
        -11   -1    0    0    0    0  0.00000000000E+00  0.00000000000E+00  0.45593999997E+02  0.45594000000E+02  0.51100000000E-03 0. -1.
         11   -1    0    0    0    0 -0.00000000000E+00 -0.00000000000E+00 -0.45593999997E+02  0.45594000000E+02  0.51100000000E-03 0.  1.
    9900012    2    1    2    0    0 -0.39105440767E+02 -0.22329408084E+02 -0.11293920697E+01  0.46142317750E+02  0.99999998975E+01 0.  0.
         12    1    1    2    0    0  0.39105440767E+02  0.22329408084E+02  0.11293920697E+01  0.45045682250E+02  0.00000000000E+00 0. -1.
         11    1    3    3    0    0 -0.22571983199E+01  0.18976813367E+00  0.10000417741E+01  0.24760937000E+01  0.51100000000E-03 0. -1.
        -11    1    3    3    0    0 -0.49075508791E+01 -0.54953098958E+01  0.44114076081E+00  0.73808598357E+01  0.51100000000E-03 0.  1.
        -12    1    3    3    0    0 -0.31940691568E+02 -0.17023866322E+02 -0.25705746046E+01  0.36285364214E+02  0.00000000000E+00 0.  1.
</event>
<event>
 7    1  0.2297343E-008  0.4614232E+02  0.7816164E-02  0.1320468E+00
        -11   -1    0    0    0    0  0.00000000000E+00  0.00000000000E+00  0.45593999997E+02  0.45594000000E+02  0.51100000000E-03 0.  1.
         11   -1    0    0    0    0 -0.00000000000E+00 -0.00000000000E+00 -0.45593999997E+02  0.45594000000E+02  0.51100000000E-03 0. -1.
    9900012    2    1    2    0    0  0.27675297112E+02 -0.20437502918E+01  0.35482594208E+02  0.46142317885E+02  0.10000001125E+02 0.  0.
         12    1    1    2    0    0 -0.27675297112E+02  0.20437502918E+01 -0.35482594208E+02  0.45045682115E+02  0.00000000000E+00 0. -1.
         11    1    3    3    0    0 -0.15566452858E+00 -0.21618893751E+00 -0.12574257234E+00  0.29458539980E+00  0.51100000000E-03 0. -1.
        -11    1    3    3    0    0  0.22080594807E+02 -0.43769884016E+01  0.26367852979E+02  0.34669501950E+02  0.51100000000E-03 0.  1.
         12    1    3    3    0    0  0.57503668339E+01  0.25494270473E+01  0.92404838019E+01  0.11178230535E+02  0.00000000000E+00 0. -1.
</event>
<event>
 7    1  0.2297343E-008  0.4614232E+02  0.7816164E-02  0.1320468E+00
        -11   -1    0    0    0    0  0.00000000000E+00  0.00000000000E+00  0.45593999997E+02  0.45594000000E+02  0.51100000000E-03 0.  1.
         11   -1    0    0    0    0 -0.00000000000E+00 -0.00000000000E+00 -0.45593999997E+02  0.45594000000E+02  0.51100000000E-03 0. -1.
    9900012    2    1    2    0    0 -0.19236298132E+02 -0.10645080424E+02  0.39316161915E+02  0.46142317734E+02  0.99999997560E+01 0.  0.
         12    1    1    2    0    0  0.19236298132E+02  0.10645080424E+02 -0.39316161915E+02  0.45045682266E+02  0.00000000000E+00 0. -1.
         11    1    3    3    0    0 -0.57644558572E+01 -0.47618683335E+01  0.96960655904E+01  0.12244101827E+02  0.51100000000E-03 0. -1.
        -11    1    3    3    0    0 -0.14024783321E+02 -0.42102371381E+01  0.27363903218E+02  0.31035525507E+02  0.51100000000E-03 0.  1.
         12    1    3    3    0    0  0.55294104582E+00 -0.16729749521E+01  0.22561931068E+01  0.28626903999E+01  0.00000000000E+00 0. -1.
</event>
<event>
 7    1  0.2297343E-008  0.4614232E+02  0.7816164E-02  0.1320468E+00
        -11   -1    0    0    0    0  0.00000000000E+00  0.00000000000E+00  0.45593999997E+02  0.45594000000E+02  0.51100000000E-03 0. -1.
         11   -1    0    0    0    0 -0.00000000000E+00 -0.00000000000E+00 -0.45593999997E+02  0.45594000000E+02  0.51100000000E-03 0.  1.
    9900012    2    1    2    0    0 -0.21036653209E+01 -0.33552924744E+02 -0.29981485004E+02  0.46142316415E+02  0.99999877228E+01 0.  0.
         12    1    1    2    0    0  0.21036653209E+01  0.33552924744E+02  0.29981485004E+02  0.45045683585E+02  0.00000000000E+00 0. -1.
         11    1    3    3    0    0 -0.30355111631E+01 -0.13975112411E+02 -0.88297869022E+01  0.16807237487E+02  0.51100000000E-03 0. -1.
        -11    1    3    3    0    0 -0.14888419891E+01 -0.19794995474E+01 -0.17708907613E+01  0.30448519301E+01  0.51100000000E-03 0.  1.
        -12    1    3    3    0    0  0.24206878313E+01 -0.17598312785E+02 -0.19380807340E+02  0.26290226998E+02  0.00000000000E+00 0.  1.
</event>
<event>
 7    1  0.2297343E-008  0.4614232E+02  0.7816164E-02  0.1320468E+00
        -11   -1    0    0    0    0  0.00000000000E+00  0.00000000000E+00  0.45593999997E+02  0.45594000000E+02  0.51100000000E-03 0.  1.
         11   -1    0    0    0    0 -0.00000000000E+00 -0.00000000000E+00 -0.45593999997E+02  0.45594000000E+02  0.51100000000E-03 0. -1.
    9900012    2    1    2    0    0  0.91176419422E+01  0.44113250837E+02 -0.56423289981E-01  0.46142317881E+02  0.10000001090E+02 0.  0.
         12    1    1    2    0    0 -0.91176419422E+01 -0.44113250837E+02  0.56423289981E-01  0.45045682119E+02  0.00000000000E+00 0. -1.
         11    1    3    3    0    0  0.39906001235E+01  0.14476829276E+02 -0.38329629072E+00  0.15021664073E+02  0.51100000000E-03 0. -1.
        -11    1    3    3    0    0  0.32746850968E+01  0.28678901970E+02  0.11269031191E+01  0.28887244444E+02  0.51100000000E-03 0.  1.
         12    1    3    3    0    0  0.18523567218E+01  0.95751959171E+00 -0.80003011838E+00  0.22334093632E+01  0.00000000000E+00 0. -1.
</event>
<event>
 7    1  0.2297343E-008  0.4614232E+02  0.7816164E-02  0.1320468E+00
        -11   -1    0    0    0    0  0.00000000000E+00  0.00000000000E+00  0.45593999997E+02  0.45594000000E+02  0.51100000000E-03 0.  1.
         11   -1    0    0    0    0 -0.00000000000E+00 -0.00000000000E+00 -0.45593999997E+02  0.45594000000E+02  0.51100000000E-03 0. -1.
    9900012    2    1    2    0    0  0.36928954986E+02 -0.22056489728E+02 -0.13374491575E+02  0.46142317849E+02  0.10000000805E+02 0.  0.
         12    1    1    2    0    0 -0.36928954986E+02  0.22056489728E+02  0.13374491575E+02  0.45045682151E+02  0.00000000000E+00 0. -1.
         11    1    3    3    0    0  0.11649893834E+02 -0.33148367890E+01 -0.29550646321E+01  0.12467581021E+02  0.51100000000E-03 0. -1.
        -11    1    3    3    0    0  0.11831549076E+02 -0.11699470167E+02 -0.73373545536E+01  0.18185156799E+02  0.51100000000E-03 0.  1.
         12    1    3    3    0    0  0.13447512077E+02 -0.70421827727E+01 -0.30820723897E+01  0.15489580029E+02  0.00000000000E+00 0. -1.
</event>
<event>
 7    1  0.2297343E-008  0.4614232E+02  0.7816164E-02  0.1320468E+00
        -11   -1    0    0    0    0  0.00000000000E+00  0.00000000000E+00  0.45593999997E+02  0.45594000000E+02  0.51100000000E-03 0.  1.
         11   -1    0    0    0    0 -0.00000000000E+00 -0.00000000000E+00 -0.45593999997E+02  0.45594000000E+02  0.51100000000E-03 0. -1.
    9900012    2    1    2    0    0  0.67245033933E+01 -0.44018369467E+02  0.68027728750E+01  0.46142317464E+02  0.99999972871E+01 0.  0.
         12    1    1    2    0    0 -0.67245033933E+01  0.44018369467E+02 -0.68027728750E+01  0.45045682536E+02  0.00000000000E+00 0. -1.
         11    1    3    3    0    0  0.37372917050E+01 -0.16082083590E+02 -0.26465120525E+00  0.16512746664E+02  0.51100000000E-03 0. -1.
        -11    1    3    3    0    0  0.30030273289E+01 -0.11334801276E+02  0.38072520942E+00  0.11732043516E+02  0.51100000000E-03 0.  1.
        -12    1    3    3    0    0 -0.15815640519E-01 -0.16601484600E+02  0.66866988708E+01  0.17897527283E+02  0.00000000000E+00 0.  1.
</event>
<event>
 7    1  0.2297343E-008  0.4614232E+02  0.7816164E-02  0.1320468E+00
        -11   -1    0    0    0    0  0.00000000000E+00  0.00000000000E+00  0.45593999997E+02  0.45594000000E+02  0.51100000000E-03 0.  1.
         11   -1    0    0    0    0 -0.00000000000E+00 -0.00000000000E+00 -0.45593999997E+02  0.45594000000E+02  0.51100000000E-03 0. -1.
    9900012    2    1    2    0    0  0.39088908610E+02 -0.41075165194E+01  0.22006794959E+02  0.46142317714E+02  0.99999995661E+01 0.  0.
         12    1    1    2    0    0 -0.39088908610E+02  0.41075165194E+01 -0.22006794959E+02  0.45045682286E+02  0.00000000000E+00 0. -1.
         11    1    3    3    0    0  0.56201642891E+01  0.12299642753E+01  0.29941490901E+01  0.64856755846E+01  0.51100000000E-03 0. -1.
        -11    1    3    3    0    0  0.28239977892E+02 -0.14899531808E+01  0.14802154447E+02  0.31918961267E+02  0.51100000000E-03 0.  1.
         12    1    3    3    0    0  0.52287664290E+01 -0.38475276138E+01  0.42104914216E+01  0.77376808618E+01  0.00000000000E+00 0. -1.
</event>
<event>
 7    1  0.2297343E-008  0.4614232E+02  0.7816164E-02  0.1320468E+00
        -11   -1    0    0    0    0  0.00000000000E+00  0.00000000000E+00  0.45593999997E+02  0.45594000000E+02  0.51100000000E-03 0.  1.
         11   -1    0    0    0    0 -0.00000000000E+00 -0.00000000000E+00 -0.45593999997E+02  0.45594000000E+02  0.51100000000E-03 0. -1.
    9900012    2    1    2    0    0 -0.33044338017E+02  0.30187023429E+02  0.50920357142E+01  0.46142317786E+02  0.10000000224E+02 0.  0.
         12    1    1    2    0    0  0.33044338017E+02 -0.30187023429E+02 -0.50920357142E+01  0.45045682214E+02  0.00000000000E+00 0. -1.
         11    1    3    3    0    0 -0.16207720763E+02  0.88208517259E+01  0.29988685162E+01  0.18694674379E+02  0.51100000000E-03 0. -1.
        -11    1    3    3    0    0 -0.16022321582E+02  0.19050736568E+02  0.15992843089E+01  0.24943998541E+02  0.51100000000E-03 0.  1.
        -12    1    3    3    0    0 -0.81429567168E+00  0.23154351349E+01  0.49388288914E+00  0.25036448656E+01  0.00000000000E+00 0.  1.
</event>
<event>
 7    1  0.2297343E-008  0.4614231E+02  0.7816164E-02  0.1320468E+00
        -11   -1    0    0    0    0  0.00000000000E+00  0.00000000000E+00  0.45593999997E+02  0.45594000000E+02  0.51100000000E-03 0. -1.
         11   -1    0    0    0    0 -0.00000000000E+00 -0.00000000000E+00 -0.45593999997E+02  0.45594000000E+02  0.51100000000E-03 0.  1.
    9900012    2    1    2    0    0 -0.42195944567E+02  0.14550679329E+02  0.60740219706E+01  0.46142314859E+02  0.99999735407E+01 0.  0.
         12    1    1    2    0    0  0.42195944567E+02 -0.14550679329E+02 -0.60740219706E+01  0.45045685141E+02  0.00000000000E+00 0. -1.
         11    1    3    3    0    0 -0.11736137944E+02  0.17816544626E+01 -0.13967219271E+01  0.11952491743E+02  0.51100000000E-03 0.  1.
        -11    1    3    3    0    0 -0.90947258460E+01  0.19354447553E+01  0.33483419139E+01  0.98828831041E+01  0.51100000000E-03 0. -1.
         12    1    3    3    0    0 -0.21365080778E+02  0.10833580111E+02  0.41224019838E+01  0.24306940012E+02  0.00000000000E+00 0. -1.
</event>
<event>
 7    1  0.2297343E-008  0.4614232E+02  0.7816164E-02  0.1320468E+00
        -11   -1    0    0    0    0  0.00000000000E+00  0.00000000000E+00  0.45593999997E+02  0.45594000000E+02  0.51100000000E-03 0.  1.
         11   -1    0    0    0    0 -0.00000000000E+00 -0.00000000000E+00 -0.45593999997E+02  0.45594000000E+02  0.51100000000E-03 0. -1.
    9900012    2    1    2    0    0 -0.23578204108E+02 -0.28377616939E+02  0.25843620645E+02  0.46142316743E+02  0.99999907147E+01 0.  0.
         12    1    1    2    0    0  0.23578204108E+02  0.28377616939E+02 -0.25843620645E+02  0.45045683257E+02  0.00000000000E+00 0. -1.
         11    1    3    3    0    0 -0.16506299356E+02 -0.16230979326E+02  0.14252346910E+02  0.27185143020E+02  0.51100000000E-03 0. -1.
        -11    1    3    3    0    0 -0.73301848118E+01 -0.12378407350E+02  0.10495167425E+02  0.17807445562E+02  0.51100000000E-03 0.  1.
         12    1    3    3    0    0  0.25828005950E+00  0.23176973819E+00  0.10961063104E+01  0.11497281611E+01  0.00000000000E+00 0. -1.
</event>
<event>
 7    1  0.2297343E-008  0.4614232E+02  0.7816164E-02  0.1320468E+00
        -11   -1    0    0    0    0  0.00000000000E+00  0.00000000000E+00  0.45593999997E+02  0.45594000000E+02  0.51100000000E-03 0.  1.
         11   -1    0    0    0    0 -0.00000000000E+00 -0.00000000000E+00 -0.45593999997E+02  0.45594000000E+02  0.51100000000E-03 0. -1.
    9900012    2    1    2    0    0  0.69135423381E+00  0.26005970505E+02  0.36773968089E+02  0.46142320944E+02  0.10000029025E+02 0.  0.
         12    1    1    2    0    0 -0.69135423381E+00 -0.26005970505E+02 -0.36773968089E+02  0.45045679056E+02  0.00000000000E+00 0. -1.
         11    1    3    3    0    0  0.12712690557E+01  0.11005853502E+01  0.33922475897E+01  0.37861269255E+01  0.51100000000E-03 0. -1.
        -11    1    3    3    0    0 -0.11962526792E+01  0.21321770720E+01  0.74701643276E+00  0.25564102470E+01  0.51100000000E-03 0.  1.
        -12    1    3    3    0    0  0.61633785738E+00  0.22773208082E+02  0.32634704067E+02  0.39799783772E+02  0.00000000000E+00 0.  1.
</event>
<event>
 7    1  0.2297343E-008  0.4614232E+02  0.7816164E-02  0.1320468E+00
        -11   -1    0    0    0    0  0.00000000000E+00  0.00000000000E+00  0.45593999997E+02  0.45594000000E+02  0.51100000000E-03 0. -1.
         11   -1    0    0    0    0 -0.00000000000E+00 -0.00000000000E+00 -0.45593999997E+02  0.45594000000E+02  0.51100000000E-03 0.  1.
    9900012    2    1    2    0    0  0.43201178884E+02  0.36729876254E+01 -0.12218051901E+02  0.46142317773E+02  0.10000000108E+02 0.  0.
         12    1    1    2    0    0 -0.43201178884E+02 -0.36729876254E+01  0.12218051901E+02  0.45045682227E+02  0.00000000000E+00 0. -1.
         11    1    3    3    0    0  0.38402920062E+02  0.53829977218E+01 -0.10040258686E+02  0.40057055914E+02  0.51100000000E-03 0. -1.
        -11    1    3    3    0    0  0.36626660496E+01 -0.20487670716E+01 -0.80765694676E+00  0.42737429859E+01  0.51100000000E-03 0.  1.
         12    1    3    3    0    0  0.11355927717E+01  0.33875697526E+00 -0.13701362687E+01  0.18115188727E+01  0.00000000000E+00 0. -1.
</event>
<event>
 7    1  0.2297343E-008  0.4614232E+02  0.7816164E-02  0.1320468E+00
        -11   -1    0    0    0    0  0.00000000000E+00  0.00000000000E+00  0.45593999997E+02  0.45594000000E+02  0.51100000000E-03 0.  1.
         11   -1    0    0    0    0 -0.00000000000E+00 -0.00000000000E+00 -0.45593999997E+02  0.45594000000E+02  0.51100000000E-03 0. -1.
    9900012    2    1    2    0    0 -0.44146782119E+02  0.84572403227E+01  0.29411307568E+01  0.46142317238E+02  0.99999952334E+01 0.  0.
         12    1    1    2    0    0  0.44146782119E+02 -0.84572403227E+01 -0.29411307568E+01  0.45045682762E+02  0.00000000000E+00 0. -1.
         11    1    3    3    0    0 -0.20567245456E+02  0.42902760292E+01 -0.29436188494E+00  0.21012013307E+02  0.51100000000E-03 0. -1.
        -11    1    3    3    0    0 -0.12618796229E+02 -0.11953475466E+01  0.90454036315E+00  0.12707520118E+02  0.51100000000E-03 0.  1.
        -12    1    3    3    0    0 -0.10960740434E+02  0.53623118401E+01  0.23309522786E+01  0.12422783813E+02  0.00000000000E+00 0.  1.
</event>
<event>
 7    1  0.2297343E-008  0.4614232E+02  0.7816164E-02  0.1320468E+00
        -11   -1    0    0    0    0  0.00000000000E+00  0.00000000000E+00  0.45593999997E+02  0.45594000000E+02  0.51100000000E-03 0. -1.
         11   -1    0    0    0    0 -0.00000000000E+00 -0.00000000000E+00 -0.45593999997E+02  0.45594000000E+02  0.51100000000E-03 0.  1.
    9900012    2    1    2    0    0 -0.32788873684E+01 -0.39056637962E+02 -0.22202286323E+02  0.46142316641E+02  0.99999897901E+01 0.  0.
         12    1    1    2    0    0  0.32788873684E+01  0.39056637962E+02  0.22202286323E+02  0.45045683359E+02  0.00000000000E+00 0. -1.
         11    1    3    3    0    0 -0.11031791983E+01 -0.32418226461E+01 -0.35746594060E+01  0.49502129795E+01  0.51100000000E-03 0. -1.
        -11    1    3    3    0    0  0.23928811185E+01 -0.15258075419E+02 -0.55927362482E+01  0.16425999042E+02  0.51100000000E-03 0.  1.
         12    1    3    3    0    0 -0.45685892886E+01 -0.20556739897E+02 -0.13034890669E+02  0.24766104620E+02  0.00000000000E+00 0. -1.
</event>
<event>
 7    1  0.2297343E-008  0.4614232E+02  0.7816164E-02  0.1320468E+00
        -11   -1    0    0    0    0  0.00000000000E+00  0.00000000000E+00  0.45593999997E+02  0.45594000000E+02  0.51100000000E-03 0. -1.
         11   -1    0    0    0    0 -0.00000000000E+00 -0.00000000000E+00 -0.45593999997E+02  0.45594000000E+02  0.51100000000E-03 0.  1.
    9900012    2    1    2    0    0 -0.28934269711E+02  0.16318270749E+02 -0.30424260236E+02  0.46142317245E+02  0.99999952952E+01 0.  0.
         12    1    1    2    0    0  0.28934269711E+02 -0.16318270749E+02  0.30424260236E+02  0.45045682755E+02  0.00000000000E+00 0. -1.
         11    1    3    3    0    0 -0.33788368753E+01  0.26983160125E+01 -0.25469268067E+01  0.50183945992E+01  0.51100000000E-03 0.  1.
        -11    1    3    3    0    0 -0.89824355494E+01  0.96648787407E+01 -0.12117543890E+02  0.17914488540E+02  0.51100000000E-03 0. -1.
        -12    1    3    3    0    0 -0.16572997286E+02  0.39550759953E+01 -0.15759789540E+02  0.23209434106E+02  0.00000000000E+00 0.  1.
</event>
<event>
 7    1  0.2297343E-008  0.4614232E+02  0.7816164E-02  0.1320468E+00
        -11   -1    0    0    0    0  0.00000000000E+00  0.00000000000E+00  0.45593999997E+02  0.45594000000E+02  0.51100000000E-03 0. -1.
         11   -1    0    0    0    0 -0.00000000000E+00 -0.00000000000E+00 -0.45593999997E+02  0.45594000000E+02  0.51100000000E-03 0.  1.
    9900012    2    1    2    0    0 -0.24423696560E+02  0.13568764304E+02 -0.35333909821E+02  0.46142317614E+02  0.99999986579E+01 0.  0.
         12    1    1    2    0    0  0.24423696560E+02 -0.13568764304E+02  0.35333909821E+02  0.45045682386E+02  0.00000000000E+00 0. -1.
         11    1    3    3    0    0 -0.49765555449E+01  0.18667592885E+01 -0.28017646303E+01  0.60083925169E+01  0.51100000000E-03 0. -1.
        -11    1    3    3    0    0 -0.66064161060E+01  0.58440799160E+01 -0.84155833934E+01  0.12190982239E+02  0.51100000000E-03 0.  1.
        -12    1    3    3    0    0 -0.12840724909E+02  0.58579250991E+01 -0.24116561797E+02  0.27942942858E+02  0.00000000000E+00 0.  1.
</event>
<event>
 7    1  0.2297343E-008  0.4614232E+02  0.7816164E-02  0.1320468E+00
        -11   -1    0    0    0    0  0.00000000000E+00  0.00000000000E+00  0.45593999997E+02  0.45594000000E+02  0.51100000000E-03 0.  1.
         11   -1    0    0    0    0 -0.00000000000E+00 -0.00000000000E+00 -0.45593999997E+02  0.45594000000E+02  0.51100000000E-03 0. -1.
    9900012    2    1    2    0    0  0.10071027074E+02 -0.35902473875E+02  0.25272520949E+02  0.46142317280E+02  0.99999956096E+01 0.  0.
         12    1    1    2    0    0 -0.10071027074E+02  0.35902473875E+02 -0.25272520949E+02  0.45045682720E+02  0.00000000000E+00 0. -1.
         11    1    3    3    0    0  0.53511490459E+01 -0.23314256545E+02  0.15076386765E+02  0.28275197480E+02  0.51100000000E-03 0. -1.
        -11    1    3    3    0    0  0.53249584659E-01 -0.83014208415E+01  0.63803686723E+01  0.10470221018E+02  0.51100000000E-03 0.  1.
         12    1    3    3    0    0  0.46666284431E+01 -0.42867964878E+01  0.38157655117E+01  0.73968987822E+01  0.00000000000E+00 0. -1.
</event>
<event>
 7    1  0.2297343E-008  0.4614232E+02  0.7816164E-02  0.1320468E+00
        -11   -1    0    0    0    0  0.00000000000E+00  0.00000000000E+00  0.45593999997E+02  0.45594000000E+02  0.51100000000E-03 0. -1.
         11   -1    0    0    0    0 -0.00000000000E+00 -0.00000000000E+00 -0.45593999997E+02  0.45594000000E+02  0.51100000000E-03 0.  1.
    9900012    2    1    2    0    0 -0.69122369347E+01  0.29451801678E+02 -0.33375526493E+02  0.46142318629E+02  0.10000007914E+02 0.  0.
         12    1    1    2    0    0  0.69122369347E+01 -0.29451801678E+02  0.33375526493E+02  0.45045681371E+02  0.00000000000E+00 0. -1.
         11    1    3    3    0    0  0.10263921675E+01  0.39661157330E+01 -0.50905859057E+01  0.65343415899E+01  0.51100000000E-03 0. -1.
        -11    1    3    3    0    0  0.14085587146E+01  0.28852430787E+01 -0.25013736813E+01  0.40700781111E+01  0.51100000000E-03 0.  1.
        -12    1    3    3    0    0 -0.93471878168E+01  0.22600442866E+02 -0.25783566906E+02  0.35537898928E+02  0.00000000000E+00 0.  1.
</event>
<event>
 7    1  0.2297343E-008  0.4614232E+02  0.7816164E-02  0.1320468E+00
        -11   -1    0    0    0    0  0.00000000000E+00  0.00000000000E+00  0.45593999997E+02  0.45594000000E+02  0.51100000000E-03 0.  1.
         11   -1    0    0    0    0 -0.00000000000E+00 -0.00000000000E+00 -0.45593999997E+02  0.45594000000E+02  0.51100000000E-03 0. -1.
    9900012    2    1    2    0    0  0.31905559978E+02 -0.28896833993E+02  0.13271077721E+02  0.46142320116E+02  0.10000021473E+02 0.  0.
         12    1    1    2    0    0 -0.31905559978E+02  0.28896833993E+02 -0.13271077721E+02  0.45045679884E+02  0.00000000000E+00 0. -1.
         11    1    3    3    0    0  0.20148003058E+01 -0.37272815010E+01 -0.74643689298E+00  0.43022338333E+01  0.51100000000E-03 0. -1.
        -11    1    3    3    0    0  0.48156937754E+01 -0.46787339312E+01  0.44756021694E+00  0.67291729170E+01  0.51100000000E-03 0.  1.
        -12    1    3    3    0    0  0.25075065897E+02 -0.20490818561E+02  0.13569954397E+02  0.35110913366E+02  0.00000000000E+00 0.  1.
</event>
<event>
 7    1  0.2297343E-008  0.4614232E+02  0.7816164E-02  0.1320468E+00
        -11   -1    0    0    0    0  0.00000000000E+00  0.00000000000E+00  0.45593999997E+02  0.45594000000E+02  0.51100000000E-03 0. -1.
         11   -1    0    0    0    0 -0.00000000000E+00 -0.00000000000E+00 -0.45593999997E+02  0.45594000000E+02  0.51100000000E-03 0.  1.
    9900012    2    1    2    0    0 -0.19974519413E+02 -0.32121794431E+02 -0.24460630040E+02  0.46142317352E+02  0.99999962714E+01 0.  0.
         12    1    1    2    0    0  0.19974519413E+02  0.32121794431E+02  0.24460630040E+02  0.45045682648E+02  0.00000000000E+00 0. -1.
         11    1    3    3    0    0 -0.85411357673E+01 -0.10980857449E+02 -0.44788450781E+01  0.14614728325E+02  0.51100000000E-03 0. -1.
        -11    1    3    3    0    0 -0.68466254504E+01 -0.96291741718E+01 -0.11666502861E+02  0.16604353783E+02  0.51100000000E-03 0.  1.
         12    1    3    3    0    0 -0.45867581954E+01 -0.11511762810E+02 -0.83152821005E+01  0.14923235244E+02  0.00000000000E+00 0. -1.
</event>
<event>
 7    1  0.2297343E-008  0.4614232E+02  0.7816164E-02  0.1320468E+00
        -11   -1    0    0    0    0  0.00000000000E+00  0.00000000000E+00  0.45593999997E+02  0.45594000000E+02  0.51100000000E-03 0.  1.
         11   -1    0    0    0    0 -0.00000000000E+00 -0.00000000000E+00 -0.45593999997E+02  0.45594000000E+02  0.51100000000E-03 0. -1.
    9900012    2    1    2    0    0  0.58440500415E+01  0.55822232397E+01  0.44314774992E+02  0.46142318523E+02  0.10000006944E+02 0.  0.
         12    1    1    2    0    0 -0.58440500415E+01 -0.55822232397E+01 -0.44314774992E+02  0.45045681477E+02  0.00000000000E+00 0. -1.
         11    1    3    3    0    0 -0.71497228568E+00  0.35436821654E+01  0.92015602856E+01  0.98862318711E+01  0.51100000000E-03 0. -1.
        -11    1    3    3    0    0  0.16420616950E+01  0.14092072391E+01  0.26717827523E+01  0.34381179430E+01  0.51100000000E-03 0.  1.
        -12    1    3    3    0    0  0.49169606321E+01  0.62933383525E+00  0.32441431954E+02  0.32817968709E+02  0.00000000000E+00 0.  1.
</event>
<event>
 7    1  0.2297343E-008  0.4614232E+02  0.7816164E-02  0.1320468E+00
        -11   -1    0    0    0    0  0.00000000000E+00  0.00000000000E+00  0.45593999997E+02  0.45594000000E+02  0.51100000000E-03 0. -1.
         11   -1    0    0    0    0 -0.00000000000E+00 -0.00000000000E+00 -0.45593999997E+02  0.45594000000E+02  0.51100000000E-03 0.  1.
    9900012    2    1    2    0    0 -0.17669837333E+02  0.10494498301E+02 -0.40084360453E+02  0.46142316534E+02  0.99999888108E+01 0.  0.
         12    1    1    2    0    0  0.17669837333E+02 -0.10494498301E+02  0.40084360453E+02  0.45045683466E+02  0.00000000000E+00 0. -1.
         11    1    3    3    0    0 -0.48210454407E+00  0.19063102494E+01 -0.97390739321E+01  0.99355928296E+01  0.51100000000E-03 0. -1.
        -11    1    3    3    0    0 -0.38029877343E+01  0.35586818216E+01 -0.57580078603E+01  0.77641217659E+01  0.51100000000E-03 0.  1.
         12    1    3    3    0    0 -0.13384745054E+02  0.50295062300E+01 -0.24587278661E+02  0.28442601939E+02  0.00000000000E+00 0. -1.
</event>
<event>
 7    1  0.2297343E-008  0.4614232E+02  0.7816164E-02  0.1320468E+00
        -11   -1    0    0    0    0  0.00000000000E+00  0.00000000000E+00  0.45593999997E+02  0.45594000000E+02  0.51100000000E-03 0.  1.
         11   -1    0    0    0    0 -0.00000000000E+00 -0.00000000000E+00 -0.45593999997E+02  0.45594000000E+02  0.51100000000E-03 0. -1.
    9900012    2    1    2    0    0 -0.61616277608E+01  0.28861137420E+02  0.34032081616E+02  0.46142317755E+02  0.99999999404E+01 0.  0.
         12    1    1    2    0    0  0.61616277608E+01 -0.28861137420E+02 -0.34032081616E+02  0.45045682245E+02  0.00000000000E+00 0. -1.
         11    1    3    3    0    0  0.45773641020E-01  0.11243957442E+02  0.95902810277E+01  0.14778435798E+02  0.51100000000E-03 0. -1.
        -11    1    3    3    0    0 -0.17684226564E+01  0.42304481008E+01  0.10840853333E+02  0.11770646162E+02  0.51100000000E-03 0.  1.
        -12    1    3    3    0    0 -0.44389787454E+01  0.13386731877E+02  0.13600947255E+02  0.19593235794E+02  0.00000000000E+00 0.  1.
</event>
<event>
 7    1  0.2297343E-008  0.4614232E+02  0.7816164E-02  0.1320468E+00
        -11   -1    0    0    0    0  0.00000000000E+00  0.00000000000E+00  0.45593999997E+02  0.45594000000E+02  0.51100000000E-03 0.  1.
         11   -1    0    0    0    0 -0.00000000000E+00 -0.00000000000E+00 -0.45593999997E+02  0.45594000000E+02  0.51100000000E-03 0. -1.
    9900012    2    1    2    0    0 -0.19385801584E+02  0.55888512684E+01  0.40274917023E+02  0.46142317602E+02  0.99999985451E+01 0.  0.
         12    1    1    2    0    0  0.19385801584E+02 -0.55888512684E+01 -0.40274917023E+02  0.45045682398E+02  0.00000000000E+00 0. -1.
         11    1    3    3    0    0 -0.53341835479E+01  0.51939958345E+01  0.13194895441E+02  0.15150457842E+02  0.51100000000E-03 0. -1.
        -11    1    3    3    0    0 -0.10000556470E+02  0.18116070034E+01  0.14556860162E+02  0.17753738414E+02  0.51100000000E-03 0.  1.
        -12    1    3    3    0    0 -0.40510615663E+01 -0.14167515695E+01  0.12523161419E+02  0.13238121345E+02  0.00000000000E+00 0.  1.
</event>
<event>
 7    1  0.2297343E-008  0.4614232E+02  0.7816164E-02  0.1320468E+00
        -11   -1    0    0    0    0  0.00000000000E+00  0.00000000000E+00  0.45593999997E+02  0.45594000000E+02  0.51100000000E-03 0. -1.
         11   -1    0    0    0    0 -0.00000000000E+00 -0.00000000000E+00 -0.45593999997E+02  0.45594000000E+02  0.51100000000E-03 0.  1.
    9900012    2    1    2    0    0 -0.22778803319E+02  0.37646994606E+01 -0.38679019568E+02  0.46142318771E+02  0.10000009205E+02 0.  0.
         12    1    1    2    0    0  0.22778803319E+02 -0.37646994606E+01  0.38679019568E+02  0.45045681229E+02  0.00000000000E+00 0. -1.
         11    1    3    3    0    0 -0.95965329744E+00  0.31459315426E+00 -0.41531946364E-01  0.10107563839E+01  0.51100000000E-03 0. -1.
        -11    1    3    3    0    0 -0.14558418807E+02  0.48678935996E+01 -0.21060941391E+02  0.26061603919E+02  0.51100000000E-03 0.  1.
        -12    1    3    3    0    0 -0.72607312138E+01 -0.14177872933E+01 -0.17576546230E+02  0.19069958468E+02  0.00000000000E+00 0.  1.
</event>
<event>
 7    1  0.2297343E-008  0.4614232E+02  0.7816164E-02  0.1320468E+00
        -11   -1    0    0    0    0  0.00000000000E+00  0.00000000000E+00  0.45593999997E+02  0.45594000000E+02  0.51100000000E-03 0.  1.
         11   -1    0    0    0    0 -0.00000000000E+00 -0.00000000000E+00 -0.45593999997E+02  0.45594000000E+02  0.51100000000E-03 0. -1.
    9900012    2    1    2    0    0  0.43965170521E+02  0.73031921019E+01  0.65452840831E+01  0.46142316771E+02  0.99999909741E+01 0.  0.
         12    1    1    2    0    0 -0.43965170521E+02 -0.73031921019E+01 -0.65452840831E+01  0.45045683229E+02  0.00000000000E+00 0. -1.
         11    1    3    3    0    0  0.12537937491E-01 -0.57065452500E+00  0.27638286498E-01  0.57146121721E+00  0.51100000000E-03 0. -1.
        -11    1    3    3    0    0  0.17473835229E+02  0.28930984775E-01  0.20133346823E+01  0.17589464784E+02  0.51100000000E-03 0.  1.
        -12    1    3    3    0    0  0.26478797355E+02  0.78449156422E+01  0.45043111143E+01  0.27981390770E+02  0.00000000000E+00 0.  1.
</event>
<event>
 7    1  0.2297343E-008  0.4614232E+02  0.7816164E-02  0.1320468E+00
        -11   -1    0    0    0    0  0.00000000000E+00  0.00000000000E+00  0.45593999997E+02  0.45594000000E+02  0.51100000000E-03 0.  1.
         11   -1    0    0    0    0 -0.00000000000E+00 -0.00000000000E+00 -0.45593999997E+02  0.45594000000E+02  0.51100000000E-03 0. -1.
    9900012    2    1    2    0    0  0.11186389131E+02 -0.78710346290E+01  0.42918819058E+02  0.46142317440E+02  0.99999970751E+01 0.  0.
         12    1    1    2    0    0 -0.11186389131E+02  0.78710346290E+01 -0.42918819058E+02  0.45045682560E+02  0.00000000000E+00 0. -1.
         11    1    3    3    0    0  0.69629127532E-01 -0.40067978957E+00  0.10409036252E+01  0.11175299223E+01  0.51100000000E-03 0. -1.
        -11    1    3    3    0    0  0.32316248844E+01 -0.12924868639E+01  0.26131245494E+02  0.26362016482E+02  0.51100000000E-03 0.  1.
         12    1    3    3    0    0  0.78851351188E+01 -0.61778679756E+01  0.15746669939E+02  0.18662771036E+02  0.00000000000E+00 0. -1.
</event>
<event>
 7    1  0.2297343E-008  0.4614232E+02  0.7816164E-02  0.1320468E+00
        -11   -1    0    0    0    0  0.00000000000E+00  0.00000000000E+00  0.45593999997E+02  0.45594000000E+02  0.51100000000E-03 0.  1.
         11   -1    0    0    0    0 -0.00000000000E+00 -0.00000000000E+00 -0.45593999997E+02  0.45594000000E+02  0.51100000000E-03 0. -1.
    9900012    2    1    2    0    0  0.17809262815E+02 -0.30881408501E+02  0.27536928072E+02  0.46142316071E+02  0.99999845842E+01 0.  0.
         12    1    1    2    0    0 -0.17809262815E+02  0.30881408501E+02 -0.27536928072E+02  0.45045683929E+02  0.00000000000E+00 0. -1.
         11    1    3    3    0    0 -0.33804909175E+00 -0.43871620915E+00  0.11808469899E+00  0.56629794089E+00  0.51100000000E-03 0. -1.
        -11    1    3    3    0    0  0.71017356436E+01 -0.10963731494E+02  0.15287361133E+02  0.20108243785E+02  0.51100000000E-03 0.  1.
        -12    1    3    3    0    0  0.11045576263E+02 -0.19478960798E+02  0.12131482239E+02  0.25467774345E+02  0.00000000000E+00 0.  1.
</event>
<event>
 7    1  0.2297343E-008  0.4614232E+02  0.7816164E-02  0.1320468E+00
        -11   -1    0    0    0    0  0.00000000000E+00  0.00000000000E+00  0.45593999997E+02  0.45594000000E+02  0.51100000000E-03 0. -1.
         11   -1    0    0    0    0 -0.00000000000E+00 -0.00000000000E+00 -0.45593999997E+02  0.45594000000E+02  0.51100000000E-03 0.  1.
    9900012    2    1    2    0    0  0.28952507588E+02  0.10756485069E+02 -0.32789685493E+02  0.46142321612E+02  0.10000035117E+02 0.  0.
         12    1    1    2    0    0 -0.28952507588E+02 -0.10756485069E+02  0.32789685493E+02  0.45045678388E+02  0.00000000000E+00 0. -1.
         11    1    3    3    0    0  0.67571328094E+00  0.34286471052E+00 -0.42327511066E+01  0.43000380044E+01  0.51100000000E-03 0. -1.
        -11    1    3    3    0    0  0.11406811727E+02  0.69429702143E+01 -0.12083218338E+02  0.18009007603E+02  0.51100000000E-03 0.  1.
        -12    1    3    3    0    0  0.16869982580E+02  0.34706501437E+01 -0.16473716049E+02  0.23833276005E+02  0.00000000000E+00 0.  1.
</event>
<event>
 7    1  0.2297343E-008  0.4614232E+02  0.7816164E-02  0.1320468E+00
        -11   -1    0    0    0    0  0.00000000000E+00  0.00000000000E+00  0.45593999997E+02  0.45594000000E+02  0.51100000000E-03 0.  1.
         11   -1    0    0    0    0 -0.00000000000E+00 -0.00000000000E+00 -0.45593999997E+02  0.45594000000E+02  0.51100000000E-03 0. -1.
    9900012    2    1    2    0    0  0.12021347886E+02  0.25081731774E+02  0.35433141973E+02  0.46142316257E+02  0.99999862846E+01 0.  0.
         12    1    1    2    0    0 -0.12021347886E+02 -0.25081731774E+02 -0.35433141973E+02  0.45045683743E+02  0.00000000000E+00 0. -1.
         11    1    3    3    0    0  0.81803316235E+01  0.13010035100E+02  0.17626795508E+02  0.23385524559E+02  0.51100000000E-03 0. -1.
        -11    1    3    3    0    0 -0.13447710588E+01  0.61662510787E+01  0.79944368810E+01  0.10185385750E+02  0.51100000000E-03 0.  1.
         12    1    3    3    0    0  0.51857873209E+01  0.59054455955E+01  0.98119095846E+01  0.12571405948E+02  0.00000000000E+00 0. -1.
</event>
<event>
 7    1  0.2297343E-008  0.4614232E+02  0.7816164E-02  0.1320468E+00
        -11   -1    0    0    0    0  0.00000000000E+00  0.00000000000E+00  0.45593999997E+02  0.45594000000E+02  0.51100000000E-03 0. -1.
         11   -1    0    0    0    0 -0.00000000000E+00 -0.00000000000E+00 -0.45593999997E+02  0.45594000000E+02  0.51100000000E-03 0.  1.
    9900012    2    1    2    0    0  0.38388283160E+02  0.21795763302E+02 -0.89664873562E+01  0.46142317883E+02  0.10000001109E+02 0.  0.
         12    1    1    2    0    0 -0.38388283160E+02 -0.21795763302E+02  0.89664873562E+01  0.45045682117E+02  0.00000000000E+00 0. -1.
         11    1    3    3    0    0  0.54384767042E+01 -0.21185243367E+00 -0.14173224857E+01  0.56241189182E+01  0.51100000000E-03 0. -1.
        -11    1    3    3    0    0  0.19537050941E+02  0.13976083683E+02 -0.28276860061E+01  0.24187250423E+02  0.51100000000E-03 0.  1.
         12    1    3    3    0    0  0.13412755515E+02  0.80315320519E+01 -0.47214788644E+01  0.16330948542E+02  0.00000000000E+00 0. -1.
</event>
<event>
 7    1  0.2297343E-008  0.4614232E+02  0.7816164E-02  0.1320468E+00
        -11   -1    0    0    0    0  0.00000000000E+00  0.00000000000E+00  0.45593999997E+02  0.45594000000E+02  0.51100000000E-03 0.  1.
         11   -1    0    0    0    0 -0.00000000000E+00 -0.00000000000E+00 -0.45593999997E+02  0.45594000000E+02  0.51100000000E-03 0. -1.
    9900012    2    1    2    0    0  0.27006243012E+02  0.32799183627E+02  0.14966292086E+02  0.46142317554E+02  0.99999981105E+01 0.  0.
         12    1    1    2    0    0 -0.27006243012E+02 -0.32799183627E+02 -0.14966292086E+02  0.45045682446E+02  0.00000000000E+00 0. -1.
         11    1    3    3    0    0 -0.23010409823E+00  0.94398951068E+00 -0.33484051735E+00  0.10277074124E+01  0.51100000000E-03 0. -1.
        -11    1    3    3    0    0  0.58953483387E+01  0.38285455656E+01  0.41590644827E+01  0.81676625062E+01  0.51100000000E-03 0.  1.
        -12    1    3    3    0    0  0.21340998772E+02  0.28026648551E+02  0.11142068120E+02  0.36946947635E+02  0.00000000000E+00 0.  1.
</event>
<event>
 7    1  0.2297343E-008  0.4614232E+02  0.7816164E-02  0.1320468E+00
        -11   -1    0    0    0    0  0.00000000000E+00  0.00000000000E+00  0.45593999997E+02  0.45594000000E+02  0.51100000000E-03 0. -1.
         11   -1    0    0    0    0 -0.00000000000E+00 -0.00000000000E+00 -0.45593999997E+02  0.45594000000E+02  0.51100000000E-03 0.  1.
    9900012    2    1    2    0    0  0.34219559956E+02  0.68342974014E+01  0.28485568488E+02  0.46142317447E+02  0.99999971400E+01 0.  0.
         12    1    1    2    0    0 -0.34219559956E+02 -0.68342974014E+01 -0.28485568488E+02  0.45045682553E+02  0.00000000000E+00 0. -1.
         11    1    3    3    0    0  0.18973754184E+01  0.11346550282E+01  0.52336670929E+01  0.56814388153E+01  0.51100000000E-03 0. -1.
        -11    1    3    3    0    0  0.58633894203E+01  0.25240213816E+01  0.56405168988E+01  0.85185357061E+01  0.51100000000E-03 0.  1.
        -12    1    3    3    0    0  0.26458795117E+02  0.31756209915E+01  0.17611384496E+02  0.31942342926E+02  0.00000000000E+00 0.  1.
</event>
<event>
 7    1  0.2297343E-008  0.4614232E+02  0.7816164E-02  0.1320468E+00
        -11   -1    0    0    0    0  0.00000000000E+00  0.00000000000E+00  0.45593999997E+02  0.45594000000E+02  0.51100000000E-03 0.  1.
         11   -1    0    0    0    0 -0.00000000000E+00 -0.00000000000E+00 -0.45593999997E+02  0.45594000000E+02  0.51100000000E-03 0. -1.
    9900012    2    1    2    0    0  0.11520829555E+02 -0.39536360745E+02  0.18255414933E+02  0.46142317532E+02  0.99999979146E+01 0.  0.
         12    1    1    2    0    0 -0.11520829555E+02  0.39536360745E+02 -0.18255414933E+02  0.45045682468E+02  0.00000000000E+00 0. -1.
         11    1    3    3    0    0  0.57281955852E+01 -0.96288465960E+01  0.46819521761E+01  0.12142799837E+02  0.51100000000E-03 0. -1.
        -11    1    3    3    0    0  0.15991966720E+01 -0.50418501444E+01 -0.14757538006E+00  0.52914517505E+01  0.51100000000E-03 0.  1.
        -12    1    3    3    0    0  0.41934372979E+01 -0.24865664004E+02  0.13721038137E+02  0.28708065945E+02  0.00000000000E+00 0.  1.
</event>
<event>
 7    1  0.2297343E-008  0.4614232E+02  0.7816164E-02  0.1320468E+00
        -11   -1    0    0    0    0  0.00000000000E+00  0.00000000000E+00  0.45593999997E+02  0.45594000000E+02  0.51100000000E-03 0.  1.
         11   -1    0    0    0    0 -0.00000000000E+00 -0.00000000000E+00 -0.45593999997E+02  0.45594000000E+02  0.51100000000E-03 0. -1.
    9900012    2    1    2    0    0 -0.19230234677E+02  0.29405716130E+02  0.28188924701E+02  0.46142317159E+02  0.99999945080E+01 0.  0.
         12    1    1    2    0    0  0.19230234677E+02 -0.29405716130E+02 -0.28188924701E+02  0.45045682841E+02  0.00000000000E+00 0. -1.
         11    1    3    3    0    0 -0.24739071124E+01  0.42471736513E+01  0.79987845102E+00  0.49798098580E+01  0.51100000000E-03 0. -1.
        -11    1    3    3    0    0  0.10271808636E+00  0.19417721244E+01  0.25879340394E+01  0.32370407538E+01  0.51100000000E-03 0.  1.
        -12    1    3    3    0    0 -0.16859045651E+02  0.23216770355E+02  0.24801112210E+02  0.37925466547E+02  0.00000000000E+00 0.  1.
</event>
<event>
 7    1  0.2297343E-008  0.4614231E+02  0.7816164E-02  0.1320468E+00
        -11   -1    0    0    0    0  0.00000000000E+00  0.00000000000E+00  0.45593999997E+02  0.45594000000E+02  0.51100000000E-03 0.  1.
         11   -1    0    0    0    0 -0.00000000000E+00 -0.00000000000E+00 -0.45593999997E+02  0.45594000000E+02  0.51100000000E-03 0. -1.
    9900012    2    1    2    0    0 -0.29646438027E+02 -0.15514293514E+02  0.30158069677E+02  0.46142314773E+02  0.99999727496E+01 0.  0.
         12    1    1    2    0    0  0.29646438027E+02  0.15514293514E+02 -0.30158069677E+02  0.45045685227E+02  0.00000000000E+00 0. -1.
         11    1    3    3    0    0 -0.16934093288E+01  0.32242457807E+00  0.43616589130E+01  0.46899532511E+01  0.51100000000E-03 0. -1.
        -11    1    3    3    0    0 -0.14634146141E+02 -0.84539957073E+01  0.16451001068E+02  0.23585243546E+02  0.51100000000E-03 0.  1.
         12    1    3    3    0    0 -0.13318882557E+02 -0.73827223851E+01  0.93454096963E+01  0.17867117976E+02  0.00000000000E+00 0. -1.
</event>
<event>
 7    1  0.2297343E-008  0.4614232E+02  0.7816164E-02  0.1320468E+00
        -11   -1    0    0    0    0  0.00000000000E+00  0.00000000000E+00  0.45593999997E+02  0.45594000000E+02  0.51100000000E-03 0. -1.
         11   -1    0    0    0    0 -0.00000000000E+00 -0.00000000000E+00 -0.45593999997E+02  0.45594000000E+02  0.51100000000E-03 0.  1.
    9900012    2    1    2    0    0 -0.39986733870E+01  0.44867773650E+02  0.83988113076E-01  0.46142317019E+02  0.99999932355E+01 0.  0.
         12    1    1    2    0    0  0.39986733870E+01 -0.44867773650E+02 -0.83988113076E-01  0.45045682981E+02  0.00000000000E+00 0. -1.
         11    1    3    3    0    0 -0.44542629444E+01  0.18527659229E+02 -0.23388148790E+01  0.19198559065E+02  0.51100000000E-03 0. -1.
        -11    1    3    3    0    0 -0.74930743556E+00  0.32815078919E+01 -0.11953776767E+01  0.35719299725E+01  0.51100000000E-03 0.  1.
         12    1    3    3    0    0  0.12048969929E+01  0.23058606530E+02  0.36181806688E+01  0.23371827982E+02  0.00000000000E+00 0. -1.
</event>
<event>
 7    1  0.2297343E-008  0.4614232E+02  0.7816164E-02  0.1320468E+00
        -11   -1    0    0    0    0  0.00000000000E+00  0.00000000000E+00  0.45593999997E+02  0.45594000000E+02  0.51100000000E-03 0.  1.
         11   -1    0    0    0    0 -0.00000000000E+00 -0.00000000000E+00 -0.45593999997E+02  0.45594000000E+02  0.51100000000E-03 0. -1.
    9900012    2    1    2    0    0  0.34421624929E+02 -0.28940920460E+02 -0.25861803122E+01  0.46142317982E+02  0.10000002013E+02 0.  0.
         12    1    1    2    0    0 -0.34421624929E+02  0.28940920460E+02  0.25861803122E+01  0.45045682018E+02  0.00000000000E+00 0. -1.
         11    1    3    3    0    0  0.11373331355E+02 -0.74397082040E+01  0.29309804869E+01  0.13902969868E+02  0.51100000000E-03 0. -1.
        -11    1    3    3    0    0  0.12699234342E+02 -0.95242523410E+01 -0.37612845901E+01  0.16313466755E+02  0.51100000000E-03 0.  1.
         12    1    3    3    0    0  0.10349059232E+02 -0.11976959915E+02 -0.17558762090E+01  0.15925881359E+02  0.00000000000E+00 0. -1.
</event>
<event>
 7    1  0.2297343E-008  0.4614232E+02  0.7816164E-02  0.1320468E+00
        -11   -1    0    0    0    0  0.00000000000E+00  0.00000000000E+00  0.45593999997E+02  0.45594000000E+02  0.51100000000E-03 0.  1.
         11   -1    0    0    0    0 -0.00000000000E+00 -0.00000000000E+00 -0.45593999997E+02  0.45594000000E+02  0.51100000000E-03 0. -1.
    9900012    2    1    2    0    0 -0.16284476815E+02  0.11686380035E+02  0.40340523219E+02  0.46142317887E+02  0.10000001145E+02 0.  0.
         12    1    1    2    0    0  0.16284476815E+02 -0.11686380035E+02 -0.40340523219E+02  0.45045682113E+02  0.00000000000E+00 0. -1.
         11    1    3    3    0    0 -0.69281971245E+01  0.45836294456E+01  0.86377835501E+01  0.11984192889E+02  0.51100000000E-03 0. -1.
        -11    1    3    3    0    0 -0.17638785876E+01  0.21105886101E+01  0.30884845312E+01  0.41357694464E+01  0.51100000000E-03 0.  1.
         12    1    3    3    0    0 -0.75924011025E+01  0.49921619798E+01  0.28614255138E+02  0.30022355551E+02  0.00000000000E+00 0. -1.
</event>
<event>
 7    1  0.2297343E-008  0.4614231E+02  0.7816164E-02  0.1320468E+00
        -11   -1    0    0    0    0  0.00000000000E+00  0.00000000000E+00  0.45593999997E+02  0.45594000000E+02  0.51100000000E-03 0. -1.
         11   -1    0    0    0    0 -0.00000000000E+00 -0.00000000000E+00 -0.45593999997E+02  0.45594000000E+02  0.51100000000E-03 0.  1.
    9900012    2    1    2    0    0 -0.42966364162E+02  0.40076032440E+01 -0.12920709562E+02  0.46142311320E+02  0.99999412636E+01 0.  0.
         12    1    1    2    0    0  0.42966364162E+02 -0.40076032440E+01  0.12920709562E+02  0.45045688680E+02  0.00000000000E+00 0. -1.
         11    1    3    3    0    0 -0.70111439951E+01  0.25643521704E+01 -0.36425814512E+01  0.83066504720E+01  0.51100000000E-03 0. -1.
        -11    1    3    3    0    0 -0.22594677087E+02  0.37261304426E+01 -0.78430784800E+01  0.24205729922E+02  0.51100000000E-03 0.  1.
         12    1    3    3    0    0 -0.13360543080E+02 -0.22828793690E+01 -0.14350496308E+01  0.13629930926E+02  0.00000000000E+00 0. -1.
</event>
<event>
 7    1  0.2297343E-008  0.4614231E+02  0.7816164E-02  0.1320468E+00
        -11   -1    0    0    0    0  0.00000000000E+00  0.00000000000E+00  0.45593999997E+02  0.45594000000E+02  0.51100000000E-03 0.  1.
         11   -1    0    0    0    0 -0.00000000000E+00 -0.00000000000E+00 -0.45593999997E+02  0.45594000000E+02  0.51100000000E-03 0. -1.
    9900012    2    1    2    0    0 -0.13559328898E+01 -0.14114495363E+02  0.42755774896E+02  0.46142314077E+02  0.99999664025E+01 0.  0.
         12    1    1    2    0    0  0.13559328898E+01  0.14114495363E+02 -0.42755774896E+02  0.45045685923E+02  0.00000000000E+00 0. -1.
         11    1    3    3    0    0 -0.34946477698E+01 -0.47044483096E+01  0.15910364244E+02  0.16955355719E+02  0.51100000000E-03 0.  1.
        -11    1    3    3    0    0  0.15019994773E+01 -0.43657040880E+01  0.20711291004E+02  0.21219635952E+02  0.51100000000E-03 0. -1.
         12    1    3    3    0    0  0.63671540266E+00 -0.50443429657E+01  0.61341196477E+01  0.79673224054E+01  0.00000000000E+00 0. -1.
</event>
<event>
 7    1  0.2297343E-008  0.4614232E+02  0.7816164E-02  0.1320468E+00
        -11   -1    0    0    0    0  0.00000000000E+00  0.00000000000E+00  0.45593999997E+02  0.45594000000E+02  0.51100000000E-03 0.  1.
         11   -1    0    0    0    0 -0.00000000000E+00 -0.00000000000E+00 -0.45593999997E+02  0.45594000000E+02  0.51100000000E-03 0. -1.
    9900012    2    1    2    0    0  0.27907074594E+02 -0.35343203876E+02  0.10800875931E+01  0.46142318055E+02  0.10000002684E+02 0.  0.
         12    1    1    2    0    0 -0.27907074594E+02  0.35343203876E+02 -0.10800875931E+01  0.45045681945E+02  0.00000000000E+00 0. -1.
         11    1    3    3    0    0  0.39719500907E+01 -0.31053283986E+01 -0.10754690588E+01  0.51551998936E+01  0.51100000000E-03 0. -1.
        -11    1    3    3    0    0  0.17201696307E+02 -0.19212420620E+02  0.43774892118E+01  0.26156794031E+02  0.51100000000E-03 0.  1.
        -12    1    3    3    0    0  0.67334281969E+01 -0.13025454858E+02 -0.22219325598E+01  0.14830324131E+02  0.00000000000E+00 0.  1.
</event>
<event>
 7    1  0.2297343E-008  0.4614232E+02  0.7816164E-02  0.1320468E+00
        -11   -1    0    0    0    0  0.00000000000E+00  0.00000000000E+00  0.45593999997E+02  0.45594000000E+02  0.51100000000E-03 0.  1.
         11   -1    0    0    0    0 -0.00000000000E+00 -0.00000000000E+00 -0.45593999997E+02  0.45594000000E+02  0.51100000000E-03 0. -1.
    9900012    2    1    2    0    0 -0.32830627566E+02  0.27412539549E+02  0.14135631206E+02  0.46142317627E+02  0.99999987747E+01 0.  0.
         12    1    1    2    0    0  0.32830627566E+02 -0.27412539549E+02 -0.14135631206E+02  0.45045682373E+02  0.00000000000E+00 0. -1.
         11    1    3    3    0    0 -0.15784929905E+02  0.15098285060E+02  0.10579992445E+02  0.24270526658E+02  0.51100000000E-03 0. -1.
        -11    1    3    3    0    0 -0.87571778394E+01  0.90536133794E+01  0.11644689051E+01  0.12649587623E+02  0.51100000000E-03 0.  1.
         12    1    3    3    0    0 -0.82885198210E+01  0.32606411093E+01  0.23911698557E+01  0.92222033455E+01  0.00000000000E+00 0. -1.
</event>
<event>
 7    1  0.2297343E-008  0.4614232E+02  0.7816164E-02  0.1320468E+00
        -11   -1    0    0    0    0  0.00000000000E+00  0.00000000000E+00  0.45593999997E+02  0.45594000000E+02  0.51100000000E-03 0.  1.
         11   -1    0    0    0    0 -0.00000000000E+00 -0.00000000000E+00 -0.45593999997E+02  0.45594000000E+02  0.51100000000E-03 0. -1.
    9900012    2    1    2    0    0  0.15515746498E+02 -0.36023567051E+01  0.42135473574E+02  0.46142317670E+02  0.99999991696E+01 0.  0.
         12    1    1    2    0    0 -0.15515746498E+02  0.36023567051E+01 -0.42135473574E+02  0.45045682330E+02  0.00000000000E+00 0. -1.
         11    1    3    3    0    0  0.42910246666E+01  0.22390767379E+01  0.60122304101E+01  0.77183723733E+01  0.51100000000E-03 0. -1.
        -11    1    3    3    0    0  0.19680286812E+01 -0.25214252876E+01  0.73242982748E+01  0.79922504872E+01  0.51100000000E-03 0.  1.
        -12    1    3    3    0    0  0.92566931507E+01 -0.33200081554E+01  0.28798944889E+02  0.30431694810E+02  0.00000000000E+00 0.  1.
</event>
<event>
 7    1  0.2297343E-008  0.4614232E+02  0.7816164E-02  0.1320468E+00
        -11   -1    0    0    0    0  0.00000000000E+00  0.00000000000E+00  0.45593999997E+02  0.45594000000E+02  0.51100000000E-03 0. -1.
         11   -1    0    0    0    0 -0.00000000000E+00 -0.00000000000E+00 -0.45593999997E+02  0.45594000000E+02  0.51100000000E-03 0.  1.
    9900012    2    1    2    0    0  0.42587320111E+02 -0.55929099483E+01  0.13570292079E+02  0.46142319818E+02  0.10000018756E+02 0.  0.
         12    1    1    2    0    0 -0.42587320111E+02  0.55929099483E+01 -0.13570292079E+02  0.45045680182E+02  0.00000000000E+00 0. -1.
         11    1    3    3    0    0  0.75837543281E+01  0.97590297082E+00  0.40035576539E+01  0.86310017071E+01  0.51100000000E-03 0. -1.
        -11    1    3    3    0    0  0.41275350882E+01 -0.31715181895E+01  0.15487611241E+01  0.54308134576E+01  0.51100000000E-03 0.  1.
        -12    1    3    3    0    0  0.30876030695E+02 -0.33972947296E+01  0.80179733009E+01  0.32080504653E+02  0.00000000000E+00 0.  1.
</event>
<event>
 7    1  0.2297343E-008  0.4614232E+02  0.7816164E-02  0.1320468E+00
        -11   -1    0    0    0    0  0.00000000000E+00  0.00000000000E+00  0.45593999997E+02  0.45594000000E+02  0.51100000000E-03 0. -1.
         11   -1    0    0    0    0 -0.00000000000E+00 -0.00000000000E+00 -0.45593999997E+02  0.45594000000E+02  0.51100000000E-03 0.  1.
    9900012    2    1    2    0    0 -0.25619426063E+02 -0.95021638000E+01 -0.35811553580E+02  0.46142317871E+02  0.10000001000E+02 0.  0.
         12    1    1    2    0    0  0.25619426063E+02  0.95021638000E+01  0.35811553580E+02  0.45045682129E+02  0.00000000000E+00 0. -1.
         11    1    3    3    0    0 -0.10656728452E+02 -0.64010033163E+01 -0.16903293987E+02  0.20982374809E+02  0.51100000000E-03 0. -1.
        -11    1    3    3    0    0 -0.10337052845E+02 -0.44158242938E+01 -0.15953582248E+02  0.19515915364E+02  0.51100000000E-03 0.  1.
         12    1    3    3    0    0 -0.46256447660E+01  0.13146638101E+01 -0.29546773458E+01  0.56440276977E+01  0.00000000000E+00 0. -1.
</event>
<event>
 7    1  0.2297343E-008  0.4614232E+02  0.7816164E-02  0.1320468E+00
        -11   -1    0    0    0    0  0.00000000000E+00  0.00000000000E+00  0.45593999997E+02  0.45594000000E+02  0.51100000000E-03 0.  1.
         11   -1    0    0    0    0 -0.00000000000E+00 -0.00000000000E+00 -0.45593999997E+02  0.45594000000E+02  0.51100000000E-03 0. -1.
    9900012    2    1    2    0    0 -0.14515021110E+02  0.26245214514E+02  0.33609765334E+02  0.46142318203E+02  0.10000004033E+02 0.  0.
         12    1    1    2    0    0  0.14515021110E+02 -0.26245214514E+02 -0.33609765334E+02  0.45045681797E+02  0.00000000000E+00 0. -1.
         11    1    3    3    0    0 -0.10705209197E+01  0.46281427963E+01  0.73942435775E+01  0.87886608267E+01  0.51100000000E-03 0. -1.
        -11    1    3    3    0    0 -0.50849286749E+01  0.15095707004E+02  0.17120150673E+02  0.23384533968E+02  0.51100000000E-03 0.  1.
        -12    1    3    3    0    0 -0.83595715158E+01  0.65213647139E+01  0.90953710830E+01  0.13969123408E+02  0.00000000000E+00 0.  1.
</event>
<event>
 7    1  0.2297343E-008  0.4614232E+02  0.7816164E-02  0.1320468E+00
        -11   -1    0    0    0    0  0.00000000000E+00  0.00000000000E+00  0.45593999997E+02  0.45594000000E+02  0.51100000000E-03 0. -1.
         11   -1    0    0    0    0 -0.00000000000E+00 -0.00000000000E+00 -0.45593999997E+02  0.45594000000E+02  0.51100000000E-03 0.  1.
    9900012    2    1    2    0    0 -0.35523009801E+02 -0.27698214041E+02  0.19537178730E+00  0.46142318115E+02  0.10000003228E+02 0.  0.
         12    1    1    2    0    0  0.35523009801E+02  0.27698214041E+02 -0.19537178730E+00  0.45045681885E+02  0.00000000000E+00 0. -1.
         11    1    3    3    0    0 -0.11445347772E+02 -0.73457818696E+01  0.23326620036E+01  0.13798471262E+02  0.51100000000E-03 0. -1.
        -11    1    3    3    0    0 -0.68497659511E+01 -0.10100676440E+02 -0.23635894852E+00  0.12206507443E+02  0.51100000000E-03 0.  1.
         12    1    3    3    0    0 -0.17227896078E+02 -0.10251755731E+02 -0.19009312677E+01  0.20137339410E+02  0.00000000000E+00 0. -1.
</event>
<event>
 7    1  0.2297343E-008  0.4614232E+02  0.7816164E-02  0.1320468E+00
        -11   -1    0    0    0    0  0.00000000000E+00  0.00000000000E+00  0.45593999997E+02  0.45594000000E+02  0.51100000000E-03 0. -1.
         11   -1    0    0    0    0 -0.00000000000E+00 -0.00000000000E+00 -0.45593999997E+02  0.45594000000E+02  0.51100000000E-03 0.  1.
    9900012    2    1    2    0    0  0.49783142085E+01 -0.42171506212E+02  0.15029774021E+02  0.46142315904E+02  0.99999830671E+01 0.  0.
         12    1    1    2    0    0 -0.49783142085E+01  0.42171506212E+02 -0.15029774021E+02  0.45045684096E+02  0.00000000000E+00 0. -1.
         11    1    3    3    0    0  0.13385941109E+01 -0.60998760248E+01  0.22302050841E+01  0.66312997738E+01  0.51100000000E-03 0. -1.
        -11    1    3    3    0    0  0.66740416835E+01 -0.26628033075E+02  0.90058800617E+01  0.28891189899E+02  0.51100000000E-03 0.  1.
         12    1    3    3    0    0 -0.30343215858E+01 -0.94435971115E+01  0.37936888756E+01  0.10619826231E+02  0.00000000000E+00 0. -1.
</event>
<event>
 7    1  0.2297343E-008  0.4614232E+02  0.7816164E-02  0.1320468E+00
        -11   -1    0    0    0    0  0.00000000000E+00  0.00000000000E+00  0.45593999997E+02  0.45594000000E+02  0.51100000000E-03 0. -1.
         11   -1    0    0    0    0 -0.00000000000E+00 -0.00000000000E+00 -0.45593999997E+02  0.45594000000E+02  0.51100000000E-03 0.  1.
    9900012    2    1    2    0    0 -0.39574148971E+02 -0.17005743738E+02 -0.13183508991E+02  0.46142317675E+02  0.99999992107E+01 0.  0.
         12    1    1    2    0    0  0.39574148971E+02  0.17005743738E+02  0.13183508991E+02  0.45045682325E+02  0.00000000000E+00 0. -1.
         11    1    3    3    0    0 -0.69858546207E+01 -0.49333873894E+01 -0.44112899161E+01  0.96228870356E+01  0.51100000000E-03 0. -1.
        -11    1    3    3    0    0 -0.27417971918E+02 -0.12666775264E+02 -0.68355228051E+01  0.30966380995E+02  0.51100000000E-03 0.  1.
         12    1    3    3    0    0 -0.51703224324E+01  0.59441891544E+00 -0.19366962694E+01  0.55530496434E+01  0.00000000000E+00 0. -1.
</event>
<event>
 7    1  0.2297343E-008  0.4614232E+02  0.7816164E-02  0.1320468E+00
        -11   -1    0    0    0    0  0.00000000000E+00  0.00000000000E+00  0.45593999997E+02  0.45594000000E+02  0.51100000000E-03 0.  1.
         11   -1    0    0    0    0 -0.00000000000E+00 -0.00000000000E+00 -0.45593999997E+02  0.45594000000E+02  0.51100000000E-03 0. -1.
    9900012    2    1    2    0    0 -0.33859586695E+02  0.13041584950E+02  0.26693795940E+02  0.46142319954E+02  0.10000019995E+02 0.  0.
         12    1    1    2    0    0  0.33859586695E+02 -0.13041584950E+02 -0.26693795940E+02  0.45045680046E+02  0.00000000000E+00 0. -1.
         11    1    3    3    0    0 -0.87645583357E+01  0.50681264151E+00  0.50572530150E+01  0.10131641041E+02  0.51100000000E-03 0. -1.
        -11    1    3    3    0    0 -0.78996606810E+01  0.74000123521E+01  0.75619274262E+01  0.13204073930E+02  0.51100000000E-03 0.  1.
        -12    1    3    3    0    0 -0.17195367678E+02  0.51347599562E+01  0.14074615498E+02  0.22806604983E+02  0.00000000000E+00 0.  1.
</event>
<event>
 7    1  0.2297343E-008  0.4614232E+02  0.7816164E-02  0.1320468E+00
        -11   -1    0    0    0    0  0.00000000000E+00  0.00000000000E+00  0.45593999997E+02  0.45594000000E+02  0.51100000000E-03 0.  1.
         11   -1    0    0    0    0 -0.00000000000E+00 -0.00000000000E+00 -0.45593999997E+02  0.45594000000E+02  0.51100000000E-03 0. -1.
    9900012    2    1    2    0    0 -0.30952919205E+02 -0.31880300522E+02 -0.73943696765E+01  0.46142317947E+02  0.10000001697E+02 0.  0.
         12    1    1    2    0    0  0.30952919205E+02  0.31880300522E+02  0.73943696765E+01  0.45045682053E+02  0.00000000000E+00 0. -1.
         11    1    3    3    0    0 -0.13452602786E+01 -0.43326786001E+00 -0.62730043238E+00  0.15462704645E+01  0.51100000000E-03 0. -1.
        -11    1    3    3    0    0 -0.23342763323E+02 -0.19260922926E+02 -0.31653918637E+01  0.30428398864E+02  0.51100000000E-03 0.  1.
        -12    1    3    3    0    0 -0.62648956028E+01 -0.12186109737E+02 -0.36016773804E+01  0.14167648619E+02  0.00000000000E+00 0.  1.
</event>
<event>
 7    1  0.2297343E-008  0.4614232E+02  0.7816164E-02  0.1320468E+00
        -11   -1    0    0    0    0  0.00000000000E+00  0.00000000000E+00  0.45593999997E+02  0.45594000000E+02  0.51100000000E-03 0.  1.
         11   -1    0    0    0    0 -0.00000000000E+00 -0.00000000000E+00 -0.45593999997E+02  0.45594000000E+02  0.51100000000E-03 0. -1.
    9900012    2    1    2    0    0 -0.43815955393E+02  0.43608071263E+01  0.95004590346E+01  0.46142319767E+02  0.10000018291E+02 0.  0.
         12    1    1    2    0    0  0.43815955393E+02 -0.43608071263E+01 -0.95004590346E+01  0.45045680233E+02  0.00000000000E+00 0. -1.
         11    1    3    3    0    0 -0.80237290086E+00  0.72130880111E+00  0.46225003986E+00  0.11737819299E+01  0.51100000000E-03 0. -1.
        -11    1    3    3    0    0 -0.85689341866E+01  0.40870425600E+01  0.32718197379E+01  0.10041680867E+02  0.51100000000E-03 0.  1.
         12    1    3    3    0    0 -0.34444648305E+02 -0.44754423481E+00  0.57663892569E+01  0.34926856970E+02  0.00000000000E+00 0. -1.
</event>
<event>
 7    1  0.2297343E-008  0.4614232E+02  0.7816164E-02  0.1320468E+00
        -11   -1    0    0    0    0  0.00000000000E+00  0.00000000000E+00  0.45593999997E+02  0.45594000000E+02  0.51100000000E-03 0.  1.
         11   -1    0    0    0    0 -0.00000000000E+00 -0.00000000000E+00 -0.45593999997E+02  0.45594000000E+02  0.51100000000E-03 0. -1.
    9900012    2    1    2    0    0  0.13052680064E+02  0.21326893759E+02  0.37468715383E+02  0.46142317780E+02  0.10000000171E+02 0.  0.
         12    1    1    2    0    0 -0.13052680064E+02 -0.21326893759E+02 -0.37468715383E+02  0.45045682220E+02  0.00000000000E+00 0. -1.
         11    1    3    3    0    0  0.36445002797E+01  0.95682296899E+00  0.48352151040E+01  0.61300242941E+01  0.51100000000E-03 0. -1.
        -11    1    3    3    0    0 -0.65583156701E+00  0.45752005518E+00  0.74060244697E+00  0.10899228829E+01  0.51100000000E-03 0.  1.
        -12    1    3    3    0    0  0.10064011351E+02  0.19912550735E+02  0.31892897832E+02  0.38922370603E+02  0.00000000000E+00 0.  1.
</event>
<event>
 7    1  0.2297343E-008  0.4614232E+02  0.7816164E-02  0.1320468E+00
        -11   -1    0    0    0    0  0.00000000000E+00  0.00000000000E+00  0.45593999997E+02  0.45594000000E+02  0.51100000000E-03 0.  1.
         11   -1    0    0    0    0 -0.00000000000E+00 -0.00000000000E+00 -0.45593999997E+02  0.45594000000E+02  0.51100000000E-03 0. -1.
    9900012    2    1    2    0    0  0.31713481810E+02  0.20620857449E+02  0.24457079136E+02  0.46142318628E+02  0.10000007903E+02 0.  0.
         12    1    1    2    0    0 -0.31713481810E+02 -0.20620857449E+02 -0.24457079136E+02  0.45045681372E+02  0.00000000000E+00 0. -1.
         11    1    3    3    0    0 -0.42036558090E+00  0.33546528525E+00 -0.21445024882E+00  0.57899339336E+00  0.51100000000E-03 0. -1.
        -11    1    3    3    0    0  0.87188636667E+01  0.55183206706E+01  0.42322403058E+01  0.11152681513E+02  0.51100000000E-03 0.  1.
        -12    1    3    3    0    0  0.23414983724E+02  0.14767071493E+02  0.20439289079E+02  0.34410643722E+02  0.00000000000E+00 0.  1.
</event>
<event>
 7    1  0.2297343E-008  0.4614232E+02  0.7816164E-02  0.1320468E+00
        -11   -1    0    0    0    0  0.00000000000E+00  0.00000000000E+00  0.45593999997E+02  0.45594000000E+02  0.51100000000E-03 0.  1.
         11   -1    0    0    0    0 -0.00000000000E+00 -0.00000000000E+00 -0.45593999997E+02  0.45594000000E+02  0.51100000000E-03 0. -1.
    9900012    2    1    2    0    0 -0.38873241741E+02  0.20763486243E+02  0.93199879613E+01  0.46142318076E+02  0.10000002868E+02 0.  0.
         12    1    1    2    0    0  0.38873241741E+02 -0.20763486243E+02 -0.93199879613E+01  0.45045681924E+02  0.00000000000E+00 0. -1.
         11    1    3    3    0    0 -0.27618431926E+01  0.30358999443E+01  0.32294404246E+01  0.52224277888E+01  0.51100000000E-03 0. -1.
        -11    1    3    3    0    0 -0.24096050918E+02  0.13126385540E+02  0.24502508477E+01  0.27548600630E+02  0.51100000000E-03 0.  1.
         12    1    3    3    0    0 -0.12015347631E+02  0.46012007589E+01  0.36402966890E+01  0.13371289657E+02  0.00000000000E+00 0. -1.
</event>
<event>
 7    1  0.2297343E-008  0.4614233E+02  0.7816164E-02  0.1320468E+00
        -11   -1    0    0    0    0  0.00000000000E+00  0.00000000000E+00  0.45593999997E+02  0.45594000000E+02  0.51100000000E-03 0. -1.
         11   -1    0    0    0    0 -0.00000000000E+00 -0.00000000000E+00 -0.45593999997E+02  0.45594000000E+02  0.51100000000E-03 0.  1.
    9900012    2    1    2    0    0  0.12871699465E+02 -0.17349162286E+02 -0.39527693720E+02  0.46142327067E+02  0.10000084863E+02 0.  0.
         12    1    1    2    0    0 -0.12871699465E+02  0.17349162286E+02  0.39527693720E+02  0.45045672933E+02  0.00000000000E+00 0. -1.
         11    1    3    3    0    0  0.69084415931E+01 -0.11550932832E+02 -0.20573003877E+02  0.24584529756E+02  0.51100000000E-03 0. -1.
        -11    1    3    3    0    0  0.57366232431E+01 -0.65429096980E+01 -0.18863860597E+02  0.20774112507E+02  0.51100000000E-03 0.  1.
         12    1    3    3    0    0  0.22663462857E+00  0.74468024430E+00 -0.90829245401E-01  0.78368480459E+00  0.00000000000E+00 0. -1.
</event>
<event>
 7    1  0.2297343E-008  0.4614232E+02  0.7816164E-02  0.1320468E+00
        -11   -1    0    0    0    0  0.00000000000E+00  0.00000000000E+00  0.45593999997E+02  0.45594000000E+02  0.51100000000E-03 0.  1.
         11   -1    0    0    0    0 -0.00000000000E+00 -0.00000000000E+00 -0.45593999997E+02  0.45594000000E+02  0.51100000000E-03 0. -1.
    9900012    2    1    2    0    0 -0.18301634074E+02  0.40898436559E+02 -0.46348179786E+01  0.46142318071E+02  0.10000002826E+02 0.  0.
         12    1    1    2    0    0  0.18301634074E+02 -0.40898436559E+02  0.46348179786E+01  0.45045681929E+02  0.00000000000E+00 0. -1.
         11    1    3    3    0    0 -0.30822950869E+01  0.32157493286E+01  0.54871447517E+00  0.44880591109E+01  0.51100000000E-03 0. -1.
        -11    1    3    3    0    0 -0.15353154130E+01  0.43696464722E+00  0.20777365120E+00  0.16097520529E+01  0.51100000000E-03 0.  1.
        -12    1    3    3    0    0 -0.13684023574E+02  0.37245722583E+02 -0.53913061050E+01  0.40044506907E+02  0.00000000000E+00 0.  1.
</event>
<event>
 7    1  0.2297343E-008  0.4614232E+02  0.7816164E-02  0.1320468E+00
        -11   -1    0    0    0    0  0.00000000000E+00  0.00000000000E+00  0.45593999997E+02  0.45594000000E+02  0.51100000000E-03 0. -1.
         11   -1    0    0    0    0 -0.00000000000E+00 -0.00000000000E+00 -0.45593999997E+02  0.45594000000E+02  0.51100000000E-03 0.  1.
    9900012    2    1    2    0    0 -0.23678357820E+02 -0.17297104563E+02 -0.34194430104E+02  0.46142317571E+02  0.99999982668E+01 0.  0.
         12    1    1    2    0    0  0.23678357820E+02  0.17297104563E+02  0.34194430104E+02  0.45045682429E+02  0.00000000000E+00 0. -1.
         11    1    3    3    0    0 -0.79634927978E+01 -0.48400650864E+01 -0.81984763429E+01  0.12412028931E+02  0.51100000000E-03 0. -1.
        -11    1    3    3    0    0 -0.15618620770E+02 -0.92014671067E+01 -0.23166629024E+02  0.29415999257E+02  0.51100000000E-03 0.  1.
         12    1    3    3    0    0 -0.96244252903E-01 -0.32555723703E+01 -0.28293247368E+01  0.43142893831E+01  0.00000000000E+00 0. -1.
</event>
<event>
 7    1  0.2297343E-008  0.4614232E+02  0.7816164E-02  0.1320468E+00
        -11   -1    0    0    0    0  0.00000000000E+00  0.00000000000E+00  0.45593999997E+02  0.45594000000E+02  0.51100000000E-03 0.  1.
         11   -1    0    0    0    0 -0.00000000000E+00 -0.00000000000E+00 -0.45593999997E+02  0.45594000000E+02  0.51100000000E-03 0. -1.
    9900012    2    1    2    0    0 -0.26250584583E+02 -0.15922100649E+02  0.32962205668E+02  0.46142317826E+02  0.10000000591E+02 0.  0.
         12    1    1    2    0    0  0.26250584583E+02  0.15922100649E+02 -0.32962205668E+02  0.45045682174E+02  0.00000000000E+00 0. -1.
         11    1    3    3    0    0  0.17773886641E+00  0.56607021977E+00  0.16467963139E+01  0.17504185097E+01  0.51100000000E-03 0. -1.
        -11    1    3    3    0    0 -0.42582827127E+01 -0.33242263534E+01  0.33612653695E+01  0.63625118982E+01  0.51100000000E-03 0.  1.
        -12    1    3    3    0    0 -0.22170040737E+02 -0.13163944515E+02  0.27954143984E+02  0.38029387418E+02  0.00000000000E+00 0.  1.
</event>
<event>
 7    1  0.2297343E-008  0.4614232E+02  0.7816164E-02  0.1320468E+00
        -11   -1    0    0    0    0  0.00000000000E+00  0.00000000000E+00  0.45593999997E+02  0.45594000000E+02  0.51100000000E-03 0.  1.
         11   -1    0    0    0    0 -0.00000000000E+00 -0.00000000000E+00 -0.45593999997E+02  0.45594000000E+02  0.51100000000E-03 0. -1.
    9900012    2    1    2    0    0 -0.10317300061E+02  0.17119644068E+02  0.40368112588E+02  0.46142318659E+02  0.10000008191E+02 0.  0.
         12    1    1    2    0    0  0.10317300061E+02 -0.17119644068E+02 -0.40368112588E+02  0.45045681341E+02  0.00000000000E+00 0. -1.
         11    1    3    3    0    0 -0.97474743664E+00  0.43289210036E+01  0.12824044195E+02  0.13570033139E+02  0.51100000000E-03 0. -1.
        -11    1    3    3    0    0 -0.65467268652E+01  0.86643991720E+01  0.24324572073E+02  0.26638623321E+02  0.51100000000E-03 0.  1.
         12    1    3    3    0    0 -0.27958257589E+01  0.41263238923E+01  0.32194963197E+01  0.59336621989E+01  0.00000000000E+00 0. -1.
</event>
<event>
 7    1  0.2297343E-008  0.4614232E+02  0.7816164E-02  0.1320468E+00
        -11   -1    0    0    0    0  0.00000000000E+00  0.00000000000E+00  0.45593999997E+02  0.45594000000E+02  0.51100000000E-03 0. -1.
         11   -1    0    0    0    0 -0.00000000000E+00 -0.00000000000E+00 -0.45593999997E+02  0.45594000000E+02  0.51100000000E-03 0.  1.
    9900012    2    1    2    0    0  0.30052407268E+02 -0.25900548327E+00 -0.33554423644E+02  0.46142316383E+02  0.99999874292E+01 0.  0.
         12    1    1    2    0    0 -0.30052407268E+02  0.25900548327E+00  0.33554423644E+02  0.45045683617E+02  0.00000000000E+00 0. -1.
         11    1    3    3    0    0  0.17695832448E+02  0.40874872306E+01 -0.20819782018E+02  0.27628126274E+02  0.51100000000E-03 0. -1.
        -11    1    3    3    0    0  0.93616746887E+01 -0.20247265520E+01 -0.99549547928E+01  0.13814542909E+02  0.51100000000E-03 0.  1.
         12    1    3    3    0    0  0.29949001319E+01 -0.23217661619E+01 -0.27796868336E+01  0.46996471999E+01  0.00000000000E+00 0. -1.
</event>
<event>
 7    1  0.2297343E-008  0.4614231E+02  0.7816164E-02  0.1320468E+00
        -11   -1    0    0    0    0  0.00000000000E+00  0.00000000000E+00  0.45593999997E+02  0.45594000000E+02  0.51100000000E-03 0.  1.
         11   -1    0    0    0    0 -0.00000000000E+00 -0.00000000000E+00 -0.45593999997E+02  0.45594000000E+02  0.51100000000E-03 0. -1.
    9900012    2    1    2    0    0  0.26643336365E+02  0.29720723822E+02  0.20878828999E+02  0.46142308779E+02  0.99999180975E+01 0.  0.
         12    1    1    2    0    0 -0.26643336365E+02 -0.29720723822E+02 -0.20878828999E+02  0.45045691221E+02  0.00000000000E+00 0. -1.
         11    1    3    3    0    0  0.47291489507E+01  0.67866206978E+01  0.38371959399E+01  0.91185055375E+01  0.51100000000E-03 0. -1.
        -11    1    3    3    0    0  0.22597128055E+02  0.21641555849E+02  0.16883667661E+02  0.35553415727E+02  0.51100000000E-03 0.  1.
         12    1    3    3    0    0 -0.68294064077E+00  0.12925472753E+01  0.15796539828E+00  0.14703875151E+01  0.00000000000E+00 0. -1.
</event>
<event>
 7    1  0.2297343E-008  0.4614232E+02  0.7816164E-02  0.1320468E+00
        -11   -1    0    0    0    0  0.00000000000E+00  0.00000000000E+00  0.45593999997E+02  0.45594000000E+02  0.51100000000E-03 0.  1.
         11   -1    0    0    0    0 -0.00000000000E+00 -0.00000000000E+00 -0.45593999997E+02  0.45594000000E+02  0.51100000000E-03 0. -1.
    9900012    2    1    2    0    0 -0.15245279243E+02 -0.11125532270E+02  0.40901314016E+02  0.46142317679E+02  0.99999992552E+01 0.  0.
         12    1    1    2    0    0  0.15245279243E+02  0.11125532270E+02 -0.40901314016E+02  0.45045682321E+02  0.00000000000E+00 0. -1.
         11    1    3    3    0    0 -0.50294930587E+01 -0.42566403355E+01  0.60652575766E+01  0.89555645888E+01  0.51100000000E-03 0.  1.
        -11    1    3    3    0    0 -0.28238505398E+01 -0.22397097278E+00  0.11053098725E+02  0.11410314920E+02  0.51100000000E-03 0. -1.
        -12    1    3    3    0    0 -0.73919356445E+01 -0.66449209621E+01  0.23782957714E+02  0.25776438171E+02  0.00000000000E+00 0.  1.
</event>
<event>
 7    1  0.2297343E-008  0.4614232E+02  0.7816164E-02  0.1320468E+00
        -11   -1    0    0    0    0  0.00000000000E+00  0.00000000000E+00  0.45593999997E+02  0.45594000000E+02  0.51100000000E-03 0.  1.
         11   -1    0    0    0    0 -0.00000000000E+00 -0.00000000000E+00 -0.45593999997E+02  0.45594000000E+02  0.51100000000E-03 0. -1.
    9900012    2    1    2    0    0  0.16902913016E+02 -0.36298043381E+02  0.20636302417E+02  0.46142318752E+02  0.10000009031E+02 0.  0.
         12    1    1    2    0    0 -0.16902913016E+02  0.36298043381E+02 -0.20636302417E+02  0.45045681248E+02  0.00000000000E+00 0. -1.
         11    1    3    3    0    0  0.94653089788E+01 -0.28288736498E+02  0.15914078161E+02  0.33809799921E+02  0.51100000000E-03 0.  1.
        -11    1    3    3    0    0  0.16716166899E+00  0.30399613605E+00  0.18078643943E+00  0.39120413100E+00  0.51100000000E-03 0. -1.
        -12    1    3    3    0    0  0.72704423685E+01 -0.83133030191E+01  0.45414378159E+01  0.11941314700E+02  0.00000000000E+00 0.  1.
</event>
<event>
 7    1  0.2297343E-008  0.4614232E+02  0.7816164E-02  0.1320468E+00
        -11   -1    0    0    0    0  0.00000000000E+00  0.00000000000E+00  0.45593999997E+02  0.45594000000E+02  0.51100000000E-03 0. -1.
         11   -1    0    0    0    0 -0.00000000000E+00 -0.00000000000E+00 -0.45593999997E+02  0.45594000000E+02  0.51100000000E-03 0.  1.
    9900012    2    1    2    0    0  0.21956849120E+02 -0.18084616127E+02 -0.34927881619E+02  0.46142317875E+02  0.10000001037E+02 0.  0.
         12    1    1    2    0    0 -0.21956849120E+02  0.18084616127E+02  0.34927881619E+02  0.45045682125E+02  0.00000000000E+00 0. -1.
         11    1    3    3    0    0  0.86679510815E+01 -0.40828574283E+01 -0.10449431832E+02  0.14177225632E+02  0.51100000000E-03 0. -1.
        -11    1    3    3    0    0  0.13066904866E+02 -0.14616288982E+02 -0.22310474369E+02  0.29700794151E+02  0.51100000000E-03 0.  1.
         12    1    3    3    0    0  0.22199317220E+00  0.61453028298E+00 -0.21679754180E+01  0.22642980922E+01  0.00000000000E+00 0. -1.
</event>
<event>
 7    1  0.2297343E-008  0.4614231E+02  0.7816164E-02  0.1320468E+00
        -11   -1    0    0    0    0  0.00000000000E+00  0.00000000000E+00  0.45593999997E+02  0.45594000000E+02  0.51100000000E-03 0.  1.
         11   -1    0    0    0    0 -0.00000000000E+00 -0.00000000000E+00 -0.45593999997E+02  0.45594000000E+02  0.51100000000E-03 0. -1.
    9900012    2    1    2    0    0 -0.14897867719E+02 -0.35655639552E+02 -0.23148286814E+02  0.46142309009E+02  0.99999201905E+01 0.  0.
         12    1    1    2    0    0  0.14897867719E+02  0.35655639552E+02  0.23148286814E+02  0.45045690991E+02  0.00000000000E+00 0. -1.
         11    1    3    3    0    0 -0.63120145026E+01 -0.61233821367E+01 -0.32127907555E+01  0.93626577729E+01  0.51100000000E-03 0. -1.
        -11    1    3    3    0    0 -0.28213445222E+01 -0.11044127346E+02 -0.91202925229E+01  0.14598372159E+02  0.51100000000E-03 0.  1.
         12    1    3    3    0    0 -0.57645086941E+01 -0.18488130070E+02 -0.10815203536E+02  0.22181279077E+02  0.00000000000E+00 0. -1.
</event>
<event>
 7    1  0.2297343E-008  0.4614232E+02  0.7816164E-02  0.1320468E+00
        -11   -1    0    0    0    0  0.00000000000E+00  0.00000000000E+00  0.45593999997E+02  0.45594000000E+02  0.51100000000E-03 0.  1.
         11   -1    0    0    0    0 -0.00000000000E+00 -0.00000000000E+00 -0.45593999997E+02  0.45594000000E+02  0.51100000000E-03 0. -1.
    9900012    2    1    2    0    0  0.15965329181E+02  0.35864369386E+01  0.41968550797E+02  0.46142317390E+02  0.99999966167E+01 0.  0.
         12    1    1    2    0    0 -0.15965329181E+02 -0.35864369386E+01 -0.41968550797E+02  0.45045682610E+02  0.00000000000E+00 0. -1.
         11    1    3    3    0    0  0.29045597937E+01 -0.21943451508E+01  0.83734828571E+01  0.91305439955E+01  0.51100000000E-03 0. -1.
        -11    1    3    3    0    0  0.49415228985E+01 -0.89122413061E+00  0.11127237972E+02  0.12207716992E+02  0.51100000000E-03 0.  1.
        -12    1    3    3    0    0  0.81192464887E+01  0.66720062200E+01  0.22467829968E+02  0.24804056402E+02  0.00000000000E+00 0.  1.
</event>
<event>
 7    1  0.2297343E-008  0.4614232E+02  0.7816164E-02  0.1320468E+00
        -11   -1    0    0    0    0  0.00000000000E+00  0.00000000000E+00  0.45593999997E+02  0.45594000000E+02  0.51100000000E-03 0.  1.
         11   -1    0    0    0    0 -0.00000000000E+00 -0.00000000000E+00 -0.45593999997E+02  0.45594000000E+02  0.51100000000E-03 0. -1.
    9900012    2    1    2    0    0  0.30352424949E+02  0.18641462338E+02  0.27574256112E+02  0.46142318536E+02  0.10000007068E+02 0.  0.
         12    1    1    2    0    0 -0.30352424949E+02 -0.18641462338E+02 -0.27574256112E+02  0.45045681464E+02  0.00000000000E+00 0. -1.
         11    1    3    3    0    0  0.16468559543E+02  0.12803748551E+02  0.14246571359E+02  0.25260922907E+02  0.51100000000E-03 0. -1.
        -11    1    3    3    0    0  0.12356622328E+01  0.27693349049E+01  0.30104827617E+01  0.42730649058E+01  0.51100000000E-03 0.  1.
        -12    1    3    3    0    0  0.12648203173E+02  0.30683788824E+01  0.10317201992E+02  0.16608330723E+02  0.00000000000E+00 0.  1.
</event>
<event>
 7    1  0.2297343E-008  0.4614232E+02  0.7816164E-02  0.1320468E+00
        -11   -1    0    0    0    0  0.00000000000E+00  0.00000000000E+00  0.45593999997E+02  0.45594000000E+02  0.51100000000E-03 0. -1.
         11   -1    0    0    0    0 -0.00000000000E+00 -0.00000000000E+00 -0.45593999997E+02  0.45594000000E+02  0.51100000000E-03 0.  1.
    9900012    2    1    2    0    0 -0.17246910943E+02 -0.40010738214E+02 -0.11436712573E+02  0.46142317588E+02  0.99999984195E+01 0.  0.
         12    1    1    2    0    0  0.17246910943E+02  0.40010738214E+02  0.11436712573E+02  0.45045682412E+02  0.00000000000E+00 0. -1.
         11    1    3    3    0    0 -0.11858074331E+02 -0.27472126642E+02 -0.31485187688E+01  0.30087287013E+02  0.51100000000E-03 0. -1.
        -11    1    3    3    0    0 -0.93151856875E+00 -0.32268277663E+01 -0.13675384594E+01  0.36263350612E+01  0.51100000000E-03 0.  1.
         12    1    3    3    0    0 -0.44573180435E+01 -0.93117838057E+01 -0.69206553444E+01  0.12428695514E+02  0.00000000000E+00 0. -1.
</event>
<event>
 7    1  0.2297343E-008  0.4614232E+02  0.7816164E-02  0.1320468E+00
        -11   -1    0    0    0    0  0.00000000000E+00  0.00000000000E+00  0.45593999997E+02  0.45594000000E+02  0.51100000000E-03 0.  1.
         11   -1    0    0    0    0 -0.00000000000E+00 -0.00000000000E+00 -0.45593999997E+02  0.45594000000E+02  0.51100000000E-03 0. -1.
    9900012    2    1    2    0    0 -0.26134299022E+02 -0.18941902033E+02  0.31421588699E+02  0.46142317917E+02  0.10000001418E+02 0.  0.
         12    1    1    2    0    0  0.26134299022E+02  0.18941902033E+02 -0.31421588699E+02  0.45045682083E+02  0.00000000000E+00 0. -1.
         11    1    3    3    0    0 -0.34710994021E+01 -0.13531061122E+01  0.43067055332E+01  0.56944832971E+01  0.51100000000E-03 0. -1.
        -11    1    3    3    0    0 -0.11713811602E+01 -0.27049978260E+00  0.48183065909E+01  0.49660228171E+01  0.51100000000E-03 0.  1.
         12    1    3    3    0    0 -0.21491818459E+02 -0.17318296138E+02  0.22296576575E+02  0.35481811802E+02  0.00000000000E+00 0. -1.
</event>
<event>
 7    1  0.2297343E-008  0.4614232E+02  0.7816164E-02  0.1320468E+00
        -11   -1    0    0    0    0  0.00000000000E+00  0.00000000000E+00  0.45593999997E+02  0.45594000000E+02  0.51100000000E-03 0. -1.
         11   -1    0    0    0    0 -0.00000000000E+00 -0.00000000000E+00 -0.45593999997E+02  0.45594000000E+02  0.51100000000E-03 0.  1.
    9900012    2    1    2    0    0  0.37896788947E+01 -0.38587820451E+02 -0.22928845186E+02  0.46142317689E+02  0.99999993414E+01 0.  0.
         12    1    1    2    0    0 -0.37896788947E+01  0.38587820451E+02  0.22928845186E+02  0.45045682311E+02  0.00000000000E+00 0. -1.
         11    1    3    3    0    0  0.34522689727E+00 -0.79126151937E+01 -0.29680225470E+01  0.84580032464E+01  0.51100000000E-03 0.  1.
        -11    1    3    3    0    0 -0.27466281479E+01 -0.91499099320E+01 -0.54904197299E+01  0.11018599140E+02  0.51100000000E-03 0. -1.
        -12    1    3    3    0    0  0.61910801454E+01 -0.21525295326E+02 -0.14470402909E+02  0.26665715302E+02  0.00000000000E+00 0.  1.
</event>
<event>
 7    1  0.2297343E-008  0.4614231E+02  0.7816164E-02  0.1320468E+00
        -11   -1    0    0    0    0  0.00000000000E+00  0.00000000000E+00  0.45593999997E+02  0.45594000000E+02  0.51100000000E-03 0. -1.
         11   -1    0    0    0    0 -0.00000000000E+00 -0.00000000000E+00 -0.45593999997E+02  0.45594000000E+02  0.51100000000E-03 0.  1.
    9900012    2    1    2    0    0  0.20989264034E+00 -0.39125299987E+02 -0.22322201703E+02  0.46142313826E+02  0.99999641166E+01 0.  0.
         12    1    1    2    0    0 -0.20989264034E+00  0.39125299987E+02  0.22322201703E+02  0.45045686174E+02  0.00000000000E+00 0. -1.
         11    1    3    3    0    0 -0.24480557598E-01 -0.15071147646E+02 -0.41854301516E+01  0.15641544568E+02  0.51100000000E-03 0. -1.
        -11    1    3    3    0    0 -0.21349190689E+01 -0.76017046337E+01 -0.61165068893E+01  0.99877649931E+01  0.51100000000E-03 0.  1.
         12    1    3    3    0    0  0.23692922668E+01 -0.16452447708E+02 -0.12020264662E+02  0.20513004265E+02  0.00000000000E+00 0. -1.
</event>
<event>
 7    1  0.2297343E-008  0.4614232E+02  0.7816164E-02  0.1320468E+00
        -11   -1    0    0    0    0  0.00000000000E+00  0.00000000000E+00  0.45593999997E+02  0.45594000000E+02  0.51100000000E-03 0. -1.
         11   -1    0    0    0    0 -0.00000000000E+00 -0.00000000000E+00 -0.45593999997E+02  0.45594000000E+02  0.51100000000E-03 0.  1.
    9900012    2    1    2    0    0 -0.38208743509E+02  0.23458815551E+02  0.43461857292E+01  0.46142318321E+02  0.10000005105E+02 0.  0.
         12    1    1    2    0    0  0.38208743509E+02 -0.23458815551E+02 -0.43461857292E+01  0.45045681679E+02  0.00000000000E+00 0. -1.
         11    1    3    3    0    0 -0.30423057140E+01  0.55738320030E+01 -0.34017442207E+00  0.63591623783E+01  0.51100000000E-03 0. -1.
        -11    1    3    3    0    0 -0.24093277510E+02  0.12304281084E+02  0.22554869294E+01  0.27147165151E+02  0.51100000000E-03 0.  1.
         12    1    3    3    0    0 -0.11073160284E+02  0.55807024640E+01  0.24308732218E+01  0.12635990792E+02  0.00000000000E+00 0. -1.
</event>
<event>
 7    1  0.2297343E-008  0.4614232E+02  0.7816164E-02  0.1320468E+00
        -11   -1    0    0    0    0  0.00000000000E+00  0.00000000000E+00  0.45593999997E+02  0.45594000000E+02  0.51100000000E-03 0.  1.
         11   -1    0    0    0    0 -0.00000000000E+00 -0.00000000000E+00 -0.45593999997E+02  0.45594000000E+02  0.51100000000E-03 0. -1.
    9900012    2    1    2    0    0  0.18338601188E+02  0.21655005999E+02  0.34983850202E+02  0.46142319261E+02  0.10000013674E+02 0.  0.
         12    1    1    2    0    0 -0.18338601188E+02 -0.21655005999E+02 -0.34983850202E+02  0.45045680739E+02  0.00000000000E+00 0. -1.
         11    1    3    3    0    0  0.43566062879E+00  0.13582661139E-01 -0.22823568120E+00  0.49201266188E+00  0.51100000000E-03 0. -1.
        -11    1    3    3    0    0  0.21212362116E+01  0.50253885787E+01  0.33439579925E+01  0.63981426015E+01  0.51100000000E-03 0.  1.
         12    1    3    3    0    0  0.15781704347E+02  0.16616034759E+02  0.31868127891E+02  0.39252163997E+02  0.00000000000E+00 0. -1.
</event>
<event>
 7    1  0.2297343E-008  0.4614232E+02  0.7816164E-02  0.1320468E+00
        -11   -1    0    0    0    0  0.00000000000E+00  0.00000000000E+00  0.45593999997E+02  0.45594000000E+02  0.51100000000E-03 0.  1.
         11   -1    0    0    0    0 -0.00000000000E+00 -0.00000000000E+00 -0.45593999997E+02  0.45594000000E+02  0.51100000000E-03 0. -1.
    9900012    2    1    2    0    0 -0.69176647403E+01 -0.12376750549E+02  0.42755999676E+02  0.46142317100E+02  0.99999939732E+01 0.  0.
         12    1    1    2    0    0  0.69176647403E+01  0.12376750549E+02 -0.42755999676E+02  0.45045682900E+02  0.00000000000E+00 0. -1.
         11    1    3    3    0    0  0.47390302095E+00 -0.58843590018E+01  0.13344141927E+02  0.14591654771E+02  0.51100000000E-03 0. -1.
        -11    1    3    3    0    0 -0.47421671380E+01 -0.22872455840E+01  0.80544670058E+01  0.96225818019E+01  0.51100000000E-03 0.  1.
        -12    1    3    3    0    0 -0.26494006232E+01 -0.42051459627E+01  0.21357390744E+02  0.21928080527E+02  0.00000000000E+00 0.  1.
</event>
<event>
 7    1  0.2297343E-008  0.4614232E+02  0.7816164E-02  0.1320468E+00
        -11   -1    0    0    0    0  0.00000000000E+00  0.00000000000E+00  0.45593999997E+02  0.45594000000E+02  0.51100000000E-03 0.  1.
         11   -1    0    0    0    0 -0.00000000000E+00 -0.00000000000E+00 -0.45593999997E+02  0.45594000000E+02  0.51100000000E-03 0. -1.
    9900012    2    1    2    0    0 -0.15530294602E+02  0.31043392182E+02  0.28709427711E+02  0.46142317764E+02  0.10000000030E+02 0.  0.
         12    1    1    2    0    0  0.15530294602E+02 -0.31043392182E+02 -0.28709427711E+02  0.45045682236E+02  0.00000000000E+00 0. -1.
         11    1    3    3    0    0 -0.48491198297E+01  0.92673747851E+01  0.59520536271E+01  0.12034331771E+02  0.51100000000E-03 0. -1.
        -11    1    3    3    0    0 -0.68841027284E+01  0.70931956038E+01  0.62657921816E+01  0.11703181028E+02  0.51100000000E-03 0.  1.
         12    1    3    3    0    0 -0.37970720438E+01  0.14682821793E+02  0.16491581902E+02  0.22404804966E+02  0.00000000000E+00 0. -1.
</event>
<event>
 7    1  0.2297343E-008  0.4614232E+02  0.7816164E-02  0.1320468E+00
        -11   -1    0    0    0    0  0.00000000000E+00  0.00000000000E+00  0.45593999997E+02  0.45594000000E+02  0.51100000000E-03 0.  1.
         11   -1    0    0    0    0 -0.00000000000E+00 -0.00000000000E+00 -0.45593999997E+02  0.45594000000E+02  0.51100000000E-03 0. -1.
    9900012    2    1    2    0    0 -0.15967846501E+02 -0.19638311830E+02  0.37262287889E+02  0.46142317497E+02  0.99999975932E+01 0.  0.
         12    1    1    2    0    0  0.15967846501E+02  0.19638311830E+02 -0.37262287889E+02  0.45045682503E+02  0.00000000000E+00 0. -1.
         11    1    3    3    0    0 -0.54186784552E+01 -0.49359000353E+01  0.56703994560E+01  0.92670715769E+01  0.51100000000E-03 0. -1.
        -11    1    3    3    0    0  0.71452022934E+00 -0.71057410317E+00  0.11495208904E+01  0.15286769616E+01  0.51100000000E-03 0.  1.
        -12    1    3    3    0    0 -0.11263688275E+02 -0.13991837692E+02  0.30442367543E+02  0.35346568959E+02  0.00000000000E+00 0.  1.
</event>
<event>
 7    1  0.2297343E-008  0.4614232E+02  0.7816164E-02  0.1320468E+00
        -11   -1    0    0    0    0  0.00000000000E+00  0.00000000000E+00  0.45593999997E+02  0.45594000000E+02  0.51100000000E-03 0.  1.
         11   -1    0    0    0    0 -0.00000000000E+00 -0.00000000000E+00 -0.45593999997E+02  0.45594000000E+02  0.51100000000E-03 0. -1.
    9900012    2    1    2    0    0 -0.12812267911E+02  0.29807932166E+02  0.31248143579E+02  0.46142317563E+02  0.99999981938E+01 0.  0.
         12    1    1    2    0    0  0.12812267911E+02 -0.29807932166E+02 -0.31248143579E+02  0.45045682437E+02  0.00000000000E+00 0. -1.
         11    1    3    3    0    0  0.52386806524E-01  0.80999290593E+01  0.94111695789E+01  0.12416992722E+02  0.51100000000E-03 0. -1.
        -11    1    3    3    0    0 -0.18701503032E+01  0.24486753663E+01  0.85893264790E+00  0.31986307635E+01  0.51100000000E-03 0.  1.
        -12    1    3    3    0    0 -0.10994504415E+02  0.19259327741E+02  0.20978041353E+02  0.30526694078E+02  0.00000000000E+00 0.  1.
</event>
<event>
 7    1  0.2297343E-008  0.4614232E+02  0.7816164E-02  0.1320468E+00
        -11   -1    0    0    0    0  0.00000000000E+00  0.00000000000E+00  0.45593999997E+02  0.45594000000E+02  0.51100000000E-03 0.  1.
         11   -1    0    0    0    0 -0.00000000000E+00 -0.00000000000E+00 -0.45593999997E+02  0.45594000000E+02  0.51100000000E-03 0. -1.
    9900012    2    1    2    0    0 -0.28141621002E+02  0.45447352731E+01  0.34878475667E+02  0.46142317453E+02  0.99999971899E+01 0.  0.
         12    1    1    2    0    0  0.28141621002E+02 -0.45447352731E+01 -0.34878475667E+02  0.45045682547E+02  0.00000000000E+00 0. -1.
         11    1    3    3    0    0 -0.11683690212E+01 -0.87336633340E+00  0.69640757367E+00  0.16164277564E+01  0.51100000000E-03 0. -1.
        -11    1    3    3    0    0 -0.40583336586E+01 -0.65420326198E+00  0.92526096710E+01  0.10124664932E+02  0.51100000000E-03 0.  1.
         12    1    3    3    0    0 -0.22914918322E+02  0.60723048684E+01  0.24929458422E+02  0.34401224765E+02  0.00000000000E+00 0. -1.
</event>
<event>
 7    1  0.2297343E-008  0.4614233E+02  0.7816164E-02  0.1320468E+00
        -11   -1    0    0    0    0  0.00000000000E+00  0.00000000000E+00  0.45593999997E+02  0.45594000000E+02  0.51100000000E-03 0.  1.
         11   -1    0    0    0    0 -0.00000000000E+00 -0.00000000000E+00 -0.45593999997E+02  0.45594000000E+02  0.51100000000E-03 0. -1.
    9900012    2    1    2    0    0 -0.24829832726E+02 -0.13007883500E+02  0.35261689287E+02  0.46142330311E+02  0.10000114440E+02 0.  0.
         12    1    1    2    0    0  0.24829832726E+02  0.13007883500E+02 -0.35261689287E+02  0.45045669689E+02  0.00000000000E+00 0. -1.
         11    1    3    3    0    0 -0.83451814137E+01 -0.38452129472E+01  0.69402267428E+01  0.11514966910E+02  0.51100000000E-03 0. -1.
        -11    1    3    3    0    0 -0.94092681069E+01 -0.80414481133E+01  0.21054059144E+02  0.24422788964E+02  0.51100000000E-03 0.  1.
        -12    1    3    3    0    0 -0.70753832057E+01 -0.11212224390E+01  0.72674033999E+01  0.10204574437E+02  0.00000000000E+00 0.  1.
</event>
<event>
 7    1  0.2297343E-008  0.4614232E+02  0.7816164E-02  0.1320468E+00
        -11   -1    0    0    0    0  0.00000000000E+00  0.00000000000E+00  0.45593999997E+02  0.45594000000E+02  0.51100000000E-03 0.  1.
         11   -1    0    0    0    0 -0.00000000000E+00 -0.00000000000E+00 -0.45593999997E+02  0.45594000000E+02  0.51100000000E-03 0. -1.
    9900012    2    1    2    0    0 -0.40381411645E+02 -0.11704151706E+02  0.16169966846E+02  0.46142318726E+02  0.10000008803E+02 0.  0.
         12    1    1    2    0    0  0.40381411645E+02  0.11704151706E+02 -0.16169966846E+02  0.45045681274E+02  0.00000000000E+00 0. -1.
         11    1    3    3    0    0 -0.11229386255E+01 -0.16202981994E+01 -0.78298034752E+00  0.21211826648E+01  0.51100000000E-03 0. -1.
        -11    1    3    3    0    0 -0.26007880903E+02 -0.53315914119E+01  0.11037760484E+02  0.28751832860E+02  0.51100000000E-03 0.  1.
         12    1    3    3    0    0 -0.13250592117E+02 -0.47522620948E+01  0.59151867096E+01  0.15269303202E+02  0.00000000000E+00 0. -1.
</event>
<event>
 7    1  0.2297343E-008  0.4614232E+02  0.7816164E-02  0.1320468E+00
        -11   -1    0    0    0    0  0.00000000000E+00  0.00000000000E+00  0.45593999997E+02  0.45594000000E+02  0.51100000000E-03 0.  1.
         11   -1    0    0    0    0 -0.00000000000E+00 -0.00000000000E+00 -0.45593999997E+02  0.45594000000E+02  0.51100000000E-03 0. -1.
    9900012    2    1    2    0    0  0.23183501751E+02 -0.22304972312E+02  0.31529778744E+02  0.46142317732E+02  0.99999997378E+01 0.  0.
         12    1    1    2    0    0 -0.23183501751E+02  0.22304972312E+02 -0.31529778744E+02  0.45045682268E+02  0.00000000000E+00 0. -1.
         11    1    3    3    0    0  0.88767590811E+01 -0.68864977216E+01  0.10913324859E+02  0.15662738024E+02  0.51100000000E-03 0. -1.
        -11    1    3    3    0    0  0.66394664017E+01 -0.11799951155E+02  0.15484127508E+02  0.20568898033E+02  0.51100000000E-03 0.  1.
         12    1    3    3    0    0  0.76672762687E+01 -0.36185234361E+01  0.51323263767E+01  0.99106816756E+01  0.00000000000E+00 0. -1.
</event>
<event>
 7    1  0.2297343E-008  0.4614232E+02  0.7816164E-02  0.1320468E+00
        -11   -1    0    0    0    0  0.00000000000E+00  0.00000000000E+00  0.45593999997E+02  0.45594000000E+02  0.51100000000E-03 0.  1.
         11   -1    0    0    0    0 -0.00000000000E+00 -0.00000000000E+00 -0.45593999997E+02  0.45594000000E+02  0.51100000000E-03 0. -1.
    9900012    2    1    2    0    0 -0.90068742491E+01  0.29268561198E+02  0.33035450835E+02  0.46142317963E+02  0.10000001840E+02 0.  0.
         12    1    1    2    0    0  0.90068742491E+01 -0.29268561198E+02 -0.33035450835E+02  0.45045682037E+02  0.00000000000E+00 0. -1.
         11    1    3    3    0    0 -0.43825012344E+01  0.22836722088E+02  0.22740413657E+02  0.32524584646E+02  0.51100000000E-03 0. -1.
        -11    1    3    3    0    0 -0.10407097414E+01  0.39439262580E+01  0.28067335774E+01  0.49513013169E+01  0.51100000000E-03 0.  1.
        -12    1    3    3    0    0 -0.35836632733E+01  0.24879128517E+01  0.74883035998E+01  0.86664320004E+01  0.00000000000E+00 0.  1.
</event>
<event>
 7    1  0.2297343E-008  0.4614232E+02  0.7816164E-02  0.1320468E+00
        -11   -1    0    0    0    0  0.00000000000E+00  0.00000000000E+00  0.45593999997E+02  0.45594000000E+02  0.51100000000E-03 0.  1.
         11   -1    0    0    0    0 -0.00000000000E+00 -0.00000000000E+00 -0.45593999997E+02  0.45594000000E+02  0.51100000000E-03 0. -1.
    9900012    2    1    2    0    0  0.50217909815E+01  0.32732501418E+02  0.30536509515E+02  0.46142318219E+02  0.10000004179E+02 0.  0.
         12    1    1    2    0    0 -0.50217909815E+01 -0.32732501418E+02 -0.30536509515E+02  0.45045681781E+02  0.00000000000E+00 0. -1.
         11    1    3    3    0    0  0.48495376160E+01  0.27661164262E+02  0.22790352684E+02  0.36167087236E+02  0.51100000000E-03 0.  1.
        -11    1    3    3    0    0 -0.11632998090E+01  0.28572545744E+01  0.20067127092E+01  0.36802263934E+01  0.51100000000E-03 0. -1.
        -12    1    3    3    0    0  0.13355531744E+01  0.22140825816E+01  0.57394441222E+01  0.62950045903E+01  0.00000000000E+00 0.  1.
</event>
<event>
 7    1  0.2297343E-008  0.4614232E+02  0.7816164E-02  0.1320468E+00
        -11   -1    0    0    0    0  0.00000000000E+00  0.00000000000E+00  0.45593999997E+02  0.45594000000E+02  0.51100000000E-03 0.  1.
         11   -1    0    0    0    0 -0.00000000000E+00 -0.00000000000E+00 -0.45593999997E+02  0.45594000000E+02  0.51100000000E-03 0. -1.
    9900012    2    1    2    0    0 -0.15435541071E+02 -0.23253121067E+02  0.35357459226E+02  0.46142317738E+02  0.99999997901E+01 0.  0.
         12    1    1    2    0    0  0.15435541071E+02  0.23253121067E+02 -0.35357459226E+02  0.45045682262E+02  0.00000000000E+00 0. -1.
         11    1    3    3    0    0 -0.71307301081E+01 -0.78107277670E+01  0.14150425837E+02  0.17666050259E+02  0.51100000000E-03 0. -1.
        -11    1    3    3    0    0 -0.74466830728E+01 -0.72715854726E+01  0.89869574993E+01  0.13751161748E+02  0.51100000000E-03 0.  1.
         12    1    3    3    0    0 -0.85812789001E+00 -0.81708078279E+01  0.12220075890E+02  0.14725105731E+02  0.00000000000E+00 0. -1.
</event>
<event>
 7    1  0.2297343E-008  0.4614232E+02  0.7816164E-02  0.1320468E+00
        -11   -1    0    0    0    0  0.00000000000E+00  0.00000000000E+00  0.45593999997E+02  0.45594000000E+02  0.51100000000E-03 0.  1.
         11   -1    0    0    0    0 -0.00000000000E+00 -0.00000000000E+00 -0.45593999997E+02  0.45594000000E+02  0.51100000000E-03 0. -1.
    9900012    2    1    2    0    0 -0.17704940266E+02  0.25119581191E+02  0.32934104026E+02  0.46142317886E+02  0.10000001142E+02 0.  0.
         12    1    1    2    0    0  0.17704940266E+02 -0.25119581191E+02 -0.32934104026E+02  0.45045682114E+02  0.00000000000E+00 0. -1.
         11    1    3    3    0    0 -0.38161185736E+01  0.12881950541E+02  0.12230683263E+02  0.18168572428E+02  0.51100000000E-03 0. -1.
        -11    1    3    3    0    0 -0.88095827537E+01  0.86073094190E+01  0.15810528958E+02  0.20041640400E+02  0.51100000000E-03 0.  1.
        -12    1    3    3    0    0 -0.50792389392E+01  0.36303212309E+01  0.48928918047E+01  0.79321050581E+01  0.00000000000E+00 0.  1.
</event>
<event>
 7    1  0.2297343E-008  0.4614232E+02  0.7816164E-02  0.1320468E+00
        -11   -1    0    0    0    0  0.00000000000E+00  0.00000000000E+00  0.45593999997E+02  0.45594000000E+02  0.51100000000E-03 0. -1.
         11   -1    0    0    0    0 -0.00000000000E+00 -0.00000000000E+00 -0.45593999997E+02  0.45594000000E+02  0.51100000000E-03 0.  1.
    9900012    2    1    2    0    0 -0.22863841382E+01  0.48194944641E+01 -0.44728721099E+02  0.46142316850E+02  0.99999916920E+01 0.  0.
         12    1    1    2    0    0  0.22863841382E+01 -0.48194944641E+01  0.44728721099E+02  0.45045683150E+02  0.00000000000E+00 0. -1.
         11    1    3    3    0    0 -0.35797862698E+01  0.57622049600E+01 -0.25142846260E+02  0.26041900738E+02  0.51100000000E-03 0.  1.
        -11    1    3    3    0    0  0.41023068095E+00 -0.40384384241E+00 -0.96605185393E-01  0.58370530544E+00  0.51100000000E-03 0. -1.
         12    1    3    3    0    0  0.88317145059E+00 -0.53886665348E+00 -0.19489269654E+02  0.19516710807E+02  0.00000000000E+00 0. -1.
</event>
<event>
 7    1  0.2297343E-008  0.4614232E+02  0.7816164E-02  0.1320468E+00
        -11   -1    0    0    0    0  0.00000000000E+00  0.00000000000E+00  0.45593999997E+02  0.45594000000E+02  0.51100000000E-03 0.  1.
         11   -1    0    0    0    0 -0.00000000000E+00 -0.00000000000E+00 -0.45593999997E+02  0.45594000000E+02  0.51100000000E-03 0. -1.
    9900012    2    1    2    0    0  0.35521568567E+02  0.14681250611E+02  0.23490264814E+02  0.46142317699E+02  0.99999994313E+01 0.  0.
         12    1    1    2    0    0 -0.35521568567E+02 -0.14681250611E+02 -0.23490264814E+02  0.45045682301E+02  0.00000000000E+00 0. -1.
         11    1    3    3    0    0  0.60069750942E+01  0.36674025515E+01  0.75533979957E+01  0.10324118016E+02  0.51100000000E-03 0.  1.
        -11    1    3    3    0    0  0.12951681832E+02  0.17995457246E+01  0.74718554707E+01  0.15060313793E+02  0.51100000000E-03 0. -1.
         12    1    3    3    0    0  0.16562911641E+02  0.92143023344E+01  0.84650113472E+01  0.20757885891E+02  0.00000000000E+00 0. -1.
</event>
<event>
 7    1  0.2297343E-008  0.4614232E+02  0.7816164E-02  0.1320468E+00
        -11   -1    0    0    0    0  0.00000000000E+00  0.00000000000E+00  0.45593999997E+02  0.45594000000E+02  0.51100000000E-03 0.  1.
         11   -1    0    0    0    0 -0.00000000000E+00 -0.00000000000E+00 -0.45593999997E+02  0.45594000000E+02  0.51100000000E-03 0. -1.
    9900012    2    1    2    0    0  0.31591650480E+02 -0.38077808626E+01  0.31883874755E+02  0.46142322687E+02  0.10000044922E+02 0.  0.
         12    1    1    2    0    0 -0.31591650480E+02  0.38077808626E+01 -0.31883874755E+02  0.45045677313E+02  0.00000000000E+00 0. -1.
         11    1    3    3    0    0 -0.55279165550E-01 -0.50351171467E+00  0.20214593212E+00  0.54538341738E+00  0.51100000000E-03 0. -1.
        -11    1    3    3    0    0  0.20906403043E+02  0.16268931932E+01  0.19899166664E+02  0.28908498817E+02  0.51100000000E-03 0.  1.
        -12    1    3    3    0    0  0.10740526603E+02 -0.49311623411E+01  0.11782562159E+02  0.16688440453E+02  0.00000000000E+00 0.  1.
</event>
<event>
 7    1  0.2297343E-008  0.4614232E+02  0.7816164E-02  0.1320468E+00
        -11   -1    0    0    0    0  0.00000000000E+00  0.00000000000E+00  0.45593999997E+02  0.45594000000E+02  0.51100000000E-03 0.  1.
         11   -1    0    0    0    0 -0.00000000000E+00 -0.00000000000E+00 -0.45593999997E+02  0.45594000000E+02  0.51100000000E-03 0. -1.
    9900012    2    1    2    0    0 -0.25291161990E+02 -0.31180637494E+02  0.20426414337E+02  0.46142318386E+02  0.10000005702E+02 0.  0.
         12    1    1    2    0    0  0.25291161990E+02  0.31180637494E+02 -0.20426414337E+02  0.45045681614E+02  0.00000000000E+00 0. -1.
         11    1    3    3    0    0 -0.51735464598E+01 -0.34010490906E+01  0.43943745504E+01  0.75923149196E+01  0.51100000000E-03 0. -1.
        -11    1    3    3    0    0 -0.70735385225E+01 -0.49065217166E+01  0.26114569151E+01  0.89960330182E+01  0.51100000000E-03 0.  1.
        -12    1    3    3    0    0 -0.13044077008E+02 -0.22873066687E+02  0.13420582871E+02  0.29553970449E+02  0.00000000000E+00 0.  1.
</event>
<event>
 7    1  0.2297343E-008  0.4614232E+02  0.7816164E-02  0.1320468E+00
        -11   -1    0    0    0    0  0.00000000000E+00  0.00000000000E+00  0.45593999997E+02  0.45594000000E+02  0.51100000000E-03 0. -1.
         11   -1    0    0    0    0 -0.00000000000E+00 -0.00000000000E+00 -0.45593999997E+02  0.45594000000E+02  0.51100000000E-03 0.  1.
    9900012    2    1    2    0    0 -0.23577540463E+02  0.28817736015E+02 -0.25352535445E+02  0.46142318999E+02  0.10000011292E+02 0.  0.
         12    1    1    2    0    0  0.23577540463E+02 -0.28817736015E+02  0.25352535445E+02  0.45045681001E+02  0.00000000000E+00 0. -1.
         11    1    3    3    0    0 -0.25150213014E+00  0.38145808992E+01 -0.19710583155E+01  0.43010872930E+01  0.51100000000E-03 0. -1.
        -11    1    3    3    0    0 -0.22804528856E+02  0.25328369216E+02 -0.22904019560E+02  0.41062963066E+02  0.51100000000E-03 0.  1.
        -12    1    3    3    0    0 -0.52150947766E+00 -0.32521410047E+00 -0.47745756933E+00  0.77826864060E+00  0.00000000000E+00 0.  1.
</event>
<event>
 7    1  0.2297343E-008  0.4614232E+02  0.7816164E-02  0.1320468E+00
        -11   -1    0    0    0    0  0.00000000000E+00  0.00000000000E+00  0.45593999997E+02  0.45594000000E+02  0.51100000000E-03 0.  1.
         11   -1    0    0    0    0 -0.00000000000E+00 -0.00000000000E+00 -0.45593999997E+02  0.45594000000E+02  0.51100000000E-03 0. -1.
    9900012    2    1    2    0    0  0.34518896869E+02  0.65172612199E+01  0.28197244071E+02  0.46142317543E+02  0.99999980082E+01 0.  0.
         12    1    1    2    0    0 -0.34518896869E+02 -0.65172612199E+01 -0.28197244071E+02  0.45045682457E+02  0.00000000000E+00 0. -1.
         11    1    3    3    0    0  0.37259950093E+01 -0.16605935012E+01  0.46746304929E+01  0.62042549990E+01  0.51100000000E-03 0. -1.
        -11    1    3    3    0    0  0.40158505977E+01 -0.22092688209E+00  0.44985407923E+01  0.60342964984E+01  0.51100000000E-03 0.  1.
        -12    1    3    3    0    0  0.26777051262E+02  0.83987816032E+01  0.19024072786E+02  0.33903766045E+02  0.00000000000E+00 0.  1.
</event>
<event>
 7    1  0.2297343E-008  0.4614232E+02  0.7816164E-02  0.1320468E+00
        -11   -1    0    0    0    0  0.00000000000E+00  0.00000000000E+00  0.45593999997E+02  0.45594000000E+02  0.51100000000E-03 0.  1.
         11   -1    0    0    0    0 -0.00000000000E+00 -0.00000000000E+00 -0.45593999997E+02  0.45594000000E+02  0.51100000000E-03 0. -1.
    9900012    2    1    2    0    0  0.10951760776E+02 -0.18356895391E+02  0.39650938320E+02  0.46142316720E+02  0.99999905031E+01 0.  0.
         12    1    1    2    0    0 -0.10951760776E+02  0.18356895391E+02 -0.39650938320E+02  0.45045683280E+02  0.00000000000E+00 0. -1.
         11    1    3    3    0    0  0.14878641628E+01 -0.71522500044E+01  0.20444702341E+02  0.21710694921E+02  0.51100000000E-03 0. -1.
        -11    1    3    3    0    0  0.71138478578E+01 -0.69693434880E+01  0.15064183947E+02  0.18058466664E+02  0.51100000000E-03 0.  1.
         12    1    3    3    0    0  0.23500487557E+01 -0.42353018990E+01  0.41420520320E+01  0.63731551343E+01  0.00000000000E+00 0. -1.
</event>
<event>
 7    1  0.2297343E-008  0.4614232E+02  0.7816164E-02  0.1320468E+00
        -11   -1    0    0    0    0  0.00000000000E+00  0.00000000000E+00  0.45593999997E+02  0.45594000000E+02  0.51100000000E-03 0.  1.
         11   -1    0    0    0    0 -0.00000000000E+00 -0.00000000000E+00 -0.45593999997E+02  0.45594000000E+02  0.51100000000E-03 0. -1.
    9900012    2    1    2    0    0 -0.38267782373E+02 -0.20843139985E+02  0.11412878355E+02  0.46142318248E+02  0.10000004439E+02 0.  0.
         12    1    1    2    0    0  0.38267782373E+02  0.20843139985E+02 -0.11412878355E+02  0.45045681752E+02  0.00000000000E+00 0. -1.
         11    1    3    3    0    0 -0.14857939845E+02 -0.44663114182E+01  0.35078355038E+01  0.15906326549E+02  0.51100000000E-03 0. -1.
        -11    1    3    3    0    0 -0.28357686752E+01 -0.37147735505E+01 -0.39887520312E+00  0.46904400859E+01  0.51100000000E-03 0.  1.
        -12    1    3    3    0    0 -0.20574073853E+02 -0.12662055016E+02  0.83039180545E+01  0.25545551613E+02  0.00000000000E+00 0.  1.
</event>
<event>
 7    1  0.2297343E-008  0.4614232E+02  0.7816164E-02  0.1320468E+00
        -11   -1    0    0    0    0  0.00000000000E+00  0.00000000000E+00  0.45593999997E+02  0.45594000000E+02  0.51100000000E-03 0.  1.
         11   -1    0    0    0    0 -0.00000000000E+00 -0.00000000000E+00 -0.45593999997E+02  0.45594000000E+02  0.51100000000E-03 0. -1.
    9900012    2    1    2    0    0  0.56915296186E+01  0.12952289495E+02  0.42766320403E+02  0.46142317927E+02  0.10000001515E+02 0.  0.
         12    1    1    2    0    0 -0.56915296186E+01 -0.12952289495E+02 -0.42766320403E+02  0.45045682073E+02  0.00000000000E+00 0. -1.
         11    1    3    3    0    0  0.34575507923E+01  0.32558349476E+01  0.73885298279E+01  0.87832506492E+01  0.51100000000E-03 0. -1.
        -11    1    3    3    0    0 -0.54783747968E+00 -0.55324756895E+00  0.72725687031E+01  0.73141277388E+01  0.51100000000E-03 0.  1.
        -12    1    3    3    0    0  0.27818163060E+01  0.10249702116E+02  0.28105221872E+02  0.30044939539E+02  0.00000000000E+00 0.  1.
</event>
<event>
 7    1  0.2297343E-008  0.4614232E+02  0.7816164E-02  0.1320468E+00
        -11   -1    0    0    0    0  0.00000000000E+00  0.00000000000E+00  0.45593999997E+02  0.45594000000E+02  0.51100000000E-03 0. -1.
         11   -1    0    0    0    0 -0.00000000000E+00 -0.00000000000E+00 -0.45593999997E+02  0.45594000000E+02  0.51100000000E-03 0.  1.
    9900012    2    1    2    0    0 -0.25587848872E+02  0.91925430178E+01 -0.35914796419E+02  0.46142318089E+02  0.10000002987E+02 0.  0.
         12    1    1    2    0    0  0.25587848872E+02 -0.91925430178E+01  0.35914796419E+02  0.45045681911E+02  0.00000000000E+00 0. -1.
         11    1    3    3    0    0 -0.28309602498E+01 -0.31457993273E+00 -0.74457868571E+01  0.79720159717E+01  0.51100000000E-03 0. -1.
        -11    1    3    3    0    0 -0.20069306403E+02  0.84250428477E+01 -0.27591138943E+02  0.35142984433E+02  0.51100000000E-03 0.  1.
        -12    1    3    3    0    0 -0.26875822192E+01  0.10820801027E+01 -0.87787061970E+00  0.30273176838E+01  0.00000000000E+00 0.  1.
</event>
<event>
 7    1  0.2297343E-008  0.4614233E+02  0.7816164E-02  0.1320468E+00
        -11   -1    0    0    0    0  0.00000000000E+00  0.00000000000E+00  0.45593999997E+02  0.45594000000E+02  0.51100000000E-03 0. -1.
         11   -1    0    0    0    0 -0.00000000000E+00 -0.00000000000E+00 -0.45593999997E+02  0.45594000000E+02  0.51100000000E-03 0.  1.
    9900012    2    1    2    0    0  0.47697752109E+00 -0.32321701990E+02 -0.31371840617E+02  0.46142330832E+02  0.10000119190E+02 0.  0.
         12    1    1    2    0    0 -0.47697752109E+00  0.32321701990E+02  0.31371840617E+02  0.45045669168E+02  0.00000000000E+00 0. -1.
         11    1    3    3    0    0 -0.30989702633E+01 -0.13716793656E+02 -0.87175815128E+01  0.16545400345E+02  0.51100000000E-03 0. -1.
        -11    1    3    3    0    0  0.17156545111E+01 -0.82572853805E+01 -0.11595880153E+02  0.14338433284E+02  0.51100000000E-03 0.  1.
         12    1    3    3    0    0  0.18602932733E+01 -0.10347622954E+02 -0.11058378951E+02  0.15258497203E+02  0.00000000000E+00 0. -1.
</event>
<event>
 7    1  0.2297343E-008  0.4614232E+02  0.7816164E-02  0.1320468E+00
        -11   -1    0    0    0    0  0.00000000000E+00  0.00000000000E+00  0.45593999997E+02  0.45594000000E+02  0.51100000000E-03 0.  1.
         11   -1    0    0    0    0 -0.00000000000E+00 -0.00000000000E+00 -0.45593999997E+02  0.45594000000E+02  0.51100000000E-03 0. -1.
    9900012    2    1    2    0    0  0.13181094155E+02 -0.34737608780E+02  0.25469020071E+02  0.46142315520E+02  0.99999795660E+01 0.  0.
         12    1    1    2    0    0 -0.13181094155E+02  0.34737608780E+02 -0.25469020071E+02  0.45045684480E+02  0.00000000000E+00 0. -1.
         11    1    3    3    0    0  0.31718615268E+00 -0.67785116045E+01  0.72203725291E+01  0.99087136576E+01  0.51100000000E-03 0. -1.
        -11    1    3    3    0    0  0.12485800980E+02 -0.28209531877E+02  0.17987563166E+02  0.35710297447E+02  0.51100000000E-03 0.  1.
        -12    1    3    3    0    0  0.37810702297E+00  0.25043470147E+00  0.26108437602E+00  0.52330441611E+00  0.00000000000E+00 0.  1.
</event>
<event>
 7    1  0.2297343E-008  0.4614232E+02  0.7816164E-02  0.1320468E+00
        -11   -1    0    0    0    0  0.00000000000E+00  0.00000000000E+00  0.45593999997E+02  0.45594000000E+02  0.51100000000E-03 0.  1.
         11   -1    0    0    0    0 -0.00000000000E+00 -0.00000000000E+00 -0.45593999997E+02  0.45594000000E+02  0.51100000000E-03 0. -1.
    9900012    2    1    2    0    0  0.32169986659E+02 -0.31327778314E+02  0.35743190063E+01  0.46142317719E+02  0.99999996193E+01 0.  0.
         12    1    1    2    0    0 -0.32169986659E+02  0.31327778314E+02 -0.35743190063E+01  0.45045682281E+02  0.00000000000E+00 0. -1.
         11    1    3    3    0    0  0.17532893426E+02 -0.13071227031E+02  0.38951582962E+01  0.22213320022E+02  0.51100000000E-03 0. -1.
        -11    1    3    3    0    0  0.13859565075E+02 -0.18473621645E+02 -0.50841027363E+00  0.23100232077E+02  0.51100000000E-03 0.  1.
         12    1    3    3    0    0  0.77752815817E+00  0.21707036217E+00  0.18757098364E+00  0.82876561994E+00  0.00000000000E+00 0. -1.
</event>
<event>
 7    1  0.2297343E-008  0.4614232E+02  0.7816164E-02  0.1320468E+00
        -11   -1    0    0    0    0  0.00000000000E+00  0.00000000000E+00  0.45593999997E+02  0.45594000000E+02  0.51100000000E-03 0.  1.
         11   -1    0    0    0    0 -0.00000000000E+00 -0.00000000000E+00 -0.45593999997E+02  0.45594000000E+02  0.51100000000E-03 0. -1.
    9900012    2    1    2    0    0 -0.40989994075E+01  0.21757960726E+02  0.39228850787E+02  0.46142318907E+02  0.10000010448E+02 0.  0.
         12    1    1    2    0    0  0.40989994075E+01 -0.21757960726E+02 -0.39228850787E+02  0.45045681093E+02  0.00000000000E+00 0. -1.
         11    1    3    3    0    0  0.18674675148E+01  0.11041617148E+01  0.63583117218E+01  0.67182390716E+01  0.51100000000E-03 0. -1.
        -11    1    3    3    0    0 -0.34783621471E+01  0.91352831761E+01  0.12229958193E+02  0.15656445305E+02  0.51100000000E-03 0.  1.
         12    1    3    3    0    0 -0.24881047753E+01  0.11518515835E+02  0.20640580872E+02  0.23767634530E+02  0.00000000000E+00 0. -1.
</event>
<event>
 7    1  0.2297343E-008  0.4614232E+02  0.7816164E-02  0.1320468E+00
        -11   -1    0    0    0    0  0.00000000000E+00  0.00000000000E+00  0.45593999997E+02  0.45594000000E+02  0.51100000000E-03 0. -1.
         11   -1    0    0    0    0 -0.00000000000E+00 -0.00000000000E+00 -0.45593999997E+02  0.45594000000E+02  0.51100000000E-03 0.  1.
    9900012    2    1    2    0    0  0.27291741376E+02  0.13553895065E+02 -0.33174785524E+02  0.46142316374E+02  0.99999873503E+01 0.  0.
         12    1    1    2    0    0 -0.27291741376E+02 -0.13553895065E+02  0.33174785524E+02  0.45045683626E+02  0.00000000000E+00 0. -1.
         11    1    3    3    0    0  0.13694305284E+02  0.38342420955E+01 -0.12793394877E+02  0.19128679055E+02  0.51100000000E-03 0. -1.
        -11    1    3    3    0    0  0.12261437488E+02  0.66760032487E+01 -0.18555888454E+02  0.23221388098E+02  0.51100000000E-03 0.  1.
        -12    1    3    3    0    0  0.13359986047E+01  0.30436497204E+01 -0.18255021933E+01  0.37922492204E+01  0.00000000000E+00 0.  1.
</event>
<event>
 7    1  0.2297343E-008  0.4614232E+02  0.7816164E-02  0.1320468E+00
        -11   -1    0    0    0    0  0.00000000000E+00  0.00000000000E+00  0.45593999997E+02  0.45594000000E+02  0.51100000000E-03 0.  1.
         11   -1    0    0    0    0 -0.00000000000E+00 -0.00000000000E+00 -0.45593999997E+02  0.45594000000E+02  0.51100000000E-03 0. -1.
    9900012    2    1    2    0    0 -0.16801161416E+02 -0.12104110454E+02  0.40004062943E+02  0.46142316891E+02  0.99999920631E+01 0.  0.
         12    1    1    2    0    0  0.16801161416E+02  0.12104110454E+02 -0.40004062943E+02  0.45045683109E+02  0.00000000000E+00 0. -1.
         11    1    3    3    0    0 -0.26123111973E+00 -0.76847526425E+00 -0.76348329651E-01  0.81524552022E+00  0.51100000000E-03 0. -1.
        -11    1    3    3    0    0 -0.10452077652E+02 -0.30880759051E+01  0.19701147358E+02  0.22514825061E+02  0.51100000000E-03 0.  1.
         12    1    3    3    0    0 -0.60878526436E+01 -0.82475592847E+01  0.20379263915E+02  0.22812246310E+02  0.00000000000E+00 0. -1.
</event>
<event>
 7    1  0.2297343E-008  0.4614232E+02  0.7816164E-02  0.1320468E+00
        -11   -1    0    0    0    0  0.00000000000E+00  0.00000000000E+00  0.45593999997E+02  0.45594000000E+02  0.51100000000E-03 0. -1.
         11   -1    0    0    0    0 -0.00000000000E+00 -0.00000000000E+00 -0.45593999997E+02  0.45594000000E+02  0.51100000000E-03 0.  1.
    9900012    2    1    2    0    0 -0.12420702009E+02 -0.43234701824E+02 -0.23665048558E+01  0.46142316240E+02  0.99999861256E+01 0.  0.
         12    1    1    2    0    0  0.12420702009E+02  0.43234701824E+02  0.23665048558E+01  0.45045683760E+02  0.00000000000E+00 0. -1.
         11    1    3    3    0    0 -0.42710701464E+01 -0.52708933400E+01 -0.86462878525E+00  0.68390013887E+01  0.51100000000E-03 0. -1.
        -11    1    3    3    0    0 -0.76207708755E+01 -0.27375360298E+02  0.90961831593E+00  0.28430861857E+02  0.51100000000E-03 0.  1.
         12    1    3    3    0    0 -0.52886098718E+00 -0.10588448186E+02 -0.24114943865E+01  0.10872452994E+02  0.00000000000E+00 0. -1.
</event>
<event>
 7    1  0.2297343E-008  0.4614231E+02  0.7816164E-02  0.1320468E+00
        -11   -1    0    0    0    0  0.00000000000E+00  0.00000000000E+00  0.45593999997E+02  0.45594000000E+02  0.51100000000E-03 0. -1.
         11   -1    0    0    0    0 -0.00000000000E+00 -0.00000000000E+00 -0.45593999997E+02  0.45594000000E+02  0.51100000000E-03 0.  1.
    9900012    2    1    2    0    0  0.40471540201E+02 -0.18193376929E+02  0.77568926628E+01  0.46142313036E+02  0.99999569100E+01 0.  0.
         12    1    1    2    0    0 -0.40471540201E+02  0.18193376929E+02 -0.77568926628E+01  0.45045686964E+02  0.00000000000E+00 0. -1.
         11    1    3    3    0    0  0.62528005804E+01 -0.16787728107E+01 -0.41871646896E+00  0.64877667183E+01  0.51100000000E-03 0. -1.
        -11    1    3    3    0    0  0.21382143330E+02 -0.60510845887E+01  0.40567930985E+01  0.22589140058E+02  0.51100000000E-03 0.  1.
        -12    1    3    3    0    0  0.12836596291E+02 -0.10463519529E+02  0.41188160333E+01  0.17065406259E+02  0.00000000000E+00 0.  1.
</event>
<event>
 7    1  0.2297343E-008  0.4614232E+02  0.7816164E-02  0.1320468E+00
        -11   -1    0    0    0    0  0.00000000000E+00  0.00000000000E+00  0.45593999997E+02  0.45594000000E+02  0.51100000000E-03 0.  1.
         11   -1    0    0    0    0 -0.00000000000E+00 -0.00000000000E+00 -0.45593999997E+02  0.45594000000E+02  0.51100000000E-03 0. -1.
    9900012    2    1    2    0    0  0.44318095423E+02  0.23947835566E+01 -0.76996690765E+01  0.46142317920E+02  0.10000001445E+02 0.  0.
         12    1    1    2    0    0 -0.44318095423E+02 -0.23947835566E+01  0.76996690765E+01  0.45045682080E+02  0.00000000000E+00 0. -1.
         11    1    3    3    0    0  0.42693071231E+01 -0.30807273164E+00  0.73291344993E+00  0.43427012913E+01  0.51100000000E-03 0. -1.
        -11    1    3    3    0    0  0.32005485994E+02 -0.91933384017E+00 -0.78037455116E+01  0.32955951703E+02  0.51100000000E-03 0.  1.
        -12    1    3    3    0    0  0.80433023062E+01  0.36221901284E+01 -0.62883701487E+00  0.88436649250E+01  0.00000000000E+00 0.  1.
</event>
<event>
 7    1  0.2297343E-008  0.4614232E+02  0.7816164E-02  0.1320468E+00
        -11   -1    0    0    0    0  0.00000000000E+00  0.00000000000E+00  0.45593999997E+02  0.45594000000E+02  0.51100000000E-03 0.  1.
         11   -1    0    0    0    0 -0.00000000000E+00 -0.00000000000E+00 -0.45593999997E+02  0.45594000000E+02  0.51100000000E-03 0. -1.
    9900012    2    1    2    0    0 -0.19388055084E+02  0.44237666592E+01  0.40418400495E+02  0.46142317743E+02  0.99999998385E+01 0.  0.
         12    1    1    2    0    0  0.19388055084E+02 -0.44237666592E+01 -0.40418400495E+02  0.45045682257E+02  0.00000000000E+00 0. -1.
         11    1    3    3    0    0 -0.41315293084E+01 -0.27000238720E+01  0.10995361919E+02  0.12052288053E+02  0.51100000000E-03 0. -1.
        -11    1    3    3    0    0 -0.98245879520E+01  0.31816242202E+01  0.20159644460E+02  0.22650751116E+02  0.51100000000E-03 0.  1.
         12    1    3    3    0    0 -0.54319378236E+01  0.39421663109E+01  0.92633941162E+01  0.11439278574E+02  0.00000000000E+00 0. -1.
</event>
<event>
 7    1  0.2297343E-008  0.4614232E+02  0.7816164E-02  0.1320468E+00
        -11   -1    0    0    0    0  0.00000000000E+00  0.00000000000E+00  0.45593999997E+02  0.45594000000E+02  0.51100000000E-03 0.  1.
         11   -1    0    0    0    0 -0.00000000000E+00 -0.00000000000E+00 -0.45593999997E+02  0.45594000000E+02  0.51100000000E-03 0. -1.
    9900012    2    1    2    0    0 -0.35888789116E+02 -0.26749201631E+02 -0.50585046159E+01  0.46142318286E+02  0.10000004787E+02 0.  0.
         12    1    1    2    0    0  0.35888789116E+02  0.26749201631E+02  0.50585046159E+01  0.45045681714E+02  0.00000000000E+00 0. -1.
         11    1    3    3    0    0 -0.15311232557E+02 -0.69075019676E+01 -0.26752558107E+00  0.16799374871E+02  0.51100000000E-03 0. -1.
        -11    1    3    3    0    0 -0.78508431918E+01 -0.10412089802E+02 -0.11527920434E+01  0.13091076450E+02  0.51100000000E-03 0.  1.
         12    1    3    3    0    0 -0.12726713367E+02 -0.94296098622E+01 -0.36381869914E+01  0.16251866965E+02  0.00000000000E+00 0. -1.
</event>
<event>
 7    1  0.2297343E-008  0.4614232E+02  0.7816164E-02  0.1320468E+00
        -11   -1    0    0    0    0  0.00000000000E+00  0.00000000000E+00  0.45593999997E+02  0.45594000000E+02  0.51100000000E-03 0. -1.
         11   -1    0    0    0    0 -0.00000000000E+00 -0.00000000000E+00 -0.45593999997E+02  0.45594000000E+02  0.51100000000E-03 0.  1.
    9900012    2    1    2    0    0 -0.45025002847E+02 -0.59987932276E+00 -0.12258542894E+01  0.46142318128E+02  0.10000003343E+02 0.  0.
         12    1    1    2    0    0  0.45025002847E+02  0.59987932276E+00  0.12258542894E+01  0.45045681872E+02  0.00000000000E+00 0. -1.
         11    1    3    3    0    0 -0.18054754035E+02 -0.27111891786E+01 -0.56456582326E+00  0.18265908816E+02  0.51100000000E-03 0. -1.
        -11    1    3    3    0    0 -0.13257304448E+02  0.22195509373E+01 -0.34608271070E+01  0.13880196400E+02  0.51100000000E-03 0.  1.
         12    1    3    3    0    0 -0.13712944364E+02 -0.10824108154E+00  0.27995386408E+01  0.13996212912E+02  0.00000000000E+00 0. -1.
</event>
<event>
 7    1  0.2297343E-008  0.4614232E+02  0.7816164E-02  0.1320468E+00
        -11   -1    0    0    0    0  0.00000000000E+00  0.00000000000E+00  0.45593999997E+02  0.45594000000E+02  0.51100000000E-03 0. -1.
         11   -1    0    0    0    0 -0.00000000000E+00 -0.00000000000E+00 -0.45593999997E+02  0.45594000000E+02  0.51100000000E-03 0.  1.
    9900012    2    1    2    0    0 -0.42069151593E+02 -0.13552052903E+02  0.86972326844E+01  0.46142317521E+02  0.99999978067E+01 0.  0.
         12    1    1    2    0    0  0.42069151593E+02  0.13552052903E+02 -0.86972326844E+01  0.45045682479E+02  0.00000000000E+00 0. -1.
         11    1    3    3    0    0 -0.20476519045E+02 -0.10077132581E+02  0.44807034855E+01  0.23257539363E+02  0.51100000000E-03 0. -1.
        -11    1    3    3    0    0 -0.14343305037E+02 -0.47660698187E+01  0.32283339047E+01  0.15455353796E+02  0.51100000000E-03 0.  1.
         12    1    3    3    0    0 -0.72493275121E+01  0.12911494975E+01  0.98819529411E+00  0.74294243615E+01  0.00000000000E+00 0. -1.
</event>
<event>
 7    1  0.2297343E-008  0.4614232E+02  0.7816164E-02  0.1320468E+00
        -11   -1    0    0    0    0  0.00000000000E+00  0.00000000000E+00  0.45593999997E+02  0.45594000000E+02  0.51100000000E-03 0.  1.
         11   -1    0    0    0    0 -0.00000000000E+00 -0.00000000000E+00 -0.45593999997E+02  0.45594000000E+02  0.51100000000E-03 0. -1.
    9900012    2    1    2    0    0  0.15585956242E+02  0.42184959065E+02  0.25731039454E+01  0.46142315776E+02  0.99999818965E+01 0.  0.
         12    1    1    2    0    0 -0.15585956242E+02 -0.42184959065E+02 -0.25731039454E+01  0.45045684224E+02  0.00000000000E+00 0. -1.
         11    1    3    3    0    0  0.44961740105E+01  0.13803028365E+02  0.36679164249E+01  0.14973068621E+02  0.51100000000E-03 0. -1.
        -11    1    3    3    0    0  0.28196470647E+01  0.14727584108E+02  0.11934326822E+01  0.15042487329E+02  0.51100000000E-03 0.  1.
         12    1    3    3    0    0  0.82701351664E+01  0.13654346592E+02 -0.22882451618E+01  0.16126759825E+02  0.00000000000E+00 0. -1.
</event>
<event>
 7    1  0.2297343E-008  0.4614232E+02  0.7816164E-02  0.1320468E+00
        -11   -1    0    0    0    0  0.00000000000E+00  0.00000000000E+00  0.45593999997E+02  0.45594000000E+02  0.51100000000E-03 0.  1.
         11   -1    0    0    0    0 -0.00000000000E+00 -0.00000000000E+00 -0.45593999997E+02  0.45594000000E+02  0.51100000000E-03 0. -1.
    9900012    2    1    2    0    0  0.31408389947E+01 -0.35082515129E+02  0.28079632597E+02  0.46142317586E+02  0.99999984050E+01 0.  0.
         12    1    1    2    0    0 -0.31408389947E+01  0.35082515129E+02 -0.28079632597E+02  0.45045682414E+02  0.00000000000E+00 0. -1.
         11    1    3    3    0    0  0.42873019025E+01 -0.20811882292E+02  0.15423351457E+02  0.26256335856E+02  0.51100000000E-03 0. -1.
        -11    1    3    3    0    0  0.17664344573E+00 -0.11905398228E+02  0.12355957592E+02  0.17159236526E+02  0.51100000000E-03 0.  1.
         12    1    3    3    0    0 -0.13231063535E+01 -0.23652346091E+01  0.30032354770E+00  0.27267452048E+01  0.00000000000E+00 0. -1.
</event>
<event>
 7    1  0.2297343E-008  0.4614232E+02  0.7816164E-02  0.1320468E+00
        -11   -1    0    0    0    0  0.00000000000E+00  0.00000000000E+00  0.45593999997E+02  0.45594000000E+02  0.51100000000E-03 0.  1.
         11   -1    0    0    0    0 -0.00000000000E+00 -0.00000000000E+00 -0.45593999997E+02  0.45594000000E+02  0.51100000000E-03 0. -1.
    9900012    2    1    2    0    0 -0.16593604083E+02 -0.94205397204E+01  0.40804646313E+02  0.46142318456E+02  0.10000006335E+02 0.  0.
         12    1    1    2    0    0  0.16593604083E+02  0.94205397204E+01 -0.40804646313E+02  0.45045681544E+02  0.00000000000E+00 0. -1.
         11    1    3    3    0    0 -0.43042493276E+01 -0.22847919759E+01  0.19934340068E+02  0.20521324296E+02  0.51100000000E-03 0. -1.
        -11    1    3    3    0    0 -0.11153600592E+02 -0.48422490156E+01  0.18463829818E+02  0.22107989359E+02  0.51100000000E-03 0.  1.
         12    1    3    3    0    0 -0.11357541630E+01 -0.22934987290E+01  0.24064764267E+01  0.35130048008E+01  0.00000000000E+00 0. -1.
</event>
<event>
 7    1  0.2297343E-008  0.4614232E+02  0.7816164E-02  0.1320468E+00
        -11   -1    0    0    0    0  0.00000000000E+00  0.00000000000E+00  0.45593999997E+02  0.45594000000E+02  0.51100000000E-03 0.  1.
         11   -1    0    0    0    0 -0.00000000000E+00 -0.00000000000E+00 -0.45593999997E+02  0.45594000000E+02  0.51100000000E-03 0. -1.
    9900012    2    1    2    0    0 -0.99022269678E+01 -0.28471672788E+02  0.33472722040E+02  0.46142319063E+02  0.10000011876E+02 0.  0.
         12    1    1    2    0    0  0.99022269678E+01  0.28471672788E+02 -0.33472722040E+02  0.45045680937E+02  0.00000000000E+00 0. -1.
         11    1    3    3    0    0 -0.31728115281E+01 -0.20595143121E+01  0.61100189049E+01  0.71861438529E+01  0.51100000000E-03 0. -1.
        -11    1    3    3    0    0  0.11547987458E+00 -0.14452049908E+01  0.25428442983E+00  0.14719422200E+01  0.51100000000E-03 0.  1.
        -12    1    3    3    0    0 -0.68448953143E+01 -0.24966953485E+02  0.27108418706E+02  0.37484232991E+02  0.00000000000E+00 0.  1.
</event>
<event>
 7    1  0.2297343E-008  0.4614232E+02  0.7816164E-02  0.1320468E+00
        -11   -1    0    0    0    0  0.00000000000E+00  0.00000000000E+00  0.45593999997E+02  0.45594000000E+02  0.51100000000E-03 0.  1.
         11   -1    0    0    0    0 -0.00000000000E+00 -0.00000000000E+00 -0.45593999997E+02  0.45594000000E+02  0.51100000000E-03 0. -1.
    9900012    2    1    2    0    0 -0.73722992626E+01 -0.44129573703E+02  0.52290908104E+01  0.46142318050E+02  0.10000002631E+02 0.  0.
         12    1    1    2    0    0  0.73722992626E+01  0.44129573703E+02 -0.52290908104E+01  0.45045681950E+02  0.00000000000E+00 0. -1.
         11    1    3    3    0    0 -0.20493619838E+01 -0.29899858914E+01 -0.14770565574E+01  0.39142810970E+01  0.51100000000E-03 0. -1.
        -11    1    3    3    0    0 -0.20767601363E+01 -0.11501544945E+02  0.37117076959E+01  0.12262758379E+02  0.51100000000E-03 0.  1.
         12    1    3    3    0    0 -0.32461771425E+01 -0.29638042867E+02  0.29944396719E+01  0.29965278574E+02  0.00000000000E+00 0. -1.
</event>
<event>
 7    1  0.2297343E-008  0.4614232E+02  0.7816164E-02  0.1320468E+00
        -11   -1    0    0    0    0  0.00000000000E+00  0.00000000000E+00  0.45593999997E+02  0.45594000000E+02  0.51100000000E-03 0.  1.
         11   -1    0    0    0    0 -0.00000000000E+00 -0.00000000000E+00 -0.45593999997E+02  0.45594000000E+02  0.51100000000E-03 0. -1.
    9900012    2    1    2    0    0  0.22790644876E+02  0.22287017212E+02  0.31827485810E+02  0.46142317820E+02  0.10000000539E+02 0.  0.
         12    1    1    2    0    0 -0.22790644876E+02 -0.22287017212E+02 -0.31827485810E+02  0.45045682180E+02  0.00000000000E+00 0. -1.
         11    1    3    3    0    0  0.17530693296E+01 -0.34106903996E+00  0.30319212007E+01  0.35188246039E+01  0.51100000000E-03 0.  1.
        -11    1    3    3    0    0  0.16832802533E+02  0.15825093690E+02  0.18568149693E+02  0.29640394982E+02  0.51100000000E-03 0. -1.
         12    1    3    3    0    0  0.42047730131E+01  0.68029925619E+01  0.10227414916E+02  0.12983098234E+02  0.00000000000E+00 0. -1.
</event>
<event>
 7    1  0.2297343E-008  0.4614232E+02  0.7816164E-02  0.1320468E+00
        -11   -1    0    0    0    0  0.00000000000E+00  0.00000000000E+00  0.45593999997E+02  0.45594000000E+02  0.51100000000E-03 0.  1.
         11   -1    0    0    0    0 -0.00000000000E+00 -0.00000000000E+00 -0.45593999997E+02  0.45594000000E+02  0.51100000000E-03 0. -1.
    9900012    2    1    2    0    0 -0.28755177993E+02 -0.27178852172E+02  0.21530521833E+02  0.46142316110E+02  0.99999849409E+01 0.  0.
         12    1    1    2    0    0  0.28755177993E+02  0.27178852172E+02 -0.21530521833E+02  0.45045683890E+02  0.00000000000E+00 0. -1.
         11    1    3    3    0    0 -0.20405219997E+02 -0.14388673532E+02  0.14941496961E+02  0.29097341130E+02  0.51100000000E-03 0. -1.
        -11    1    3    3    0    0 -0.73706780724E+01 -0.10711904358E+02  0.69106911805E+01  0.14725129645E+02  0.51100000000E-03 0.  1.
        -12    1    3    3    0    0 -0.97927992284E+00 -0.20782742823E+01 -0.32166630932E+00  0.23198453342E+01  0.00000000000E+00 0.  1.
</event>
<event>
 7    1  0.2297343E-008  0.4614232E+02  0.7816164E-02  0.1320468E+00
        -11   -1    0    0    0    0  0.00000000000E+00  0.00000000000E+00  0.45593999997E+02  0.45594000000E+02  0.51100000000E-03 0. -1.
         11   -1    0    0    0    0 -0.00000000000E+00 -0.00000000000E+00 -0.45593999997E+02  0.45594000000E+02  0.51100000000E-03 0.  1.
    9900012    2    1    2    0    0 -0.17934287882E+02  0.37477527138E+02 -0.17404302649E+02  0.46142317933E+02  0.10000001567E+02 0.  0.
         12    1    1    2    0    0  0.17934287882E+02 -0.37477527138E+02  0.17404302649E+02  0.45045682067E+02  0.00000000000E+00 0. -1.
         11    1    3    3    0    0 -0.81294776564E+01  0.26193259164E+02 -0.13979975454E+02  0.30783355024E+02  0.51100000000E-03 0.  1.
        -11    1    3    3    0    0 -0.50132993171E+01  0.53362462096E+01 -0.13602782698E+01  0.74470833810E+01  0.51100000000E-03 0. -1.
        -12    1    3    3    0    0 -0.47915109083E+01  0.59480217641E+01 -0.20640489250E+01  0.79118795274E+01  0.00000000000E+00 0.  1.
</event>
<event>
 7    1  0.2297343E-008  0.4614232E+02  0.7816164E-02  0.1320468E+00
        -11   -1    0    0    0    0  0.00000000000E+00  0.00000000000E+00  0.45593999997E+02  0.45594000000E+02  0.51100000000E-03 0.  1.
         11   -1    0    0    0    0 -0.00000000000E+00 -0.00000000000E+00 -0.45593999997E+02  0.45594000000E+02  0.51100000000E-03 0. -1.
    9900012    2    1    2    0    0  0.30229187058E+02 -0.24662858775E+02  0.22517840563E+02  0.46142317668E+02  0.99999991492E+01 0.  0.
         12    1    1    2    0    0 -0.30229187058E+02  0.24662858775E+02 -0.22517840563E+02  0.45045682332E+02  0.00000000000E+00 0. -1.
         11    1    3    3    0    0  0.15874325073E+02 -0.86555146343E+01  0.12728416377E+02  0.22111642042E+02  0.51100000000E-03 0. -1.
        -11    1    3    3    0    0  0.83972143887E+01 -0.78454256310E+01  0.73304252693E+01  0.13630812438E+02  0.51100000000E-03 0.  1.
         12    1    3    3    0    0  0.59576475967E+01 -0.81619185098E+01  0.24589989170E+01  0.10399863188E+02  0.00000000000E+00 0. -1.
</event>
<event>
 7    1  0.2297343E-008  0.4614232E+02  0.7816164E-02  0.1320468E+00
        -11   -1    0    0    0    0  0.00000000000E+00  0.00000000000E+00  0.45593999997E+02  0.45594000000E+02  0.51100000000E-03 0.  1.
         11   -1    0    0    0    0 -0.00000000000E+00 -0.00000000000E+00 -0.45593999997E+02  0.45594000000E+02  0.51100000000E-03 0. -1.
    9900012    2    1    2    0    0 -0.26350699205E+01  0.28884779068E+02  0.34465047139E+02  0.46142317304E+02  0.99999958273E+01 0.  0.
         12    1    1    2    0    0  0.26350699205E+01 -0.28884779068E+02 -0.34465047139E+02  0.45045682696E+02  0.00000000000E+00 0. -1.
         11    1    3    3    0    0  0.83429048522E+00  0.33742338038E+01  0.84045265002E+01  0.90949194790E+01  0.51100000000E-03 0. -1.
        -11    1    3    3    0    0 -0.47328263220E+01  0.16396229145E+02  0.18149853642E+02  0.24912911566E+02  0.51100000000E-03 0.  1.
         12    1    3    3    0    0  0.12634659163E+01  0.91143161185E+01  0.79106669967E+01  0.12134486259E+02  0.00000000000E+00 0. -1.
</event>
<event>
 7    1  0.2297343E-008  0.4614232E+02  0.7816164E-02  0.1320468E+00
        -11   -1    0    0    0    0  0.00000000000E+00  0.00000000000E+00  0.45593999997E+02  0.45594000000E+02  0.51100000000E-03 0. -1.
         11   -1    0    0    0    0 -0.00000000000E+00 -0.00000000000E+00 -0.45593999997E+02  0.45594000000E+02  0.51100000000E-03 0.  1.
    9900012    2    1    2    0    0 -0.30837161346E+02  0.30533936054E+02 -0.12077322468E+02  0.46142317756E+02  0.99999999577E+01 0.  0.
         12    1    1    2    0    0  0.30837161346E+02 -0.30533936054E+02  0.12077322468E+02  0.45045682244E+02  0.00000000000E+00 0. -1.
         11    1    3    3    0    0 -0.45678885284E+01  0.61953404030E+01 -0.15732557957E+01  0.78563975445E+01  0.51100000000E-03 0. -1.
        -11    1    3    3    0    0 -0.74008956855E+01  0.91273061129E+01  0.29055078026E+00  0.11754377646E+02  0.51100000000E-03 0.  1.
        -12    1    3    3    0    0 -0.18868377132E+02  0.15211289538E+02 -0.10794617452E+02  0.26531542566E+02  0.00000000000E+00 0.  1.
</event>
<event>
 7    1  0.2297343E-008  0.4614232E+02  0.7816164E-02  0.1320468E+00
        -11   -1    0    0    0    0  0.00000000000E+00  0.00000000000E+00  0.45593999997E+02  0.45594000000E+02  0.51100000000E-03 0.  1.
         11   -1    0    0    0    0 -0.00000000000E+00 -0.00000000000E+00 -0.45593999997E+02  0.45594000000E+02  0.51100000000E-03 0. -1.
    9900012    2    1    2    0    0  0.35471138775E+02  0.23205235343E+02 -0.15245617728E+02  0.46142317708E+02  0.99999995128E+01 0.  0.
         12    1    1    2    0    0 -0.35471138775E+02 -0.23205235343E+02  0.15245617728E+02  0.45045682292E+02  0.00000000000E+00 0. -1.
         11    1    3    3    0    0  0.37557638026E+01  0.22793755267E+01 -0.35875518917E+01  0.56720228640E+01  0.51100000000E-03 0. -1.
        -11    1    3    3    0    0  0.74211279982E+01  0.15714568381E+01 -0.35081224747E+01  0.83576037785E+01  0.51100000000E-03 0.  1.
        -12    1    3    3    0    0  0.24294246974E+02  0.19354402978E+02 -0.81499433614E+01  0.32112691065E+02  0.00000000000E+00 0.  1.
</event>
<event>
 7    1  0.2297343E-008  0.4614231E+02  0.7816164E-02  0.1320468E+00
        -11   -1    0    0    0    0  0.00000000000E+00  0.00000000000E+00  0.45593999997E+02  0.45594000000E+02  0.51100000000E-03 0. -1.
         11   -1    0    0    0    0 -0.00000000000E+00 -0.00000000000E+00 -0.45593999997E+02  0.45594000000E+02  0.51100000000E-03 0.  1.
    9900012    2    1    2    0    0 -0.10942362349E+02  0.40078913368E+02 -0.17408604676E+02  0.46142310891E+02  0.99999373524E+01 0.  0.
         12    1    1    2    0    0  0.10942362349E+02 -0.40078913368E+02  0.17408604676E+02  0.45045689109E+02  0.00000000000E+00 0. -1.
         11    1    3    3    0    0 -0.21136479308E+01  0.51269948548E+01 -0.18944985788E+01  0.58602652621E+01  0.51100000000E-03 0. -1.
        -11    1    3    3    0    0 -0.28984993013E+00  0.12351960910E+02 -0.17547557965E+01  0.12479347718E+02  0.51100000000E-03 0.  1.
        -12    1    3    3    0    0 -0.85388644880E+01  0.22599957603E+02 -0.13759350301E+02  0.27802697911E+02  0.00000000000E+00 0.  1.
</event>
<event>
 7    1  0.2297343E-008  0.4614232E+02  0.7816164E-02  0.1320468E+00
        -11   -1    0    0    0    0  0.00000000000E+00  0.00000000000E+00  0.45593999997E+02  0.45594000000E+02  0.51100000000E-03 0.  1.
         11   -1    0    0    0    0 -0.00000000000E+00 -0.00000000000E+00 -0.45593999997E+02  0.45594000000E+02  0.51100000000E-03 0. -1.
    9900012    2    1    2    0    0 -0.25855531046E+02  0.21856049756E+02  0.29713937272E+02  0.46142318023E+02  0.10000002384E+02 0.  0.
         12    1    1    2    0    0  0.25855531046E+02 -0.21856049756E+02 -0.29713937272E+02  0.45045681977E+02  0.00000000000E+00 0. -1.
         11    1    3    3    0    0 -0.22354496008E+01  0.29302503134E+01  0.45081077203E+01  0.58229406055E+01  0.51100000000E-03 0. -1.
        -11    1    3    3    0    0 -0.10496132929E+02  0.84212674024E+01  0.16798932152E+02  0.21524188087E+02  0.51100000000E-03 0.  1.
         12    1    3    3    0    0 -0.13123948517E+02  0.10504532040E+02  0.84068974001E+01  0.18795189330E+02  0.00000000000E+00 0. -1.
</event>
<event>
 7    1  0.2297343E-008  0.4614232E+02  0.7816164E-02  0.1320468E+00
        -11   -1    0    0    0    0  0.00000000000E+00  0.00000000000E+00  0.45593999997E+02  0.45594000000E+02  0.51100000000E-03 0. -1.
         11   -1    0    0    0    0 -0.00000000000E+00 -0.00000000000E+00 -0.45593999997E+02  0.45594000000E+02  0.51100000000E-03 0.  1.
    9900012    2    1    2    0    0 -0.41185875026E+02  0.17894050042E+02  0.35553024072E+01  0.46142317590E+02  0.99999984436E+01 0.  0.
         12    1    1    2    0    0  0.41185875026E+02 -0.17894050042E+02 -0.35553024072E+01  0.45045682410E+02  0.00000000000E+00 0. -1.
         11    1    3    3    0    0 -0.20813790774E+02  0.71925674334E+01  0.35178321549E+01  0.22300718733E+02  0.51100000000E-03 0.  1.
        -11    1    3    3    0    0  0.35098885764E+00  0.12242107345E+00  0.43347560749E+00  0.57103542870E+00  0.51100000000E-03 0. -1.
        -12    1    3    3    0    0 -0.20723073109E+02  0.10579061535E+02 -0.39600535525E+00  0.23270563429E+02  0.00000000000E+00 0.  1.
</event>
<event>
 7    1  0.2297343E-008  0.4614232E+02  0.7816164E-02  0.1320468E+00
        -11   -1    0    0    0    0  0.00000000000E+00  0.00000000000E+00  0.45593999997E+02  0.45594000000E+02  0.51100000000E-03 0. -1.
         11   -1    0    0    0    0 -0.00000000000E+00 -0.00000000000E+00 -0.45593999997E+02  0.45594000000E+02  0.51100000000E-03 0.  1.
    9900012    2    1    2    0    0  0.32416422314E+02  0.29470807810E+02  0.10476666395E+02  0.46142317772E+02  0.10000000099E+02 0.  0.
         12    1    1    2    0    0 -0.32416422314E+02 -0.29470807810E+02 -0.10476666395E+02  0.45045682228E+02  0.00000000000E+00 0. -1.
         11    1    3    3    0    0  0.14462949622E+02  0.97325276978E+01  0.30502810097E+01  0.17697548464E+02  0.51100000000E-03 0. -1.
        -11    1    3    3    0    0  0.11337345241E+02  0.13025111933E+02  0.79382674448E+01  0.19005394715E+02  0.51100000000E-03 0.  1.
         12    1    3    3    0    0  0.66161274507E+01  0.67131681799E+01 -0.51188205985E+00  0.94393745926E+01  0.00000000000E+00 0. -1.
</event>
<event>
 7    1  0.2297343E-008  0.4614232E+02  0.7816164E-02  0.1320468E+00
        -11   -1    0    0    0    0  0.00000000000E+00  0.00000000000E+00  0.45593999997E+02  0.45594000000E+02  0.51100000000E-03 0.  1.
         11   -1    0    0    0    0 -0.00000000000E+00 -0.00000000000E+00 -0.45593999997E+02  0.45594000000E+02  0.51100000000E-03 0. -1.
    9900012    2    1    2    0    0 -0.41256668496E+02  0.15324622205E+01  0.18018111639E+02  0.46142317822E+02  0.10000000554E+02 0.  0.
         12    1    1    2    0    0  0.41256668496E+02 -0.15324622205E+01 -0.18018111639E+02  0.45045682178E+02  0.00000000000E+00 0. -1.
         11    1    3    3    0    0 -0.69188544897E+01  0.29652173964E+01  0.47120641529E+01  0.88806875015E+01  0.51100000000E-03 0. -1.
        -11    1    3    3    0    0 -0.30096606162E+02 -0.95528630291E+00  0.13477204290E+02  0.32990200214E+02  0.51100000000E-03 0.  1.
         12    1    3    3    0    0 -0.42412078444E+01 -0.47746887290E+00 -0.17115680432E+00  0.42714301066E+01  0.00000000000E+00 0. -1.
</event>
<event>
 7    1  0.2297343E-008  0.4614232E+02  0.7816164E-02  0.1320468E+00
        -11   -1    0    0    0    0  0.00000000000E+00  0.00000000000E+00  0.45593999997E+02  0.45594000000E+02  0.51100000000E-03 0. -1.
         11   -1    0    0    0    0 -0.00000000000E+00 -0.00000000000E+00 -0.45593999997E+02  0.45594000000E+02  0.51100000000E-03 0.  1.
    9900012    2    1    2    0    0 -0.17111539111E+02  0.54543356828E+01 -0.41310518891E+02  0.46142317415E+02  0.99999968422E+01 0.  0.
         12    1    1    2    0    0  0.17111539111E+02 -0.54543356828E+01  0.41310518891E+02  0.45045682585E+02  0.00000000000E+00 0. -1.
         11    1    3    3    0    0 -0.23864736950E+01  0.36764952663E+01 -0.84458239445E+01  0.95154514608E+01  0.51100000000E-03 0. -1.
        -11    1    3    3    0    0 -0.11362078195E+01 -0.11352279519E+01 -0.10767102579E+01  0.19336535244E+01  0.51100000000E-03 0.  1.
        -12    1    3    3    0    0 -0.13588857597E+02  0.29130683685E+01 -0.31787984689E+02  0.34693212430E+02  0.00000000000E+00 0.  1.
</event>
<event>
 7    1  0.2297343E-008  0.4614232E+02  0.7816164E-02  0.1320468E+00
        -11   -1    0    0    0    0  0.00000000000E+00  0.00000000000E+00  0.45593999997E+02  0.45594000000E+02  0.51100000000E-03 0.  1.
         11   -1    0    0    0    0 -0.00000000000E+00 -0.00000000000E+00 -0.45593999997E+02  0.45594000000E+02  0.51100000000E-03 0. -1.
    9900012    2    1    2    0    0  0.25125540532E+02 -0.15012762548E+02  0.34240877064E+02  0.46142317760E+02  0.99999999885E+01 0.  0.
         12    1    1    2    0    0 -0.25125540532E+02  0.15012762548E+02 -0.34240877064E+02  0.45045682240E+02  0.00000000000E+00 0. -1.
         11    1    3    3    0    0  0.73538984913E+01 -0.40142704431E+00  0.93861045344E+01  0.11930629710E+02  0.51100000000E-03 0. -1.
        -11    1    3    3    0    0  0.63293772259E+01 -0.55133087499E+01  0.12579621446E+02  0.15122978061E+02  0.51100000000E-03 0.  1.
         12    1    3    3    0    0  0.11442264815E+02 -0.90980267541E+01  0.12275151084E+02  0.19088709989E+02  0.00000000000E+00 0. -1.
</event>
<event>
 7    1  0.2297343E-008  0.4614231E+02  0.7816164E-02  0.1320468E+00
        -11   -1    0    0    0    0  0.00000000000E+00  0.00000000000E+00  0.45593999997E+02  0.45594000000E+02  0.51100000000E-03 0.  1.
         11   -1    0    0    0    0 -0.00000000000E+00 -0.00000000000E+00 -0.45593999997E+02  0.45594000000E+02  0.51100000000E-03 0. -1.
    9900012    2    1    2    0    0  0.13218328463E+02 -0.35651834459E+02  0.24152354636E+02  0.46142314945E+02  0.99999743209E+01 0.  0.
         12    1    1    2    0    0 -0.13218328463E+02  0.35651834459E+02 -0.24152354636E+02  0.45045685055E+02  0.00000000000E+00 0. -1.
         11    1    3    3    0    0  0.53945061492E+01 -0.69821799323E+01  0.86285203806E+01  0.12341106005E+02  0.51100000000E-03 0. -1.
        -11    1    3    3    0    0  0.57040506915E+01 -0.14577930469E+02  0.66085622314E+01  0.16991920023E+02  0.51100000000E-03 0.  1.
         12    1    3    3    0    0  0.21197716223E+01 -0.14091724058E+02  0.89152720236E+01  0.16809288917E+02  0.00000000000E+00 0. -1.
</event>
<event>
 7    1  0.2297343E-008  0.4614232E+02  0.7816164E-02  0.1320468E+00
        -11   -1    0    0    0    0  0.00000000000E+00  0.00000000000E+00  0.45593999997E+02  0.45594000000E+02  0.51100000000E-03 0.  1.
         11   -1    0    0    0    0 -0.00000000000E+00 -0.00000000000E+00 -0.45593999997E+02  0.45594000000E+02  0.51100000000E-03 0. -1.
    9900012    2    1    2    0    0  0.10936744864E+02 -0.20144654676E+02  0.38777494550E+02  0.46142316702E+02  0.99999903391E+01 0.  0.
         12    1    1    2    0    0 -0.10936744864E+02  0.20144654676E+02 -0.38777494550E+02  0.45045683298E+02  0.00000000000E+00 0. -1.
         11    1    3    3    0    0  0.82879226419E+01 -0.75942372277E+01  0.16176808674E+02  0.19699016217E+02  0.51100000000E-03 0. -1.
        -11    1    3    3    0    0  0.27446219335E+01 -0.12989654442E+02  0.21777866561E+02  0.25505676708E+02  0.51100000000E-03 0.  1.
         12    1    3    3    0    0 -0.95799711648E-01  0.43923699430E+00  0.82281931485E+00  0.93762377679E+00  0.00000000000E+00 0. -1.
</event>
<event>
 7    1  0.2297343E-008  0.4614230E+02  0.7816164E-02  0.1320468E+00
        -11   -1    0    0    0    0  0.00000000000E+00  0.00000000000E+00  0.45593999997E+02  0.45594000000E+02  0.51100000000E-03 0. -1.
         11   -1    0    0    0    0 -0.00000000000E+00 -0.00000000000E+00 -0.45593999997E+02  0.45594000000E+02  0.51100000000E-03 0.  1.
    9900012    2    1    2    0    0  0.22372761030E+02  0.34790842964E+02 -0.17837365531E+02  0.46142303209E+02  0.99998673011E+01 0.  0.
         12    1    1    2    0    0 -0.22372761030E+02 -0.34790842964E+02  0.17837365531E+02  0.45045696791E+02  0.00000000000E+00 0. -1.
         11    1    3    3    0    0  0.71436938993E+00  0.31743072792E+01  0.23964577038E+00  0.32625114076E+01  0.51100000000E-03 0. -1.
        -11    1    3    3    0    0  0.14464036669E+02  0.17712740934E+02 -0.13560692842E+02  0.26586499182E+02  0.51100000000E-03 0.  1.
        -12    1    3    3    0    0  0.71943549712E+01  0.13903794752E+02 -0.45163184597E+01  0.16293292619E+02  0.00000000000E+00 0.  1.
</event>
<event>
 7    1  0.2297343E-008  0.4614232E+02  0.7816164E-02  0.1320468E+00
        -11   -1    0    0    0    0  0.00000000000E+00  0.00000000000E+00  0.45593999997E+02  0.45594000000E+02  0.51100000000E-03 0.  1.
         11   -1    0    0    0    0 -0.00000000000E+00 -0.00000000000E+00 -0.45593999997E+02  0.45594000000E+02  0.51100000000E-03 0. -1.
    9900012    2    1    2    0    0  0.18825548029E+02 -0.32095024862E+02  0.25389399834E+02  0.46142317594E+02  0.99999984749E+01 0.  0.
         12    1    1    2    0    0 -0.18825548029E+02  0.32095024862E+02 -0.25389399834E+02  0.45045682406E+02  0.00000000000E+00 0. -1.
         11    1    3    3    0    0  0.10356987839E+01 -0.20743688220E+01  0.12586226084E+00  0.23219645885E+01  0.51100000000E-03 0. -1.
        -11    1    3    3    0    0  0.15097948977E+02 -0.23978383263E+02  0.16329965396E+02  0.32704414034E+02  0.51100000000E-03 0.  1.
        -12    1    3    3    0    0  0.26919002687E+01 -0.60422727775E+01  0.89335721774E+01  0.11115938972E+02  0.00000000000E+00 0.  1.
</event>
<event>
 7    1  0.2297343E-008  0.4614232E+02  0.7816164E-02  0.1320468E+00
        -11   -1    0    0    0    0  0.00000000000E+00  0.00000000000E+00  0.45593999997E+02  0.45594000000E+02  0.51100000000E-03 0.  1.
         11   -1    0    0    0    0 -0.00000000000E+00 -0.00000000000E+00 -0.45593999997E+02  0.45594000000E+02  0.51100000000E-03 0. -1.
    9900012    2    1    2    0    0 -0.32388075667E+02 -0.21628293011E+02  0.22634995531E+02  0.46142317336E+02  0.99999961251E+01 0.  0.
         12    1    1    2    0    0  0.32388075667E+02  0.21628293011E+02 -0.22634995531E+02  0.45045682664E+02  0.00000000000E+00 0. -1.
         11    1    3    3    0    0 -0.40230590192E+01 -0.78915264319E+00  0.56858757401E+01  0.70097752431E+01  0.51100000000E-03 0. -1.
        -11    1    3    3    0    0 -0.67928034717E+00 -0.52399963945E+00  0.84566007140E+00  0.12046321553E+01  0.51100000000E-03 0.  1.
        -12    1    3    3    0    0 -0.27685736301E+02 -0.20315140728E+02  0.16103459719E+02  0.37927909938E+02  0.00000000000E+00 0.  1.
</event>
<event>
 7    1  0.2297343E-008  0.4614232E+02  0.7816164E-02  0.1320468E+00
        -11   -1    0    0    0    0  0.00000000000E+00  0.00000000000E+00  0.45593999997E+02  0.45594000000E+02  0.51100000000E-03 0.  1.
         11   -1    0    0    0    0 -0.00000000000E+00 -0.00000000000E+00 -0.45593999997E+02  0.45594000000E+02  0.51100000000E-03 0. -1.
    9900012    2    1    2    0    0  0.10564274532E+02  0.37794039720E+02  0.22116051590E+02  0.46142322375E+02  0.10000042072E+02 0.  0.
         12    1    1    2    0    0 -0.10564274532E+02 -0.37794039720E+02 -0.22116051590E+02  0.45045677625E+02  0.00000000000E+00 0. -1.
         11    1    3    3    0    0  0.90818777692E+01  0.25251920102E+02  0.12306656723E+02  0.29522767021E+02  0.51100000000E-03 0. -1.
        -11    1    3    3    0    0  0.25516227536E+01  0.11887208204E+02  0.90085431084E+01  0.15131766148E+02  0.51100000000E-03 0.  1.
         12    1    3    3    0    0 -0.10692259907E+01  0.65491141432E+00  0.80085175897E+00  0.14877892053E+01  0.00000000000E+00 0. -1.
</event>
<event>
 7    1  0.2297343E-008  0.4614232E+02  0.7816164E-02  0.1320468E+00
        -11   -1    0    0    0    0  0.00000000000E+00  0.00000000000E+00  0.45593999997E+02  0.45594000000E+02  0.51100000000E-03 0. -1.
         11   -1    0    0    0    0 -0.00000000000E+00 -0.00000000000E+00 -0.45593999997E+02  0.45594000000E+02  0.51100000000E-03 0.  1.
    9900012    2    1    2    0    0  0.56646551668E+01 -0.12036222866E+02 -0.43036667291E+02  0.46142315295E+02  0.99999775126E+01 0.  0.
         12    1    1    2    0    0 -0.56646551668E+01  0.12036222866E+02  0.43036667291E+02  0.45045684705E+02  0.00000000000E+00 0. -1.
         11    1    3    3    0    0  0.49261651947E+00 -0.60600919122E+01 -0.11303449817E+02  0.12834927466E+02  0.51100000000E-03 0. -1.
        -11    1    3    3    0    0  0.31183330470E+00  0.12650648395E+01 -0.27982542375E+01  0.30867225494E+01  0.51100000000E-03 0.  1.
        -12    1    3    3    0    0  0.48602053426E+01 -0.72411957933E+01 -0.28934963236E+02  0.30220665280E+02  0.00000000000E+00 0.  1.
</event>
<event>
 7    1  0.2297343E-008  0.4614232E+02  0.7816164E-02  0.1320468E+00
        -11   -1    0    0    0    0  0.00000000000E+00  0.00000000000E+00  0.45593999997E+02  0.45594000000E+02  0.51100000000E-03 0. -1.
         11   -1    0    0    0    0 -0.00000000000E+00 -0.00000000000E+00 -0.45593999997E+02  0.45594000000E+02  0.51100000000E-03 0.  1.
    9900012    2    1    2    0    0 -0.23605628018E+02 -0.19001875694E+02 -0.33328914289E+02  0.46142317835E+02  0.10000000676E+02 0.  0.
         12    1    1    2    0    0  0.23605628018E+02  0.19001875694E+02  0.33328914289E+02  0.45045682165E+02  0.00000000000E+00 0. -1.
         11    1    3    3    0    0 -0.94569169556E+01 -0.54542385619E+01 -0.83810308525E+01  0.13763127370E+02  0.51100000000E-03 0. -1.
        -11    1    3    3    0    0 -0.52914247865E+01 -0.11690969824E+01 -0.65858420453E+01  0.85287325982E+01  0.51100000000E-03 0.  1.
         12    1    3    3    0    0 -0.88572862757E+01 -0.12378540149E+02 -0.18362041391E+02  0.23850457867E+02  0.00000000000E+00 0. -1.
</event>
<event>
 7    1  0.2297343E-008  0.4614233E+02  0.7816164E-02  0.1320468E+00
        -11   -1    0    0    0    0  0.00000000000E+00  0.00000000000E+00  0.45593999997E+02  0.45594000000E+02  0.51100000000E-03 0.  1.
         11   -1    0    0    0    0 -0.00000000000E+00 -0.00000000000E+00 -0.45593999997E+02  0.45594000000E+02  0.51100000000E-03 0. -1.
    9900012    2    1    2    0    0 -0.32698025745E+02 -0.30938420084E+02 -0.16630837104E+01  0.46142327928E+02  0.10000092713E+02 0.  0.
         12    1    1    2    0    0  0.32698025745E+02  0.30938420084E+02  0.16630837104E+01  0.45045672072E+02  0.00000000000E+00 0. -1.
         11    1    3    3    0    0 -0.23526856674E+02 -0.20917928114E+02 -0.32445032562E+01  0.31648056862E+02  0.51100000000E-03 0. -1.
        -11    1    3    3    0    0 -0.77193035897E+01 -0.50470612125E+01  0.85059436835E+00  0.92619644695E+01  0.51100000000E-03 0.  1.
        -12    1    3    3    0    0 -0.14518654821E+01 -0.49734307581E+01  0.73082517740E+00  0.52323065969E+01  0.00000000000E+00 0.  1.
</event>
<event>
 7    1  0.2297343E-008  0.4614232E+02  0.7816164E-02  0.1320468E+00
        -11   -1    0    0    0    0  0.00000000000E+00  0.00000000000E+00  0.45593999997E+02  0.45594000000E+02  0.51100000000E-03 0.  1.
         11   -1    0    0    0    0 -0.00000000000E+00 -0.00000000000E+00 -0.45593999997E+02  0.45594000000E+02  0.51100000000E-03 0. -1.
    9900012    2    1    2    0    0  0.38039247049E+02 -0.65419062454E+01 -0.23223536448E+02  0.46142317649E+02  0.99999989764E+01 0.  0.
         12    1    1    2    0    0 -0.38039247049E+02  0.65419062454E+01  0.23223536448E+02  0.45045682351E+02  0.00000000000E+00 0. -1.
         11    1    3    3    0    0  0.15748787471E+02 -0.23830089662E+00 -0.10711718851E+02  0.19047887419E+02  0.51100000000E-03 0. -1.
        -11    1    3    3    0    0  0.61781198308E+01  0.10063677674E+01 -0.23183662359E+01  0.66750852423E+01  0.51100000000E-03 0.  1.
        -12    1    3    3    0    0  0.16112339747E+02 -0.73099731162E+01 -0.10193451360E+02  0.20419344987E+02  0.00000000000E+00 0.  1.
</event>
<event>
 7    1  0.2297343E-008  0.4614232E+02  0.7816164E-02  0.1320468E+00
        -11   -1    0    0    0    0  0.00000000000E+00  0.00000000000E+00  0.45593999997E+02  0.45594000000E+02  0.51100000000E-03 0.  1.
         11   -1    0    0    0    0 -0.00000000000E+00 -0.00000000000E+00 -0.45593999997E+02  0.45594000000E+02  0.51100000000E-03 0. -1.
    9900012    2    1    2    0    0 -0.29042393971E+02  0.24739414057E+01  0.34344321317E+02  0.46142318294E+02  0.10000004862E+02 0.  0.
         12    1    1    2    0    0  0.29042393971E+02 -0.24739414057E+01 -0.34344321317E+02  0.45045681706E+02  0.00000000000E+00 0. -1.
         11    1    3    3    0    0 -0.10141913395E+02 -0.75612533783E+00  0.11151273470E+02  0.15092416410E+02  0.51100000000E-03 0. -1.
        -11    1    3    3    0    0 -0.18136644911E+02  0.99994849703E+00  0.19336348437E+02  0.26529835219E+02  0.51100000000E-03 0.  1.
        -12    1    3    3    0    0 -0.76383566465E+00  0.22301182465E+01  0.38566994101E+01  0.45200666650E+01  0.00000000000E+00 0.  1.
</event>
<event>
 7    1  0.2297343E-008  0.4614232E+02  0.7816164E-02  0.1320468E+00
        -11   -1    0    0    0    0  0.00000000000E+00  0.00000000000E+00  0.45593999997E+02  0.45594000000E+02  0.51100000000E-03 0. -1.
         11   -1    0    0    0    0 -0.00000000000E+00 -0.00000000000E+00 -0.45593999997E+02  0.45594000000E+02  0.51100000000E-03 0.  1.
    9900012    2    1    2    0    0  0.21501296293E+02 -0.21577300538E+02 -0.33184754447E+02  0.46142316872E+02  0.99999918929E+01 0.  0.
         12    1    1    2    0    0 -0.21501296293E+02  0.21577300538E+02  0.33184754447E+02  0.45045683128E+02  0.00000000000E+00 0. -1.
         11    1    3    3    0    0  0.68182767006E+01 -0.17952643023E+01 -0.67123159623E+01  0.97348372826E+01  0.51100000000E-03 0. -1.
        -11    1    3    3    0    0  0.99451226252E+01 -0.11649162299E+02 -0.13760737900E+02  0.20590443271E+02  0.51100000000E-03 0.  1.
        -12    1    3    3    0    0  0.47378969673E+01 -0.81328739366E+01 -0.12711700584E+02  0.15817036318E+02  0.00000000000E+00 0.  1.
</event>
<event>
 7    1  0.2297343E-008  0.4614232E+02  0.7816164E-02  0.1320468E+00
        -11   -1    0    0    0    0  0.00000000000E+00  0.00000000000E+00  0.45593999997E+02  0.45594000000E+02  0.51100000000E-03 0.  1.
         11   -1    0    0    0    0 -0.00000000000E+00 -0.00000000000E+00 -0.45593999997E+02  0.45594000000E+02  0.51100000000E-03 0. -1.
    9900012    2    1    2    0    0 -0.51838093204E+01 -0.12271707415E+02  0.43030764413E+02  0.46142319098E+02  0.10000012193E+02 0.  0.
         12    1    1    2    0    0  0.51838093204E+01  0.12271707415E+02 -0.43030764413E+02  0.45045680902E+02  0.00000000000E+00 0. -1.
         11    1    3    3    0    0 -0.19212182593E+01  0.14113899357E+01  0.58675534407E+01  0.63333470448E+01  0.51100000000E-03 0. -1.
        -11    1    3    3    0    0 -0.18330894289E+01 -0.34466037110E+01  0.11395580544E+02  0.12045685958E+02  0.51100000000E-03 0.  1.
         12    1    3    3    0    0 -0.14295016323E+01 -0.10236493639E+02  0.25767630428E+02  0.27763286095E+02  0.00000000000E+00 0. -1.
</event>
<event>
 7    1  0.2297343E-008  0.4614232E+02  0.7816164E-02  0.1320468E+00
        -11   -1    0    0    0    0  0.00000000000E+00  0.00000000000E+00  0.45593999997E+02  0.45594000000E+02  0.51100000000E-03 0.  1.
         11   -1    0    0    0    0 -0.00000000000E+00 -0.00000000000E+00 -0.45593999997E+02  0.45594000000E+02  0.51100000000E-03 0. -1.
    9900012    2    1    2    0    0  0.34449718772E+02  0.54001845068E+00  0.29017903068E+02  0.46142318278E+02  0.10000004711E+02 0.  0.
         12    1    1    2    0    0 -0.34449718772E+02 -0.54001845068E+00 -0.29017903068E+02  0.45045681722E+02  0.00000000000E+00 0. -1.
         11    1    3    3    0    0 -0.15307238696E+00 -0.77815791717E+00  0.48414997683E+00  0.92917294456E+00  0.51100000000E-03 0. -1.
        -11    1    3    3    0    0  0.13874131513E+02  0.29174440979E+01  0.13295850370E+02  0.19436631463E+02  0.51100000000E-03 0.  1.
        -12    1    3    3    0    0  0.20728659645E+02 -0.15992677301E+01  0.15237902721E+02  0.25776513870E+02  0.00000000000E+00 0.  1.
</event>
<event>
 7    1  0.2297343E-008  0.4614232E+02  0.7816164E-02  0.1320468E+00
        -11   -1    0    0    0    0  0.00000000000E+00  0.00000000000E+00  0.45593999997E+02  0.45594000000E+02  0.51100000000E-03 0. -1.
         11   -1    0    0    0    0 -0.00000000000E+00 -0.00000000000E+00 -0.45593999997E+02  0.45594000000E+02  0.51100000000E-03 0.  1.
    9900012    2    1    2    0    0 -0.11527288426E+02  0.10987987330E+02 -0.42136672958E+02  0.46142318165E+02  0.10000003684E+02 0.  0.
         12    1    1    2    0    0  0.11527288426E+02 -0.10987987330E+02  0.42136672958E+02  0.45045681835E+02  0.00000000000E+00 0. -1.
         11    1    3    3    0    0 -0.64959897850E+00 -0.94998267594E+00 -0.10948559005E+01  0.15884444030E+01  0.51100000000E-03 0.  1.
        -11    1    3    3    0    0  0.58323315557E-01 -0.62060378253E+00 -0.89854240773E+00  0.10935855630E+01  0.51100000000E-03 0. -1.
        -12    1    3    3    0    0 -0.10936012763E+02  0.12558573788E+02 -0.40143274650E+02  0.43460288199E+02  0.00000000000E+00 0.  1.
</event>
<event>
 7    1  0.2297343E-008  0.4614232E+02  0.7816164E-02  0.1320468E+00
        -11   -1    0    0    0    0  0.00000000000E+00  0.00000000000E+00  0.45593999997E+02  0.45594000000E+02  0.51100000000E-03 0. -1.
         11   -1    0    0    0    0 -0.00000000000E+00 -0.00000000000E+00 -0.45593999997E+02  0.45594000000E+02  0.51100000000E-03 0.  1.
    9900012    2    1    2    0    0 -0.40948777251E+01  0.44836912142E+02  0.14129969312E+01  0.46142320137E+02  0.10000021664E+02 0.  0.
         12    1    1    2    0    0  0.40948777251E+01 -0.44836912142E+02 -0.14129969312E+01  0.45045679863E+02  0.00000000000E+00 0. -1.
         11    1    3    3    0    0 -0.12267606454E+01  0.18621764419E+02 -0.27706109878E+01  0.18866672660E+02  0.51100000000E-03 0. -1.
        -11    1    3    3    0    0 -0.33444642320E+01  0.17708840477E+02  0.59680690686E+00  0.18031767822E+02  0.51100000000E-03 0.  1.
         12    1    3    3    0    0  0.47634715217E+00  0.85063072460E+01  0.35868010121E+01  0.92438796549E+01  0.00000000000E+00 0. -1.
</event>
<event>
 7    1  0.2297343E-008  0.4614232E+02  0.7816164E-02  0.1320468E+00
        -11   -1    0    0    0    0  0.00000000000E+00  0.00000000000E+00  0.45593999997E+02  0.45594000000E+02  0.51100000000E-03 0. -1.
         11   -1    0    0    0    0 -0.00000000000E+00 -0.00000000000E+00 -0.45593999997E+02  0.45594000000E+02  0.51100000000E-03 0.  1.
    9900012    2    1    2    0    0  0.12047240884E+01  0.40877850879E+02 -0.18885534550E+02  0.46142317989E+02  0.10000002080E+02 0.  0.
         12    1    1    2    0    0 -0.12047240884E+01 -0.40877850879E+02  0.18885534550E+02  0.45045682011E+02  0.00000000000E+00 0. -1.
         11    1    3    3    0    0 -0.18841682674E+01  0.10867071382E+02 -0.51958578490E+01  0.12191811577E+02  0.51100000000E-03 0.  1.
        -11    1    3    3    0    0  0.37859789183E+00  0.18058364931E+02 -0.44512635372E+01  0.18602731726E+02  0.51100000000E-03 0. -1.
        -12    1    3    3    0    0  0.27102944640E+01  0.11952414566E+02 -0.92384131633E+01  0.15347774686E+02  0.00000000000E+00 0.  1.
</event>
<event>
 7    1  0.2297343E-008  0.4614232E+02  0.7816164E-02  0.1320468E+00
        -11   -1    0    0    0    0  0.00000000000E+00  0.00000000000E+00  0.45593999997E+02  0.45594000000E+02  0.51100000000E-03 0.  1.
         11   -1    0    0    0    0 -0.00000000000E+00 -0.00000000000E+00 -0.45593999997E+02  0.45594000000E+02  0.51100000000E-03 0. -1.
    9900012    2    1    2    0    0  0.39111109470E+02 -0.16864279037E+02  0.14663917507E+02  0.46142320207E+02  0.10000022302E+02 0.  0.
         12    1    1    2    0    0 -0.39111109470E+02  0.16864279037E+02 -0.14663917507E+02  0.45045679793E+02  0.00000000000E+00 0. -1.
         11    1    3    3    0    0  0.76268952263E+01 -0.65583362466E+01  0.64386983394E+01  0.11943121103E+02  0.51100000000E-03 0. -1.
        -11    1    3    3    0    0  0.66045521206E+01 -0.17055617661E+01  0.24585151802E+01  0.72507480168E+01  0.51100000000E-03 0.  1.
         12    1    3    3    0    0  0.24879662123E+02 -0.86003810243E+01  0.57667039877E+01  0.26948451087E+02  0.00000000000E+00 0. -1.
</event>
<event>
 7    1  0.2297343E-008  0.4614232E+02  0.7816164E-02  0.1320468E+00
        -11   -1    0    0    0    0  0.00000000000E+00  0.00000000000E+00  0.45593999997E+02  0.45594000000E+02  0.51100000000E-03 0. -1.
         11   -1    0    0    0    0 -0.00000000000E+00 -0.00000000000E+00 -0.45593999997E+02  0.45594000000E+02  0.51100000000E-03 0.  1.
    9900012    2    1    2    0    0  0.25981149581E+02  0.10005938419E+02 -0.35411503061E+02  0.46142317785E+02  0.10000000217E+02 0.  0.
         12    1    1    2    0    0 -0.25981149581E+02 -0.10005938419E+02  0.35411503061E+02  0.45045682215E+02  0.00000000000E+00 0. -1.
         11    1    3    3    0    0  0.13980542721E+02  0.54239725832E+01 -0.12014313374E+02  0.19215066471E+02  0.51100000000E-03 0.  1.
        -11    1    3    3    0    0  0.51161458137E+01  0.16137566800E+00 -0.81631632884E+01  0.96352594790E+01  0.51100000000E-03 0. -1.
         12    1    3    3    0    0  0.68844610460E+01  0.44205901678E+01 -0.15234026398E+02  0.17291991835E+02  0.00000000000E+00 0. -1.
</event>
<event>
 7    1  0.2297343E-008  0.4614232E+02  0.7816164E-02  0.1320468E+00
        -11   -1    0    0    0    0  0.00000000000E+00  0.00000000000E+00  0.45593999997E+02  0.45594000000E+02  0.51100000000E-03 0.  1.
         11   -1    0    0    0    0 -0.00000000000E+00 -0.00000000000E+00 -0.45593999997E+02  0.45594000000E+02  0.51100000000E-03 0. -1.
    9900012    2    1    2    0    0 -0.36795130902E+02 -0.22087386610E+02  0.13688655402E+02  0.46142316610E+02  0.99999895022E+01 0.  0.
         12    1    1    2    0    0  0.36795130902E+02  0.22087386610E+02 -0.13688655402E+02  0.45045683390E+02  0.00000000000E+00 0. -1.
         11    1    3    3    0    0 -0.55138263882E+00 -0.10155666745E+01 -0.57983671828E+00  0.12929073307E+01  0.51100000000E-03 0. -1.
        -11    1    3    3    0    0 -0.78485877987E+01 -0.18427032130E+01  0.12028196224E+01  0.81512367694E+01  0.51100000000E-03 0.  1.
        -12    1    3    3    0    0 -0.28395160465E+02 -0.19229116722E+02  0.13065672498E+02  0.36698172510E+02  0.00000000000E+00 0.  1.
</event>
<event>
 7    1  0.2297343E-008  0.4614232E+02  0.7816164E-02  0.1320468E+00
        -11   -1    0    0    0    0  0.00000000000E+00  0.00000000000E+00  0.45593999997E+02  0.45594000000E+02  0.51100000000E-03 0.  1.
         11   -1    0    0    0    0 -0.00000000000E+00 -0.00000000000E+00 -0.45593999997E+02  0.45594000000E+02  0.51100000000E-03 0. -1.
    9900012    2    1    2    0    0 -0.18975122120E+02 -0.18123885720E+02  0.36613973816E+02  0.46142316837E+02  0.99999915724E+01 0.  0.
         12    1    1    2    0    0  0.18975122120E+02  0.18123885720E+02 -0.36613973816E+02  0.45045683163E+02  0.00000000000E+00 0. -1.
         11    1    3    3    0    0 -0.84023089020E+00 -0.32337317802E+01  0.39860747533E+01  0.52011346238E+01  0.51100000000E-03 0. -1.
        -11    1    3    3    0    0 -0.17912409059E+02 -0.15717224111E+02  0.31892738610E+02  0.39812464234E+02  0.51100000000E-03 0.  1.
        -12    1    3    3    0    0 -0.22248217030E+00  0.82707017187E+00  0.73516045225E+00  0.11287179789E+01  0.00000000000E+00 0.  1.
</event>
<event>
 7    1  0.2297343E-008  0.4614232E+02  0.7816164E-02  0.1320468E+00
        -11   -1    0    0    0    0  0.00000000000E+00  0.00000000000E+00  0.45593999997E+02  0.45594000000E+02  0.51100000000E-03 0.  1.
         11   -1    0    0    0    0 -0.00000000000E+00 -0.00000000000E+00 -0.45593999997E+02  0.45594000000E+02  0.51100000000E-03 0. -1.
    9900012    2    1    2    0    0  0.44359631034E+02  0.38918144050E+01 -0.67963434689E+01  0.46142319082E+02  0.10000012045E+02 0.  0.
         12    1    1    2    0    0 -0.44359631034E+02 -0.38918144050E+01  0.67963434689E+01  0.45045680918E+02  0.00000000000E+00 0. -1.
         11    1    3    3    0    0  0.81310986111E+01 -0.62167060369E+00 -0.33756468549E+01  0.88258841434E+01  0.51100000000E-03 0. -1.
        -11    1    3    3    0    0  0.19897379132E+02 -0.71924839615E+00 -0.47331040698E+00  0.19915999538E+02  0.51100000000E-03 0.  1.
        -12    1    3    3    0    0  0.16331153291E+02  0.52327334048E+01 -0.29473862071E+01  0.17400435401E+02  0.00000000000E+00 0.  1.
</event>
<event>
 7    1  0.2297343E-008  0.4614232E+02  0.7816164E-02  0.1320468E+00
        -11   -1    0    0    0    0  0.00000000000E+00  0.00000000000E+00  0.45593999997E+02  0.45594000000E+02  0.51100000000E-03 0.  1.
         11   -1    0    0    0    0 -0.00000000000E+00 -0.00000000000E+00 -0.45593999997E+02  0.45594000000E+02  0.51100000000E-03 0. -1.
    9900012    2    1    2    0    0  0.14338380746E+02  0.33869190069E+02  0.26007735424E+02  0.46142317630E+02  0.99999988026E+01 0.  0.
         12    1    1    2    0    0 -0.14338380746E+02 -0.33869190069E+02 -0.26007735424E+02  0.45045682370E+02  0.00000000000E+00 0. -1.
         11    1    3    3    0    0  0.42433621491E+01  0.63022883304E+01  0.99110879854E+01  0.12488179445E+02  0.51100000000E-03 0. -1.
        -11    1    3    3    0    0  0.24488409601E+00  0.14049085780E+01  0.16704267529E+01  0.21963747702E+01  0.51100000000E-03 0.  1.
         12    1    3    3    0    0  0.98501345010E+01  0.26161993160E+02  0.14426220685E+02  0.31457763415E+02  0.00000000000E+00 0. -1.
</event>
<event>
 7    1  0.2297343E-008  0.4614232E+02  0.7816164E-02  0.1320468E+00
        -11   -1    0    0    0    0  0.00000000000E+00  0.00000000000E+00  0.45593999997E+02  0.45594000000E+02  0.51100000000E-03 0.  1.
         11   -1    0    0    0    0 -0.00000000000E+00 -0.00000000000E+00 -0.45593999997E+02  0.45594000000E+02  0.51100000000E-03 0. -1.
    9900012    2    1    2    0    0 -0.33569275345E+02 -0.17575690370E+02  0.24358006284E+02  0.46142316419E+02  0.99999877627E+01 0.  0.
         12    1    1    2    0    0  0.33569275345E+02  0.17575690370E+02 -0.24358006284E+02  0.45045683581E+02  0.00000000000E+00 0. -1.
         11    1    3    3    0    0 -0.14612759809E+02 -0.36414306400E+01  0.13310917477E+02  0.20099086813E+02  0.51100000000E-03 0.  1.
        -11    1    3    3    0    0 -0.31562526129E+01 -0.26973085048E+01  0.25667791038E+01  0.48811636887E+01  0.51100000000E-03 0. -1.
        -12    1    3    3    0    0 -0.15800262922E+02 -0.11236951226E+02  0.84803097024E+01  0.21162065918E+02  0.00000000000E+00 0.  1.
</event>
<event>
 7    1  0.2297343E-008  0.4614232E+02  0.7816164E-02  0.1320468E+00
        -11   -1    0    0    0    0  0.00000000000E+00  0.00000000000E+00  0.45593999997E+02  0.45594000000E+02  0.51100000000E-03 0.  1.
         11   -1    0    0    0    0 -0.00000000000E+00 -0.00000000000E+00 -0.45593999997E+02  0.45594000000E+02  0.51100000000E-03 0. -1.
    9900012    2    1    2    0    0  0.37596877162E+02  0.36639404648E+01  0.24539026289E+02  0.46142318262E+02  0.10000004565E+02 0.  0.
         12    1    1    2    0    0 -0.37596877162E+02 -0.36639404648E+01 -0.24539026289E+02  0.45045681738E+02  0.00000000000E+00 0. -1.
         11    1    3    3    0    0  0.75561818278E+01  0.41772714170E+00  0.10633131095E+01  0.76420556665E+01  0.51100000000E-03 0. -1.
        -11    1    3    3    0    0  0.20486040766E+02  0.87224601170E+00  0.17690111832E+02  0.27080966310E+02  0.51100000000E-03 0.  1.
        -12    1    3    3    0    0  0.95546545673E+01  0.23739673114E+01  0.57856013480E+01  0.11419296285E+02  0.00000000000E+00 0.  1.
</event>
<event>
 7    1  0.2297343E-008  0.4614231E+02  0.7816164E-02  0.1320468E+00
        -11   -1    0    0    0    0  0.00000000000E+00  0.00000000000E+00  0.45593999997E+02  0.45594000000E+02  0.51100000000E-03 0.  1.
         11   -1    0    0    0    0 -0.00000000000E+00 -0.00000000000E+00 -0.45593999997E+02  0.45594000000E+02  0.51100000000E-03 0. -1.
    9900012    2    1    2    0    0 -0.41865964642E+02  0.16276945782E+02  0.33787888683E+01  0.46142310155E+02  0.99999306410E+01 0.  0.
         12    1    1    2    0    0  0.41865964642E+02 -0.16276945782E+02 -0.33787888683E+01  0.45045689845E+02  0.00000000000E+00 0. -1.
         11    1    3    3    0    0 -0.23594189573E+02  0.50900611104E+01 -0.86915861448E+00  0.24152638379E+02  0.51100000000E-03 0.  1.
        -11    1    3    3    0    0 -0.17225784599E+02  0.10140134849E+02  0.33752465511E+01  0.20271711308E+02  0.51100000000E-03 0. -1.
        -12    1    3    3    0    0 -0.10459904706E+01  0.10467498219E+01  0.87270093169E+00  0.17179604682E+01  0.00000000000E+00 0.  1.
</event>
<event>
 7    1  0.2297343E-008  0.4614232E+02  0.7816164E-02  0.1320468E+00
        -11   -1    0    0    0    0  0.00000000000E+00  0.00000000000E+00  0.45593999997E+02  0.45594000000E+02  0.51100000000E-03 0.  1.
         11   -1    0    0    0    0 -0.00000000000E+00 -0.00000000000E+00 -0.45593999997E+02  0.45594000000E+02  0.51100000000E-03 0. -1.
    9900012    2    1    2    0    0  0.30221785664E+02 -0.19396896334E+02  0.27194074514E+02  0.46142316469E+02  0.99999882202E+01 0.  0.
         12    1    1    2    0    0 -0.30221785664E+02  0.19396896334E+02 -0.27194074514E+02  0.45045683531E+02  0.00000000000E+00 0. -1.
         11    1    3    3    0    0  0.60246390637E+01 -0.32729860144E+01  0.76394865289E+01  0.10265011836E+02  0.51100000000E-03 0. -1.
        -11    1    3    3    0    0  0.22975234936E+02 -0.12741226925E+02  0.15700194058E+02  0.30605495873E+02  0.51100000000E-03 0.  1.
         12    1    3    3    0    0  0.12219116636E+01 -0.33826833949E+01  0.38543939268E+01  0.52718087605E+01  0.00000000000E+00 0. -1.
</event>
<event>
 7    1  0.2297343E-008  0.4614232E+02  0.7816164E-02  0.1320468E+00
        -11   -1    0    0    0    0  0.00000000000E+00  0.00000000000E+00  0.45593999997E+02  0.45594000000E+02  0.51100000000E-03 0.  1.
         11   -1    0    0    0    0 -0.00000000000E+00 -0.00000000000E+00 -0.45593999997E+02  0.45594000000E+02  0.51100000000E-03 0. -1.
    9900012    2    1    2    0    0 -0.60043850479E+01  0.20820701146E+02  0.39491255213E+02  0.46142317917E+02  0.10000001420E+02 0.  0.
         12    1    1    2    0    0  0.60043850479E+01 -0.20820701146E+02 -0.39491255213E+02  0.45045682083E+02  0.00000000000E+00 0. -1.
         11    1    3    3    0    0 -0.63420416324E+00  0.40582093811E+01  0.24051974773E+01  0.47598585554E+01  0.51100000000E-03 0. -1.
        -11    1    3    3    0    0 -0.56032071175E+01  0.11200406351E+02  0.22191010503E+02  0.25481090633E+02  0.51100000000E-03 0.  1.
        -12    1    3    3    0    0  0.23302623278E+00  0.55620854146E+01  0.14895047233E+02  0.15901368729E+02  0.00000000000E+00 0.  1.
</event>
<event>
 7    1  0.2297343E-008  0.4614232E+02  0.7816164E-02  0.1320468E+00
        -11   -1    0    0    0    0  0.00000000000E+00  0.00000000000E+00  0.45593999997E+02  0.45594000000E+02  0.51100000000E-03 0.  1.
         11   -1    0    0    0    0 -0.00000000000E+00 -0.00000000000E+00 -0.45593999997E+02  0.45594000000E+02  0.51100000000E-03 0. -1.
    9900012    2    1    2    0    0  0.37900079679E+02 -0.10955771438E+02  0.21740939313E+02  0.46142318634E+02  0.10000007961E+02 0.  0.
         12    1    1    2    0    0 -0.37900079679E+02  0.10955771438E+02 -0.21740939313E+02  0.45045681366E+02  0.00000000000E+00 0. -1.
         11    1    3    3    0    0  0.77981065302E+01  0.16515157340E+01  0.38602948034E+01  0.88566272309E+01  0.51100000000E-03 0. -1.
        -11    1    3    3    0    0  0.11782918914E+02 -0.40790337836E+01  0.59037078993E+01  0.13795994417E+02  0.51100000000E-03 0.  1.
         12    1    3    3    0    0  0.18319054235E+02 -0.85282533882E+01  0.11976936611E+02  0.23489696986E+02  0.00000000000E+00 0. -1.
</event>
<event>
 7    1  0.2297343E-008  0.4614232E+02  0.7816164E-02  0.1320468E+00
        -11   -1    0    0    0    0  0.00000000000E+00  0.00000000000E+00  0.45593999997E+02  0.45594000000E+02  0.51100000000E-03 0.  1.
         11   -1    0    0    0    0 -0.00000000000E+00 -0.00000000000E+00 -0.45593999997E+02  0.45594000000E+02  0.51100000000E-03 0. -1.
    9900012    2    1    2    0    0  0.13492316849E+02  0.36776788854E+02  0.22238225676E+02  0.46142317704E+02  0.99999994747E+01 0.  0.
         12    1    1    2    0    0 -0.13492316849E+02 -0.36776788854E+02 -0.22238225676E+02  0.45045682296E+02  0.00000000000E+00 0. -1.
         11    1    3    3    0    0  0.24772259760E+00  0.71138788958E+01  0.55208835164E+01  0.90082625679E+01  0.51100000000E-03 0. -1.
        -11    1    3    3    0    0  0.68057065835E+01  0.80547478762E+01  0.42464279223E+01  0.11367882644E+02  0.51100000000E-03 0.  1.
        -12    1    3    3    0    0  0.64388876676E+01  0.21608162082E+02  0.12470914237E+02  0.25766172492E+02  0.00000000000E+00 0.  1.
</event>
<event>
 7    1  0.2297343E-008  0.4614232E+02  0.7816164E-02  0.1320468E+00
        -11   -1    0    0    0    0  0.00000000000E+00  0.00000000000E+00  0.45593999997E+02  0.45594000000E+02  0.51100000000E-03 0.  1.
         11   -1    0    0    0    0 -0.00000000000E+00 -0.00000000000E+00 -0.45593999997E+02  0.45594000000E+02  0.51100000000E-03 0. -1.
    9900012    2    1    2    0    0  0.39173905680E+02 -0.21420021917E+02  0.59750502520E+01  0.46142318180E+02  0.10000003820E+02 0.  0.
         12    1    1    2    0    0 -0.39173905680E+02  0.21420021917E+02 -0.59750502520E+01  0.45045681820E+02  0.00000000000E+00 0. -1.
         11    1    3    3    0    0  0.94778965556E+01 -0.87313646741E+01  0.18374024175E+01  0.13017038837E+02  0.51100000000E-03 0. -1.
        -11    1    3    3    0    0  0.28378355846E+02 -0.11918960153E+02  0.52666103680E+01  0.31227069614E+02  0.51100000000E-03 0.  1.
         12    1    3    3    0    0  0.13176532782E+01 -0.76969708945E+00 -0.11289625336E+01  0.18982097285E+01  0.00000000000E+00 0. -1.
</event>
<event>
 7    1  0.2297343E-008  0.4614232E+02  0.7816164E-02  0.1320468E+00
        -11   -1    0    0    0    0  0.00000000000E+00  0.00000000000E+00  0.45593999997E+02  0.45594000000E+02  0.51100000000E-03 0.  1.
         11   -1    0    0    0    0 -0.00000000000E+00 -0.00000000000E+00 -0.45593999997E+02  0.45594000000E+02  0.51100000000E-03 0. -1.
    9900012    2    1    2    0    0 -0.29622176650E+02  0.31384423767E+02  0.12909614899E+02  0.46142316949E+02  0.99999925948E+01 0.  0.
         12    1    1    2    0    0  0.29622176650E+02 -0.31384423767E+02 -0.12909614899E+02  0.45045683051E+02  0.00000000000E+00 0. -1.
         11    1    3    3    0    0 -0.41227790186E+01  0.59743515596E+01 -0.97132251223E+00  0.73234999199E+01  0.51100000000E-03 0. -1.
        -11    1    3    3    0    0 -0.56938601537E+01  0.43194160948E+01  0.43037240274E+01  0.83426278603E+01  0.51100000000E-03 0.  1.
        -12    1    3    3    0    0 -0.19805537478E+02  0.21090656113E+02  0.95772133833E+01  0.30476189169E+02  0.00000000000E+00 0.  1.
</event>
<event>
 7    1  0.2297343E-008  0.4614232E+02  0.7816164E-02  0.1320468E+00
        -11   -1    0    0    0    0  0.00000000000E+00  0.00000000000E+00  0.45593999997E+02  0.45594000000E+02  0.51100000000E-03 0.  1.
         11   -1    0    0    0    0 -0.00000000000E+00 -0.00000000000E+00 -0.45593999997E+02  0.45594000000E+02  0.51100000000E-03 0. -1.
    9900012    2    1    2    0    0  0.43875327266E+01  0.44230481275E+02 -0.73162408113E+01  0.46142319887E+02  0.10000019387E+02 0.  0.
         12    1    1    2    0    0 -0.43875327266E+01 -0.44230481275E+02  0.73162408113E+01  0.45045680113E+02  0.00000000000E+00 0. -1.
         11    1    3    3    0    0  0.49796660422E+01  0.11398220833E+02  0.31318811542E-01  0.12438548677E+02  0.51100000000E-03 0. -1.
        -11    1    3    3    0    0 -0.71141884017E+00  0.86111428567E+01 -0.25818173391E+01  0.90179642436E+01  0.51100000000E-03 0.  1.
         12    1    3    3    0    0  0.11928552458E+00  0.24221117585E+02 -0.47657422837E+01  0.24685806967E+02  0.00000000000E+00 0. -1.
</event>
<event>
 7    1  0.2297343E-008  0.4614232E+02  0.7816164E-02  0.1320468E+00
        -11   -1    0    0    0    0  0.00000000000E+00  0.00000000000E+00  0.45593999997E+02  0.45594000000E+02  0.51100000000E-03 0.  1.
         11   -1    0    0    0    0 -0.00000000000E+00 -0.00000000000E+00 -0.45593999997E+02  0.45594000000E+02  0.51100000000E-03 0. -1.
    9900012    2    1    2    0    0  0.25191076514E+02 -0.22580860700E+02  0.29742694198E+02  0.46142318031E+02  0.10000002460E+02 0.  0.
         12    1    1    2    0    0 -0.25191076514E+02  0.22580860700E+02 -0.29742694198E+02  0.45045681969E+02  0.00000000000E+00 0. -1.
         11    1    3    3    0    0  0.15456219129E+02 -0.11018607304E+02  0.18732007969E+02  0.26668193406E+02  0.51100000000E-03 0.  1.
        -11    1    3    3    0    0  0.35441999784E+01 -0.54365126963E+01  0.16658993277E+01  0.67001675065E+01  0.51100000000E-03 0. -1.
         12    1    3    3    0    0  0.61906574065E+01 -0.61257406991E+01  0.93447869015E+01  0.12773957119E+02  0.00000000000E+00 0. -1.
</event>
<event>
 7    1  0.2297343E-008  0.4614232E+02  0.7816164E-02  0.1320468E+00
        -11   -1    0    0    0    0  0.00000000000E+00  0.00000000000E+00  0.45593999997E+02  0.45594000000E+02  0.51100000000E-03 0.  1.
         11   -1    0    0    0    0 -0.00000000000E+00 -0.00000000000E+00 -0.45593999997E+02  0.45594000000E+02  0.51100000000E-03 0. -1.
    9900012    2    1    2    0    0  0.14924672365E+02  0.74689724371E+01  0.41839958340E+02  0.46142317540E+02  0.99999979799E+01 0.  0.
         12    1    1    2    0    0 -0.14924672365E+02 -0.74689724371E+01 -0.41839958340E+02  0.45045682460E+02  0.00000000000E+00 0. -1.
         11    1    3    3    0    0  0.88795912699E+00 -0.17104779300E+01  0.96166276081E+01  0.98078403828E+01  0.51100000000E-03 0. -1.
        -11    1    3    3    0    0  0.91236606604E+01  0.55456747908E+01  0.20333358191E+02  0.22966086918E+02  0.51100000000E-03 0.  1.
         12    1    3    3    0    0  0.49130525776E+01  0.36337755763E+01  0.11889972540E+02  0.13368390239E+02  0.00000000000E+00 0. -1.
</event>
<event>
 7    1  0.2297343E-008  0.4614233E+02  0.7816164E-02  0.1320468E+00
        -11   -1    0    0    0    0  0.00000000000E+00  0.00000000000E+00  0.45593999997E+02  0.45594000000E+02  0.51100000000E-03 0.  1.
         11   -1    0    0    0    0 -0.00000000000E+00 -0.00000000000E+00 -0.45593999997E+02  0.45594000000E+02  0.51100000000E-03 0. -1.
    9900012    2    1    2    0    0 -0.15353692059E+02  0.16527945721E+02  0.38989783395E+02  0.46142333629E+02  0.10000144693E+02 0.  0.
         12    1    1    2    0    0  0.15353692059E+02 -0.16527945721E+02 -0.38989783395E+02  0.45045666371E+02  0.00000000000E+00 0. -1.
         11    1    3    3    0    0 -0.14735597909E+01  0.37348894136E+01  0.23072113788E+01  0.46307668908E+01  0.51100000000E-03 0. -1.
        -11    1    3    3    0    0 -0.29424403052E+01  0.55436620990E+01  0.13035344422E+02  0.14467561953E+02  0.51100000000E-03 0.  1.
        -12    1    3    3    0    0 -0.10937691963E+02  0.72493942086E+01  0.23647227595E+02  0.27044004785E+02  0.00000000000E+00 0.  1.
</event>
<event>
 7    1  0.2297343E-008  0.4614232E+02  0.7816164E-02  0.1320468E+00
        -11   -1    0    0    0    0  0.00000000000E+00  0.00000000000E+00  0.45593999997E+02  0.45594000000E+02  0.51100000000E-03 0. -1.
         11   -1    0    0    0    0 -0.00000000000E+00 -0.00000000000E+00 -0.45593999997E+02  0.45594000000E+02  0.51100000000E-03 0.  1.
    9900012    2    1    2    0    0  0.35980000258E+00 -0.44310920652E+02 -0.80948375072E+01  0.46142317196E+02  0.99999948429E+01 0.  0.
         12    1    1    2    0    0 -0.35980000258E+00  0.44310920652E+02  0.80948375072E+01  0.45045682804E+02  0.00000000000E+00 0. -1.
         11    1    3    3    0    0 -0.51639836913E+00 -0.20214256947E+00 -0.99992901228E+00  0.11434103309E+01  0.51100000000E-03 0. -1.
        -11    1    3    3    0    0  0.57136093704E+00 -0.25308148321E+01  0.71828058428E+00  0.26921003499E+01  0.51100000000E-03 0.  1.
        -12    1    3    3    0    0  0.30483743466E+00 -0.41577963250E+02 -0.78131890792E+01  0.42306806515E+02  0.00000000000E+00 0.  1.
</event>
<event>
 7    1  0.2297343E-008  0.4614232E+02  0.7816164E-02  0.1320468E+00
        -11   -1    0    0    0    0  0.00000000000E+00  0.00000000000E+00  0.45593999997E+02  0.45594000000E+02  0.51100000000E-03 0.  1.
         11   -1    0    0    0    0 -0.00000000000E+00 -0.00000000000E+00 -0.45593999997E+02  0.45594000000E+02  0.51100000000E-03 0. -1.
    9900012    2    1    2    0    0  0.36656037179E+02 -0.14002811068E+01  0.26143598834E+02  0.46142316424E+02  0.99999878078E+01 0.  0.
         12    1    1    2    0    0 -0.36656037179E+02  0.14002811068E+01 -0.26143598834E+02  0.45045683576E+02  0.00000000000E+00 0. -1.
         11    1    3    3    0    0  0.84666900285E+01 -0.38442024871E+01  0.69375818475E+01  0.11601412627E+02  0.51100000000E-03 0. -1.
        -11    1    3    3    0    0  0.20251835462E+02  0.28654620390E+01  0.16007411637E+02  0.25972773049E+02  0.51100000000E-03 0.  1.
        -12    1    3    3    0    0  0.79375116879E+01 -0.42154065875E+00  0.31986053497E+01  0.85681307475E+01  0.00000000000E+00 0.  1.
</event>
<event>
 7    1  0.2297343E-008  0.4614232E+02  0.7816164E-02  0.1320468E+00
        -11   -1    0    0    0    0  0.00000000000E+00  0.00000000000E+00  0.45593999997E+02  0.45594000000E+02  0.51100000000E-03 0.  1.
         11   -1    0    0    0    0 -0.00000000000E+00 -0.00000000000E+00 -0.45593999997E+02  0.45594000000E+02  0.51100000000E-03 0. -1.
    9900012    2    1    2    0    0  0.16181172733E+02 -0.91847526716E+01  0.41023447745E+02  0.46142319880E+02  0.10000019318E+02 0.  0.
         12    1    1    2    0    0 -0.16181172733E+02  0.91847526716E+01 -0.41023447745E+02  0.45045680120E+02  0.00000000000E+00 0. -1.
         11    1    3    3    0    0 -0.30383285571E+00 -0.13928315139E+01  0.13732146802E+01  0.19793970924E+01  0.51100000000E-03 0. -1.
        -11    1    3    3    0    0  0.16720134878E+02 -0.75692850761E+01  0.39783271828E+02  0.43812848624E+02  0.51100000000E-03 0.  1.
        -12    1    3    3    0    0 -0.23512928872E+00 -0.22263608150E+00 -0.13303876406E+00  0.35007416349E+00  0.00000000000E+00 0.  1.
</event>
<event>
 7    1  0.2297343E-008  0.4614232E+02  0.7816164E-02  0.1320468E+00
        -11   -1    0    0    0    0  0.00000000000E+00  0.00000000000E+00  0.45593999997E+02  0.45594000000E+02  0.51100000000E-03 0.  1.
         11   -1    0    0    0    0 -0.00000000000E+00 -0.00000000000E+00 -0.45593999997E+02  0.45594000000E+02  0.51100000000E-03 0. -1.
    9900012    2    1    2    0    0  0.18505213771E+02  0.23926806446E+02  0.33379313044E+02  0.46142317158E+02  0.99999945036E+01 0.  0.
         12    1    1    2    0    0 -0.18505213771E+02 -0.23926806446E+02 -0.33379313044E+02  0.45045682842E+02  0.00000000000E+00 0. -1.
         11    1    3    3    0    0  0.71845753194E+01  0.10919966559E+02  0.89865730027E+01  0.15862606556E+02  0.51100000000E-03 0. -1.
        -11    1    3    3    0    0  0.63337551642E+01  0.76377092773E+01  0.97767708529E+01  0.13929691528E+02  0.51100000000E-03 0.  1.
         12    1    3    3    0    0  0.49868832876E+01  0.53691306094E+01  0.14615969188E+02  0.16350019074E+02  0.00000000000E+00 0. -1.
</event>
<event>
 7    1  0.2297343E-008  0.4614232E+02  0.7816164E-02  0.1320468E+00
        -11   -1    0    0    0    0  0.00000000000E+00  0.00000000000E+00  0.45593999997E+02  0.45594000000E+02  0.51100000000E-03 0.  1.
         11   -1    0    0    0    0 -0.00000000000E+00 -0.00000000000E+00 -0.45593999997E+02  0.45594000000E+02  0.51100000000E-03 0. -1.
    9900012    2    1    2    0    0 -0.17881487005E+02 -0.13478392515E+02  0.39085788688E+02  0.46142317414E+02  0.99999968312E+01 0.  0.
         12    1    1    2    0    0  0.17881487005E+02  0.13478392515E+02 -0.39085788688E+02  0.45045682586E+02  0.00000000000E+00 0. -1.
         11    1    3    3    0    0 -0.28031845222E+01 -0.26061696137E+01  0.22711690095E+01  0.44506373084E+01  0.51100000000E-03 0. -1.
        -11    1    3    3    0    0 -0.12398615102E+02 -0.63113120949E+01  0.22770364510E+02  0.26684224122E+02  0.51100000000E-03 0.  1.
         12    1    3    3    0    0 -0.26796873802E+01 -0.45609108061E+01  0.14044255169E+02  0.15007455983E+02  0.00000000000E+00 0. -1.
</event>
<event>
 7    1  0.2297343E-008  0.4614232E+02  0.7816164E-02  0.1320468E+00
        -11   -1    0    0    0    0  0.00000000000E+00  0.00000000000E+00  0.45593999997E+02  0.45594000000E+02  0.51100000000E-03 0.  1.
         11   -1    0    0    0    0 -0.00000000000E+00 -0.00000000000E+00 -0.45593999997E+02  0.45594000000E+02  0.51100000000E-03 0. -1.
    9900012    2    1    2    0    0  0.22692878520E+02 -0.55610987003E+01  0.38512606811E+02  0.46142318324E+02  0.10000005130E+02 0.  0.
         12    1    1    2    0    0 -0.22692878520E+02  0.55610987003E+01 -0.38512606811E+02  0.45045681676E+02  0.00000000000E+00 0. -1.
         11    1    3    3    0    0  0.32794303463E+01 -0.45213616347E+01  0.10978325716E+02  0.12317508279E+02  0.51100000000E-03 0. -1.
        -11    1    3    3    0    0  0.82059740274E+01 -0.10001951785E+01  0.95155796286E+01  0.12604945699E+02  0.51100000000E-03 0.  1.
         12    1    3    3    0    0  0.11207474146E+02 -0.39541887161E-01  0.18018701467E+02  0.21219864346E+02  0.00000000000E+00 0. -1.
</event>
<event>
 7    1  0.2297343E-008  0.4614232E+02  0.7816164E-02  0.1320468E+00
        -11   -1    0    0    0    0  0.00000000000E+00  0.00000000000E+00  0.45593999997E+02  0.45594000000E+02  0.51100000000E-03 0. -1.
         11   -1    0    0    0    0 -0.00000000000E+00 -0.00000000000E+00 -0.45593999997E+02  0.45594000000E+02  0.51100000000E-03 0.  1.
    9900012    2    1    2    0    0  0.24680147345E+01  0.41115226916E+02 -0.18236238284E+02  0.46142319099E+02  0.10000012196E+02 0.  0.
         12    1    1    2    0    0 -0.24680147345E+01 -0.41115226916E+02  0.18236238284E+02  0.45045680901E+02  0.00000000000E+00 0. -1.
         11    1    3    3    0    0 -0.16530615390E+01  0.96426243141E+01 -0.68125201301E+01  0.11921545491E+02  0.51100000000E-03 0. -1.
        -11    1    3    3    0    0  0.36201576187E+01  0.13361094749E+02 -0.72556274484E+01  0.15629092233E+02  0.51100000000E-03 0.  1.
         12    1    3    3    0    0  0.50091865485E+00  0.18111507853E+02 -0.41680907056E+01  0.18591681375E+02  0.00000000000E+00 0. -1.
</event>
<event>
 7    1  0.2297343E-008  0.4614232E+02  0.7816164E-02  0.1320468E+00
        -11   -1    0    0    0    0  0.00000000000E+00  0.00000000000E+00  0.45593999997E+02  0.45594000000E+02  0.51100000000E-03 0.  1.
         11   -1    0    0    0    0 -0.00000000000E+00 -0.00000000000E+00 -0.45593999997E+02  0.45594000000E+02  0.51100000000E-03 0. -1.
    9900012    2    1    2    0    0 -0.11762582265E+02  0.43142638137E+02  0.54284413912E+01  0.46142317156E+02  0.99999944850E+01 0.  0.
         12    1    1    2    0    0  0.11762582265E+02 -0.43142638137E+02 -0.54284413912E+01  0.45045682844E+02  0.00000000000E+00 0. -1.
         11    1    3    3    0    0 -0.46220298056E+00  0.19339346399E+01  0.17802092915E+01  0.26688724528E+01  0.51100000000E-03 0. -1.
        -11    1    3    3    0    0  0.79335341513E+00  0.64098449804E+01  0.64295443330E-01  0.64590755128E+01  0.51100000000E-03 0.  1.
        -12    1    3    3    0    0 -0.12093732699E+02  0.34798858516E+02  0.35839366563E+01  0.37014369191E+02  0.00000000000E+00 0.  1.
</event>
<event>
 7    1  0.2297343E-008  0.4614232E+02  0.7816164E-02  0.1320468E+00
        -11   -1    0    0    0    0  0.00000000000E+00  0.00000000000E+00  0.45593999997E+02  0.45594000000E+02  0.51100000000E-03 0.  1.
         11   -1    0    0    0    0 -0.00000000000E+00 -0.00000000000E+00 -0.45593999997E+02  0.45594000000E+02  0.51100000000E-03 0. -1.
    9900012    2    1    2    0    0 -0.94522110833E+01 -0.38398894340E+02  0.21570677674E+02  0.46142317452E+02  0.99999971850E+01 0.  0.
         12    1    1    2    0    0  0.94522110833E+01  0.38398894340E+02 -0.21570677674E+02  0.45045682548E+02  0.00000000000E+00 0. -1.
         11    1    3    3    0    0 -0.24358765990E+01 -0.23622205582E+01  0.25046731858E+01  0.42174599938E+01  0.51100000000E-03 0. -1.
        -11    1    3    3    0    0 -0.59516679282E+01 -0.19153273637E+02  0.74127607846E+01  0.21382686100E+02  0.51100000000E-03 0.  1.
        -12    1    3    3    0    0 -0.10646665561E+01 -0.16883400145E+02  0.11653243703E+02  0.20542171359E+02  0.00000000000E+00 0.  1.
</event>
<event>
 7    1  0.2297343E-008  0.4614232E+02  0.7816164E-02  0.1320468E+00
        -11   -1    0    0    0    0  0.00000000000E+00  0.00000000000E+00  0.45593999997E+02  0.45594000000E+02  0.51100000000E-03 0. -1.
         11   -1    0    0    0    0 -0.00000000000E+00 -0.00000000000E+00 -0.45593999997E+02  0.45594000000E+02  0.51100000000E-03 0.  1.
    9900012    2    1    2    0    0 -0.13898099353E+02  0.38255385472E+02 -0.19299784600E+02  0.46142319088E+02  0.10000012100E+02 0.  0.
         12    1    1    2    0    0  0.13898099353E+02 -0.38255385472E+02  0.19299784600E+02  0.45045680912E+02  0.00000000000E+00 0. -1.
         11    1    3    3    0    0 -0.59746696941E+01  0.16433572430E+02 -0.12756124937E+02  0.21644345784E+02  0.51100000000E-03 0. -1.
        -11    1    3    3    0    0 -0.45041912494E+01  0.16179916076E+02 -0.61617602589E+01  0.17889793536E+02  0.51100000000E-03 0.  1.
         12    1    3    3    0    0 -0.34192384094E+01  0.56418969668E+01 -0.38189940351E+00  0.66081797674E+01  0.00000000000E+00 0. -1.
</event>
<event>
 7    1  0.2297343E-008  0.4614232E+02  0.7816164E-02  0.1320468E+00
        -11   -1    0    0    0    0  0.00000000000E+00  0.00000000000E+00  0.45593999997E+02  0.45594000000E+02  0.51100000000E-03 0.  1.
         11   -1    0    0    0    0 -0.00000000000E+00 -0.00000000000E+00 -0.45593999997E+02  0.45594000000E+02  0.51100000000E-03 0. -1.
    9900012    2    1    2    0    0  0.21280582200E+02 -0.39583703113E+02  0.30628149035E+01  0.46142316899E+02  0.99999921383E+01 0.  0.
         12    1    1    2    0    0 -0.21280582200E+02  0.39583703113E+02 -0.30628149035E+01  0.45045683101E+02  0.00000000000E+00 0. -1.
         11    1    3    3    0    0  0.20996952843E+02 -0.36969851004E+02  0.42817285644E+01  0.42731430022E+02  0.51100000000E-03 0. -1.
        -11    1    3    3    0    0  0.75193548576E+00 -0.21582881479E+01 -0.33229873063E+00  0.23095535092E+01  0.51100000000E-03 0.  1.
         12    1    3    3    0    0 -0.46830612867E+00 -0.45556396085E+00 -0.88661493028E+00  0.11013333679E+01  0.00000000000E+00 0. -1.
</event>
<event>
 7    1  0.2297343E-008  0.4614232E+02  0.7816164E-02  0.1320468E+00
        -11   -1    0    0    0    0  0.00000000000E+00  0.00000000000E+00  0.45593999997E+02  0.45594000000E+02  0.51100000000E-03 0. -1.
         11   -1    0    0    0    0 -0.00000000000E+00 -0.00000000000E+00 -0.45593999997E+02  0.45594000000E+02  0.51100000000E-03 0.  1.
    9900012    2    1    2    0    0 -0.31124697617E+02 -0.18247517678E+02  0.26970250774E+02  0.46142321740E+02  0.10000036279E+02 0.  0.
         12    1    1    2    0    0  0.31124697617E+02  0.18247517678E+02 -0.26970250774E+02  0.45045678260E+02  0.00000000000E+00 0. -1.
         11    1    3    3    0    0 -0.47289007655E+01 -0.53367285366E+01  0.90738993566E+01  0.11540312982E+02  0.51100000000E-03 0. -1.
        -11    1    3    3    0    0 -0.77965986112E+01 -0.54032942904E+01  0.68830198681E+01  0.11720004345E+02  0.51100000000E-03 0.  1.
         12    1    3    3    0    0 -0.18599198240E+02 -0.75074948505E+01  0.11013331549E+02  0.22882004412E+02  0.00000000000E+00 0. -1.
</event>
<event>
 7    1  0.2297343E-008  0.4614232E+02  0.7816164E-02  0.1320468E+00
        -11   -1    0    0    0    0  0.00000000000E+00  0.00000000000E+00  0.45593999997E+02  0.45594000000E+02  0.51100000000E-03 0. -1.
         11   -1    0    0    0    0 -0.00000000000E+00 -0.00000000000E+00 -0.45593999997E+02  0.45594000000E+02  0.51100000000E-03 0.  1.
    9900012    2    1    2    0    0 -0.31868199151E+02  0.30606479257E+02  0.87621217658E+01  0.46142317993E+02  0.10000002113E+02 0.  0.
         12    1    1    2    0    0  0.31868199151E+02 -0.30606479257E+02 -0.87621217658E+01  0.45045682007E+02  0.00000000000E+00 0. -1.
         11    1    3    3    0    0 -0.96062242906E+01  0.40125169197E+01  0.30353615792E+01  0.10844042481E+02  0.51100000000E-03 0.  1.
        -11    1    3    3    0    0 -0.14321487580E-01  0.40164930038E+00 -0.15912724119E+00  0.43226034460E+00  0.51100000000E-03 0. -1.
         12    1    3    3    0    0 -0.22247653373E+02  0.26192313037E+02  0.58858874278E+01  0.34866015167E+02  0.00000000000E+00 0. -1.
</event>
<event>
 7    1  0.2297343E-008  0.4614232E+02  0.7816164E-02  0.1320468E+00
        -11   -1    0    0    0    0  0.00000000000E+00  0.00000000000E+00  0.45593999997E+02  0.45594000000E+02  0.51100000000E-03 0.  1.
         11   -1    0    0    0    0 -0.00000000000E+00 -0.00000000000E+00 -0.45593999997E+02  0.45594000000E+02  0.51100000000E-03 0. -1.
    9900012    2    1    2    0    0 -0.43948738594E+02 -0.95098179159E+01  0.26805135490E+01  0.46142318590E+02  0.10000007557E+02 0.  0.
         12    1    1    2    0    0  0.43948738594E+02  0.95098179159E+01 -0.26805135490E+01  0.45045681410E+02  0.00000000000E+00 0. -1.
         11    1    3    3    0    0 -0.14825635584E+02 -0.73075270276E+01  0.13807093473E+01  0.16586313041E+02  0.51100000000E-03 0.  1.
        -11    1    3    3    0    0 -0.10788714528E+02 -0.12323835824E+01 -0.15742473774E+01  0.10972391969E+02  0.51100000000E-03 0. -1.
        -12    1    3    3    0    0 -0.18334388482E+02 -0.96990730589E+00  0.28740515792E+01  0.18583613580E+02  0.00000000000E+00 0.  1.
</event>
<event>
 7    1  0.2297343E-008  0.4614232E+02  0.7816164E-02  0.1320468E+00
        -11   -1    0    0    0    0  0.00000000000E+00  0.00000000000E+00  0.45593999997E+02  0.45594000000E+02  0.51100000000E-03 0. -1.
         11   -1    0    0    0    0 -0.00000000000E+00 -0.00000000000E+00 -0.45593999997E+02  0.45594000000E+02  0.51100000000E-03 0.  1.
    9900012    2    1    2    0    0  0.16901064942E+02  0.19123323503E+02 -0.37118270344E+02  0.46142317729E+02  0.99999997045E+01 0.  0.
         12    1    1    2    0    0 -0.16901064942E+02 -0.19123323503E+02  0.37118270344E+02  0.45045682271E+02  0.00000000000E+00 0. -1.
         11    1    3    3    0    0  0.23281397390E+01  0.63039323589E+01 -0.11127020109E+02  0.12998860512E+02  0.51100000000E-03 0. -1.
        -11    1    3    3    0    0  0.10404478129E+02  0.12460941582E+02 -0.18945743241E+02  0.24949337014E+02  0.51100000000E-03 0.  1.
        -12    1    3    3    0    0  0.41684470738E+01  0.35844956208E+00 -0.70455069940E+01  0.81941202028E+01  0.00000000000E+00 0.  1.
</event>
<event>
 7    1  0.2297343E-008  0.4614232E+02  0.7816164E-02  0.1320468E+00
        -11   -1    0    0    0    0  0.00000000000E+00  0.00000000000E+00  0.45593999997E+02  0.45594000000E+02  0.51100000000E-03 0.  1.
         11   -1    0    0    0    0 -0.00000000000E+00 -0.00000000000E+00 -0.45593999997E+02  0.45594000000E+02  0.51100000000E-03 0. -1.
    9900012    2    1    2    0    0  0.18553020773E+02 -0.13864947727E+02  0.38634986103E+02  0.46142317561E+02  0.99999981721E+01 0.  0.
         12    1    1    2    0    0 -0.18553020773E+02  0.13864947727E+02 -0.38634986103E+02  0.45045682439E+02  0.00000000000E+00 0. -1.
         11    1    3    3    0    0  0.21571302628E+00 -0.16153725638E+01  0.23926600030E+01  0.28949581656E+01  0.51100000000E-03 0. -1.
        -11    1    3    3    0    0  0.76255022195E+01 -0.10081425395E+02  0.20477248463E+02  0.24064520086E+02  0.51100000000E-03 0.  1.
        -12    1    3    3    0    0  0.10711805527E+02 -0.21681497685E+01  0.15765077636E+02  0.19182839309E+02  0.00000000000E+00 0.  1.
</event>
<event>
 7    1  0.2297343E-008  0.4614232E+02  0.7816164E-02  0.1320468E+00
        -11   -1    0    0    0    0  0.00000000000E+00  0.00000000000E+00  0.45593999997E+02  0.45594000000E+02  0.51100000000E-03 0.  1.
         11   -1    0    0    0    0 -0.00000000000E+00 -0.00000000000E+00 -0.45593999997E+02  0.45594000000E+02  0.51100000000E-03 0. -1.
    9900012    2    1    2    0    0  0.41077759841E+02 -0.18480059600E+02 -0.46751351402E+00  0.46142317352E+02  0.99999962680E+01 0.  0.
         12    1    1    2    0    0 -0.41077759841E+02  0.18480059600E+02  0.46751351402E+00  0.45045682648E+02  0.00000000000E+00 0. -1.
         11    1    3    3    0    0  0.11582142778E+02 -0.27789468959E+01  0.11716419806E+01  0.11968346685E+02  0.51100000000E-03 0.  1.
        -11    1    3    3    0    0  0.44479406066E+01  0.18528112261E+00  0.19914034038E+00  0.44562497541E+01  0.51100000000E-03 0. -1.
         12    1    3    3    0    0  0.25047676456E+02 -0.15886393827E+02 -0.18382958350E+01  0.29717720913E+02  0.00000000000E+00 0. -1.
</event>
<event>
 7    1  0.2297343E-008  0.4614232E+02  0.7816164E-02  0.1320468E+00
        -11   -1    0    0    0    0  0.00000000000E+00  0.00000000000E+00  0.45593999997E+02  0.45594000000E+02  0.51100000000E-03 0.  1.
         11   -1    0    0    0    0 -0.00000000000E+00 -0.00000000000E+00 -0.45593999997E+02  0.45594000000E+02  0.51100000000E-03 0. -1.
    9900012    2    1    2    0    0  0.42157001964E+02  0.11148793542E+01 -0.15832173286E+02  0.46142317837E+02  0.10000000688E+02 0.  0.
         12    1    1    2    0    0 -0.42157001964E+02 -0.11148793542E+01  0.15832173286E+02  0.45045682163E+02  0.00000000000E+00 0. -1.
         11    1    3    3    0    0  0.14270490422E+01  0.76276290586E-01 -0.28382212826E+01  0.31777015832E+01  0.51100000000E-03 0. -1.
        -11    1    3    3    0    0  0.25060378231E+02  0.24694288478E+01 -0.71171072157E+01  0.26168183951E+02  0.51100000000E-03 0.  1.
         12    1    3    3    0    0  0.15669574691E+02 -0.14308257842E+01 -0.58768447879E+01  0.16796432302E+02  0.00000000000E+00 0. -1.
</event>
<event>
 7    1  0.2297343E-008  0.4614232E+02  0.7816164E-02  0.1320468E+00
        -11   -1    0    0    0    0  0.00000000000E+00  0.00000000000E+00  0.45593999997E+02  0.45594000000E+02  0.51100000000E-03 0.  1.
         11   -1    0    0    0    0 -0.00000000000E+00 -0.00000000000E+00 -0.45593999997E+02  0.45594000000E+02  0.51100000000E-03 0. -1.
    9900012    2    1    2    0    0 -0.19356248229E+02 -0.20858735867E+02  0.34919361383E+02  0.46142323105E+02  0.10000048729E+02 0.  0.
         12    1    1    2    0    0  0.19356248229E+02  0.20858735867E+02 -0.34919361383E+02  0.45045676895E+02  0.00000000000E+00 0. -1.
         11    1    3    3    0    0 -0.24637115246E+01  0.64878379238E+00  0.42989496558E+01  0.49971755312E+01  0.51100000000E-03 0. -1.
        -11    1    3    3    0    0 -0.87277061575E+01 -0.89932910583E+01  0.14483255262E+02  0.19152462559E+02  0.51100000000E-03 0.  1.
        -12    1    3    3    0    0 -0.81648305473E+01 -0.12514228602E+02  0.16137156466E+02  0.21992685015E+02  0.00000000000E+00 0.  1.
</event>
<event>
 7    1  0.2297343E-008  0.4614232E+02  0.7816164E-02  0.1320468E+00
        -11   -1    0    0    0    0  0.00000000000E+00  0.00000000000E+00  0.45593999997E+02  0.45594000000E+02  0.51100000000E-03 0.  1.
         11   -1    0    0    0    0 -0.00000000000E+00 -0.00000000000E+00 -0.45593999997E+02  0.45594000000E+02  0.51100000000E-03 0. -1.
    9900012    2    1    2    0    0  0.35450902206E+02  0.25023716438E+02  0.12089690538E+02  0.46142317977E+02  0.10000001970E+02 0.  0.
         12    1    1    2    0    0 -0.35450902206E+02 -0.25023716438E+02 -0.12089690538E+02  0.45045682023E+02  0.00000000000E+00 0. -1.
         11    1    3    3    0    0  0.91678307933E+01  0.83067502679E+01  0.60294190156E+01  0.13762453102E+02  0.51100000000E-03 0. -1.
        -11    1    3    3    0    0  0.23085242911E+02  0.15928595111E+02  0.70891882279E+01  0.28929313377E+02  0.51100000000E-03 0.  1.
         12    1    3    3    0    0  0.31978285018E+01  0.78837105929E+00 -0.10289167051E+01  0.34505514979E+01  0.00000000000E+00 0. -1.
</event>
<event>
 7    1  0.2297343E-008  0.4614232E+02  0.7816164E-02  0.1320468E+00
        -11   -1    0    0    0    0  0.00000000000E+00  0.00000000000E+00  0.45593999997E+02  0.45594000000E+02  0.51100000000E-03 0.  1.
         11   -1    0    0    0    0 -0.00000000000E+00 -0.00000000000E+00 -0.45593999997E+02  0.45594000000E+02  0.51100000000E-03 0. -1.
    9900012    2    1    2    0    0 -0.16066394688E+02 -0.36593472790E+02  0.20782255865E+02  0.46142318210E+02  0.10000004090E+02 0.  0.
         12    1    1    2    0    0  0.16066394688E+02  0.36593472790E+02 -0.20782255865E+02  0.45045681790E+02  0.00000000000E+00 0. -1.
         11    1    3    3    0    0 -0.13571436456E+00 -0.65337124896E+00 -0.16909002886E-01  0.66753168705E+00  0.51100000000E-03 0. -1.
        -11    1    3    3    0    0 -0.62737385000E+01 -0.10160430960E+02  0.19213726671E+01  0.12094867724E+02  0.51100000000E-03 0.  1.
        -12    1    3    3    0    0 -0.96569418237E+01 -0.25779670581E+02  0.18877792201E+02  0.33379918799E+02  0.00000000000E+00 0.  1.
</event>
<event>
 7    1  0.2297343E-008  0.4614232E+02  0.7816164E-02  0.1320468E+00
        -11   -1    0    0    0    0  0.00000000000E+00  0.00000000000E+00  0.45593999997E+02  0.45594000000E+02  0.51100000000E-03 0.  1.
         11   -1    0    0    0    0 -0.00000000000E+00 -0.00000000000E+00 -0.45593999997E+02  0.45594000000E+02  0.51100000000E-03 0. -1.
    9900012    2    1    2    0    0 -0.19568150844E+02 -0.33451200659E+02  0.22961233514E+02  0.46142316550E+02  0.99999889606E+01 0.  0.
         12    1    1    2    0    0  0.19568150844E+02  0.33451200659E+02 -0.22961233514E+02  0.45045683450E+02  0.00000000000E+00 0. -1.
         11    1    3    3    0    0 -0.49230279828E+01 -0.29998567718E+01  0.44328618936E+01  0.72722493081E+01  0.51100000000E-03 0. -1.
        -11    1    3    3    0    0 -0.83926517918E+01 -0.11967781972E+02  0.70059919086E+01  0.16209513636E+02  0.51100000000E-03 0.  1.
        -12    1    3    3    0    0 -0.62524710691E+01 -0.18483561915E+02  0.11522379712E+02  0.22660553606E+02  0.00000000000E+00 0.  1.
</event>
<event>
 7    1  0.2297343E-008  0.4614232E+02  0.7816164E-02  0.1320468E+00
        -11   -1    0    0    0    0  0.00000000000E+00  0.00000000000E+00  0.45593999997E+02  0.45594000000E+02  0.51100000000E-03 0.  1.
         11   -1    0    0    0    0 -0.00000000000E+00 -0.00000000000E+00 -0.45593999997E+02  0.45594000000E+02  0.51100000000E-03 0. -1.
    9900012    2    1    2    0    0 -0.42218239410E+02  0.10974469574E+02  0.11238094488E+02  0.46142317754E+02  0.99999999367E+01 0.  0.
         12    1    1    2    0    0  0.42218239410E+02 -0.10974469574E+02 -0.11238094488E+02  0.45045682246E+02  0.00000000000E+00 0. -1.
         11    1    3    3    0    0 -0.18407533274E+02  0.19256625741E+01  0.63110201002E+01  0.19554396758E+02  0.51100000000E-03 0. -1.
        -11    1    3    3    0    0 -0.10151544004E+02  0.26259574244E+01  0.47037352450E+01  0.11492372408E+02  0.51100000000E-03 0.  1.
         12    1    3    3    0    0 -0.13659162132E+02  0.64228495751E+01  0.22333914251E+00  0.15095548588E+02  0.00000000000E+00 0. -1.
</event>
<event>
 7    1  0.2297343E-008  0.4614232E+02  0.7816164E-02  0.1320468E+00
        -11   -1    0    0    0    0  0.00000000000E+00  0.00000000000E+00  0.45593999997E+02  0.45594000000E+02  0.51100000000E-03 0.  1.
         11   -1    0    0    0    0 -0.00000000000E+00 -0.00000000000E+00 -0.45593999997E+02  0.45594000000E+02  0.51100000000E-03 0. -1.
    9900012    2    1    2    0    0 -0.20343510521E+02  0.27084140654E+02  0.29693510654E+02  0.46142315743E+02  0.99999815954E+01 0.  0.
         12    1    1    2    0    0  0.20343510521E+02 -0.27084140654E+02 -0.29693510654E+02  0.45045684257E+02  0.00000000000E+00 0. -1.
         11    1    3    3    0    0 -0.82059033423E+01  0.94825683039E+01  0.99226048773E+01  0.15991061225E+02  0.51100000000E-03 0. -1.
        -11    1    3    3    0    0 -0.13233997358E+02  0.16497980636E+02  0.17822245937E+02  0.27657810862E+02  0.51100000000E-03 0.  1.
         12    1    3    3    0    0  0.10963901797E+01  0.11035917139E+01  0.19486598388E+01  0.24934436558E+01  0.00000000000E+00 0. -1.
</event>
<event>
 7    1  0.2297343E-008  0.4614232E+02  0.7816164E-02  0.1320468E+00
        -11   -1    0    0    0    0  0.00000000000E+00  0.00000000000E+00  0.45593999997E+02  0.45594000000E+02  0.51100000000E-03 0. -1.
         11   -1    0    0    0    0 -0.00000000000E+00 -0.00000000000E+00 -0.45593999997E+02  0.45594000000E+02  0.51100000000E-03 0.  1.
    9900012    2    1    2    0    0 -0.19406501503E+02  0.31998657484E+02 -0.25071631225E+02  0.46142322364E+02  0.10000041977E+02 0.  0.
         12    1    1    2    0    0  0.19406501503E+02 -0.31998657484E+02  0.25071631225E+02  0.45045677636E+02  0.00000000000E+00 0. -1.
         11    1    3    3    0    0 -0.46578446787E+01  0.11401749954E+02 -0.34722030863E+01  0.12796546941E+02  0.51100000000E-03 0. -1.
        -11    1    3    3    0    0 -0.65813969517E+01  0.10416148130E+02 -0.11322777268E+02  0.16733684980E+02  0.51100000000E-03 0.  1.
         12    1    3    3    0    0 -0.81672598722E+01  0.10180759400E+02 -0.10276650871E+02  0.16612090443E+02  0.00000000000E+00 0. -1.
</event>
<event>
 7    1  0.2297343E-008  0.4614232E+02  0.7816164E-02  0.1320468E+00
        -11   -1    0    0    0    0  0.00000000000E+00  0.00000000000E+00  0.45593999997E+02  0.45594000000E+02  0.51100000000E-03 0.  1.
         11   -1    0    0    0    0 -0.00000000000E+00 -0.00000000000E+00 -0.45593999997E+02  0.45594000000E+02  0.51100000000E-03 0. -1.
    9900012    2    1    2    0    0 -0.17679282580E+02 -0.50666711150E+00  0.41428248821E+02  0.46142317138E+02  0.99999943201E+01 0.  0.
         12    1    1    2    0    0  0.17679282580E+02  0.50666711150E+00 -0.41428248821E+02  0.45045682862E+02  0.00000000000E+00 0. -1.
         11    1    3    3    0    0  0.66730935146E+00  0.87069083422E+00  0.12878097240E+01  0.16917028242E+01  0.51100000000E-03 0. -1.
        -11    1    3    3    0    0 -0.10407456440E+02 -0.92473067690E-02  0.16836992534E+02  0.19793927173E+02  0.51100000000E-03 0.  1.
         12    1    3    3    0    0 -0.79391354915E+01 -0.13681106390E+01  0.23303446563E+02  0.24656687141E+02  0.00000000000E+00 0. -1.
</event>
<event>
 7    1  0.2297343E-008  0.4614232E+02  0.7816164E-02  0.1320468E+00
        -11   -1    0    0    0    0  0.00000000000E+00  0.00000000000E+00  0.45593999997E+02  0.45594000000E+02  0.51100000000E-03 0. -1.
         11   -1    0    0    0    0 -0.00000000000E+00 -0.00000000000E+00 -0.45593999997E+02  0.45594000000E+02  0.51100000000E-03 0.  1.
    9900012    2    1    2    0    0 -0.40712422147E+02 -0.12903329066E+02 -0.14321881617E+02  0.46142317509E+02  0.99999976990E+01 0.  0.
         12    1    1    2    0    0  0.40712422147E+02  0.12903329066E+02  0.14321881617E+02  0.45045682491E+02  0.00000000000E+00 0. -1.
         11    1    3    3    0    0 -0.45506053024E+01 -0.11058794070E+00 -0.22257768598E+01  0.50669834420E+01  0.51100000000E-03 0. -1.
        -11    1    3    3    0    0 -0.16555885726E+02 -0.43350525905E+01 -0.94772513006E+01  0.19562932439E+02  0.51100000000E-03 0.  1.
        -12    1    3    3    0    0 -0.19605931119E+02 -0.84576885344E+01 -0.26188534568E+01  0.21512401628E+02  0.00000000000E+00 0.  1.
</event>
<event>
 7    1  0.2297343E-008  0.4614232E+02  0.7816164E-02  0.1320468E+00
        -11   -1    0    0    0    0  0.00000000000E+00  0.00000000000E+00  0.45593999997E+02  0.45594000000E+02  0.51100000000E-03 0.  1.
         11   -1    0    0    0    0 -0.00000000000E+00 -0.00000000000E+00 -0.45593999997E+02  0.45594000000E+02  0.51100000000E-03 0. -1.
    9900012    2    1    2    0    0 -0.69861108183E+01  0.43338875338E+02  0.10101959007E+02  0.46142318346E+02  0.10000005331E+02 0.  0.
         12    1    1    2    0    0  0.69861108183E+01 -0.43338875338E+02 -0.10101959007E+02  0.45045681654E+02  0.00000000000E+00 0. -1.
         11    1    3    3    0    0 -0.14268329811E+00  0.50914130162E+01  0.42263248871E+01  0.66185094498E+01  0.51100000000E-03 0. -1.
        -11    1    3    3    0    0 -0.34991765595E+01  0.10917525240E+02  0.29288367008E+01  0.11832779835E+02  0.51100000000E-03 0.  1.
         12    1    3    3    0    0 -0.33442509607E+01  0.27329937082E+02  0.29467974193E+01  0.27691029060E+02  0.00000000000E+00 0. -1.
</event>
<event>
 7    1  0.2297343E-008  0.4614232E+02  0.7816164E-02  0.1320468E+00
        -11   -1    0    0    0    0  0.00000000000E+00  0.00000000000E+00  0.45593999997E+02  0.45594000000E+02  0.51100000000E-03 0. -1.
         11   -1    0    0    0    0 -0.00000000000E+00 -0.00000000000E+00 -0.45593999997E+02  0.45594000000E+02  0.51100000000E-03 0.  1.
    9900012    2    1    2    0    0  0.29195295903E+02 -0.27039661551E+02 -0.21109355164E+02  0.46142317909E+02  0.10000001345E+02 0.  0.
         12    1    1    2    0    0 -0.29195295903E+02  0.27039661551E+02  0.21109355164E+02  0.45045682091E+02  0.00000000000E+00 0. -1.
         11    1    3    3    0    0  0.30084856846E+01 -0.50880635363E+01 -0.33271228067E+01  0.67830025133E+01  0.51100000000E-03 0. -1.
        -11    1    3    3    0    0  0.10683710905E+02 -0.11175101302E+02 -0.39589080197E+01  0.15959245621E+02  0.51100000000E-03 0.  1.
        -12    1    3    3    0    0  0.15503099313E+02 -0.10776496713E+02 -0.13823324337E+02  0.23400069774E+02  0.00000000000E+00 0.  1.
</event>
<event>
 7    1  0.2297343E-008  0.4614232E+02  0.7816164E-02  0.1320468E+00
        -11   -1    0    0    0    0  0.00000000000E+00  0.00000000000E+00  0.45593999997E+02  0.45594000000E+02  0.51100000000E-03 0.  1.
         11   -1    0    0    0    0 -0.00000000000E+00 -0.00000000000E+00 -0.45593999997E+02  0.45594000000E+02  0.51100000000E-03 0. -1.
    9900012    2    1    2    0    0 -0.61052466564E+01  0.34173526282E+02  0.28705565698E+02  0.46142318328E+02  0.10000005166E+02 0.  0.
         12    1    1    2    0    0  0.61052466564E+01 -0.34173526282E+02 -0.28705565698E+02  0.45045681672E+02  0.00000000000E+00 0. -1.
         11    1    3    3    0    0 -0.13985666194E+01  0.18835726833E+02  0.11413323006E+02  0.22068179268E+02  0.51100000000E-03 0. -1.
        -11    1    3    3    0    0 -0.16647861923E+01  0.40177725856E+01  0.19488857347E+01  0.47657282217E+01  0.51100000000E-03 0.  1.
        -12    1    3    3    0    0 -0.30418938447E+01  0.11320026864E+02  0.15343356957E+02  0.19308410837E+02  0.00000000000E+00 0.  1.
</event>
<event>
 7    1  0.2297343E-008  0.4614232E+02  0.7816164E-02  0.1320468E+00
        -11   -1    0    0    0    0  0.00000000000E+00  0.00000000000E+00  0.45593999997E+02  0.45594000000E+02  0.51100000000E-03 0. -1.
         11   -1    0    0    0    0 -0.00000000000E+00 -0.00000000000E+00 -0.45593999997E+02  0.45594000000E+02  0.51100000000E-03 0.  1.
    9900012    2    1    2    0    0  0.31732455370E+02 -0.63718193510E+01 -0.31329931480E+02  0.46142318607E+02  0.10000007710E+02 0.  0.
         12    1    1    2    0    0 -0.31732455370E+02  0.63718193510E+01  0.31329931480E+02  0.45045681393E+02  0.00000000000E+00 0. -1.
         11    1    3    3    0    0 -0.66185003171E-02  0.32469251312E+00  0.16474060736E+00  0.36415485917E+00  0.51100000000E-03 0. -1.
        -11    1    3    3    0    0  0.46864246244E-02 -0.17558723890E+00  0.32407891526E+00  0.36861937751E+00  0.51100000000E-03 0.  1.
        -12    1    3    3    0    0  0.31734387446E+02 -0.65209246252E+01 -0.31818751003E+02  0.45409544370E+02  0.00000000000E+00 0.  1.
</event>
<event>
 7    1  0.2297343E-008  0.4614232E+02  0.7816164E-02  0.1320468E+00
        -11   -1    0    0    0    0  0.00000000000E+00  0.00000000000E+00  0.45593999997E+02  0.45594000000E+02  0.51100000000E-03 0.  1.
         11   -1    0    0    0    0 -0.00000000000E+00 -0.00000000000E+00 -0.45593999997E+02  0.45594000000E+02  0.51100000000E-03 0. -1.
    9900012    2    1    2    0    0  0.25147352303E+02 -0.37178251795E+02 -0.38081206590E+01  0.46142317439E+02  0.99999970663E+01 0.  0.
         12    1    1    2    0    0 -0.25147352303E+02  0.37178251795E+02  0.38081206590E+01  0.45045682561E+02  0.00000000000E+00 0. -1.
         11    1    3    3    0    0  0.12568656810E+00 -0.45102319431E+01 -0.15893649487E+01  0.47837297683E+01  0.51100000000E-03 0. -1.
        -11    1    3    3    0    0  0.62978791163E+01 -0.10613870039E+02 -0.13483855518E+01  0.12415138438E+02  0.51100000000E-03 0.  1.
         12    1    3    3    0    0  0.18723786619E+02 -0.22054149813E+02 -0.87037015850E+00  0.28943449233E+02  0.00000000000E+00 0. -1.
</event>
<event>
 7    1  0.2297343E-008  0.4614232E+02  0.7816164E-02  0.1320468E+00
        -11   -1    0    0    0    0  0.00000000000E+00  0.00000000000E+00  0.45593999997E+02  0.45594000000E+02  0.51100000000E-03 0.  1.
         11   -1    0    0    0    0 -0.00000000000E+00 -0.00000000000E+00 -0.45593999997E+02  0.45594000000E+02  0.51100000000E-03 0. -1.
    9900012    2    1    2    0    0 -0.16042064163E+02  0.39619931407E+02 -0.14213607710E+02  0.46142318393E+02  0.10000005761E+02 0.  0.
         12    1    1    2    0    0  0.16042064163E+02 -0.39619931407E+02  0.14213607710E+02  0.45045681607E+02  0.00000000000E+00 0. -1.
         11    1    3    3    0    0 -0.26611175892E+01  0.22116624939E+01 -0.20132814747E+01  0.40032861961E+01  0.51100000000E-03 0. -1.
        -11    1    3    3    0    0 -0.10994172317E+02  0.26335443101E+02 -0.11570031785E+02  0.30794366758E+02  0.51100000000E-03 0.  1.
        -12    1    3    3    0    0 -0.23867742568E+01  0.11072825812E+02 -0.63029444996E+00  0.11344665439E+02  0.00000000000E+00 0.  1.
</event>
<event>
 7    1  0.2297343E-008  0.4614232E+02  0.7816164E-02  0.1320468E+00
        -11   -1    0    0    0    0  0.00000000000E+00  0.00000000000E+00  0.45593999997E+02  0.45594000000E+02  0.51100000000E-03 0.  1.
         11   -1    0    0    0    0 -0.00000000000E+00 -0.00000000000E+00 -0.45593999997E+02  0.45594000000E+02  0.51100000000E-03 0. -1.
    9900012    2    1    2    0    0  0.16777046399E+02  0.31285537448E+02  0.27728309679E+02  0.46142319886E+02  0.10000019374E+02 0.  0.
         12    1    1    2    0    0 -0.16777046399E+02 -0.31285537448E+02 -0.27728309679E+02  0.45045680114E+02  0.00000000000E+00 0. -1.
         11    1    3    3    0    0  0.13883277858E+01  0.80489247579E+01  0.57353229339E+01  0.99803092746E+01  0.51100000000E-03 0. -1.
        -11    1    3    3    0    0  0.10452356248E+02  0.10820560132E+02  0.14235342021E+02  0.20711862191E+02  0.51100000000E-03 0.  1.
        -12    1    3    3    0    0  0.49363623647E+01  0.12416052559E+02  0.77576447239E+01  0.15450148420E+02  0.00000000000E+00 0.  1.
</event>
<event>
 7    1  0.2297343E-008  0.4614232E+02  0.7816164E-02  0.1320468E+00
        -11   -1    0    0    0    0  0.00000000000E+00  0.00000000000E+00  0.45593999997E+02  0.45594000000E+02  0.51100000000E-03 0. -1.
         11   -1    0    0    0    0 -0.00000000000E+00 -0.00000000000E+00 -0.45593999997E+02  0.45594000000E+02  0.51100000000E-03 0.  1.
    9900012    2    1    2    0    0  0.13932956022E+02 -0.27344823278E+02 -0.32973426431E+02  0.46142317918E+02  0.10000001434E+02 0.  0.
         12    1    1    2    0    0 -0.13932956022E+02  0.27344823278E+02  0.32973426431E+02  0.45045682082E+02  0.00000000000E+00 0. -1.
         11    1    3    3    0    0  0.57008409276E+01 -0.13658895815E+02 -0.12220953679E+02  0.19194184829E+02  0.51100000000E-03 0. -1.
        -11    1    3    3    0    0  0.82369695702E+01 -0.13608771766E+02 -0.17326737556E+02  0.23521525700E+02  0.51100000000E-03 0.  1.
        -12    1    3    3    0    0 -0.48544761937E-02 -0.77155697347E-01 -0.34257351954E+01  0.34266073887E+01  0.00000000000E+00 0.  1.
</event>
<event>
 7    1  0.2297343E-008  0.4614232E+02  0.7816164E-02  0.1320468E+00
        -11   -1    0    0    0    0  0.00000000000E+00  0.00000000000E+00  0.45593999997E+02  0.45594000000E+02  0.51100000000E-03 0.  1.
         11   -1    0    0    0    0 -0.00000000000E+00 -0.00000000000E+00 -0.45593999997E+02  0.45594000000E+02  0.51100000000E-03 0. -1.
    9900012    2    1    2    0    0  0.13883577118E+01  0.43726793005E+02  0.10730964050E+02  0.46142317042E+02  0.99999934462E+01 0.  0.
         12    1    1    2    0    0 -0.13883577118E+01 -0.43726793005E+02 -0.10730964050E+02  0.45045682958E+02  0.00000000000E+00 0. -1.
         11    1    3    3    0    0 -0.16232539781E+00  0.40852968938E+01  0.21641356529E+01  0.46259575907E+01  0.51100000000E-03 0. -1.
        -11    1    3    3    0    0 -0.19255833745E+01  0.32786181917E+02  0.80371564040E+01  0.33811794973E+02  0.51100000000E-03 0.  1.
         12    1    3    3    0    0  0.34762664840E+01  0.68553141949E+01  0.52967199316E+00  0.77045644782E+01  0.00000000000E+00 0. -1.
</event>
<event>
 7    1  0.2297343E-008  0.4614232E+02  0.7816164E-02  0.1320468E+00
        -11   -1    0    0    0    0  0.00000000000E+00  0.00000000000E+00  0.45593999997E+02  0.45594000000E+02  0.51100000000E-03 0. -1.
         11   -1    0    0    0    0 -0.00000000000E+00 -0.00000000000E+00 -0.45593999997E+02  0.45594000000E+02  0.51100000000E-03 0.  1.
    9900012    2    1    2    0    0 -0.32219348750E+02 -0.19629219755E+02 -0.24611395124E+02  0.46142317942E+02  0.10000001652E+02 0.  0.
         12    1    1    2    0    0  0.32219348750E+02  0.19629219755E+02  0.24611395124E+02  0.45045682058E+02  0.00000000000E+00 0. -1.
         11    1    3    3    0    0 -0.27105502403E+01 -0.31088254904E+01 -0.59967829622E+01  0.72782748431E+01  0.51100000000E-03 0. -1.
        -11    1    3    3    0    0 -0.16007647559E+02 -0.11506335710E+02 -0.10741638173E+02  0.22450463976E+02  0.51100000000E-03 0.  1.
         12    1    3    3    0    0 -0.13501150951E+02 -0.50140585540E+01 -0.78729739891E+01  0.16413579123E+02  0.00000000000E+00 0. -1.
</event>
<event>
 7    1  0.2297343E-008  0.4614232E+02  0.7816164E-02  0.1320468E+00
        -11   -1    0    0    0    0  0.00000000000E+00  0.00000000000E+00  0.45593999997E+02  0.45594000000E+02  0.51100000000E-03 0.  1.
         11   -1    0    0    0    0 -0.00000000000E+00 -0.00000000000E+00 -0.45593999997E+02  0.45594000000E+02  0.51100000000E-03 0. -1.
    9900012    2    1    2    0    0 -0.32629968743E+02  0.12172044718E+02  0.28569915633E+02  0.46142316388E+02  0.99999874796E+01 0.  0.
         12    1    1    2    0    0  0.32629968743E+02 -0.12172044718E+02 -0.28569915633E+02  0.45045683612E+02  0.00000000000E+00 0. -1.
         11    1    3    3    0    0 -0.61570811636E+01  0.23329013782E+01  0.22152919045E+01  0.69469126797E+01  0.51100000000E-03 0. -1.
        -11    1    3    3    0    0 -0.23444381347E+02  0.92864866452E+01  0.20184907772E+02  0.32300284101E+02  0.51100000000E-03 0.  1.
         12    1    3    3    0    0 -0.30285062321E+01  0.55265669450E+00  0.61697159561E+01  0.68951196073E+01  0.00000000000E+00 0. -1.
</event>
<event>
 7    1  0.2297343E-008  0.4614232E+02  0.7816164E-02  0.1320468E+00
        -11   -1    0    0    0    0  0.00000000000E+00  0.00000000000E+00  0.45593999997E+02  0.45594000000E+02  0.51100000000E-03 0.  1.
         11   -1    0    0    0    0 -0.00000000000E+00 -0.00000000000E+00 -0.45593999997E+02  0.45594000000E+02  0.51100000000E-03 0. -1.
    9900012    2    1    2    0    0  0.26258498968E+02 -0.11097769069E+02  0.34877562776E+02  0.46142316172E+02  0.99999855078E+01 0.  0.
         12    1    1    2    0    0 -0.26258498968E+02  0.11097769069E+02 -0.34877562776E+02  0.45045683828E+02  0.00000000000E+00 0. -1.
         11    1    3    3    0    0  0.11668019305E+02 -0.85307935400E+01  0.13284723084E+02  0.19631632143E+02  0.51100000000E-03 0. -1.
        -11    1    3    3    0    0  0.48099506687E+00  0.71189367250E+00  0.83309226045E+00  0.11967421739E+01  0.51100000000E-03 0.  1.
        -12    1    3    3    0    0  0.14109484596E+02 -0.32788692016E+01  0.20759747432E+02  0.25313941855E+02  0.00000000000E+00 0.  1.
</event>
<event>
 7    1  0.2297343E-008  0.4614232E+02  0.7816164E-02  0.1320468E+00
        -11   -1    0    0    0    0  0.00000000000E+00  0.00000000000E+00  0.45593999997E+02  0.45594000000E+02  0.51100000000E-03 0.  1.
         11   -1    0    0    0    0 -0.00000000000E+00 -0.00000000000E+00 -0.45593999997E+02  0.45594000000E+02  0.51100000000E-03 0. -1.
    9900012    2    1    2    0    0  0.29716528001E+02  0.94481416649E+01  0.32508062383E+02  0.46142317218E+02  0.99999950481E+01 0.  0.
         12    1    1    2    0    0 -0.29716528001E+02 -0.94481416649E+01 -0.32508062383E+02  0.45045682782E+02  0.00000000000E+00 0. -1.
         11    1    3    3    0    0  0.16415847542E+02  0.35116623898E+01  0.15484419418E+02  0.22838105619E+02  0.51100000000E-03 0. -1.
        -11    1    3    3    0    0 -0.63351682395E+00 -0.23197887708E+00  0.79169277654E+00  0.10401612756E+01  0.51100000000E-03 0.  1.
        -12    1    3    3    0    0  0.13934197283E+02  0.61684581521E+01  0.16231950188E+02  0.22264050324E+02  0.00000000000E+00 0.  1.
</event>
<event>
 7    1  0.2297343E-008  0.4614232E+02  0.7816164E-02  0.1320468E+00
        -11   -1    0    0    0    0  0.00000000000E+00  0.00000000000E+00  0.45593999997E+02  0.45594000000E+02  0.51100000000E-03 0.  1.
         11   -1    0    0    0    0 -0.00000000000E+00 -0.00000000000E+00 -0.45593999997E+02  0.45594000000E+02  0.51100000000E-03 0. -1.
    9900012    2    1    2    0    0 -0.10543282150E+02  0.41881011156E+02  0.12803647950E+02  0.46142319910E+02  0.10000019594E+02 0.  0.
         12    1    1    2    0    0  0.10543282150E+02 -0.41881011156E+02 -0.12803647950E+02  0.45045680090E+02  0.00000000000E+00 0. -1.
         11    1    3    3    0    0 -0.55158834507E+01  0.10556161240E+02  0.39051649105E+01  0.12534265978E+02  0.51100000000E-03 0. -1.
        -11    1    3    3    0    0 -0.57003944473E+01  0.26604865871E+02  0.55156248214E+01  0.27762123519E+02  0.51100000000E-03 0.  1.
        -12    1    3    3    0    0  0.67299574811E+00  0.47199840446E+01  0.33828582185E+01  0.58459304123E+01  0.00000000000E+00 0.  1.
</event>
<event>
 7    1  0.2297343E-008  0.4614232E+02  0.7816164E-02  0.1320468E+00
        -11   -1    0    0    0    0  0.00000000000E+00  0.00000000000E+00  0.45593999997E+02  0.45594000000E+02  0.51100000000E-03 0. -1.
         11   -1    0    0    0    0 -0.00000000000E+00 -0.00000000000E+00 -0.45593999997E+02  0.45594000000E+02  0.51100000000E-03 0.  1.
    9900012    2    1    2    0    0  0.30228258123E+02 -0.33291663777E+02  0.26515757118E+01  0.46142319631E+02  0.10000017051E+02 0.  0.
         12    1    1    2    0    0 -0.30228258123E+02  0.33291663777E+02 -0.26515757118E+01  0.45045680369E+02  0.00000000000E+00 0. -1.
         11    1    3    3    0    0  0.15612146183E+02 -0.19423520688E+02 -0.29863253514E+01  0.25098414367E+02  0.51100000000E-03 0.  1.
        -11    1    3    3    0    0  0.31714920867E+01 -0.43728068319E+01  0.13724849553E+01  0.55734654264E+01  0.51100000000E-03 0. -1.
        -12    1    3    3    0    0  0.11444619853E+02 -0.94953362570E+01  0.42654161079E+01  0.15470439838E+02  0.00000000000E+00 0.  1.
</event>
<event>
 7    1  0.2297343E-008  0.4614232E+02  0.7816164E-02  0.1320468E+00
        -11   -1    0    0    0    0  0.00000000000E+00  0.00000000000E+00  0.45593999997E+02  0.45594000000E+02  0.51100000000E-03 0. -1.
         11   -1    0    0    0    0 -0.00000000000E+00 -0.00000000000E+00 -0.45593999997E+02  0.45594000000E+02  0.51100000000E-03 0.  1.
    9900012    2    1    2    0    0  0.42414866588E+02  0.64724805226E+01 -0.13718584428E+02  0.46142317959E+02  0.10000001809E+02 0.  0.
         12    1    1    2    0    0 -0.42414866588E+02 -0.64724805226E+01  0.13718584428E+02  0.45045682041E+02  0.00000000000E+00 0. -1.
         11    1    3    3    0    0  0.90870585020E+01  0.18870559076E+01  0.72590143854E+00  0.93092720111E+01  0.51100000000E-03 0. -1.
        -11    1    3    3    0    0  0.93187764573E+01 -0.52712322561E+00 -0.41385905362E+01  0.10210062950E+02  0.51100000000E-03 0.  1.
        -12    1    3    3    0    0  0.24009031629E+02  0.51125478406E+01 -0.10305895331E+02  0.26622982998E+02  0.00000000000E+00 0.  1.
</event>
<event>
 7    1  0.2297343E-008  0.4614232E+02  0.7816164E-02  0.1320468E+00
        -11   -1    0    0    0    0  0.00000000000E+00  0.00000000000E+00  0.45593999997E+02  0.45594000000E+02  0.51100000000E-03 0. -1.
         11   -1    0    0    0    0 -0.00000000000E+00 -0.00000000000E+00 -0.45593999997E+02  0.45594000000E+02  0.51100000000E-03 0.  1.
    9900012    2    1    2    0    0 -0.32809605326E+02  0.61672945626E+01 -0.30242482120E+02  0.46142318202E+02  0.10000004022E+02 0.  0.
         12    1    1    2    0    0  0.32809605326E+02 -0.61672945626E+01  0.30242482120E+02  0.45045681798E+02  0.00000000000E+00 0. -1.
         11    1    3    3    0    0 -0.80253122681E+01  0.11074228230E+01 -0.75719370882E+01  0.11089015008E+02  0.51100000000E-03 0. -1.
        -11    1    3    3    0    0 -0.16919892151E+02 -0.64583949122E+00 -0.15745096771E+02  0.23121590162E+02  0.51100000000E-03 0.  1.
         12    1    3    3    0    0 -0.78644009073E+01  0.57057112307E+01 -0.69254482608E+01  0.11931713033E+02  0.00000000000E+00 0. -1.
</event>
<event>
 7    1  0.2297343E-008  0.4614232E+02  0.7816164E-02  0.1320468E+00
        -11   -1    0    0    0    0  0.00000000000E+00  0.00000000000E+00  0.45593999997E+02  0.45594000000E+02  0.51100000000E-03 0.  1.
         11   -1    0    0    0    0 -0.00000000000E+00 -0.00000000000E+00 -0.45593999997E+02  0.45594000000E+02  0.51100000000E-03 0. -1.
    9900012    2    1    2    0    0  0.12827640319E+02  0.21563084622E+01  0.43126737397E+02  0.46142317622E+02  0.99999987323E+01 0.  0.
         12    1    1    2    0    0 -0.12827640319E+02 -0.21563084622E+01 -0.43126737397E+02  0.45045682378E+02  0.00000000000E+00 0. -1.
         11    1    3    3    0    0  0.41351487972E+01 -0.16372362381E+01  0.99975647029E+01  0.10942179779E+02  0.51100000000E-03 0. -1.
        -11    1    3    3    0    0  0.51183403561E+01 -0.16347795063E+01  0.16095379198E+02  0.16968533933E+02  0.51100000000E-03 0.  1.
         12    1    3    3    0    0  0.35741511659E+01  0.54283242067E+01  0.17033793496E+02  0.18231603910E+02  0.00000000000E+00 0. -1.
</event>
<event>
 7    1  0.2297343E-008  0.4614233E+02  0.7816164E-02  0.1320468E+00
        -11   -1    0    0    0    0  0.00000000000E+00  0.00000000000E+00  0.45593999997E+02  0.45594000000E+02  0.51100000000E-03 0.  1.
         11   -1    0    0    0    0 -0.00000000000E+00 -0.00000000000E+00 -0.45593999997E+02  0.45594000000E+02  0.51100000000E-03 0. -1.
    9900012    2    1    2    0    0  0.23469869085E+02 -0.32381703450E+02  0.20729282462E+02  0.46142327349E+02  0.10000087427E+02 0.  0.
         12    1    1    2    0    0 -0.23469869085E+02  0.32381703450E+02 -0.20729282462E+02  0.45045672651E+02  0.00000000000E+00 0. -1.
         11    1    3    3    0    0  0.10822507301E+02 -0.10318588257E+02  0.11180473157E+02  0.18670910748E+02  0.51100000000E-03 0. -1.
        -11    1    3    3    0    0  0.49924644955E+01 -0.12177897378E+02  0.60702412412E+01  0.14493919941E+02  0.51100000000E-03 0.  1.
         12    1    3    3    0    0  0.76548972889E+01 -0.98852178157E+01  0.34785680645E+01  0.12977496660E+02  0.00000000000E+00 0. -1.
</event>
<event>
 7    1  0.2297343E-008  0.4614232E+02  0.7816164E-02  0.1320468E+00
        -11   -1    0    0    0    0  0.00000000000E+00  0.00000000000E+00  0.45593999997E+02  0.45594000000E+02  0.51100000000E-03 0.  1.
         11   -1    0    0    0    0 -0.00000000000E+00 -0.00000000000E+00 -0.45593999997E+02  0.45594000000E+02  0.51100000000E-03 0. -1.
    9900012    2    1    2    0    0  0.11678972906E+02  0.42981882197E+02 -0.67285116512E+01  0.46142317917E+02  0.10000001421E+02 0.  0.
         12    1    1    2    0    0 -0.11678972906E+02 -0.42981882197E+02  0.67285116512E+01  0.45045682083E+02  0.00000000000E+00 0. -1.
         11    1    3    3    0    0  0.40501622014E+01  0.19315640326E+02 -0.30515979581E+00  0.19738057094E+02  0.51100000000E-03 0. -1.
        -11    1    3    3    0    0 -0.23093809735E-01  0.16764536713E+01  0.10173540904E+01  0.19611322858E+01  0.51100000000E-03 0.  1.
        -12    1    3    3    0    0  0.76519045139E+01  0.21989788199E+02 -0.74407059458E+01  0.24443128537E+02  0.00000000000E+00 0.  1.
</event>
<event>
 7    1  0.2297343E-008  0.4614232E+02  0.7816164E-02  0.1320468E+00
        -11   -1    0    0    0    0  0.00000000000E+00  0.00000000000E+00  0.45593999997E+02  0.45594000000E+02  0.51100000000E-03 0. -1.
         11   -1    0    0    0    0 -0.00000000000E+00 -0.00000000000E+00 -0.45593999997E+02  0.45594000000E+02  0.51100000000E-03 0.  1.
    9900012    2    1    2    0    0  0.23103528516E+02  0.38160848451E+02 -0.62522047487E+01  0.46142318202E+02  0.10000004021E+02 0.  0.
         12    1    1    2    0    0 -0.23103528516E+02 -0.38160848451E+02  0.62522047487E+01  0.45045681798E+02  0.00000000000E+00 0. -1.
         11    1    3    3    0    0  0.10882302823E+02  0.15403418651E+02  0.95495254778E+00  0.18883902020E+02  0.51100000000E-03 0.  1.
        -11    1    3    3    0    0  0.64131119165E+01  0.70199361176E+01 -0.28633825699E+01  0.99300789298E+01  0.51100000000E-03 0. -1.
        -12    1    3    3    0    0  0.58081137765E+01  0.15737493683E+02 -0.43437747266E+01  0.17328337252E+02  0.00000000000E+00 0.  1.
</event>
<event>
 7    1  0.2297343E-008  0.4614232E+02  0.7816164E-02  0.1320468E+00
        -11   -1    0    0    0    0  0.00000000000E+00  0.00000000000E+00  0.45593999997E+02  0.45594000000E+02  0.51100000000E-03 0.  1.
         11   -1    0    0    0    0 -0.00000000000E+00 -0.00000000000E+00 -0.45593999997E+02  0.45594000000E+02  0.51100000000E-03 0. -1.
    9900012    2    1    2    0    0  0.32400680049E+02  0.12334854653E+01  0.31269599609E+02  0.46142318589E+02  0.10000007552E+02 0.  0.
         12    1    1    2    0    0 -0.32400680049E+02 -0.12334854653E+01 -0.31269599609E+02  0.45045681411E+02  0.00000000000E+00 0. -1.
         11    1    3    3    0    0  0.99654305611E+01  0.32720166778E+01  0.10065450038E+02  0.14537165616E+02  0.51100000000E-03 0. -1.
        -11    1    3    3    0    0  0.14077726861E+02 -0.57510048040E-01  0.90989346943E+01  0.16762348100E+02  0.51100000000E-03 0.  1.
         12    1    3    3    0    0  0.83575226269E+01 -0.19810211645E+01  0.12105214877E+02  0.14842804874E+02  0.00000000000E+00 0. -1.
</event>
<event>
 7    1  0.2297343E-008  0.4614232E+02  0.7816164E-02  0.1320468E+00
        -11   -1    0    0    0    0  0.00000000000E+00  0.00000000000E+00  0.45593999997E+02  0.45594000000E+02  0.51100000000E-03 0.  1.
         11   -1    0    0    0    0 -0.00000000000E+00 -0.00000000000E+00 -0.45593999997E+02  0.45594000000E+02  0.51100000000E-03 0. -1.
    9900012    2    1    2    0    0  0.35768207832E+02  0.38472356337E+01  0.27109916970E+02  0.46142317503E+02  0.99999976462E+01 0.  0.
         12    1    1    2    0    0 -0.35768207832E+02 -0.38472356337E+01 -0.27109916970E+02  0.45045682497E+02  0.00000000000E+00 0. -1.
         11    1    3    3    0    0  0.63074547104E+01  0.16953985753E+01  0.16367337006E+01  0.67332947894E+01  0.51100000000E-03 0. -1.
        -11    1    3    3    0    0  0.76454559516E+01 -0.16395415494E+01  0.52236069929E+01  0.94035718468E+01  0.51100000000E-03 0.  1.
        -12    1    3    3    0    0  0.21815297170E+02  0.37913786079E+01  0.20249576277E+02  0.30005450867E+02  0.00000000000E+00 0.  1.
</event>
<event>
 7    1  0.2297343E-008  0.4614232E+02  0.7816164E-02  0.1320468E+00
        -11   -1    0    0    0    0  0.00000000000E+00  0.00000000000E+00  0.45593999997E+02  0.45594000000E+02  0.51100000000E-03 0.  1.
         11   -1    0    0    0    0 -0.00000000000E+00 -0.00000000000E+00 -0.45593999997E+02  0.45594000000E+02  0.51100000000E-03 0. -1.
    9900012    2    1    2    0    0 -0.30048255210E+02 -0.32551082933E+02  0.81635024524E+01  0.46142318592E+02  0.10000007573E+02 0.  0.
         12    1    1    2    0    0  0.30048255210E+02  0.32551082933E+02 -0.81635024524E+01  0.45045681408E+02  0.00000000000E+00 0. -1.
         11    1    3    3    0    0 -0.54841798437E+01 -0.32196686712E+01 -0.70430371720E+00  0.63983231317E+01  0.51100000000E-03 0. -1.
        -11    1    3    3    0    0 -0.18013810997E+02 -0.17468367428E+02  0.44023118725E+01  0.25475902287E+02  0.51100000000E-03 0.  1.
        -12    1    3    3    0    0 -0.65502643691E+01 -0.11863046833E+02  0.44654942971E+01  0.14268093173E+02  0.00000000000E+00 0.  1.
</event>
<event>
 7    1  0.2297343E-008  0.4614232E+02  0.7816164E-02  0.1320468E+00
        -11   -1    0    0    0    0  0.00000000000E+00  0.00000000000E+00  0.45593999997E+02  0.45594000000E+02  0.51100000000E-03 0. -1.
         11   -1    0    0    0    0 -0.00000000000E+00 -0.00000000000E+00 -0.45593999997E+02  0.45594000000E+02  0.51100000000E-03 0.  1.
    9900012    2    1    2    0    0  0.24873883537E+02  0.36808220430E+02  0.74537467922E+01  0.46142317469E+02  0.99999973402E+01 0.  0.
         12    1    1    2    0    0 -0.24873883537E+02 -0.36808220430E+02 -0.74537467922E+01  0.45045682531E+02  0.00000000000E+00 0. -1.
         11    1    3    3    0    0  0.28571258260E+01  0.14298186638E+01 -0.10150307181E+01  0.33522883255E+01  0.51100000000E-03 0. -1.
        -11    1    3    3    0    0  0.16781430151E+02  0.22900702978E+02  0.51017503895E+01  0.28845908758E+02  0.51100000000E-03 0.  1.
         12    1    3    3    0    0  0.52353275603E+01  0.12477698787E+02  0.33670271209E+01  0.13944120386E+02  0.00000000000E+00 0. -1.
</event>
<event>
 7    1  0.2297343E-008  0.4614232E+02  0.7816164E-02  0.1320468E+00
        -11   -1    0    0    0    0  0.00000000000E+00  0.00000000000E+00  0.45593999997E+02  0.45594000000E+02  0.51100000000E-03 0.  1.
         11   -1    0    0    0    0 -0.00000000000E+00 -0.00000000000E+00 -0.45593999997E+02  0.45594000000E+02  0.51100000000E-03 0. -1.
    9900012    2    1    2    0    0 -0.10470360995E+02 -0.42222024861E+02  0.11695543642E+02  0.46142316701E+02  0.99999903354E+01 0.  0.
         12    1    1    2    0    0  0.10470360995E+02  0.42222024861E+02 -0.11695543642E+02  0.45045683299E+02  0.00000000000E+00 0. -1.
         11    1    3    3    0    0 -0.29817653588E+01 -0.58300910137E+01  0.27879024984E+01  0.71171122293E+01  0.51100000000E-03 0. -1.
        -11    1    3    3    0    0 -0.37518026477E+01 -0.23011545145E+02  0.93635170306E+01  0.25125339491E+02  0.51100000000E-03 0.  1.
        -12    1    3    3    0    0 -0.37367929889E+01 -0.13380388702E+02 -0.45587588739E+00  0.13899864981E+02  0.00000000000E+00 0.  1.
</event>
<event>
 7    1  0.2297343E-008  0.4614232E+02  0.7816164E-02  0.1320468E+00
        -11   -1    0    0    0    0  0.00000000000E+00  0.00000000000E+00  0.45593999997E+02  0.45594000000E+02  0.51100000000E-03 0.  1.
         11   -1    0    0    0    0 -0.00000000000E+00 -0.00000000000E+00 -0.45593999997E+02  0.45594000000E+02  0.51100000000E-03 0. -1.
    9900012    2    1    2    0    0 -0.23055046234E+02  0.11269385001E+02  0.37021335353E+02  0.46142318004E+02  0.10000002216E+02 0.  0.
         12    1    1    2    0    0  0.23055046234E+02 -0.11269385001E+02 -0.37021335353E+02  0.45045681996E+02  0.00000000000E+00 0. -1.
         11    1    3    3    0    0 -0.77770158780E+01  0.18293438440E+01  0.90518809626E+01  0.12073318686E+02  0.51100000000E-03 0. -1.
        -11    1    3    3    0    0 -0.15344968808E+02  0.71714953832E+01  0.26167574172E+02  0.31171146146E+02  0.51100000000E-03 0.  1.
         12    1    3    3    0    0  0.66938452347E-01  0.22685457742E+01  0.18018802180E+01  0.28978531720E+01  0.00000000000E+00 0. -1.
</event>
<event>
 7    1  0.2297343E-008  0.4614231E+02  0.7816164E-02  0.1320468E+00
        -11   -1    0    0    0    0  0.00000000000E+00  0.00000000000E+00  0.45593999997E+02  0.45594000000E+02  0.51100000000E-03 0.  1.
         11   -1    0    0    0    0 -0.00000000000E+00 -0.00000000000E+00 -0.45593999997E+02  0.45594000000E+02  0.51100000000E-03 0. -1.
    9900012    2    1    2    0    0  0.30138267013E+02 -0.75852033564E+01  0.32607729792E+02  0.46142306635E+02  0.99998985430E+01 0.  0.
         12    1    1    2    0    0 -0.30138267013E+02  0.75852033564E+01 -0.32607729792E+02  0.45045693365E+02  0.00000000000E+00 0. -1.
         11    1    3    3    0    0  0.40456441044E+01 -0.10984783691E+01  0.48960178333E+01  0.64455319277E+01  0.51100000000E-03 0. -1.
        -11    1    3    3    0    0  0.21295235505E+02 -0.58006547196E+01  0.26879055048E+02  0.34779566572E+02  0.51100000000E-03 0.  1.
        -12    1    3    3    0    0  0.47973874041E+01 -0.68607026767E+00  0.83265691102E+00  0.49172081356E+01  0.00000000000E+00 0.  1.
</event>
<event>
 7    1  0.2297343E-008  0.4614232E+02  0.7816164E-02  0.1320468E+00
        -11   -1    0    0    0    0  0.00000000000E+00  0.00000000000E+00  0.45593999997E+02  0.45594000000E+02  0.51100000000E-03 0.  1.
         11   -1    0    0    0    0 -0.00000000000E+00 -0.00000000000E+00 -0.45593999997E+02  0.45594000000E+02  0.51100000000E-03 0. -1.
    9900012    2    1    2    0    0 -0.11251441721E+01  0.15189539111E+02  0.42392516833E+02  0.46142317285E+02  0.99999956568E+01 0.  0.
         12    1    1    2    0    0  0.11251441721E+01 -0.15189539111E+02 -0.42392516833E+02  0.45045682715E+02  0.00000000000E+00 0. -1.
         11    1    3    3    0    0 -0.33865945444E+00  0.94461419755E+01  0.18783161250E+02  0.21027397253E+02  0.51100000000E-03 0. -1.
        -11    1    3    3    0    0 -0.24705149903E+01  0.36064528708E+01  0.67804091617E+01  0.80674590354E+01  0.51100000000E-03 0.  1.
         12    1    3    3    0    0  0.16840302726E+01  0.21369442648E+01  0.16828946422E+02  0.17047460996E+02  0.00000000000E+00 0. -1.
</event>
<event>
 7    1  0.2297343E-008  0.4614232E+02  0.7816164E-02  0.1320468E+00
        -11   -1    0    0    0    0  0.00000000000E+00  0.00000000000E+00  0.45593999997E+02  0.45594000000E+02  0.51100000000E-03 0.  1.
         11   -1    0    0    0    0 -0.00000000000E+00 -0.00000000000E+00 -0.45593999997E+02  0.45594000000E+02  0.51100000000E-03 0. -1.
    9900012    2    1    2    0    0 -0.16753790705E+02 -0.36821317089E+02  0.19814502571E+02  0.46142318661E+02  0.10000008204E+02 0.  0.
         12    1    1    2    0    0  0.16753790705E+02  0.36821317089E+02 -0.19814502571E+02  0.45045681339E+02  0.00000000000E+00 0. -1.
         11    1    3    3    0    0 -0.89254698396E+00 -0.45705535079E+01  0.28702600933E+01  0.54703740961E+01  0.51100000000E-03 0. -1.
        -11    1    3    3    0    0 -0.11074669865E+02 -0.13951635645E+02  0.10565521377E+02  0.20710545430E+02  0.51100000000E-03 0.  1.
        -12    1    3    3    0    0 -0.47865738560E+01 -0.18299127936E+02  0.63787211007E+01  0.19961399134E+02  0.00000000000E+00 0.  1.
</event>
<event>
 7    1  0.2297343E-008  0.4614232E+02  0.7816164E-02  0.1320468E+00
        -11   -1    0    0    0    0  0.00000000000E+00  0.00000000000E+00  0.45593999997E+02  0.45594000000E+02  0.51100000000E-03 0.  1.
         11   -1    0    0    0    0 -0.00000000000E+00 -0.00000000000E+00 -0.45593999997E+02  0.45594000000E+02  0.51100000000E-03 0. -1.
    9900012    2    1    2    0    0 -0.12004541011E+02 -0.23747907182E+00  0.43415989583E+02  0.46142317047E+02  0.99999934886E+01 0.  0.
         12    1    1    2    0    0  0.12004541011E+02  0.23747907182E+00 -0.43415989583E+02  0.45045682953E+02  0.00000000000E+00 0. -1.
         11    1    3    3    0    0 -0.70682412946E+01  0.23956853505E+01  0.15431692243E+02  0.17141658877E+02  0.51100000000E-03 0. -1.
        -11    1    3    3    0    0 -0.17140039747E+01  0.15338849484E+01  0.71556950105E+01  0.75162879139E+01  0.51100000000E-03 0.  1.
         12    1    3    3    0    0 -0.32222957415E+01 -0.41670493707E+01  0.20828602330E+02  0.21484370257E+02  0.00000000000E+00 0. -1.
</event>
<event>
 7    1  0.2297343E-008  0.4614232E+02  0.7816164E-02  0.1320468E+00
        -11   -1    0    0    0    0  0.00000000000E+00  0.00000000000E+00  0.45593999997E+02  0.45594000000E+02  0.51100000000E-03 0.  1.
         11   -1    0    0    0    0 -0.00000000000E+00 -0.00000000000E+00 -0.45593999997E+02  0.45594000000E+02  0.51100000000E-03 0. -1.
    9900012    2    1    2    0    0 -0.30161120723E+02 -0.38379599071E+01  0.33236881033E+02  0.46142318739E+02  0.10000008917E+02 0.  0.
         12    1    1    2    0    0  0.30161120723E+02  0.38379599071E+01 -0.33236881033E+02  0.45045681261E+02  0.00000000000E+00 0. -1.
         11    1    3    3    0    0 -0.28462133615E+01 -0.94793503106E+00  0.45884378320E+01  0.54820865846E+01  0.51100000000E-03 0. -1.
        -11    1    3    3    0    0 -0.20692411647E+02 -0.59750106846E+01  0.20925052307E+02  0.30028893865E+02  0.51100000000E-03 0.  1.
        -12    1    3    3    0    0 -0.66224957137E+01  0.30849858086E+01  0.77233908942E+01  0.10631338289E+02  0.00000000000E+00 0.  1.
</event>
<event>
 7    1  0.2297343E-008  0.4614232E+02  0.7816164E-02  0.1320468E+00
        -11   -1    0    0    0    0  0.00000000000E+00  0.00000000000E+00  0.45593999997E+02  0.45594000000E+02  0.51100000000E-03 0.  1.
         11   -1    0    0    0    0 -0.00000000000E+00 -0.00000000000E+00 -0.45593999997E+02  0.45594000000E+02  0.51100000000E-03 0. -1.
    9900012    2    1    2    0    0 -0.91162635283E+01 -0.82692547243E+01  0.43331589796E+02  0.46142317536E+02  0.99999979457E+01 0.  0.
         12    1    1    2    0    0  0.91162635283E+01  0.82692547243E+01 -0.43331589796E+02  0.45045682464E+02  0.00000000000E+00 0. -1.
         11    1    3    3    0    0 -0.29290413742E+01  0.76339097145E+00  0.13644290144E+02  0.13976004542E+02  0.51100000000E-03 0. -1.
        -11    1    3    3    0    0 -0.28165026042E+01 -0.89813338094E-01  0.72545338971E+01  0.77826098246E+01  0.51100000000E-03 0.  1.
        -12    1    3    3    0    0 -0.33707195498E+01 -0.89428323576E+01  0.22432765754E+02  0.24383703169E+02  0.00000000000E+00 0.  1.
</event>
<event>
 7    1  0.2297343E-008  0.4614232E+02  0.7816164E-02  0.1320468E+00
        -11   -1    0    0    0    0  0.00000000000E+00  0.00000000000E+00  0.45593999997E+02  0.45594000000E+02  0.51100000000E-03 0. -1.
         11   -1    0    0    0    0 -0.00000000000E+00 -0.00000000000E+00 -0.45593999997E+02  0.45594000000E+02  0.51100000000E-03 0.  1.
    9900012    2    1    2    0    0  0.32129921605E+02  0.30997984112E+02 -0.59922074226E+01  0.46142318396E+02  0.10000005789E+02 0.  0.
         12    1    1    2    0    0 -0.32129921605E+02 -0.30997984112E+02  0.59922074226E+01  0.45045681604E+02  0.00000000000E+00 0. -1.
         11    1    3    3    0    0  0.11257769672E+02  0.60391705865E+01 -0.33972767804E+00  0.12779842507E+02  0.51100000000E-03 0. -1.
        -11    1    3    3    0    0  0.10424047966E+02  0.88526106853E+01 -0.20366856367E+01  0.13826698108E+02  0.51100000000E-03 0.  1.
         12    1    3    3    0    0  0.10448103968E+02  0.16106202840E+02 -0.36157941078E+01  0.19535777780E+02  0.00000000000E+00 0. -1.
</event>
<event>
 7    1  0.2297343E-008  0.4614232E+02  0.7816164E-02  0.1320468E+00
        -11   -1    0    0    0    0  0.00000000000E+00  0.00000000000E+00  0.45593999997E+02  0.45594000000E+02  0.51100000000E-03 0.  1.
         11   -1    0    0    0    0 -0.00000000000E+00 -0.00000000000E+00 -0.45593999997E+02  0.45594000000E+02  0.51100000000E-03 0. -1.
    9900012    2    1    2    0    0 -0.88763392113E+01  0.82860784062E+01  0.43378160654E+02  0.46142319687E+02  0.10000017560E+02 0.  0.
         12    1    1    2    0    0  0.88763392113E+01 -0.82860784062E+01 -0.43378160654E+02  0.45045680313E+02  0.00000000000E+00 0. -1.
         11    1    3    3    0    0 -0.18462206089E+01  0.10742144292E+01  0.14896834036E+02  0.15049190401E+02  0.51100000000E-03 0. -1.
        -11    1    3    3    0    0 -0.72772705966E+01  0.45457892447E+01  0.26220736851E+02  0.27588945403E+02  0.51100000000E-03 0.  1.
         12    1    3    3    0    0  0.24715199428E+00  0.26660747324E+01  0.22605897679E+01  0.35041838830E+01  0.00000000000E+00 0. -1.
</event>
<event>
 7    1  0.2297343E-008  0.4614232E+02  0.7816164E-02  0.1320468E+00
        -11   -1    0    0    0    0  0.00000000000E+00  0.00000000000E+00  0.45593999997E+02  0.45594000000E+02  0.51100000000E-03 0.  1.
         11   -1    0    0    0    0 -0.00000000000E+00 -0.00000000000E+00 -0.45593999997E+02  0.45594000000E+02  0.51100000000E-03 0. -1.
    9900012    2    1    2    0    0 -0.32828825154E+01  0.88281516342E+01  0.44049971214E+02  0.46142317156E+02  0.99999944851E+01 0.  0.
         12    1    1    2    0    0  0.32828825154E+01 -0.88281516342E+01 -0.44049971214E+02  0.45045682844E+02  0.00000000000E+00 0. -1.
         11    1    3    3    0    0  0.17996405280E+01  0.53855174722E+01  0.16877598050E+02  0.17807184524E+02  0.51100000000E-03 0. -1.
        -11    1    3    3    0    0 -0.18485997674E+01  0.38277270426E+01  0.20161704448E+02  0.20604930040E+02  0.51100000000E-03 0.  1.
        -12    1    3    3    0    0 -0.32339232760E+01 -0.38509288059E+00  0.70106687158E+01  0.77302025927E+01  0.00000000000E+00 0.  1.
</event>
<event>
 7    1  0.2297343E-008  0.4614232E+02  0.7816164E-02  0.1320468E+00
        -11   -1    0    0    0    0  0.00000000000E+00  0.00000000000E+00  0.45593999997E+02  0.45594000000E+02  0.51100000000E-03 0. -1.
         11   -1    0    0    0    0 -0.00000000000E+00 -0.00000000000E+00 -0.45593999997E+02  0.45594000000E+02  0.51100000000E-03 0.  1.
    9900012    2    1    2    0    0 -0.31477266390E+02  0.30061284131E+02 -0.11602333885E+02  0.46142320356E+02  0.10000023665E+02 0.  0.
         12    1    1    2    0    0  0.31477266390E+02 -0.30061284131E+02  0.11602333885E+02  0.45045679644E+02  0.00000000000E+00 0. -1.
         11    1    3    3    0    0 -0.31808277849E+00  0.26139353018E+01 -0.14208646386E+00  0.26370482059E+01  0.51100000000E-03 0. -1.
        -11    1    3    3    0    0 -0.22541393710E+02  0.20697686753E+02 -0.56752510513E+01  0.31124221148E+02  0.51100000000E-03 0.  1.
         12    1    3    3    0    0 -0.86177899020E+01  0.67496620758E+01 -0.57849963693E+01  0.12381051002E+02  0.00000000000E+00 0. -1.
</event>
<event>
 7    1  0.2297343E-008  0.4614232E+02  0.7816164E-02  0.1320468E+00
        -11   -1    0    0    0    0  0.00000000000E+00  0.00000000000E+00  0.45593999997E+02  0.45594000000E+02  0.51100000000E-03 0.  1.
         11   -1    0    0    0    0 -0.00000000000E+00 -0.00000000000E+00 -0.45593999997E+02  0.45594000000E+02  0.51100000000E-03 0. -1.
    9900012    2    1    2    0    0  0.13703704144E+02  0.20962717568E+02  0.37441773608E+02  0.46142318231E+02  0.10000004289E+02 0.  0.
         12    1    1    2    0    0 -0.13703704144E+02 -0.20962717568E+02 -0.37441773608E+02  0.45045681769E+02  0.00000000000E+00 0. -1.
         11    1    3    3    0    0  0.36407958684E+01  0.14412210991E+01  0.54449045913E+01  0.67066757102E+01  0.51100000000E-03 0. -1.
        -11    1    3    3    0    0  0.99094895864E+01  0.12267860583E+02  0.21030711691E+02  0.26286673841E+02  0.51100000000E-03 0.  1.
        -12    1    3    3    0    0  0.15341868925E+00  0.72536358861E+01  0.10966157326E+02  0.13148968680E+02  0.00000000000E+00 0.  1.
</event>
<event>
 7    1  0.2297343E-008  0.4614232E+02  0.7816164E-02  0.1320468E+00
        -11   -1    0    0    0    0  0.00000000000E+00  0.00000000000E+00  0.45593999997E+02  0.45594000000E+02  0.51100000000E-03 0. -1.
         11   -1    0    0    0    0 -0.00000000000E+00 -0.00000000000E+00 -0.45593999997E+02  0.45594000000E+02  0.51100000000E-03 0.  1.
    9900012    2    1    2    0    0  0.75370829993E+01  0.26826187653E+02 -0.35392958589E+02  0.46142317834E+02  0.10000000663E+02 0.  0.
         12    1    1    2    0    0 -0.75370829993E+01 -0.26826187653E+02  0.35392958589E+02  0.45045682166E+02  0.00000000000E+00 0. -1.
         11    1    3    3    0    0  0.17700692271E+01  0.14117643387E+02 -0.19919920502E+02  0.24479465537E+02  0.51100000000E-03 0.  1.
        -11    1    3    3    0    0  0.12649338694E+01  0.82741567079E+01 -0.60942490069E+01  0.10353820461E+02  0.51100000000E-03 0. -1.
         12    1    3    3    0    0  0.45020799028E+01  0.44343875576E+01 -0.93787890802E+01  0.11309031836E+02  0.00000000000E+00 0. -1.
</event>
<event>
 7    1  0.2297343E-008  0.4614232E+02  0.7816164E-02  0.1320468E+00
        -11   -1    0    0    0    0  0.00000000000E+00  0.00000000000E+00  0.45593999997E+02  0.45594000000E+02  0.51100000000E-03 0. -1.
         11   -1    0    0    0    0 -0.00000000000E+00 -0.00000000000E+00 -0.45593999997E+02  0.45594000000E+02  0.51100000000E-03 0.  1.
    9900012    2    1    2    0    0 -0.11504007877E+02 -0.26691567659E+02 -0.34414111794E+02  0.46142322384E+02  0.10000042151E+02 0.  0.
         12    1    1    2    0    0  0.11504007877E+02  0.26691567659E+02  0.34414111794E+02  0.45045677616E+02  0.00000000000E+00 0. -1.
         11    1    3    3    0    0 -0.13406927644E+01 -0.29925740634E+01 -0.23207147738E+00  0.32873719056E+01  0.51100000000E-03 0. -1.
        -11    1    3    3    0    0 -0.36113949486E+01 -0.63998923074E+01 -0.99272095512E+01  0.12351124838E+02  0.51100000000E-03 0.  1.
         12    1    3    3    0    0 -0.65519201637E+01 -0.17299101289E+02 -0.24254830766E+02  0.30503825640E+02  0.00000000000E+00 0. -1.
</event>
<event>
 7    1  0.2297343E-008  0.4614232E+02  0.7816164E-02  0.1320468E+00
        -11   -1    0    0    0    0  0.00000000000E+00  0.00000000000E+00  0.45593999997E+02  0.45594000000E+02  0.51100000000E-03 0.  1.
         11   -1    0    0    0    0 -0.00000000000E+00 -0.00000000000E+00 -0.45593999997E+02  0.45594000000E+02  0.51100000000E-03 0. -1.
    9900012    2    1    2    0    0  0.13677944699E+02  0.39616770877E+02  0.16508749826E+02  0.46142317335E+02  0.99999961160E+01 0.  0.
         12    1    1    2    0    0 -0.13677944699E+02 -0.39616770877E+02 -0.16508749826E+02  0.45045682665E+02  0.00000000000E+00 0. -1.
         11    1    3    3    0    0  0.13518080887E+01  0.63156047490E+01  0.40094812144E+01  0.76019858145E+01  0.51100000000E-03 0. -1.
        -11    1    3    3    0    0  0.12202998869E+02  0.25739174688E+02  0.12152578557E+02  0.30969395552E+02  0.51100000000E-03 0.  1.
        -12    1    3    3    0    0  0.12313774120E+00  0.75619914401E+01  0.34669005413E+00  0.75709359683E+01  0.00000000000E+00 0.  1.
</event>
<event>
 7    1  0.2297343E-008  0.4614232E+02  0.7816164E-02  0.1320468E+00
        -11   -1    0    0    0    0  0.00000000000E+00  0.00000000000E+00  0.45593999997E+02  0.45594000000E+02  0.51100000000E-03 0.  1.
         11   -1    0    0    0    0 -0.00000000000E+00 -0.00000000000E+00 -0.45593999997E+02  0.45594000000E+02  0.51100000000E-03 0. -1.
    9900012    2    1    2    0    0  0.10141123645E+02  0.43696829703E+02  0.41058742314E+01  0.46142317431E+02  0.99999969917E+01 0.  0.
         12    1    1    2    0    0 -0.10141123645E+02 -0.43696829703E+02 -0.41058742314E+01  0.45045682569E+02  0.00000000000E+00 0. -1.
         11    1    3    3    0    0  0.85305829601E+00  0.13629435730E+02  0.26009933044E+01  0.13901596786E+02  0.51100000000E-03 0. -1.
        -11    1    3    3    0    0  0.19404689752E+01  0.17802906109E+02  0.89487563435E+00  0.17930691243E+02  0.51100000000E-03 0.  1.
         12    1    3    3    0    0  0.73475963743E+01  0.12264487864E+02  0.61000529259E+00  0.14310029402E+02  0.00000000000E+00 0. -1.
</event>
<event>
 7    1  0.2297343E-008  0.4614232E+02  0.7816164E-02  0.1320468E+00
        -11   -1    0    0    0    0  0.00000000000E+00  0.00000000000E+00  0.45593999997E+02  0.45594000000E+02  0.51100000000E-03 0. -1.
         11   -1    0    0    0    0 -0.00000000000E+00 -0.00000000000E+00 -0.45593999997E+02  0.45594000000E+02  0.51100000000E-03 0.  1.
    9900012    2    1    2    0    0  0.22952106044E+02  0.38072602368E+02 -0.72657548623E+01  0.46142318557E+02  0.10000007261E+02 0.  0.
         12    1    1    2    0    0 -0.22952106044E+02 -0.38072602368E+02  0.72657548623E+01  0.45045681443E+02  0.00000000000E+00 0. -1.
         11    1    3    3    0    0  0.18232382040E+02  0.24943571687E+02 -0.31589907869E+01  0.31057700275E+02  0.51100000000E-03 0. -1.
        -11    1    3    3    0    0  0.92128900641E+00  0.54484711943E+01  0.12688750842E+00  0.55272698947E+01  0.51100000000E-03 0.  1.
        -12    1    3    3    0    0  0.37984349977E+01  0.76805594867E+01 -0.42336515838E+01  0.95573483871E+01  0.00000000000E+00 0.  1.
</event>
<event>
 7    1  0.2297343E-008  0.4614232E+02  0.7816164E-02  0.1320468E+00
        -11   -1    0    0    0    0  0.00000000000E+00  0.00000000000E+00  0.45593999997E+02  0.45594000000E+02  0.51100000000E-03 0.  1.
         11   -1    0    0    0    0 -0.00000000000E+00 -0.00000000000E+00 -0.45593999997E+02  0.45594000000E+02  0.51100000000E-03 0. -1.
    9900012    2    1    2    0    0  0.12482471372E+01  0.21636816606E+02  0.39489283740E+02  0.46142317809E+02  0.10000000437E+02 0.  0.
         12    1    1    2    0    0 -0.12482471372E+01 -0.21636816606E+02 -0.39489283740E+02  0.45045682191E+02  0.00000000000E+00 0. -1.
         11    1    3    3    0    0  0.11590272446E+01  0.70204926722E+01  0.15772097493E+02  0.17302881873E+02  0.51100000000E-03 0. -1.
        -11    1    3    3    0    0  0.27948759205E+01  0.35243913834E+01  0.10186757896E+02  0.11135650081E+02  0.51100000000E-03 0.  1.
        -12    1    3    3    0    0 -0.27056560279E+01  0.11091932551E+02  0.13530428351E+02  0.17703785855E+02  0.00000000000E+00 0.  1.
</event>
<event>
 7    1  0.2297343E-008  0.4614232E+02  0.7816164E-02  0.1320468E+00
        -11   -1    0    0    0    0  0.00000000000E+00  0.00000000000E+00  0.45593999997E+02  0.45594000000E+02  0.51100000000E-03 0.  1.
         11   -1    0    0    0    0 -0.00000000000E+00 -0.00000000000E+00 -0.45593999997E+02  0.45594000000E+02  0.51100000000E-03 0. -1.
    9900012    2    1    2    0    0  0.83713382404E+01 -0.36092277266E+02  0.25619940193E+02  0.46142321876E+02  0.10000037521E+02 0.  0.
         12    1    1    2    0    0 -0.83713382404E+01  0.36092277266E+02 -0.25619940193E+02  0.45045678124E+02  0.00000000000E+00 0. -1.
         11    1    3    3    0    0  0.20299807540E+01 -0.21027398727E+01  0.45730538738E+00  0.29582875642E+01  0.51100000000E-03 0. -1.
        -11    1    3    3    0    0  0.14696608160E+01 -0.13674822743E+01  0.72762528737E+00  0.21352633338E+01  0.51100000000E-03 0.  1.
        -12    1    3    3    0    0  0.48716966704E+01 -0.32622055119E+02  0.24435009518E+02  0.41048770978E+02  0.00000000000E+00 0.  1.
</event>
<event>
 7    1  0.2297343E-008  0.4614232E+02  0.7816164E-02  0.1320468E+00
        -11   -1    0    0    0    0  0.00000000000E+00  0.00000000000E+00  0.45593999997E+02  0.45594000000E+02  0.51100000000E-03 0. -1.
         11   -1    0    0    0    0 -0.00000000000E+00 -0.00000000000E+00 -0.45593999997E+02  0.45594000000E+02  0.51100000000E-03 0.  1.
    9900012    2    1    2    0    0  0.11797256925E+02  0.37167522254E+02 -0.22550242714E+02  0.46142318432E+02  0.10000006122E+02 0.  0.
         12    1    1    2    0    0 -0.11797256925E+02 -0.37167522254E+02  0.22550242714E+02  0.45045681568E+02  0.00000000000E+00 0. -1.
         11    1    3    3    0    0  0.51475071483E+01  0.82662944006E+01 -0.86061866360E+01  0.12995957127E+02  0.51100000000E-03 0. -1.
        -11    1    3    3    0    0  0.28692224311E+01  0.15918768474E+02 -0.10174063858E+02  0.19108929921E+02  0.51100000000E-03 0.  1.
         12    1    3    3    0    0  0.37805273458E+01  0.12982459380E+02 -0.37699922195E+01  0.14037431385E+02  0.00000000000E+00 0. -1.
</event>
<event>
 7    1  0.2297343E-008  0.4614232E+02  0.7816164E-02  0.1320468E+00
        -11   -1    0    0    0    0  0.00000000000E+00  0.00000000000E+00  0.45593999997E+02  0.45594000000E+02  0.51100000000E-03 0.  1.
         11   -1    0    0    0    0 -0.00000000000E+00 -0.00000000000E+00 -0.45593999997E+02  0.45594000000E+02  0.51100000000E-03 0. -1.
    9900012    2    1    2    0    0 -0.44518160075E+02 -0.48856926084E+01  0.48349752395E+01  0.46142317029E+02  0.99999933251E+01 0.  0.
         12    1    1    2    0    0  0.44518160075E+02  0.48856926084E+01 -0.48349752395E+01  0.45045682971E+02  0.00000000000E+00 0. -1.
         11    1    3    3    0    0 -0.21314482363E+02 -0.10789845188E+01 -0.14477293431E+01  0.21390822483E+02  0.51100000000E-03 0. -1.
        -11    1    3    3    0    0 -0.34562600027E+01 -0.69134521375E-01 -0.59797955037E+00  0.35082891261E+01  0.51100000000E-03 0.  1.
        -12    1    3    3    0    0 -0.19747417709E+02 -0.37375735683E+01  0.68806841330E+01  0.21243205420E+02  0.00000000000E+00 0.  1.
</event>
<event>
 7    1  0.2297343E-008  0.4614232E+02  0.7816164E-02  0.1320468E+00
        -11   -1    0    0    0    0  0.00000000000E+00  0.00000000000E+00  0.45593999997E+02  0.45594000000E+02  0.51100000000E-03 0.  1.
         11   -1    0    0    0    0 -0.00000000000E+00 -0.00000000000E+00 -0.45593999997E+02  0.45594000000E+02  0.51100000000E-03 0. -1.
    9900012    2    1    2    0    0 -0.25552794893E+02  0.82770788064E+01  0.36161555180E+02  0.46142318371E+02  0.10000005563E+02 0.  0.
         12    1    1    2    0    0  0.25552794893E+02 -0.82770788064E+01 -0.36161555180E+02  0.45045681629E+02  0.00000000000E+00 0. -1.
         11    1    3    3    0    0 -0.44947381327E+01 -0.21624933968E+01  0.56662417761E+01  0.75488638019E+01  0.51100000000E-03 0. -1.
        -11    1    3    3    0    0 -0.15243073139E+02  0.62201659782E+01  0.20838555787E+02  0.26557242912E+02  0.51100000000E-03 0.  1.
         12    1    3    3    0    0 -0.58149836212E+01  0.42194062250E+01  0.96567576161E+01  0.12036211657E+02  0.00000000000E+00 0. -1.
</event>
<event>
 7    1  0.2297343E-008  0.4614232E+02  0.7816164E-02  0.1320468E+00
        -11   -1    0    0    0    0  0.00000000000E+00  0.00000000000E+00  0.45593999997E+02  0.45594000000E+02  0.51100000000E-03 0.  1.
         11   -1    0    0    0    0 -0.00000000000E+00 -0.00000000000E+00 -0.45593999997E+02  0.45594000000E+02  0.51100000000E-03 0. -1.
    9900012    2    1    2    0    0  0.35803103627E+01 -0.42582723253E+02  0.14248037079E+02  0.46142317604E+02  0.99999985632E+01 0.  0.
         12    1    1    2    0    0 -0.35803103627E+01  0.42582723253E+02 -0.14248037079E+02  0.45045682396E+02  0.00000000000E+00 0. -1.
         11    1    3    3    0    0 -0.14984585077E+01 -0.13706226345E+02  0.63044380495E+01  0.15160869299E+02  0.51100000000E-03 0. -1.
        -11    1    3    3    0    0  0.47540189354E+01 -0.12974739655E+02  0.55770517868E+01  0.14901277531E+02  0.51100000000E-03 0.  1.
         12    1    3    3    0    0  0.32474993497E+00 -0.15901757253E+02  0.23665472421E+01  0.16080170774E+02  0.00000000000E+00 0. -1.
</event>
<event>
 7    1  0.2297343E-008  0.4614232E+02  0.7816164E-02  0.1320468E+00
        -11   -1    0    0    0    0  0.00000000000E+00  0.00000000000E+00  0.45593999997E+02  0.45594000000E+02  0.51100000000E-03 0.  1.
         11   -1    0    0    0    0 -0.00000000000E+00 -0.00000000000E+00 -0.45593999997E+02  0.45594000000E+02  0.51100000000E-03 0. -1.
    9900012    2    1    2    0    0  0.76540645201E+01  0.11203039414E+02  0.42953703108E+02  0.46142318670E+02  0.10000008285E+02 0.  0.
         12    1    1    2    0    0 -0.76540645201E+01 -0.11203039414E+02 -0.42953703108E+02  0.45045681330E+02  0.00000000000E+00 0. -1.
         11    1    3    3    0    0  0.26119925164E+01  0.27761831268E+01  0.29017413161E+01  0.47905950137E+01  0.51100000000E-03 0. -1.
        -11    1    3    3    0    0  0.16312890650E+01  0.12191598482E+01  0.48937171551E+01  0.53005587068E+01  0.51100000000E-03 0.  1.
         12    1    3    3    0    0  0.34107829388E+01  0.72076964392E+01  0.35158244637E+02  0.36051164949E+02  0.00000000000E+00 0. -1.
</event>
<event>
 7    1  0.2297343E-008  0.4614232E+02  0.7816164E-02  0.1320468E+00
        -11   -1    0    0    0    0  0.00000000000E+00  0.00000000000E+00  0.45593999997E+02  0.45594000000E+02  0.51100000000E-03 0.  1.
         11   -1    0    0    0    0 -0.00000000000E+00 -0.00000000000E+00 -0.45593999997E+02  0.45594000000E+02  0.51100000000E-03 0. -1.
    9900012    2    1    2    0    0 -0.22770107469E+02  0.36925164439E+02  0.12131278245E+02  0.46142317912E+02  0.10000001372E+02 0.  0.
         12    1    1    2    0    0  0.22770107469E+02 -0.36925164439E+02 -0.12131278245E+02  0.45045682088E+02  0.00000000000E+00 0. -1.
         11    1    3    3    0    0 -0.87344878112E+00  0.33297409501E+00  0.65469671585E-01  0.93705445957E+00  0.51100000000E-03 0. -1.
        -11    1    3    3    0    0 -0.27470428209E+01  0.67325610528E+00  0.36264886271E+00  0.28514965372E+01  0.51100000000E-03 0.  1.
        -12    1    3    3    0    0 -0.19149615867E+02  0.35918934238E+02  0.11703159710E+02  0.42353766915E+02  0.00000000000E+00 0.  1.
</event>
<event>
 7    1  0.2297343E-008  0.4614232E+02  0.7816164E-02  0.1320468E+00
        -11   -1    0    0    0    0  0.00000000000E+00  0.00000000000E+00  0.45593999997E+02  0.45594000000E+02  0.51100000000E-03 0.  1.
         11   -1    0    0    0    0 -0.00000000000E+00 -0.00000000000E+00 -0.45593999997E+02  0.45594000000E+02  0.51100000000E-03 0. -1.
    9900012    2    1    2    0    0 -0.20314691940E+02 -0.79966432693E+01  0.39401529867E+02  0.46142316877E+02  0.99999919368E+01 0.  0.
         12    1    1    2    0    0  0.20314691940E+02  0.79966432693E+01 -0.39401529867E+02  0.45045683123E+02  0.00000000000E+00 0. -1.
         11    1    3    3    0    0 -0.17580017869E+02 -0.74260980099E+01  0.28549097756E+02  0.34340281637E+02  0.51100000000E-03 0. -1.
        -11    1    3    3    0    0 -0.33221771883E+01 -0.13725014067E+01  0.77237581660E+01  0.85192172088E+01  0.51100000000E-03 0.  1.
         12    1    3    3    0    0  0.58750311774E+00  0.80195614731E+00  0.31286739447E+01  0.32828180315E+01  0.00000000000E+00 0. -1.
</event>
<event>
 7    1  0.2297343E-008  0.4614231E+02  0.7816164E-02  0.1320468E+00
        -11   -1    0    0    0    0  0.00000000000E+00  0.00000000000E+00  0.45593999997E+02  0.45594000000E+02  0.51100000000E-03 0.  1.
         11   -1    0    0    0    0 -0.00000000000E+00 -0.00000000000E+00 -0.45593999997E+02  0.45594000000E+02  0.51100000000E-03 0. -1.
    9900012    2    1    2    0    0  0.12722515502E+02 -0.40206018938E+02  0.15834382219E+02  0.46142311863E+02  0.99999462122E+01 0.  0.
         12    1    1    2    0    0 -0.12722515502E+02  0.40206018938E+02 -0.15834382219E+02  0.45045688137E+02  0.00000000000E+00 0. -1.
         11    1    3    3    0    0  0.43909669898E+01 -0.74196809053E+01  0.58052372501E+01  0.10393894152E+02  0.51100000000E-03 0. -1.
        -11    1    3    3    0    0  0.46802185041E+01 -0.13510535935E+02  0.15711579693E+01  0.14384281842E+02  0.51100000000E-03 0.  1.
         12    1    3    3    0    0  0.36513300082E+01 -0.19275802098E+02  0.84579869998E+01  0.21364135869E+02  0.00000000000E+00 0. -1.
</event>
<event>
 7    1  0.2297343E-008  0.4614232E+02  0.7816164E-02  0.1320468E+00
        -11   -1    0    0    0    0  0.00000000000E+00  0.00000000000E+00  0.45593999997E+02  0.45594000000E+02  0.51100000000E-03 0. -1.
         11   -1    0    0    0    0 -0.00000000000E+00 -0.00000000000E+00 -0.45593999997E+02  0.45594000000E+02  0.51100000000E-03 0.  1.
    9900012    2    1    2    0    0 -0.37698383680E+02  0.24650772043E+02  0.53372305496E+00  0.46142317025E+02  0.99999932851E+01 0.  0.
         12    1    1    2    0    0  0.37698383680E+02 -0.24650772043E+02 -0.53372305496E+00  0.45045682975E+02  0.00000000000E+00 0. -1.
         11    1    3    3    0    0 -0.19734609198E+02  0.91415937778E+01 -0.10831144069E+01  0.21776057359E+02  0.51100000000E-03 0. -1.
        -11    1    3    3    0    0 -0.17514811387E+02  0.13420009910E+02  0.21331719076E+01  0.22167898108E+02  0.51100000000E-03 0.  1.
         12    1    3    3    0    0 -0.44896309484E+00  0.20891683555E+01 -0.51633444579E+00  0.21983615577E+01  0.00000000000E+00 0. -1.
</event>
<event>
 7    1  0.2297343E-008  0.4614232E+02  0.7816164E-02  0.1320468E+00
        -11   -1    0    0    0    0  0.00000000000E+00  0.00000000000E+00  0.45593999997E+02  0.45594000000E+02  0.51100000000E-03 0.  1.
         11   -1    0    0    0    0 -0.00000000000E+00 -0.00000000000E+00 -0.45593999997E+02  0.45594000000E+02  0.51100000000E-03 0. -1.
    9900012    2    1    2    0    0  0.35179945406E+02  0.15487807848E+02 -0.23486433595E+02  0.46142319700E+02  0.10000017678E+02 0.  0.
         12    1    1    2    0    0 -0.35179945406E+02 -0.15487807848E+02  0.23486433595E+02  0.45045680300E+02  0.00000000000E+00 0. -1.
         11    1    3    3    0    0  0.14498147809E+02  0.51549293087E+01 -0.14189689932E+02  0.20931241882E+02  0.51100000000E-03 0. -1.
        -11    1    3    3    0    0  0.14632702201E+02  0.63295583877E+01 -0.80170285542E+01  0.17845224296E+02  0.51100000000E-03 0.  1.
        -12    1    3    3    0    0  0.60490953957E+01  0.40033201517E+01 -0.12797151086E+01  0.73658535216E+01  0.00000000000E+00 0.  1.
</event>
<event>
 7    1  0.2297343E-008  0.4614232E+02  0.7816164E-02  0.1320468E+00
        -11   -1    0    0    0    0  0.00000000000E+00  0.00000000000E+00  0.45593999997E+02  0.45594000000E+02  0.51100000000E-03 0. -1.
         11   -1    0    0    0    0 -0.00000000000E+00 -0.00000000000E+00 -0.45593999997E+02  0.45594000000E+02  0.51100000000E-03 0.  1.
    9900012    2    1    2    0    0 -0.11840720135E+02  0.13118572279E+01 -0.43441799493E+02  0.46142316901E+02  0.99999921573E+01 0.  0.
         12    1    1    2    0    0  0.11840720135E+02 -0.13118572279E+01  0.43441799493E+02  0.45045683099E+02  0.00000000000E+00 0. -1.
         11    1    3    3    0    0 -0.79998972340E+01 -0.16574642478E+01 -0.15320498453E+02  0.17362696121E+02  0.51100000000E-03 0. -1.
        -11    1    3    3    0    0 -0.22706734919E+01  0.11943130511E+01 -0.59178602438E+01  0.64500706893E+01  0.51100000000E-03 0.  1.
        -12    1    3    3    0    0 -0.15701494090E+01  0.17750084246E+01 -0.22203440796E+02  0.22329550091E+02  0.00000000000E+00 0.  1.
</event>
<event>
 7    1  0.2297343E-008  0.4614232E+02  0.7816164E-02  0.1320468E+00
        -11   -1    0    0    0    0  0.00000000000E+00  0.00000000000E+00  0.45593999997E+02  0.45594000000E+02  0.51100000000E-03 0.  1.
         11   -1    0    0    0    0 -0.00000000000E+00 -0.00000000000E+00 -0.45593999997E+02  0.45594000000E+02  0.51100000000E-03 0. -1.
    9900012    2    1    2    0    0 -0.29893357162E+02  0.20268525616E+02  0.26920020466E+02  0.46142318354E+02  0.10000005405E+02 0.  0.
         12    1    1    2    0    0  0.29893357162E+02 -0.20268525616E+02 -0.26920020466E+02  0.45045681646E+02  0.00000000000E+00 0. -1.
         11    1    3    3    0    0 -0.59870566061E+01  0.88909351946E+01  0.66887393237E+01  0.12634587822E+02  0.51100000000E-03 0. -1.
        -11    1    3    3    0    0 -0.47034782173E+01  0.97707144398E+00  0.27582976327E+01  0.55394568361E+01  0.51100000000E-03 0.  1.
         12    1    3    3    0    0 -0.19202822339E+02  0.10400518978E+02  0.17472983510E+02  0.27968273695E+02  0.00000000000E+00 0. -1.
</event>
<event>
 7    1  0.2297343E-008  0.4614232E+02  0.7816164E-02  0.1320468E+00
        -11   -1    0    0    0    0  0.00000000000E+00  0.00000000000E+00  0.45593999997E+02  0.45594000000E+02  0.51100000000E-03 0.  1.
         11   -1    0    0    0    0 -0.00000000000E+00 -0.00000000000E+00 -0.45593999997E+02  0.45594000000E+02  0.51100000000E-03 0. -1.
    9900012    2    1    2    0    0  0.38301892571E+02 -0.41178739503E+01  0.23347839562E+02  0.46142317936E+02  0.10000001597E+02 0.  0.
         12    1    1    2    0    0 -0.38301892571E+02  0.41178739503E+01 -0.23347839562E+02  0.45045682064E+02  0.00000000000E+00 0. -1.
         11    1    3    3    0    0  0.41768950154E+01  0.87036246922E+00  0.40437574400E+01  0.58784315334E+01  0.51100000000E-03 0. -1.
        -11    1    3    3    0    0  0.21371935010E+02  0.51425515148E+00  0.10482998789E+02  0.23810025794E+02  0.51100000000E-03 0.  1.
        -12    1    3    3    0    0  0.12753062546E+02 -0.55024915710E+01  0.88210833327E+01  0.16453860609E+02  0.00000000000E+00 0.  1.
</event>
<event>
 7    1  0.2297343E-008  0.4614232E+02  0.7816164E-02  0.1320468E+00
        -11   -1    0    0    0    0  0.00000000000E+00  0.00000000000E+00  0.45593999997E+02  0.45594000000E+02  0.51100000000E-03 0. -1.
         11   -1    0    0    0    0 -0.00000000000E+00 -0.00000000000E+00 -0.45593999997E+02  0.45594000000E+02  0.51100000000E-03 0.  1.
    9900012    2    1    2    0    0 -0.17866355690E+02  0.33406217310E+02 -0.24370708939E+02  0.46142317912E+02  0.10000001376E+02 0.  0.
         12    1    1    2    0    0  0.17866355690E+02 -0.33406217310E+02  0.24370708939E+02  0.45045682088E+02  0.00000000000E+00 0. -1.
         11    1    3    3    0    0 -0.67388982557E+01  0.19664114644E+02 -0.11295994469E+02  0.23657760792E+02  0.51100000000E-03 0. -1.
        -11    1    3    3    0    0 -0.31721422667E+01  0.48748097383E+01 -0.18152146497E+01  0.60927219722E+01  0.51100000000E-03 0.  1.
        -12    1    3    3    0    0 -0.79553151673E+01  0.88672929277E+01 -0.11259499821E+02  0.16391835147E+02  0.00000000000E+00 0.  1.
</event>
<event>
 7    1  0.2297343E-008  0.4614232E+02  0.7816164E-02  0.1320468E+00
        -11   -1    0    0    0    0  0.00000000000E+00  0.00000000000E+00  0.45593999997E+02  0.45594000000E+02  0.51100000000E-03 0.  1.
         11   -1    0    0    0    0 -0.00000000000E+00 -0.00000000000E+00 -0.45593999997E+02  0.45594000000E+02  0.51100000000E-03 0. -1.
    9900012    2    1    2    0    0 -0.15701568144E+02 -0.41831258453E+02 -0.57201477983E+01  0.46142317446E+02  0.99999971236E+01 0.  0.
         12    1    1    2    0    0  0.15701568144E+02  0.41831258453E+02  0.57201477983E+01  0.45045682554E+02  0.00000000000E+00 0. -1.
         11    1    3    3    0    0  0.95681781903E+00 -0.53201519828E+01 -0.16281166348E+01  0.56453770021E+01  0.51100000000E-03 0. -1.
        -11    1    3    3    0    0 -0.58931390627E+01 -0.14686511658E+02 -0.28506314592E-01  0.15824775687E+02  0.51100000000E-03 0.  1.
         12    1    3    3    0    0 -0.10765246900E+02 -0.21824594813E+02 -0.40635248489E+01  0.24672164756E+02  0.00000000000E+00 0. -1.
</event>
<event>
 7    1  0.2297343E-008  0.4614231E+02  0.7816164E-02  0.1320468E+00
        -11   -1    0    0    0    0  0.00000000000E+00  0.00000000000E+00  0.45593999997E+02  0.45594000000E+02  0.51100000000E-03 0.  1.
         11   -1    0    0    0    0 -0.00000000000E+00 -0.00000000000E+00 -0.45593999997E+02  0.45594000000E+02  0.51100000000E-03 0. -1.
    9900012    2    1    2    0    0 -0.36760828665E+02 -0.25703786644E+02  0.41316801305E+01  0.46142312608E+02  0.99999530064E+01 0.  0.
         12    1    1    2    0    0  0.36760828665E+02  0.25703786644E+02 -0.41316801305E+01  0.45045687392E+02  0.00000000000E+00 0. -1.
         11    1    3    3    0    0 -0.12391320111E+02 -0.99470337617E+01  0.68332056015E-01  0.15890027195E+02  0.51100000000E-03 0. -1.
        -11    1    3    3    0    0 -0.13684338305E+02 -0.95003913548E+01 -0.14018405356E+01  0.16717766235E+02  0.51100000000E-03 0.  1.
         12    1    3    3    0    0 -0.10685170249E+02 -0.62563615270E+01  0.54651886101E+01  0.13534519177E+02  0.00000000000E+00 0. -1.
</event>
<event>
 7    1  0.2297343E-008  0.4614232E+02  0.7816164E-02  0.1320468E+00
        -11   -1    0    0    0    0  0.00000000000E+00  0.00000000000E+00  0.45593999997E+02  0.45594000000E+02  0.51100000000E-03 0. -1.
         11   -1    0    0    0    0 -0.00000000000E+00 -0.00000000000E+00 -0.45593999997E+02  0.45594000000E+02  0.51100000000E-03 0.  1.
    9900012    2    1    2    0    0 -0.28933536486E+02 -0.15008173549E+02 -0.31092100137E+02  0.46142317657E+02  0.99999990467E+01 0.  0.
         12    1    1    2    0    0  0.28933536486E+02  0.15008173549E+02  0.31092100137E+02  0.45045682343E+02  0.00000000000E+00 0. -1.
         11    1    3    3    0    0 -0.10621546088E+01  0.44392400575E+00 -0.17621871498E+01  0.21048859228E+01  0.51100000000E-03 0. -1.
        -11    1    3    3    0    0 -0.43504987293E+01 -0.39231710409E+01 -0.95905601847E+01  0.11238191809E+02  0.51100000000E-03 0.  1.
         12    1    3    3    0    0 -0.23520883148E+02 -0.11528926513E+02 -0.19739352803E+02  0.32799239925E+02  0.00000000000E+00 0. -1.
</event>
<event>
 7    1  0.2297343E-008  0.4614232E+02  0.7816164E-02  0.1320468E+00
        -11   -1    0    0    0    0  0.00000000000E+00  0.00000000000E+00  0.45593999997E+02  0.45594000000E+02  0.51100000000E-03 0.  1.
         11   -1    0    0    0    0 -0.00000000000E+00 -0.00000000000E+00 -0.45593999997E+02  0.45594000000E+02  0.51100000000E-03 0. -1.
    9900012    2    1    2    0    0  0.20073720934E+02  0.27281753025E+02  0.29696215366E+02  0.46142317329E+02  0.99999960588E+01 0.  0.
         12    1    1    2    0    0 -0.20073720934E+02 -0.27281753025E+02 -0.29696215366E+02  0.45045682671E+02  0.00000000000E+00 0. -1.
         11    1    3    3    0    0  0.45840113278E+00  0.26602264850E+01  0.52164170333E+01  0.58734949968E+01  0.51100000000E-03 0. -1.
        -11    1    3    3    0    0  0.13492607582E+02  0.17530721612E+02  0.13849730147E+02  0.26099649136E+02  0.51100000000E-03 0.  1.
        -12    1    3    3    0    0  0.61227122192E+01  0.70908049282E+01  0.10630068185E+02  0.14169173196E+02  0.00000000000E+00 0.  1.
</event>
<event>
 7    1  0.2297343E-008  0.4614232E+02  0.7816164E-02  0.1320468E+00
        -11   -1    0    0    0    0  0.00000000000E+00  0.00000000000E+00  0.45593999997E+02  0.45594000000E+02  0.51100000000E-03 0.  1.
         11   -1    0    0    0    0 -0.00000000000E+00 -0.00000000000E+00 -0.45593999997E+02  0.45594000000E+02  0.51100000000E-03 0. -1.
    9900012    2    1    2    0    0 -0.12328116858E+02 -0.28696391087E+02  0.32459947630E+02  0.46142317334E+02  0.99999961058E+01 0.  0.
         12    1    1    2    0    0  0.12328116858E+02  0.28696391087E+02 -0.32459947630E+02  0.45045682666E+02  0.00000000000E+00 0. -1.
         11    1    3    3    0    0 -0.11569256831E+01 -0.12111382419E+02  0.10564423196E+02  0.16113072298E+02  0.51100000000E-03 0.  1.
        -11    1    3    3    0    0 -0.12616572723E+01 -0.52218606993E+01  0.71184182422E+01  0.89180427656E+01  0.51100000000E-03 0. -1.
         12    1    3    3    0    0 -0.99095339023E+01 -0.11363147969E+02  0.14777106192E+02  0.21111202271E+02  0.00000000000E+00 0. -1.
</event>
<event>
 7    1  0.2297343E-008  0.4614232E+02  0.7816164E-02  0.1320468E+00
        -11   -1    0    0    0    0  0.00000000000E+00  0.00000000000E+00  0.45593999997E+02  0.45594000000E+02  0.51100000000E-03 0.  1.
         11   -1    0    0    0    0 -0.00000000000E+00 -0.00000000000E+00 -0.45593999997E+02  0.45594000000E+02  0.51100000000E-03 0. -1.
    9900012    2    1    2    0    0  0.78912287039E+00 -0.44534411456E+02 -0.67213817378E+01  0.46142317731E+02  0.99999997259E+01 0.  0.
         12    1    1    2    0    0 -0.78912287039E+00  0.44534411456E+02  0.67213817378E+01  0.45045682269E+02  0.00000000000E+00 0. -1.
         11    1    3    3    0    0 -0.26826203876E+01 -0.88094544515E+01 -0.11408577294E+01  0.92792508586E+01  0.51100000000E-03 0. -1.
        -11    1    3    3    0    0 -0.13595263124E+01 -0.11984412872E+02 -0.34362024161E+01  0.12541210109E+02  0.51100000000E-03 0.  1.
         12    1    3    3    0    0  0.48312695704E+01 -0.23740544132E+02 -0.21443215923E+01  0.24321856764E+02  0.00000000000E+00 0. -1.
</event>
<event>
 7    1  0.2297343E-008  0.4614232E+02  0.7816164E-02  0.1320468E+00
        -11   -1    0    0    0    0  0.00000000000E+00  0.00000000000E+00  0.45593999997E+02  0.45594000000E+02  0.51100000000E-03 0.  1.
         11   -1    0    0    0    0 -0.00000000000E+00 -0.00000000000E+00 -0.45593999997E+02  0.45594000000E+02  0.51100000000E-03 0. -1.
    9900012    2    1    2    0    0  0.32650592290E+01  0.42234167501E+02  0.15320832308E+02  0.46142318532E+02  0.10000007030E+02 0.  0.
         12    1    1    2    0    0 -0.32650592290E+01 -0.42234167501E+02 -0.15320832308E+02  0.45045681468E+02  0.00000000000E+00 0. -1.
         11    1    3    3    0    0  0.35786360428E+01  0.25295438109E+02  0.62225682814E+01  0.26294223346E+02  0.51100000000E-03 0. -1.
        -11    1    3    3    0    0  0.22680832228E+01  0.69222531160E+01  0.41179104491E+01  0.83677342474E+01  0.51100000000E-03 0.  1.
        -12    1    3    3    0    0 -0.25816600366E+01  0.10016476276E+02  0.49803535774E+01  0.11480360939E+02  0.00000000000E+00 0.  1.
</event>
<event>
 7    1  0.2297343E-008  0.4614232E+02  0.7816164E-02  0.1320468E+00
        -11   -1    0    0    0    0  0.00000000000E+00  0.00000000000E+00  0.45593999997E+02  0.45594000000E+02  0.51100000000E-03 0.  1.
         11   -1    0    0    0    0 -0.00000000000E+00 -0.00000000000E+00 -0.45593999997E+02  0.45594000000E+02  0.51100000000E-03 0. -1.
    9900012    2    1    2    0    0  0.11019113779E+02  0.33893725800E+02  0.27548284116E+02  0.46142317911E+02  0.10000001371E+02 0.  0.
         12    1    1    2    0    0 -0.11019113779E+02 -0.33893725800E+02 -0.27548284116E+02  0.45045682089E+02  0.00000000000E+00 0. -1.
         11    1    3    3    0    0  0.11919683243E+01  0.71540570765E+01  0.23612694629E+01  0.76273792929E+01  0.51100000000E-03 0. -1.
        -11    1    3    3    0    0  0.72013790620E+01  0.23997631098E+02  0.19848808060E+02  0.31964376114E+02  0.51100000000E-03 0.  1.
         12    1    3    3    0    0  0.26257663923E+01  0.27420376252E+01  0.53382065936E+01  0.65505625042E+01  0.00000000000E+00 0. -1.
</event>
<event>
 7    1  0.2297343E-008  0.4614232E+02  0.7816164E-02  0.1320468E+00
        -11   -1    0    0    0    0  0.00000000000E+00  0.00000000000E+00  0.45593999997E+02  0.45594000000E+02  0.51100000000E-03 0.  1.
         11   -1    0    0    0    0 -0.00000000000E+00 -0.00000000000E+00 -0.45593999997E+02  0.45594000000E+02  0.51100000000E-03 0. -1.
    9900012    2    1    2    0    0  0.24262822053E+02 -0.32463628465E+02  0.19660666557E+02  0.46142317448E+02  0.99999971472E+01 0.  0.
         12    1    1    2    0    0 -0.24262822053E+02  0.32463628465E+02 -0.19660666557E+02  0.45045682552E+02  0.00000000000E+00 0. -1.
         11    1    3    3    0    0  0.71862557358E+00 -0.52398639589E+01  0.23851684530E+01  0.58018639964E+01  0.51100000000E-03 0. -1.
        -11    1    3    3    0    0  0.74472650973E+01 -0.65246315086E+01  0.23786937421E+01  0.10182865900E+02  0.51100000000E-03 0.  1.
        -12    1    3    3    0    0  0.16096931382E+02 -0.20699132998E+02  0.14896804362E+02  0.30157587552E+02  0.00000000000E+00 0.  1.
</event>
<event>
 7    1  0.2297343E-008  0.4614232E+02  0.7816164E-02  0.1320468E+00
        -11   -1    0    0    0    0  0.00000000000E+00  0.00000000000E+00  0.45593999997E+02  0.45594000000E+02  0.51100000000E-03 0. -1.
         11   -1    0    0    0    0 -0.00000000000E+00 -0.00000000000E+00 -0.45593999997E+02  0.45594000000E+02  0.51100000000E-03 0.  1.
    9900012    2    1    2    0    0  0.31429906196E+02  0.32202672013E+02 -0.20645623735E+01  0.46142317565E+02  0.99999982079E+01 0.  0.
         12    1    1    2    0    0 -0.31429906196E+02 -0.32202672013E+02  0.20645623735E+01  0.45045682435E+02  0.00000000000E+00 0. -1.
         11    1    3    3    0    0  0.18572941698E+02  0.19105383171E+02  0.33655882429E+01  0.26856973283E+02  0.51100000000E-03 0. -1.
        -11    1    3    3    0    0  0.13977720298E+01  0.19300760649E+01 -0.14768837620E+01  0.28035952224E+01  0.51100000000E-03 0.  1.
        -12    1    3    3    0    0  0.11459192468E+02  0.11167212777E+02 -0.39532668544E+01  0.16481749059E+02  0.00000000000E+00 0.  1.
</event>
<event>
 7    1  0.2297343E-008  0.4614232E+02  0.7816164E-02  0.1320468E+00
        -11   -1    0    0    0    0  0.00000000000E+00  0.00000000000E+00  0.45593999997E+02  0.45594000000E+02  0.51100000000E-03 0.  1.
         11   -1    0    0    0    0 -0.00000000000E+00 -0.00000000000E+00 -0.45593999997E+02  0.45594000000E+02  0.51100000000E-03 0. -1.
    9900012    2    1    2    0    0 -0.40164229723E+02 -0.20222945985E+02  0.26420903630E+01  0.46142317243E+02  0.99999952735E+01 0.  0.
         12    1    1    2    0    0  0.40164229723E+02  0.20222945985E+02 -0.26420903630E+01  0.45045682757E+02  0.00000000000E+00 0. -1.
         11    1    3    3    0    0 -0.22330987258E+02 -0.98097411851E+01  0.58245277663E+01  0.25076465819E+02  0.51100000000E-03 0.  1.
        -11    1    3    3    0    0 -0.61113102049E+01 -0.21848093375E+01 -0.65774316693E+00  0.65233527113E+01  0.51100000000E-03 0. -1.
        -12    1    3    3    0    0 -0.11721932261E+02 -0.82283954621E+01 -0.25246942363E+01  0.14542498712E+02  0.00000000000E+00 0.  1.
</event>
<event>
 7    1  0.2297343E-008  0.4614232E+02  0.7816164E-02  0.1320468E+00
        -11   -1    0    0    0    0  0.00000000000E+00  0.00000000000E+00  0.45593999997E+02  0.45594000000E+02  0.51100000000E-03 0. -1.
         11   -1    0    0    0    0 -0.00000000000E+00 -0.00000000000E+00 -0.45593999997E+02  0.45594000000E+02  0.51100000000E-03 0.  1.
    9900012    2    1    2    0    0  0.68733588403E+01 -0.33515939409E+02 -0.29301059843E+02  0.46142319140E+02  0.10000012576E+02 0.  0.
         12    1    1    2    0    0 -0.68733588403E+01  0.33515939409E+02  0.29301059843E+02  0.45045680860E+02  0.00000000000E+00 0. -1.
         11    1    3    3    0    0  0.29449214754E+01 -0.81803457450E+01 -0.10299702380E+02  0.13478667901E+02  0.51100000000E-03 0. -1.
        -11    1    3    3    0    0  0.37158801245E+01 -0.25692489194E+02 -0.18028985269E+02  0.31606266407E+02  0.51100000000E-03 0.  1.
        -12    1    3    3    0    0  0.21255724038E+00  0.35689553058E+00 -0.97237219365E+00  0.10573848321E+01  0.00000000000E+00 0.  1.
</event>
<event>
 7    1  0.2297343E-008  0.4614232E+02  0.7816164E-02  0.1320468E+00
        -11   -1    0    0    0    0  0.00000000000E+00  0.00000000000E+00  0.45593999997E+02  0.45594000000E+02  0.51100000000E-03 0. -1.
         11   -1    0    0    0    0 -0.00000000000E+00 -0.00000000000E+00 -0.45593999997E+02  0.45594000000E+02  0.51100000000E-03 0.  1.
    9900012    2    1    2    0    0 -0.27305926774E+02  0.25883923788E+02 -0.24769382958E+02  0.46142317857E+02  0.10000000870E+02 0.  0.
         12    1    1    2    0    0  0.27305926774E+02 -0.25883923788E+02  0.24769382958E+02  0.45045682143E+02  0.00000000000E+00 0. -1.
         11    1    3    3    0    0 -0.49620996182E+01  0.83015550466E+01 -0.77812353838E+01  0.12413133093E+02  0.51100000000E-03 0. -1.
        -11    1    3    3    0    0 -0.14528838341E+02  0.13507330770E+02 -0.88108414150E+01  0.21706359777E+02  0.51100000000E-03 0.  1.
        -12    1    3    3    0    0 -0.78149888145E+01  0.40750379710E+01 -0.81773061593E+01  0.12022824987E+02  0.00000000000E+00 0.  1.
</event>
<event>
 7    1  0.2297343E-008  0.4614232E+02  0.7816164E-02  0.1320468E+00
        -11   -1    0    0    0    0  0.00000000000E+00  0.00000000000E+00  0.45593999997E+02  0.45594000000E+02  0.51100000000E-03 0.  1.
         11   -1    0    0    0    0 -0.00000000000E+00 -0.00000000000E+00 -0.45593999997E+02  0.45594000000E+02  0.51100000000E-03 0. -1.
    9900012    2    1    2    0    0  0.45371044814E+01 -0.44553652613E+02 -0.48476995182E+01  0.46142317977E+02  0.10000001972E+02 0.  0.
         12    1    1    2    0    0 -0.45371044814E+01  0.44553652613E+02  0.48476995182E+01  0.45045682023E+02  0.00000000000E+00 0. -1.
         11    1    3    3    0    0  0.96178912650E+00 -0.15121637618E+01  0.13180513675E+01  0.22246206946E+01  0.51100000000E-03 0.  1.
        -11    1    3    3    0    0 -0.41764224808E+00 -0.30361108089E+00  0.13506698109E+00  0.53371161344E+00  0.51100000000E-03 0. -1.
        -12    1    3    3    0    0  0.39929576029E+01 -0.42737877771E+02 -0.63008178668E+01  0.43383985669E+02  0.00000000000E+00 0.  1.
</event>
<event>
 7    1  0.2297343E-008  0.4614232E+02  0.7816164E-02  0.1320468E+00
        -11   -1    0    0    0    0  0.00000000000E+00  0.00000000000E+00  0.45593999997E+02  0.45594000000E+02  0.51100000000E-03 0.  1.
         11   -1    0    0    0    0 -0.00000000000E+00 -0.00000000000E+00 -0.45593999997E+02  0.45594000000E+02  0.51100000000E-03 0. -1.
    9900012    2    1    2    0    0 -0.62193324485E+01 -0.38793666667E+02  0.22033722967E+02  0.46142316330E+02  0.99999869472E+01 0.  0.
         12    1    1    2    0    0  0.62193324485E+01  0.38793666667E+02 -0.22033722967E+02  0.45045683670E+02  0.00000000000E+00 0. -1.
         11    1    3    3    0    0 -0.31947349100E+01 -0.16803952865E+02  0.91553183025E+01  0.19401005554E+02  0.51100000000E-03 0. -1.
        -11    1    3    3    0    0 -0.53145399585E+01 -0.11356373426E+02  0.74521477722E+01  0.14585817051E+02  0.51100000000E-03 0.  1.
         12    1    3    3    0    0  0.22899424199E+01 -0.10633340375E+02  0.54262568920E+01  0.12155493724E+02  0.00000000000E+00 0. -1.
</event>
<event>
 7    1  0.2297343E-008  0.4614231E+02  0.7816164E-02  0.1320468E+00
        -11   -1    0    0    0    0  0.00000000000E+00  0.00000000000E+00  0.45593999997E+02  0.45594000000E+02  0.51100000000E-03 0.  1.
         11   -1    0    0    0    0 -0.00000000000E+00 -0.00000000000E+00 -0.45593999997E+02  0.45594000000E+02  0.51100000000E-03 0. -1.
    9900012    2    1    2    0    0  0.22423529962E+02  0.17388503775E+02  0.34984839455E+02  0.46142314844E+02  0.99999734032E+01 0.  0.
         12    1    1    2    0    0 -0.22423529962E+02 -0.17388503775E+02 -0.34984839455E+02  0.45045685156E+02  0.00000000000E+00 0. -1.
         11    1    3    3    0    0 -0.19768635047E+00  0.10739502915E+00 -0.39086176378E+00  0.45098421807E+00  0.51100000000E-03 0. -1.
        -11    1    3    3    0    0  0.78203008624E+01  0.74491047601E+01  0.10043131299E+02  0.14748245789E+02  0.51100000000E-03 0.  1.
         12    1    3    3    0    0  0.14800915450E+02  0.98320039853E+01  0.25332569919E+02  0.30943084837E+02  0.00000000000E+00 0. -1.
</event>
<event>
 7    1  0.2297343E-008  0.4614232E+02  0.7816164E-02  0.1320468E+00
        -11   -1    0    0    0    0  0.00000000000E+00  0.00000000000E+00  0.45593999997E+02  0.45594000000E+02  0.51100000000E-03 0.  1.
         11   -1    0    0    0    0 -0.00000000000E+00 -0.00000000000E+00 -0.45593999997E+02  0.45594000000E+02  0.51100000000E-03 0. -1.
    9900012    2    1    2    0    0 -0.43911068641E+01 -0.33632673236E+02  0.29642453777E+02  0.46142316584E+02  0.99999892678E+01 0.  0.
         12    1    1    2    0    0  0.43911068641E+01  0.33632673236E+02 -0.29642453777E+02  0.45045683416E+02  0.00000000000E+00 0. -1.
         11    1    3    3    0    0 -0.50172332983E-01 -0.61513157775E+01  0.10484559669E+02  0.12155953059E+02  0.51100000000E-03 0. -1.
        -11    1    3    3    0    0 -0.44756701081E+01 -0.22698364342E+02  0.17142667411E+02  0.28794416350E+02  0.51100000000E-03 0.  1.
         12    1    3    3    0    0  0.13473557699E+00 -0.47829931165E+01  0.20152266966E+01  0.51919471749E+01  0.00000000000E+00 0. -1.
</event>
<event>
 7    1  0.2317575E-008  0.4614232E+02  0.7816164E-02  0.1320468E+00
        -11   -1    0    0    0    0  0.00000000000E+00  0.00000000000E+00  0.45593999997E+02  0.45594000000E+02  0.51100000000E-03 0. -1.
         11   -1    0    0    0    0 -0.00000000000E+00 -0.00000000000E+00 -0.45593999997E+02  0.45594000000E+02  0.51100000000E-03 0.  1.
    9900012    2    1    2    0    0 -0.20055970637E+02  0.52214693631E+01 -0.39995096904E+02  0.46142317889E+02  0.10000001163E+02 0.  0.
         12    1    1    2    0    0  0.20055970637E+02 -0.52214693631E+01  0.39995096904E+02  0.45045682111E+02  0.00000000000E+00 0. -1.
         11    1    3    3    0    0 -0.76858382505E+01  0.30990657064E+01 -0.16421810954E+02  0.18394352208E+02  0.51100000000E-03 0. -1.
        -11    1    3    3    0    0 -0.96265172106E+01  0.18496159539E+01 -0.22899926826E+02  0.24909788471E+02  0.51100000000E-03 0.  1.
         12    1    3    3    0    0 -0.27436151762E+01  0.27278770287E+00 -0.67335912445E+00  0.28381772102E+01  0.00000000000E+00 0. -1.
</event>
<event>
 7    1  0.2297343E-008  0.4614231E+02  0.7816164E-02  0.1320468E+00
        -11   -1    0    0    0    0  0.00000000000E+00  0.00000000000E+00  0.45593999997E+02  0.45594000000E+02  0.51100000000E-03 0. -1.
         11   -1    0    0    0    0 -0.00000000000E+00 -0.00000000000E+00 -0.45593999997E+02  0.45594000000E+02  0.51100000000E-03 0.  1.
    9900012    2    1    2    0    0  0.29021096774E+02 -0.14395905657E+02 -0.31299322591E+02  0.46142314832E+02  0.99999732856E+01 0.  0.
         12    1    1    2    0    0 -0.29021096774E+02  0.14395905657E+02  0.31299322591E+02  0.45045685168E+02  0.00000000000E+00 0. -1.
         11    1    3    3    0    0  0.10425296258E+02 -0.62051535084E+01 -0.10105077587E+02  0.15789342147E+02  0.51100000000E-03 0. -1.
        -11    1    3    3    0    0  0.46676256727E+01 -0.58046941094E+01 -0.90449602497E+01  0.11717188626E+02  0.51100000000E-03 0.  1.
        -12    1    3    3    0    0  0.13928174843E+02 -0.23860580390E+01 -0.12149284754E+02  0.18635784058E+02  0.00000000000E+00 0.  1.
</event>
<event>
 7    1  0.2297343E-008  0.4614232E+02  0.7816164E-02  0.1320468E+00
        -11   -1    0    0    0    0  0.00000000000E+00  0.00000000000E+00  0.45593999997E+02  0.45594000000E+02  0.51100000000E-03 0. -1.
         11   -1    0    0    0    0 -0.00000000000E+00 -0.00000000000E+00 -0.45593999997E+02  0.45594000000E+02  0.51100000000E-03 0.  1.
    9900012    2    1    2    0    0 -0.38788467604E+02  0.85887395626E+01  0.21232095242E+02  0.46142317246E+02  0.99999953068E+01 0.  0.
         12    1    1    2    0    0  0.38788467604E+02 -0.85887395626E+01 -0.21232095242E+02  0.45045682754E+02  0.00000000000E+00 0. -1.
         11    1    3    3    0    0 -0.12010502682E+02  0.53288887244E+01  0.10634779884E+02  0.16904075637E+02  0.51100000000E-03 0. -1.
        -11    1    3    3    0    0 -0.71798264261E+00  0.73348582446E+00  0.10422660765E+00  0.10316801717E+01  0.51100000000E-03 0.  1.
         12    1    3    3    0    0 -0.26059982280E+02  0.25263650138E+01  0.10493088751E+02  0.28206561437E+02  0.00000000000E+00 0. -1.
</event>
<event>
 7    1  0.2297343E-008  0.4614232E+02  0.7816164E-02  0.1320468E+00
        -11   -1    0    0    0    0  0.00000000000E+00  0.00000000000E+00  0.45593999997E+02  0.45594000000E+02  0.51100000000E-03 0.  1.
         11   -1    0    0    0    0 -0.00000000000E+00 -0.00000000000E+00 -0.45593999997E+02  0.45594000000E+02  0.51100000000E-03 0. -1.
    9900012    2    1    2    0    0 -0.44407560500E+02  0.44176280572E+01 -0.61291601657E+01  0.46142317948E+02  0.10000001705E+02 0.  0.
         12    1    1    2    0    0  0.44407560500E+02 -0.44176280572E+01  0.61291601657E+01  0.45045682052E+02  0.00000000000E+00 0. -1.
         11    1    3    3    0    0 -0.15704896942E+02  0.95201912284E+00 -0.27472991945E+01  0.15971780787E+02  0.51100000000E-03 0. -1.
        -11    1    3    3    0    0 -0.18414713689E+02  0.16625029697E+01  0.16763142597E+01  0.18565441717E+02  0.51100000000E-03 0.  1.
        -12    1    3    3    0    0 -0.10287949869E+02  0.18031059646E+01 -0.50581752308E+01  0.11605095445E+02  0.00000000000E+00 0.  1.
</event>
<event>
 7    1  0.2297343E-008  0.4614232E+02  0.7816164E-02  0.1320468E+00
        -11   -1    0    0    0    0  0.00000000000E+00  0.00000000000E+00  0.45593999997E+02  0.45594000000E+02  0.51100000000E-03 0.  1.
         11   -1    0    0    0    0 -0.00000000000E+00 -0.00000000000E+00 -0.45593999997E+02  0.45594000000E+02  0.51100000000E-03 0. -1.
    9900012    2    1    2    0    0  0.18636696250E+02 -0.12397199411E+02  0.39090874463E+02  0.46142318003E+02  0.10000002204E+02 0.  0.
         12    1    1    2    0    0 -0.18636696250E+02  0.12397199411E+02 -0.39090874463E+02  0.45045681997E+02  0.00000000000E+00 0. -1.
         11    1    3    3    0    0 -0.47305176632E+00 -0.70352276589E+00  0.36139203976E+00  0.92158923782E+00  0.51100000000E-03 0. -1.
        -11    1    3    3    0    0  0.11177288213E+02 -0.10470435114E+02  0.25106008290E+02  0.29408730604E+02  0.51100000000E-03 0.  1.
         12    1    3    3    0    0  0.79324598033E+01 -0.12232415315E+01  0.13623474133E+02  0.15811998161E+02  0.00000000000E+00 0. -1.
</event>
<event>
 7    1  0.2297343E-008  0.4614232E+02  0.7816164E-02  0.1320468E+00
        -11   -1    0    0    0    0  0.00000000000E+00  0.00000000000E+00  0.45593999997E+02  0.45594000000E+02  0.51100000000E-03 0. -1.
         11   -1    0    0    0    0 -0.00000000000E+00 -0.00000000000E+00 -0.45593999997E+02  0.45594000000E+02  0.51100000000E-03 0.  1.
    9900012    2    1    2    0    0  0.25603508032E+02 -0.35778636341E+02 -0.96676311749E+01  0.46142317249E+02  0.99999953302E+01 0.  0.
         12    1    1    2    0    0 -0.25603508032E+02  0.35778636341E+02  0.96676311749E+01  0.45045682751E+02  0.00000000000E+00 0. -1.
         11    1    3    3    0    0  0.12996662796E+02 -0.21089552401E+02 -0.52802948756E+01  0.25329113260E+02  0.51100000000E-03 0. -1.
        -11    1    3    3    0    0  0.11310981011E+02 -0.14945652960E+02 -0.49366902632E+01  0.19382511314E+02  0.51100000000E-03 0.  1.
        -12    1    3    3    0    0  0.12958642252E+01  0.25656901990E+00  0.54935396388E+00  0.14306926748E+01  0.00000000000E+00 0.  1.
</event>
<event>
 7    1  0.2297343E-008  0.4614232E+02  0.7816164E-02  0.1320468E+00
        -11   -1    0    0    0    0  0.00000000000E+00  0.00000000000E+00  0.45593999997E+02  0.45594000000E+02  0.51100000000E-03 0. -1.
         11   -1    0    0    0    0 -0.00000000000E+00 -0.00000000000E+00 -0.45593999997E+02  0.45594000000E+02  0.51100000000E-03 0.  1.
    9900012    2    1    2    0    0 -0.11127799488E+01 -0.17097448865E+02 -0.41659961829E+02  0.46142318115E+02  0.10000003226E+02 0.  0.
         12    1    1    2    0    0  0.11127799488E+01  0.17097448865E+02  0.41659961829E+02  0.45045681885E+02  0.00000000000E+00 0. -1.
         11    1    3    3    0    0 -0.14578233944E+01 -0.23278845100E+01 -0.26867175711E+01  0.38422320218E+01  0.51100000000E-03 0. -1.
        -11    1    3    3    0    0  0.19891687550E+01 -0.11597663854E+02 -0.35150307564E+02  0.37067596649E+02  0.51100000000E-03 0.  1.
        -12    1    3    3    0    0 -0.16441253094E+01 -0.31719005008E+01 -0.38229366934E+01  0.52324894441E+01  0.00000000000E+00 0.  1.
</event>
<event>
 7    1  0.2297343E-008  0.4614232E+02  0.7816164E-02  0.1320468E+00
        -11   -1    0    0    0    0  0.00000000000E+00  0.00000000000E+00  0.45593999997E+02  0.45594000000E+02  0.51100000000E-03 0. -1.
         11   -1    0    0    0    0 -0.00000000000E+00 -0.00000000000E+00 -0.45593999997E+02  0.45594000000E+02  0.51100000000E-03 0.  1.
    9900012    2    1    2    0    0  0.21454205404E+02 -0.29864759207E+02 -0.26017814058E+02  0.46142318516E+02  0.10000006883E+02 0.  0.
         12    1    1    2    0    0 -0.21454205404E+02  0.29864759207E+02  0.26017814058E+02  0.45045681484E+02  0.00000000000E+00 0. -1.
         11    1    3    3    0    0  0.41841362929E+01 -0.65354529412E+01 -0.46678341952E+01  0.90558168046E+01  0.51100000000E-03 0.  1.
        -11    1    3    3    0    0  0.11109687315E+02 -0.19665472483E+02 -0.12918114718E+02  0.26019870260E+02  0.51100000000E-03 0. -1.
        -12    1    3    3    0    0  0.61603817962E+01 -0.36638337833E+01 -0.84318651446E+01  0.11066631451E+02  0.00000000000E+00 0.  1.
</event>
<event>
 7    1  0.2297343E-008  0.4614232E+02  0.7816164E-02  0.1320468E+00
        -11   -1    0    0    0    0  0.00000000000E+00  0.00000000000E+00  0.45593999997E+02  0.45594000000E+02  0.51100000000E-03 0. -1.
         11   -1    0    0    0    0 -0.00000000000E+00 -0.00000000000E+00 -0.45593999997E+02  0.45594000000E+02  0.51100000000E-03 0.  1.
    9900012    2    1    2    0    0 -0.97610284232E+01 -0.17935949081E+02 -0.40151432639E+02  0.46142317762E+02  0.10000000008E+02 0.  0.
         12    1    1    2    0    0  0.97610284232E+01  0.17935949081E+02  0.40151432639E+02  0.45045682238E+02  0.00000000000E+00 0. -1.
         11    1    3    3    0    0 -0.55068602087E+01 -0.17925061272E+01 -0.13326480427E+02  0.14530439374E+02  0.51100000000E-03 0. -1.
        -11    1    3    3    0    0 -0.12744591599E+01 -0.64626792929E+01 -0.11083485340E+02  0.12893181040E+02  0.51100000000E-03 0.  1.
         12    1    3    3    0    0 -0.29797090547E+01 -0.96807636604E+01 -0.15741466873E+02  0.18718697348E+02  0.00000000000E+00 0. -1.
</event>
<event>
 7    1  0.2297343E-008  0.4614232E+02  0.7816164E-02  0.1320468E+00
        -11   -1    0    0    0    0  0.00000000000E+00  0.00000000000E+00  0.45593999997E+02  0.45594000000E+02  0.51100000000E-03 0.  1.
         11   -1    0    0    0    0 -0.00000000000E+00 -0.00000000000E+00 -0.45593999997E+02  0.45594000000E+02  0.51100000000E-03 0. -1.
    9900012    2    1    2    0    0 -0.40185584036E+02 -0.20268313167E+02  0.18514675196E+01  0.46142316356E+02  0.99999871908E+01 0.  0.
         12    1    1    2    0    0  0.40185584036E+02  0.20268313167E+02 -0.18514675196E+01  0.45045683644E+02  0.00000000000E+00 0. -1.
         11    1    3    3    0    0 -0.12865891442E+02 -0.39305526680E+01 -0.20955965302E+01  0.13615136134E+02  0.51100000000E-03 0. -1.
        -11    1    3    3    0    0 -0.13931922532E+02 -0.58916397435E+01  0.35698905437E+01  0.15542007691E+02  0.51100000000E-03 0.  1.
         12    1    3    3    0    0 -0.13387770062E+02 -0.10446120756E+02  0.37717350616E+00  0.16985172532E+02  0.00000000000E+00 0. -1.
</event>
<event>
 7    1  0.2297343E-008  0.4614232E+02  0.7816164E-02  0.1320468E+00
        -11   -1    0    0    0    0  0.00000000000E+00  0.00000000000E+00  0.45593999997E+02  0.45594000000E+02  0.51100000000E-03 0.  1.
         11   -1    0    0    0    0 -0.00000000000E+00 -0.00000000000E+00 -0.45593999997E+02  0.45594000000E+02  0.51100000000E-03 0. -1.
    9900012    2    1    2    0    0  0.11239523552E+02 -0.41383403105E+02 -0.13791322203E+02  0.46142317517E+02  0.99999977728E+01 0.  0.
         12    1    1    2    0    0 -0.11239523552E+02  0.41383403105E+02  0.13791322203E+02  0.45045682483E+02  0.00000000000E+00 0. -1.
         11    1    3    3    0    0  0.71426875430E+01 -0.23962123604E+02 -0.72709852941E+01  0.26039750005E+02  0.51100000000E-03 0. -1.
        -11    1    3    3    0    0  0.55443901279E+01 -0.10514508709E+02 -0.32390644910E+01  0.12320174281E+02  0.51100000000E-03 0.  1.
         12    1    3    3    0    0 -0.14475541186E+01 -0.69067707926E+01 -0.32812724183E+01  0.77823932303E+01  0.00000000000E+00 0. -1.
</event>
<event>
 7    1  0.2297343E-008  0.4614232E+02  0.7816164E-02  0.1320468E+00
        -11   -1    0    0    0    0  0.00000000000E+00  0.00000000000E+00  0.45593999997E+02  0.45594000000E+02  0.51100000000E-03 0.  1.
         11   -1    0    0    0    0 -0.00000000000E+00 -0.00000000000E+00 -0.45593999997E+02  0.45594000000E+02  0.51100000000E-03 0. -1.
    9900012    2    1    2    0    0  0.21698508949E+02 -0.12968735957E+02  0.37284047553E+02  0.46142316468E+02  0.99999882088E+01 0.  0.
         12    1    1    2    0    0 -0.21698508949E+02  0.12968735957E+02 -0.37284047553E+02  0.45045683532E+02  0.00000000000E+00 0. -1.
         11    1    3    3    0    0 -0.90723067177E-01  0.33329695995E+00  0.32864140560E+01  0.33045173849E+01  0.51100000000E-03 0. -1.
        -11    1    3    3    0    0  0.15377508359E+02 -0.64492205139E+01  0.21472812749E+02  0.27187164180E+02  0.51100000000E-03 0.  1.
         12    1    3    3    0    0  0.64117236570E+01 -0.68528124026E+01  0.12524820749E+02  0.15650634903E+02  0.00000000000E+00 0. -1.
</event>
<event>
 7    1  0.2297343E-008  0.4614232E+02  0.7816164E-02  0.1320468E+00
        -11   -1    0    0    0    0  0.00000000000E+00  0.00000000000E+00  0.45593999997E+02  0.45594000000E+02  0.51100000000E-03 0.  1.
         11   -1    0    0    0    0 -0.00000000000E+00 -0.00000000000E+00 -0.45593999997E+02  0.45594000000E+02  0.51100000000E-03 0. -1.
    9900012    2    1    2    0    0 -0.15720555090E+02  0.42160563226E+02  0.21129557193E+01  0.46142317346E+02  0.99999962185E+01 0.  0.
         12    1    1    2    0    0  0.15720555090E+02 -0.42160563226E+02 -0.21129557193E+01  0.45045682654E+02  0.00000000000E+00 0. -1.
         11    1    3    3    0    0 -0.43851122182E+01  0.18144743169E+02  0.29825829105E+01  0.18903880948E+02  0.51100000000E-03 0. -1.
        -11    1    3    3    0    0 -0.17781936336E+01  0.61993129152E+01 -0.25843263563E+01  0.69478195282E+01  0.51100000000E-03 0.  1.
         12    1    3    3    0    0 -0.95572492382E+01  0.17816507142E+02  0.17146991651E+01  0.20290616870E+02  0.00000000000E+00 0. -1.
</event>
<event>
 7    1  0.2297343E-008  0.4614232E+02  0.7816164E-02  0.1320468E+00
        -11   -1    0    0    0    0  0.00000000000E+00  0.00000000000E+00  0.45593999997E+02  0.45594000000E+02  0.51100000000E-03 0.  1.
         11   -1    0    0    0    0 -0.00000000000E+00 -0.00000000000E+00 -0.45593999997E+02  0.45594000000E+02  0.51100000000E-03 0. -1.
    9900012    2    1    2    0    0  0.22161554907E+02 -0.58534303336E+01  0.38777780870E+02  0.46142318167E+02  0.10000003700E+02 0.  0.
         12    1    1    2    0    0 -0.22161554907E+02  0.58534303336E+01 -0.38777780870E+02  0.45045681833E+02  0.00000000000E+00 0. -1.
         11    1    3    3    0    0  0.49590190756E+01 -0.20432515551E+01  0.18310726485E+02  0.19080079973E+02  0.51100000000E-03 0. -1.
        -11    1    3    3    0    0  0.42049562328E+01 -0.56578925495E+00  0.39655517979E+01  0.58075275052E+01  0.51100000000E-03 0.  1.
         12    1    3    3    0    0  0.12997579599E+02 -0.32443895235E+01  0.16501502587E+02  0.21254710688E+02  0.00000000000E+00 0. -1.
</event>
<event>
 7    1  0.2297343E-008  0.4614232E+02  0.7816164E-02  0.1320468E+00
        -11   -1    0    0    0    0  0.00000000000E+00  0.00000000000E+00  0.45593999997E+02  0.45594000000E+02  0.51100000000E-03 0. -1.
         11   -1    0    0    0    0 -0.00000000000E+00 -0.00000000000E+00 -0.45593999997E+02  0.45594000000E+02  0.51100000000E-03 0.  1.
    9900012    2    1    2    0    0  0.29569164924E+02 -0.21574626059E+02 -0.26254783677E+02  0.46142315747E+02  0.99999816344E+01 0.  0.
         12    1    1    2    0    0 -0.29569164924E+02  0.21574626059E+02  0.26254783677E+02  0.45045684253E+02  0.00000000000E+00 0. -1.
         11    1    3    3    0    0  0.24502647421E+01 -0.41944252597E+01 -0.22226877449E+01  0.53420353460E+01  0.51100000000E-03 0. -1.
        -11    1    3    3    0    0  0.19394366791E+02 -0.84419584879E+01 -0.15047949334E+02  0.25958599841E+02  0.51100000000E-03 0.  1.
        -12    1    3    3    0    0  0.77245333912E+01 -0.89382423112E+01 -0.89841465988E+01  0.14841680560E+02  0.00000000000E+00 0.  1.
</event>
<event>
 7    1  0.2297343E-008  0.4614232E+02  0.7816164E-02  0.1320468E+00
        -11   -1    0    0    0    0  0.00000000000E+00  0.00000000000E+00  0.45593999997E+02  0.45594000000E+02  0.51100000000E-03 0. -1.
         11   -1    0    0    0    0 -0.00000000000E+00 -0.00000000000E+00 -0.45593999997E+02  0.45594000000E+02  0.51100000000E-03 0.  1.
    9900012    2    1    2    0    0 -0.24325091229E+02  0.98332525803E+01 -0.36615715372E+02  0.46142317279E+02  0.99999956047E+01 0.  0.
         12    1    1    2    0    0  0.24325091229E+02 -0.98332525803E+01  0.36615715372E+02  0.45045682721E+02  0.00000000000E+00 0. -1.
         11    1    3    3    0    0 -0.37721370566E+00  0.91834179440E+00 -0.33398634644E+01  0.34842976412E+01  0.51100000000E-03 0. -1.
        -11    1    3    3    0    0 -0.97411321998E+01  0.75767067157E+01 -0.17093412945E+02  0.21082715849E+02  0.51100000000E-03 0.  1.
         12    1    3    3    0    0 -0.14206745324E+02  0.13382040702E+01 -0.16182438962E+02  0.21575303789E+02  0.00000000000E+00 0. -1.
</event>
<event>
 7    1  0.2297343E-008  0.4614232E+02  0.7816164E-02  0.1320468E+00
        -11   -1    0    0    0    0  0.00000000000E+00  0.00000000000E+00  0.45593999997E+02  0.45594000000E+02  0.51100000000E-03 0.  1.
         11   -1    0    0    0    0 -0.00000000000E+00 -0.00000000000E+00 -0.45593999997E+02  0.45594000000E+02  0.51100000000E-03 0. -1.
    9900012    2    1    2    0    0 -0.61941829031E+01  0.41540838794E+02 -0.16282023464E+02  0.46142317880E+02  0.10000001085E+02 0.  0.
         12    1    1    2    0    0  0.61941829031E+01 -0.41540838794E+02  0.16282023464E+02  0.45045682120E+02  0.00000000000E+00 0. -1.
         11    1    3    3    0    0  0.14602126797E+01  0.79664499102E+01 -0.26558751086E+01  0.85235097287E+01  0.51100000000E-03 0. -1.
        -11    1    3    3    0    0 -0.13563414471E+01  0.10684750390E+01  0.19878845298E+00  0.17380500972E+01  0.51100000000E-03 0.  1.
        -12    1    3    3    0    0 -0.62980541357E+01  0.32505913845E+02 -0.13824936808E+02  0.35880758054E+02  0.00000000000E+00 0.  1.
</event>
<event>
 7    1  0.2297343E-008  0.4614231E+02  0.7816164E-02  0.1320468E+00
        -11   -1    0    0    0    0  0.00000000000E+00  0.00000000000E+00  0.45593999997E+02  0.45594000000E+02  0.51100000000E-03 0.  1.
         11   -1    0    0    0    0 -0.00000000000E+00 -0.00000000000E+00 -0.45593999997E+02  0.45594000000E+02  0.51100000000E-03 0. -1.
    9900012    2    1    2    0    0 -0.12370559405E+02 -0.97777166595E+01  0.42195725609E+02  0.46142314938E+02  0.99999742562E+01 0.  0.
         12    1    1    2    0    0  0.12370559405E+02  0.97777166595E+01 -0.42195725609E+02  0.45045685062E+02  0.00000000000E+00 0. -1.
         11    1    3    3    0    0 -0.91744971487E+00 -0.47141066396E+01  0.75387772818E+01  0.89385501372E+01  0.51100000000E-03 0. -1.
        -11    1    3    3    0    0 -0.14462389545E+01 -0.27846732604E+01  0.10452825607E+02  0.10913641725E+02  0.51100000000E-03 0.  1.
        -12    1    3    3    0    0 -0.10006870736E+02 -0.22789367596E+01  0.24204122720E+02  0.26290123075E+02  0.00000000000E+00 0.  1.
</event>
<event>
 7    1  0.2297343E-008  0.4614232E+02  0.7816164E-02  0.1320468E+00
        -11   -1    0    0    0    0  0.00000000000E+00  0.00000000000E+00  0.45593999997E+02  0.45594000000E+02  0.51100000000E-03 0.  1.
         11   -1    0    0    0    0 -0.00000000000E+00 -0.00000000000E+00 -0.45593999997E+02  0.45594000000E+02  0.51100000000E-03 0. -1.
    9900012    2    1    2    0    0  0.22468589361E+02  0.46767066908E+00  0.39039176510E+02  0.46142317340E+02  0.99999961566E+01 0.  0.
         12    1    1    2    0    0 -0.22468589361E+02 -0.46767066908E+00 -0.39039176510E+02  0.45045682660E+02  0.00000000000E+00 0. -1.
         11    1    3    3    0    0  0.73847252694E+01  0.23423110945E+00  0.84989122070E+01  0.11261462626E+02  0.51100000000E-03 0.  1.
        -11    1    3    3    0    0  0.60169808309E+01 -0.19983406269E+01  0.64503613027E+01  0.90445887014E+01  0.51100000000E-03 0. -1.
         12    1    3    3    0    0  0.90668832608E+01  0.22317801865E+01  0.24089903001E+02  0.25836266012E+02  0.00000000000E+00 0. -1.
</event>
<event>
 7    1  0.2297343E-008  0.4614232E+02  0.7816164E-02  0.1320468E+00
        -11   -1    0    0    0    0  0.00000000000E+00  0.00000000000E+00  0.45593999997E+02  0.45594000000E+02  0.51100000000E-03 0. -1.
         11   -1    0    0    0    0 -0.00000000000E+00 -0.00000000000E+00 -0.45593999997E+02  0.45594000000E+02  0.51100000000E-03 0.  1.
    9900012    2    1    2    0    0  0.19473088247E+02 -0.33213561582E+02 -0.23383149399E+02  0.46142317469E+02  0.99999973398E+01 0.  0.
         12    1    1    2    0    0 -0.19473088247E+02  0.33213561582E+02  0.23383149399E+02  0.45045682531E+02  0.00000000000E+00 0. -1.
         11    1    3    3    0    0  0.11931759175E+02 -0.12979009468E+02 -0.13895334462E+02  0.22447758994E+02  0.51100000000E-03 0. -1.
        -11    1    3    3    0    0  0.15161321463E+01 -0.44368680383E+01 -0.10791059590E+01  0.48113329345E+01  0.51100000000E-03 0.  1.
        -12    1    3    3    0    0  0.60251969250E+01 -0.15797684076E+02 -0.84087089784E+01  0.18883225541E+02  0.00000000000E+00 0.  1.
</event>
<event>
 7    1  0.2297343E-008  0.4614232E+02  0.7816164E-02  0.1320468E+00
        -11   -1    0    0    0    0  0.00000000000E+00  0.00000000000E+00  0.45593999997E+02  0.45594000000E+02  0.51100000000E-03 0.  1.
         11   -1    0    0    0    0 -0.00000000000E+00 -0.00000000000E+00 -0.45593999997E+02  0.45594000000E+02  0.51100000000E-03 0. -1.
    9900012    2    1    2    0    0  0.25494925820E+02 -0.34550162878E+02  0.13616476303E+02  0.46142318471E+02  0.10000006474E+02 0.  0.
         12    1    1    2    0    0 -0.25494925820E+02  0.34550162878E+02 -0.13616476303E+02  0.45045681529E+02  0.00000000000E+00 0. -1.
         11    1    3    3    0    0  0.89494118382E+01 -0.86906212349E+01  0.41152527917E+01  0.13135987801E+02  0.51100000000E-03 0. -1.
        -11    1    3    3    0    0  0.95645758805E+01 -0.16449178663E+02  0.20900994434E+01  0.19142233579E+02  0.51100000000E-03 0.  1.
        -12    1    3    3    0    0  0.69809381012E+01 -0.94103629808E+01  0.74111240683E+01  0.13864097091E+02  0.00000000000E+00 0.  1.
</event>
<event>
 7    1  0.2297343E-008  0.4614232E+02  0.7816164E-02  0.1320468E+00
        -11   -1    0    0    0    0  0.00000000000E+00  0.00000000000E+00  0.45593999997E+02  0.45594000000E+02  0.51100000000E-03 0.  1.
         11   -1    0    0    0    0 -0.00000000000E+00 -0.00000000000E+00 -0.45593999997E+02  0.45594000000E+02  0.51100000000E-03 0. -1.
    9900012    2    1    2    0    0 -0.21356966746E+02 -0.17185966311E+02  0.35744034487E+02  0.46142317987E+02  0.10000002056E+02 0.  0.
         12    1    1    2    0    0  0.21356966746E+02  0.17185966311E+02 -0.35744034487E+02  0.45045682013E+02  0.00000000000E+00 0. -1.
         11    1    3    3    0    0 -0.40517966994E+01 -0.48257820746E+01  0.11266988172E+02  0.12909308729E+02  0.51100000000E-03 0. -1.
        -11    1    3    3    0    0 -0.16086622562E+02 -0.13203730208E+02  0.21587899667E+02  0.29985918848E+02  0.51100000000E-03 0.  1.
         12    1    3    3    0    0 -0.12185474842E+01  0.84354597110E+00  0.28891466483E+01  0.32470904102E+01  0.00000000000E+00 0. -1.
</event>
<event>
 7    1  0.2297343E-008  0.4614232E+02  0.7816164E-02  0.1320468E+00
        -11   -1    0    0    0    0  0.00000000000E+00  0.00000000000E+00  0.45593999997E+02  0.45594000000E+02  0.51100000000E-03 0. -1.
         11   -1    0    0    0    0 -0.00000000000E+00 -0.00000000000E+00 -0.45593999997E+02  0.45594000000E+02  0.51100000000E-03 0.  1.
    9900012    2    1    2    0    0  0.10232772037E+02  0.36651135856E+02  0.24105975772E+02  0.46142318175E+02  0.10000003778E+02 0.  0.
         12    1    1    2    0    0 -0.10232772037E+02 -0.36651135856E+02 -0.24105975772E+02  0.45045681825E+02  0.00000000000E+00 0. -1.
         11    1    3    3    0    0  0.44336535857E+01  0.12188964756E+02  0.57962514290E+01  0.14206501217E+02  0.51100000000E-03 0. -1.
        -11    1    3    3    0    0  0.61271640097E+01  0.21877103397E+02  0.13396999445E+02  0.26374786942E+02  0.51100000000E-03 0.  1.
         12    1    3    3    0    0 -0.32804555848E+00  0.25850677031E+01  0.49127248977E+01  0.55610300160E+01  0.00000000000E+00 0. -1.
</event>
<event>
 7    1  0.2297343E-008  0.4614232E+02  0.7816164E-02  0.1320468E+00
        -11   -1    0    0    0    0  0.00000000000E+00  0.00000000000E+00  0.45593999997E+02  0.45594000000E+02  0.51100000000E-03 0. -1.
         11   -1    0    0    0    0 -0.00000000000E+00 -0.00000000000E+00 -0.45593999997E+02  0.45594000000E+02  0.51100000000E-03 0.  1.
    9900012    2    1    2    0    0 -0.41583795157E+02  0.15660282067E+01  0.17246714749E+02  0.46142316149E+02  0.99999852975E+01 0.  0.
         12    1    1    2    0    0  0.41583795157E+02 -0.15660282067E+01 -0.17246714749E+02  0.45045683851E+02  0.00000000000E+00 0. -1.
         11    1    3    3    0    0 -0.10442663997E+02 -0.26843937446E+01  0.30826707702E+01  0.11214190139E+02  0.51100000000E-03 0. -1.
        -11    1    3    3    0    0 -0.74230804921E+01 -0.53095111877E+00  0.53991353465E+01  0.91942751663E+01  0.51100000000E-03 0.  1.
         12    1    3    3    0    0 -0.23718050668E+02  0.47813730701E+01  0.87649086325E+01  0.25733850844E+02  0.00000000000E+00 0. -1.
</event>
<event>
 7    1  0.2297343E-008  0.4614232E+02  0.7816164E-02  0.1320468E+00
        -11   -1    0    0    0    0  0.00000000000E+00  0.00000000000E+00  0.45593999997E+02  0.45594000000E+02  0.51100000000E-03 0. -1.
         11   -1    0    0    0    0 -0.00000000000E+00 -0.00000000000E+00 -0.45593999997E+02  0.45594000000E+02  0.51100000000E-03 0.  1.
    9900012    2    1    2    0    0  0.35988498267E+02  0.12595674637E+02 -0.23985214167E+02  0.46142317347E+02  0.99999962246E+01 0.  0.
         12    1    1    2    0    0 -0.35988498267E+02 -0.12595674637E+02  0.23985214167E+02  0.45045682653E+02  0.00000000000E+00 0. -1.
         11    1    3    3    0    0  0.17498323026E+02  0.87326549301E+01 -0.14561066437E+02  0.24381862662E+02  0.51100000000E-03 0. -1.
        -11    1    3    3    0    0  0.15006494817E+02  0.42457124243E+01 -0.94885358036E+01  0.18255225900E+02  0.51100000000E-03 0.  1.
         12    1    3    3    0    0  0.34836804239E+01 -0.38269271748E+00  0.64388074256E-01  0.35052287851E+01  0.00000000000E+00 0. -1.
</event>
<event>
 7    1  0.2297343E-008  0.4614232E+02  0.7816164E-02  0.1320468E+00
        -11   -1    0    0    0    0  0.00000000000E+00  0.00000000000E+00  0.45593999997E+02  0.45594000000E+02  0.51100000000E-03 0. -1.
         11   -1    0    0    0    0 -0.00000000000E+00 -0.00000000000E+00 -0.45593999997E+02  0.45594000000E+02  0.51100000000E-03 0.  1.
    9900012    2    1    2    0    0 -0.42014979117E+02 -0.14578260395E+02 -0.71644515696E+01  0.46142317492E+02  0.99999975415E+01 0.  0.
         12    1    1    2    0    0  0.42014979117E+02  0.14578260395E+02  0.71644515696E+01  0.45045682508E+02  0.00000000000E+00 0. -1.
         11    1    3    3    0    0 -0.31464185006E+01 -0.26563468471E+01  0.90101283975E+00  0.42152049003E+01  0.51100000000E-03 0. -1.
        -11    1    3    3    0    0 -0.19199379604E+01  0.65018725514E+00 -0.10131212026E+01  0.22661244605E+01  0.51100000000E-03 0.  1.
        -12    1    3    3    0    0 -0.36948622656E+02 -0.12572100803E+02 -0.70523432068E+01  0.39660988131E+02  0.00000000000E+00 0.  1.
</event>
<event>
 7    1  0.2297343E-008  0.4614232E+02  0.7816164E-02  0.1320468E+00
        -11   -1    0    0    0    0  0.00000000000E+00  0.00000000000E+00  0.45593999997E+02  0.45594000000E+02  0.51100000000E-03 0.  1.
         11   -1    0    0    0    0 -0.00000000000E+00 -0.00000000000E+00 -0.45593999997E+02  0.45594000000E+02  0.51100000000E-03 0. -1.
    9900012    2    1    2    0    0  0.38967965126E+02 -0.10160009395E+02  0.20183792144E+02  0.46142316941E+02  0.99999925235E+01 0.  0.
         12    1    1    2    0    0 -0.38967965126E+02  0.10160009395E+02 -0.20183792144E+02  0.45045683059E+02  0.00000000000E+00 0. -1.
         11    1    3    3    0    0  0.16615972078E+02 -0.41216493046E+01  0.72010187968E+01  0.18572377151E+02  0.51100000000E-03 0. -1.
        -11    1    3    3    0    0  0.17337273835E+02 -0.22890982176E+01  0.12055201856E+02  0.21240266635E+02  0.51100000000E-03 0.  1.
         12    1    3    3    0    0  0.50147192130E+01 -0.37492618732E+01  0.92757149093E+00  0.63296731551E+01  0.00000000000E+00 0. -1.
</event>
<event>
 7    1  0.2297343E-008  0.4614232E+02  0.7816164E-02  0.1320468E+00
        -11   -1    0    0    0    0  0.00000000000E+00  0.00000000000E+00  0.45593999997E+02  0.45594000000E+02  0.51100000000E-03 0.  1.
         11   -1    0    0    0    0 -0.00000000000E+00 -0.00000000000E+00 -0.45593999997E+02  0.45594000000E+02  0.51100000000E-03 0. -1.
    9900012    2    1    2    0    0 -0.11478740617E+02  0.22965546106E+02  0.37012642729E+02  0.46142317456E+02  0.99999972162E+01 0.  0.
         12    1    1    2    0    0  0.11478740617E+02 -0.22965546106E+02 -0.37012642729E+02  0.45045682544E+02  0.00000000000E+00 0. -1.
         11    1    3    3    0    0 -0.64033883921E+00  0.42617217502E+00  0.19655834878E+00  0.79390931306E+00  0.51100000000E-03 0. -1.
        -11    1    3    3    0    0  0.43383539703E+00  0.19546486004E+01  0.42642603710E+00  0.20471208388E+01  0.51100000000E-03 0.  1.
        -12    1    3    3    0    0 -0.11272237175E+02  0.20584725331E+02  0.36389658343E+02  0.43301287304E+02  0.00000000000E+00 0.  1.
</event>
<event>
 7    1  0.2297343E-008  0.4614232E+02  0.7816164E-02  0.1320468E+00
        -11   -1    0    0    0    0  0.00000000000E+00  0.00000000000E+00  0.45593999997E+02  0.45594000000E+02  0.51100000000E-03 0.  1.
         11   -1    0    0    0    0 -0.00000000000E+00 -0.00000000000E+00 -0.45593999997E+02  0.45594000000E+02  0.51100000000E-03 0. -1.
    9900012    2    1    2    0    0  0.22267871350E+02  0.21052161805E+02  0.33016085174E+02  0.46142317728E+02  0.99999996994E+01 0.  0.
         12    1    1    2    0    0 -0.22267871350E+02 -0.21052161805E+02 -0.33016085174E+02  0.45045682272E+02  0.00000000000E+00 0. -1.
         11    1    3    3    0    0  0.14660069267E+02  0.15344710512E+02  0.22779514187E+02  0.31133326813E+02  0.51100000000E-03 0.  1.
        -11    1    3    3    0    0  0.38921474254E+01  0.17875769614E+01  0.81727841221E+01  0.92270603955E+01  0.51100000000E-03 0. -1.
        -12    1    3    3    0    0  0.37156546577E+01  0.39198743311E+01  0.20637868653E+01  0.57819305195E+01  0.00000000000E+00 0.  1.
</event>
<event>
 7    1  0.2297343E-008  0.4614232E+02  0.7816164E-02  0.1320468E+00
        -11   -1    0    0    0    0  0.00000000000E+00  0.00000000000E+00  0.45593999997E+02  0.45594000000E+02  0.51100000000E-03 0. -1.
         11   -1    0    0    0    0 -0.00000000000E+00 -0.00000000000E+00 -0.45593999997E+02  0.45594000000E+02  0.51100000000E-03 0.  1.
    9900012    2    1    2    0    0 -0.21386474698E+02  0.32018131755E+02  0.23378866856E+02  0.46142317892E+02  0.10000001196E+02 0.  0.
         12    1    1    2    0    0  0.21386474698E+02 -0.32018131755E+02 -0.23378866856E+02  0.45045682108E+02  0.00000000000E+00 0. -1.
         11    1    3    3    0    0 -0.19073580833E+02  0.24254368282E+02  0.17352110822E+02  0.35400164079E+02  0.51100000000E-03 0. -1.
        -11    1    3    3    0    0 -0.23129043670E+01  0.62689450493E+01  0.63441837261E+01  0.92140038015E+01  0.51100000000E-03 0.  1.
         12    1    3    3    0    0  0.10502212557E-04  0.14948184235E+01 -0.31742769223E+00  0.15281500120E+01  0.00000000000E+00 0. -1.
</event>
<event>
 7    1  0.2297343E-008  0.4614232E+02  0.7816164E-02  0.1320468E+00
        -11   -1    0    0    0    0  0.00000000000E+00  0.00000000000E+00  0.45593999997E+02  0.45594000000E+02  0.51100000000E-03 0.  1.
         11   -1    0    0    0    0 -0.00000000000E+00 -0.00000000000E+00 -0.45593999997E+02  0.45594000000E+02  0.51100000000E-03 0. -1.
    9900012    2    1    2    0    0 -0.41057889108E+02 -0.14609039958E+02  0.11399086617E+02  0.46142317830E+02  0.10000000627E+02 0.  0.
         12    1    1    2    0    0  0.41057889108E+02  0.14609039958E+02 -0.11399086617E+02  0.45045682170E+02  0.00000000000E+00 0. -1.
         11    1    3    3    0    0 -0.12189094010E+02 -0.26322905201E+01  0.30294978291E+01  0.12832802637E+02  0.51100000000E-03 0. -1.
        -11    1    3    3    0    0 -0.13037638193E+02 -0.53037468135E+01  0.78617785947E+01  0.16121950963E+02  0.51100000000E-03 0.  1.
         12    1    3    3    0    0 -0.15831156905E+02 -0.66730026247E+01  0.50781019305E+00  0.17187564230E+02  0.00000000000E+00 0. -1.
</event>
<event>
 7    1  0.2297343E-008  0.4614232E+02  0.7816164E-02  0.1320468E+00
        -11   -1    0    0    0    0  0.00000000000E+00  0.00000000000E+00  0.45593999997E+02  0.45594000000E+02  0.51100000000E-03 0.  1.
         11   -1    0    0    0    0 -0.00000000000E+00 -0.00000000000E+00 -0.45593999997E+02  0.45594000000E+02  0.51100000000E-03 0. -1.
    9900012    2    1    2    0    0  0.17342527870E+02 -0.40818359003E+02  0.78874582899E+01  0.46142315379E+02  0.99999782819E+01 0.  0.
         12    1    1    2    0    0 -0.17342527870E+02  0.40818359003E+02 -0.78874582899E+01  0.45045684621E+02  0.00000000000E+00 0. -1.
         11    1    3    3    0    0  0.20577671343E+01 -0.19540382205E+01  0.15812629473E+01  0.32485479396E+01  0.51100000000E-03 0. -1.
        -11    1    3    3    0    0  0.63724186252E+01 -0.23637335390E+02  0.61827130535E+01  0.25249896721E+02  0.51100000000E-03 0.  1.
         12    1    3    3    0    0  0.89123421108E+01 -0.15226985393E+02  0.12348228904E+00  0.17643870718E+02  0.00000000000E+00 0. -1.
</event>
<event>
 7    1  0.2297343E-008  0.4614232E+02  0.7816164E-02  0.1320468E+00
        -11   -1    0    0    0    0  0.00000000000E+00  0.00000000000E+00  0.45593999997E+02  0.45594000000E+02  0.51100000000E-03 0.  1.
         11   -1    0    0    0    0 -0.00000000000E+00 -0.00000000000E+00 -0.45593999997E+02  0.45594000000E+02  0.51100000000E-03 0. -1.
    9900012    2    1    2    0    0  0.37432564973E+02  0.94720008469E+01  0.23199086526E+02  0.46142319451E+02  0.10000015408E+02 0.  0.
         12    1    1    2    0    0 -0.37432564973E+02 -0.94720008469E+01 -0.23199086526E+02  0.45045680549E+02  0.00000000000E+00 0. -1.
         11    1    3    3    0    0  0.32535251053E+02  0.58062096201E+01  0.18578454331E+02  0.37913237752E+02  0.51100000000E-03 0. -1.
        -11    1    3    3    0    0  0.12041902121E+01  0.28229067591E+00  0.25014059049E+01  0.27904827279E+01  0.51100000000E-03 0.  1.
        -12    1    3    3    0    0  0.36931237080E+01  0.33835005509E+01  0.21192262898E+01  0.54385989710E+01  0.00000000000E+00 0.  1.
</event>
<event>
 7    1  0.2297343E-008  0.4614231E+02  0.7816164E-02  0.1320468E+00
        -11   -1    0    0    0    0  0.00000000000E+00  0.00000000000E+00  0.45593999997E+02  0.45594000000E+02  0.51100000000E-03 0.  1.
         11   -1    0    0    0    0 -0.00000000000E+00 -0.00000000000E+00 -0.45593999997E+02  0.45594000000E+02  0.51100000000E-03 0. -1.
    9900012    2    1    2    0    0  0.30556663754E+02  0.63557758573E+01  0.32480890112E+02  0.46142314203E+02  0.99999675500E+01 0.  0.
         12    1    1    2    0    0 -0.30556663754E+02 -0.63557758573E+01 -0.32480890112E+02  0.45045685797E+02  0.00000000000E+00 0. -1.
         11    1    3    3    0    0  0.20796177156E+02  0.53057885044E+01  0.25607046369E+02  0.33411872141E+02  0.51100000000E-03 0. -1.
        -11    1    3    3    0    0  0.72830824679E+01  0.18193117542E+01  0.68100059747E+01  0.10135549671E+02  0.51100000000E-03 0.  1.
         12    1    3    3    0    0  0.24774041300E+01 -0.76932440122E+00  0.63837767593E-01  0.25948923905E+01  0.00000000000E+00 0. -1.
</event>
<event>
 7    1  0.2297343E-008  0.4614232E+02  0.7816164E-02  0.1320468E+00
        -11   -1    0    0    0    0  0.00000000000E+00  0.00000000000E+00  0.45593999997E+02  0.45594000000E+02  0.51100000000E-03 0. -1.
         11   -1    0    0    0    0 -0.00000000000E+00 -0.00000000000E+00 -0.45593999997E+02  0.45594000000E+02  0.51100000000E-03 0.  1.
    9900012    2    1    2    0    0 -0.22277463249E+02 -0.20806000688E+02 -0.33165319739E+02  0.46142318001E+02  0.10000002183E+02 0.  0.
         12    1    1    2    0    0  0.22277463249E+02  0.20806000688E+02  0.33165319739E+02  0.45045681999E+02  0.00000000000E+00 0. -1.
         11    1    3    3    0    0 -0.46032755504E+01 -0.20915781363E+01 -0.94777581624E+01  0.10742101514E+02  0.51100000000E-03 0. -1.
        -11    1    3    3    0    0 -0.86841388653E+01 -0.53730310257E+01 -0.96162385736E+01  0.14026965987E+02  0.51100000000E-03 0.  1.
        -12    1    3    3    0    0 -0.89900488330E+01 -0.13341391526E+02 -0.14071323003E+02  0.21373250499E+02  0.00000000000E+00 0.  1.
</event>
<event>
 7    1  0.2297343E-008  0.4614232E+02  0.7816164E-02  0.1320468E+00
        -11   -1    0    0    0    0  0.00000000000E+00  0.00000000000E+00  0.45593999997E+02  0.45594000000E+02  0.51100000000E-03 0. -1.
         11   -1    0    0    0    0 -0.00000000000E+00 -0.00000000000E+00 -0.45593999997E+02  0.45594000000E+02  0.51100000000E-03 0.  1.
    9900012    2    1    2    0    0  0.40452237436E+02 -0.12999612624E+02 -0.14957942533E+02  0.46142317779E+02  0.10000000160E+02 0.  0.
         12    1    1    2    0    0 -0.40452237436E+02  0.12999612624E+02  0.14957942533E+02  0.45045682221E+02  0.00000000000E+00 0. -1.
         11    1    3    3    0    0  0.10600525890E+02 -0.30652770326E+01 -0.26990861687E+01  0.11360111744E+02  0.51100000000E-03 0. -1.
        -11    1    3    3    0    0  0.20405340190E+02 -0.10398134325E+02 -0.10357753834E+02  0.25135277409E+02  0.51100000000E-03 0.  1.
        -12    1    3    3    0    0  0.94463713563E+01  0.46379873335E+00 -0.19011025299E+01  0.96469286250E+01  0.00000000000E+00 0.  1.
</event>
<event>
 7    1  0.2297343E-008  0.4614232E+02  0.7816164E-02  0.1320468E+00
        -11   -1    0    0    0    0  0.00000000000E+00  0.00000000000E+00  0.45593999997E+02  0.45594000000E+02  0.51100000000E-03 0.  1.
         11   -1    0    0    0    0 -0.00000000000E+00 -0.00000000000E+00 -0.45593999997E+02  0.45594000000E+02  0.51100000000E-03 0. -1.
    9900012    2    1    2    0    0  0.74100853008E+01 -0.43784518414E+02  0.75577804449E+01  0.46142318052E+02  0.10000002652E+02 0.  0.
         12    1    1    2    0    0 -0.74100853008E+01  0.43784518414E+02 -0.75577804449E+01  0.45045681948E+02  0.00000000000E+00 0. -1.
         11    1    3    3    0    0  0.41752988873E+01 -0.13676484854E+02  0.91127942704E+00  0.14328635288E+02  0.51100000000E-03 0. -1.
        -11    1    3    3    0    0  0.52858234384E+01 -0.18478659165E+02  0.52403813310E+01  0.19921404837E+02  0.51100000000E-03 0.  1.
         12    1    3    3    0    0 -0.20510370249E+01 -0.11629374395E+02  0.14061196868E+01  0.11892277926E+02  0.00000000000E+00 0. -1.
</event>
<event>
 7    1  0.2297343E-008  0.4614233E+02  0.7816164E-02  0.1320468E+00
        -11   -1    0    0    0    0  0.00000000000E+00  0.00000000000E+00  0.45593999997E+02  0.45594000000E+02  0.51100000000E-03 0.  1.
         11   -1    0    0    0    0 -0.00000000000E+00 -0.00000000000E+00 -0.45593999997E+02  0.45594000000E+02  0.51100000000E-03 0. -1.
    9900012    2    1    2    0    0 -0.81053596241E+01  0.44229226916E+02 -0.26816903858E+01  0.46142325052E+02  0.10000066484E+02 0.  0.
         12    1    1    2    0    0  0.81053596241E+01 -0.44229226916E+02  0.26816903858E+01  0.45045674948E+02  0.00000000000E+00 0. -1.
         11    1    3    3    0    0 -0.21744748634E-01 -0.15862812977E+00  0.48855899206E+00  0.51412631472E+00  0.51100000000E-03 0. -1.
        -11    1    3    3    0    0 -0.35872266731E+01  0.31116931465E+02 -0.29565660097E+00  0.31324415910E+02  0.51100000000E-03 0.  1.
         12    1    3    3    0    0 -0.44963882024E+01  0.13270923580E+02 -0.28745927769E+01  0.14303782827E+02  0.00000000000E+00 0. -1.
</event>
<event>
 7    1  0.2297343E-008  0.4614232E+02  0.7816164E-02  0.1320468E+00
        -11   -1    0    0    0    0  0.00000000000E+00  0.00000000000E+00  0.45593999997E+02  0.45594000000E+02  0.51100000000E-03 0. -1.
         11   -1    0    0    0    0 -0.00000000000E+00 -0.00000000000E+00 -0.45593999997E+02  0.45594000000E+02  0.51100000000E-03 0.  1.
    9900012    2    1    2    0    0  0.36836364491E+02 -0.21054941208E+02 -0.15128951956E+02  0.46142317794E+02  0.10000000298E+02 0.  0.
         12    1    1    2    0    0 -0.36836364491E+02  0.21054941208E+02  0.15128951956E+02  0.45045682206E+02  0.00000000000E+00 0. -1.
         11    1    3    3    0    0  0.25799325580E+01 -0.21936941860E+01 -0.21780499959E+01  0.40264436208E+01  0.51100000000E-03 0. -1.
        -11    1    3    3    0    0  0.13255289735E+02 -0.77048284364E+01 -0.96280339888E+01  0.18104312358E+02  0.51100000000E-03 0.  1.
        -12    1    3    3    0    0  0.21001142198E+02 -0.11156418586E+02 -0.33228679707E+01  0.24011561815E+02  0.00000000000E+00 0.  1.
</event>
<event>
 7    1  0.2297343E-008  0.4614231E+02  0.7816164E-02  0.1320468E+00
        -11   -1    0    0    0    0  0.00000000000E+00  0.00000000000E+00  0.45593999997E+02  0.45594000000E+02  0.51100000000E-03 0. -1.
         11   -1    0    0    0    0 -0.00000000000E+00 -0.00000000000E+00 -0.45593999997E+02  0.45594000000E+02  0.51100000000E-03 0.  1.
    9900012    2    1    2    0    0  0.31116237611E+02  0.23854433534E+01 -0.32483892644E+02  0.46142313587E+02  0.99999619414E+01 0.  0.
         12    1    1    2    0    0 -0.31116237611E+02 -0.23854433534E+01  0.32483892644E+02  0.45045686413E+02  0.00000000000E+00 0. -1.
         11    1    3    3    0    0  0.16140773133E+02  0.36520659214E+01 -0.17739617512E+02  0.24260176680E+02  0.51100000000E-03 0.  1.
        -11    1    3    3    0    0  0.39404230487E+01 -0.27216650342E+01 -0.62861632794E+01  0.79025466400E+01  0.51100000000E-03 0. -1.
         12    1    3    3    0    0  0.11035041430E+02  0.14550424662E+01 -0.84581118530E+01  0.13979590268E+02  0.00000000000E+00 0. -1.
</event>
<event>
 7    1  0.2297343E-008  0.4614232E+02  0.7816164E-02  0.1320468E+00
        -11   -1    0    0    0    0  0.00000000000E+00  0.00000000000E+00  0.45593999997E+02  0.45594000000E+02  0.51100000000E-03 0.  1.
         11   -1    0    0    0    0 -0.00000000000E+00 -0.00000000000E+00 -0.45593999997E+02  0.45594000000E+02  0.51100000000E-03 0. -1.
    9900012    2    1    2    0    0 -0.31206445393E+02 -0.31237206900E+02  0.89167366002E+01  0.46142317403E+02  0.99999967367E+01 0.  0.
         12    1    1    2    0    0  0.31206445393E+02  0.31237206900E+02 -0.89167366002E+01  0.45045682597E+02  0.00000000000E+00 0. -1.
         11    1    3    3    0    0 -0.86660423771E+01 -0.13004730327E+02  0.43737366008E+01  0.16228150649E+02  0.51100000000E-03 0. -1.
        -11    1    3    3    0    0 -0.22839139293E+01 -0.20760196046E+01 -0.13064418971E+01  0.33515535095E+01  0.51100000000E-03 0.  1.
         12    1    3    3    0    0 -0.20256489087E+02 -0.16156456968E+02  0.58494418966E+01  0.26562613245E+02  0.00000000000E+00 0. -1.
</event>
<event>
 7    1  0.2297343E-008  0.4614232E+02  0.7816164E-02  0.1320468E+00
        -11   -1    0    0    0    0  0.00000000000E+00  0.00000000000E+00  0.45593999997E+02  0.45594000000E+02  0.51100000000E-03 0.  1.
         11   -1    0    0    0    0 -0.00000000000E+00 -0.00000000000E+00 -0.45593999997E+02  0.45594000000E+02  0.51100000000E-03 0. -1.
    9900012    2    1    2    0    0  0.22166470474E+02  0.30962900431E+01  0.39091866897E+02  0.46142317823E+02  0.10000000564E+02 0.  0.
         12    1    1    2    0    0 -0.22166470474E+02 -0.30962900431E+01 -0.39091866897E+02  0.45045682177E+02  0.00000000000E+00 0. -1.
         11    1    3    3    0    0  0.14406414433E+00 -0.72333251809E+00  0.32617647037E+01  0.33441102931E+01  0.51100000000E-03 0.  1.
        -11    1    3    3    0    0  0.39684750345E+01  0.19748992360E+01  0.12355546775E+02  0.13126635421E+02  0.51100000000E-03 0. -1.
         12    1    3    3    0    0  0.18053931295E+02  0.18447233251E+01  0.23474555418E+02  0.29671572109E+02  0.00000000000E+00 0. -1.
</event>
<event>
 7    1  0.2297343E-008  0.4614232E+02  0.7816164E-02  0.1320468E+00
        -11   -1    0    0    0    0  0.00000000000E+00  0.00000000000E+00  0.45593999997E+02  0.45594000000E+02  0.51100000000E-03 0. -1.
         11   -1    0    0    0    0 -0.00000000000E+00 -0.00000000000E+00 -0.45593999997E+02  0.45594000000E+02  0.51100000000E-03 0.  1.
    9900012    2    1    2    0    0 -0.14753657431E+00  0.10935613476E+02 -0.43697873156E+02  0.46142317327E+02  0.99999960410E+01 0.  0.
         12    1    1    2    0    0  0.14753657431E+00 -0.10935613476E+02  0.43697873156E+02  0.45045682673E+02  0.00000000000E+00 0. -1.
         11    1    3    3    0    0  0.30422340076E-01 -0.15438738470E+01 -0.32195288194E+01  0.35706915373E+01  0.51100000000E-03 0. -1.
        -11    1    3    3    0    0 -0.12801293525E+01  0.12100622212E+01 -0.74788191178E+01  0.76834704006E+01  0.51100000000E-03 0.  1.
        -12    1    3    3    0    0  0.11021704381E+01  0.11269425102E+02 -0.32999525219E+02  0.34888155389E+02  0.00000000000E+00 0.  1.
</event>
<event>
 7    1  0.2297343E-008  0.4614232E+02  0.7816164E-02  0.1320468E+00
        -11   -1    0    0    0    0  0.00000000000E+00  0.00000000000E+00  0.45593999997E+02  0.45594000000E+02  0.51100000000E-03 0.  1.
         11   -1    0    0    0    0 -0.00000000000E+00 -0.00000000000E+00 -0.45593999997E+02  0.45594000000E+02  0.51100000000E-03 0. -1.
    9900012    2    1    2    0    0 -0.34104811809E+02  0.22208205359E+02  0.19307274793E+02  0.46142318368E+02  0.10000005531E+02 0.  0.
         12    1    1    2    0    0  0.34104811809E+02 -0.22208205359E+02 -0.19307274793E+02  0.45045681632E+02  0.00000000000E+00 0. -1.
         11    1    3    3    0    0 -0.13705046979E+01  0.32932080407E+01  0.91802199056E+00  0.36832413664E+01  0.51100000000E-03 0. -1.
        -11    1    3    3    0    0 -0.12783714738E+02  0.92927376720E+01  0.49977767501E+01  0.16575768720E+02  0.51100000000E-03 0.  1.
        -12    1    3    3    0    0 -0.19950592373E+02  0.96222596460E+01  0.13391476053E+02  0.25883308281E+02  0.00000000000E+00 0.  1.
</event>
<event>
 7    1  0.2297343E-008  0.4614232E+02  0.7816164E-02  0.1320468E+00
        -11   -1    0    0    0    0  0.00000000000E+00  0.00000000000E+00  0.45593999997E+02  0.45594000000E+02  0.51100000000E-03 0.  1.
         11   -1    0    0    0    0 -0.00000000000E+00 -0.00000000000E+00 -0.45593999997E+02  0.45594000000E+02  0.51100000000E-03 0. -1.
    9900012    2    1    2    0    0  0.35101038063E+02  0.24209086011E+02  0.14524146360E+02  0.46142317120E+02  0.99999941556E+01 0.  0.
         12    1    1    2    0    0 -0.35101038063E+02 -0.24209086011E+02 -0.14524146360E+02  0.45045682880E+02  0.00000000000E+00 0. -1.
         11    1    3    3    0    0  0.90468500903E+01  0.32482363741E+01  0.37531080582E-01  0.96123849768E+01  0.51100000000E-03 0. -1.
        -11    1    3    3    0    0  0.39277609840E+01  0.43157753415E+01  0.28786089850E+01  0.65068896637E+01  0.51100000000E-03 0.  1.
        -12    1    3    3    0    0  0.22126426989E+02  0.16645074296E+02  0.11608006295E+02  0.30023042480E+02  0.00000000000E+00 0.  1.
</event>
<event>
 7    1  0.2297343E-008  0.4614232E+02  0.7816164E-02  0.1320468E+00
        -11   -1    0    0    0    0  0.00000000000E+00  0.00000000000E+00  0.45593999997E+02  0.45594000000E+02  0.51100000000E-03 0.  1.
         11   -1    0    0    0    0 -0.00000000000E+00 -0.00000000000E+00 -0.45593999997E+02  0.45594000000E+02  0.51100000000E-03 0. -1.
    9900012    2    1    2    0    0 -0.18365593093E+02 -0.30070643593E+02  0.28063764137E+02  0.46142317929E+02  0.10000001529E+02 0.  0.
         12    1    1    2    0    0  0.18365593093E+02  0.30070643593E+02 -0.28063764137E+02  0.45045682071E+02  0.00000000000E+00 0. -1.
         11    1    3    3    0    0 -0.72046105087E+01 -0.12575686514E+02  0.13547980516E+02  0.19839407254E+02  0.51100000000E-03 0. -1.
        -11    1    3    3    0    0 -0.10324884668E+02 -0.18092976323E+02  0.14255894270E+02  0.25242613916E+02  0.51100000000E-03 0.  1.
         12    1    3    3    0    0 -0.83609791566E+00  0.59801924404E+00  0.25988935129E+00  0.10602967583E+01  0.00000000000E+00 0. -1.
</event>
<event>
 7    1  0.2297343E-008  0.4614232E+02  0.7816164E-02  0.1320468E+00
        -11   -1    0    0    0    0  0.00000000000E+00  0.00000000000E+00  0.45593999997E+02  0.45594000000E+02  0.51100000000E-03 0.  1.
         11   -1    0    0    0    0 -0.00000000000E+00 -0.00000000000E+00 -0.45593999997E+02  0.45594000000E+02  0.51100000000E-03 0. -1.
    9900012    2    1    2    0    0  0.24361306162E+02  0.14384892355E+02  0.35053033087E+02  0.46142317693E+02  0.99999993761E+01 0.  0.
         12    1    1    2    0    0 -0.24361306162E+02 -0.14384892355E+02 -0.35053033087E+02  0.45045682307E+02  0.00000000000E+00 0. -1.
         11    1    3    3    0    0  0.29876145021E+01  0.42358257378E+00  0.69953086883E+01  0.76183729572E+01  0.51100000000E-03 0. -1.
        -11    1    3    3    0    0 -0.10903792458E+00  0.15485708585E+01  0.12176508894E+01  0.19729761586E+01  0.51100000000E-03 0.  1.
        -12    1    3    3    0    0  0.21482729584E+02  0.12412738922E+02  0.26840073509E+02  0.36550968577E+02  0.00000000000E+00 0.  1.
</event>
<event>
 7    1  0.2297343E-008  0.4614232E+02  0.7816164E-02  0.1320468E+00
        -11   -1    0    0    0    0  0.00000000000E+00  0.00000000000E+00  0.45593999997E+02  0.45594000000E+02  0.51100000000E-03 0.  1.
         11   -1    0    0    0    0 -0.00000000000E+00 -0.00000000000E+00 -0.45593999997E+02  0.45594000000E+02  0.51100000000E-03 0. -1.
    9900012    2    1    2    0    0 -0.12114623414E+02 -0.31655062620E+02  0.29669957533E+02  0.46142317966E+02  0.10000001865E+02 0.  0.
         12    1    1    2    0    0  0.12114623414E+02  0.31655062620E+02 -0.29669957533E+02  0.45045682034E+02  0.00000000000E+00 0. -1.
         11    1    3    3    0    0 -0.16020375344E+01 -0.11029338739E+02  0.11161931045E+02  0.15773444208E+02  0.51100000000E-03 0. -1.
        -11    1    3    3    0    0 -0.89015032900E+01 -0.10826751208E+02  0.92591933108E+01  0.16798451225E+02  0.51100000000E-03 0.  1.
        -12    1    3    3    0    0 -0.16110825892E+01 -0.97989726729E+01  0.92488331778E+01  0.13570422532E+02  0.00000000000E+00 0.  1.
</event>
<event>
 7    1  0.2297343E-008  0.4614232E+02  0.7816164E-02  0.1320468E+00
        -11   -1    0    0    0    0  0.00000000000E+00  0.00000000000E+00  0.45593999997E+02  0.45594000000E+02  0.51100000000E-03 0.  1.
         11   -1    0    0    0    0 -0.00000000000E+00 -0.00000000000E+00 -0.45593999997E+02  0.45594000000E+02  0.51100000000E-03 0. -1.
    9900012    2    1    2    0    0  0.30436209455E+02  0.16647514586E+02  0.28733446039E+02  0.46142317531E+02  0.99999978989E+01 0.  0.
         12    1    1    2    0    0 -0.30436209455E+02 -0.16647514586E+02 -0.28733446039E+02  0.45045682469E+02  0.00000000000E+00 0. -1.
         11    1    3    3    0    0  0.23171707228E+01  0.53618329748E+00  0.59667091575E+01  0.64232695037E+01  0.51100000000E-03 0. -1.
        -11    1    3    3    0    0  0.13243626610E+02  0.58700080750E+01  0.10226805537E+02  0.17732405148E+02  0.51100000000E-03 0.  1.
        -12    1    3    3    0    0  0.14875412122E+02  0.10241323213E+02  0.12539931344E+02  0.21986642879E+02  0.00000000000E+00 0.  1.
</event>
<event>
 7    1  0.2297343E-008  0.4614232E+02  0.7816164E-02  0.1320468E+00
        -11   -1    0    0    0    0  0.00000000000E+00  0.00000000000E+00  0.45593999997E+02  0.45594000000E+02  0.51100000000E-03 0.  1.
         11   -1    0    0    0    0 -0.00000000000E+00 -0.00000000000E+00 -0.45593999997E+02  0.45594000000E+02  0.51100000000E-03 0. -1.
    9900012    2    1    2    0    0  0.28161086559E+02  0.33502062229E+02  0.10662015478E+02  0.46142317145E+02  0.99999943856E+01 0.  0.
         12    1    1    2    0    0 -0.28161086559E+02 -0.33502062229E+02 -0.10662015478E+02  0.45045682855E+02  0.00000000000E+00 0. -1.
         11    1    3    3    0    0  0.13419818653E+01  0.51251161688E+01  0.28594921614E+01  0.60203344386E+01  0.51100000000E-03 0. -1.
        -11    1    3    3    0    0  0.15437391770E+02  0.13531598148E+02  0.56527391237E+01  0.21292502741E+02  0.51100000000E-03 0.  1.
        -12    1    3    3    0    0  0.11381712923E+02  0.14845347913E+02  0.21497841929E+01  0.18829479966E+02  0.00000000000E+00 0.  1.
</event>
<event>
 7    1  0.2297343E-008  0.4614232E+02  0.7816164E-02  0.1320468E+00
        -11   -1    0    0    0    0  0.00000000000E+00  0.00000000000E+00  0.45593999997E+02  0.45594000000E+02  0.51100000000E-03 0.  1.
         11   -1    0    0    0    0 -0.00000000000E+00 -0.00000000000E+00 -0.45593999997E+02  0.45594000000E+02  0.51100000000E-03 0. -1.
    9900012    2    1    2    0    0 -0.18659853906E+02 -0.12932787218E+02  0.38905866442E+02  0.46142316782E+02  0.99999910682E+01 0.  0.
         12    1    1    2    0    0  0.18659853906E+02  0.12932787218E+02 -0.38905866442E+02  0.45045683218E+02  0.00000000000E+00 0. -1.
         11    1    3    3    0    0 -0.11701371160E+02 -0.77566785584E+01  0.18334971617E+02  0.23092408574E+02  0.51100000000E-03 0. -1.
        -11    1    3    3    0    0 -0.66436512195E+01 -0.62956888133E+01  0.17194469878E+02  0.19478798572E+02  0.51100000000E-03 0.  1.
        -12    1    3    3    0    0 -0.31483152634E+00  0.11195801534E+01  0.33764249462E+01  0.35711096353E+01  0.00000000000E+00 0.  1.
</event>
<event>
 7    1  0.2297343E-008  0.4614231E+02  0.7816164E-02  0.1320468E+00
        -11   -1    0    0    0    0  0.00000000000E+00  0.00000000000E+00  0.45593999997E+02  0.45594000000E+02  0.51100000000E-03 0.  1.
         11   -1    0    0    0    0 -0.00000000000E+00 -0.00000000000E+00 -0.45593999997E+02  0.45594000000E+02  0.51100000000E-03 0. -1.
    9900012    2    1    2    0    0  0.44347416677E+02  0.60932265359E+01  0.50292327212E+01  0.46142312556E+02  0.99999525349E+01 0.  0.
         12    1    1    2    0    0 -0.44347416677E+02 -0.60932265359E+01 -0.50292327212E+01  0.45045687444E+02  0.00000000000E+00 0. -1.
         11    1    3    3    0    0  0.87915183240E+01  0.32805812256E+01 -0.22941962451E+01  0.96600385243E+01  0.51100000000E-03 0. -1.
        -11    1    3    3    0    0  0.59394828980E+01  0.13248164490E+01  0.13166796189E+01  0.62262541868E+01  0.51100000000E-03 0.  1.
         12    1    3    3    0    0  0.29616415455E+02  0.14878288613E+01  0.60067493474E+01  0.30256019845E+02  0.00000000000E+00 0. -1.
</event>
<event>
 7    1  0.2297343E-008  0.4614232E+02  0.7816164E-02  0.1320468E+00
        -11   -1    0    0    0    0  0.00000000000E+00  0.00000000000E+00  0.45593999997E+02  0.45594000000E+02  0.51100000000E-03 0.  1.
         11   -1    0    0    0    0 -0.00000000000E+00 -0.00000000000E+00 -0.45593999997E+02  0.45594000000E+02  0.51100000000E-03 0. -1.
    9900012    2    1    2    0    0  0.14016986411E+02  0.40891187153E+02  0.12670769280E+02  0.46142317754E+02  0.99999999345E+01 0.  0.
         12    1    1    2    0    0 -0.14016986411E+02 -0.40891187153E+02 -0.12670769280E+02  0.45045682246E+02  0.00000000000E+00 0. -1.
         11    1    3    3    0    0  0.65520553200E+01  0.71514987347E+01  0.22891147930E+01  0.99656113644E+01  0.51100000000E-03 0. -1.
        -11    1    3    3    0    0  0.36685411683E+01  0.16026160022E+02  0.63027274473E+01  0.17607395404E+02  0.51100000000E-03 0.  1.
        -12    1    3    3    0    0  0.37963899231E+01  0.17713528396E+02  0.40789270395E+01  0.18569310986E+02  0.00000000000E+00 0.  1.
</event>
<event>
 7    1  0.2297343E-008  0.4614231E+02  0.7816164E-02  0.1320468E+00
        -11   -1    0    0    0    0  0.00000000000E+00  0.00000000000E+00  0.45593999997E+02  0.45594000000E+02  0.51100000000E-03 0.  1.
         11   -1    0    0    0    0 -0.00000000000E+00 -0.00000000000E+00 -0.45593999997E+02  0.45594000000E+02  0.51100000000E-03 0. -1.
    9900012    2    1    2    0    0  0.14456167405E+02  0.23546248116E+02  0.35576779799E+02  0.46142313889E+02  0.99999646865E+01 0.  0.
         12    1    1    2    0    0 -0.14456167405E+02 -0.23546248116E+02 -0.35576779799E+02  0.45045686111E+02  0.00000000000E+00 0. -1.
         11    1    3    3    0    0 -0.65072206035E-01 -0.26185712756E+00  0.11687956526E+01  0.11995361962E+01  0.51100000000E-03 0. -1.
        -11    1    3    3    0    0  0.37590429180E+01  0.13260698759E+02  0.14988232360E+02  0.20362309416E+02  0.51100000000E-03 0.  1.
        -12    1    3    3    0    0  0.10762196693E+02  0.10547406485E+02  0.19419751787E+02  0.24580468276E+02  0.00000000000E+00 0.  1.
</event>
<event>
 7    1  0.2297343E-008  0.4614232E+02  0.7816164E-02  0.1320468E+00
        -11   -1    0    0    0    0  0.00000000000E+00  0.00000000000E+00  0.45593999997E+02  0.45594000000E+02  0.51100000000E-03 0.  1.
         11   -1    0    0    0    0 -0.00000000000E+00 -0.00000000000E+00 -0.45593999997E+02  0.45594000000E+02  0.51100000000E-03 0. -1.
    9900012    2    1    2    0    0  0.43013585445E+01  0.83405399543E+01  0.44057316981E+02  0.46142317947E+02  0.10000001692E+02 0.  0.
         12    1    1    2    0    0 -0.43013585445E+01 -0.83405399543E+01 -0.44057316981E+02  0.45045682053E+02  0.00000000000E+00 0. -1.
         11    1    3    3    0    0  0.20965358684E+01  0.44205073580E+01  0.94393058386E+01  0.10631878617E+02  0.51100000000E-03 0. -1.
        -11    1    3    3    0    0  0.96511453318E+00  0.56463025640E+01  0.23231361077E+02  0.23927146016E+02  0.51100000000E-03 0.  1.
        -12    1    3    3    0    0  0.12397081430E+01 -0.17262699676E+01  0.11386650065E+02  0.11583293314E+02  0.00000000000E+00 0.  1.
</event>
<event>
 7    1  0.2297343E-008  0.4614232E+02  0.7816164E-02  0.1320468E+00
        -11   -1    0    0    0    0  0.00000000000E+00  0.00000000000E+00  0.45593999997E+02  0.45594000000E+02  0.51100000000E-03 0.  1.
         11   -1    0    0    0    0 -0.00000000000E+00 -0.00000000000E+00 -0.45593999997E+02  0.45594000000E+02  0.51100000000E-03 0. -1.
    9900012    2    1    2    0    0 -0.10572832317E+02 -0.59116508676E+01  0.43386413988E+02  0.46142319653E+02  0.10000017252E+02 0.  0.
         12    1    1    2    0    0  0.10572832317E+02  0.59116508676E+01 -0.43386413988E+02  0.45045680347E+02  0.00000000000E+00 0. -1.
         11    1    3    3    0    0 -0.16689869170E+01 -0.22502485300E+01  0.38491238046E+01  0.47607657052E+01  0.51100000000E-03 0. -1.
        -11    1    3    3    0    0 -0.97198487485E+01 -0.14801292761E+01  0.30301887875E+02  0.31857034567E+02  0.51100000000E-03 0.  1.
         12    1    3    3    0    0  0.81600334808E+00 -0.21812730616E+01  0.92354023087E+01  0.95245193809E+01  0.00000000000E+00 0. -1.
</event>
<event>
 7    1  0.2297343E-008  0.4614232E+02  0.7816164E-02  0.1320468E+00
        -11   -1    0    0    0    0  0.00000000000E+00  0.00000000000E+00  0.45593999997E+02  0.45594000000E+02  0.51100000000E-03 0.  1.
         11   -1    0    0    0    0 -0.00000000000E+00 -0.00000000000E+00 -0.45593999997E+02  0.45594000000E+02  0.51100000000E-03 0. -1.
    9900012    2    1    2    0    0 -0.15183283948E+02 -0.26660692730E+02  0.32981643374E+02  0.46142318210E+02  0.10000004095E+02 0.  0.
         12    1    1    2    0    0  0.15183283948E+02  0.26660692730E+02 -0.32981643374E+02  0.45045681790E+02  0.00000000000E+00 0. -1.
         11    1    3    3    0    0  0.42314678745E+00 -0.64543280821E+01  0.54772378723E+01  0.84757028715E+01  0.51100000000E-03 0. -1.
        -11    1    3    3    0    0 -0.10251166280E+02 -0.14051423723E+02  0.16559871683E+02  0.24015792078E+02  0.51100000000E-03 0.  1.
         12    1    3    3    0    0 -0.53552644551E+01 -0.61549409254E+01  0.10944533819E+02  0.13650823260E+02  0.00000000000E+00 0. -1.
</event>
<event>
 7    1  0.2297343E-008  0.4614232E+02  0.7816164E-02  0.1320468E+00
        -11   -1    0    0    0    0  0.00000000000E+00  0.00000000000E+00  0.45593999997E+02  0.45594000000E+02  0.51100000000E-03 0. -1.
         11   -1    0    0    0    0 -0.00000000000E+00 -0.00000000000E+00 -0.45593999997E+02  0.45594000000E+02  0.51100000000E-03 0.  1.
    9900012    2    1    2    0    0  0.14257987139E+01  0.33040369419E+02 -0.30584547384E+02  0.46142318165E+02  0.10000003680E+02 0.  0.
         12    1    1    2    0    0 -0.14257987139E+01 -0.33040369419E+02  0.30584547384E+02  0.45045681835E+02  0.00000000000E+00 0. -1.
         11    1    3    3    0    0  0.58503951373E+00  0.49194815219E+01 -0.88202635841E+00  0.50320513148E+01  0.51100000000E-03 0. -1.
        -11    1    3    3    0    0  0.21790860540E+01  0.12893217199E+02 -0.12371860900E+02  0.18001289069E+02  0.51100000000E-03 0.  1.
        -12    1    3    3    0    0 -0.13383268538E+01  0.15227670698E+02 -0.17330660126E+02  0.23108977781E+02  0.00000000000E+00 0.  1.
</event>
<event>
 7    1  0.2297343E-008  0.4614232E+02  0.7816164E-02  0.1320468E+00
        -11   -1    0    0    0    0  0.00000000000E+00  0.00000000000E+00  0.45593999997E+02  0.45594000000E+02  0.51100000000E-03 0.  1.
         11   -1    0    0    0    0 -0.00000000000E+00 -0.00000000000E+00 -0.45593999997E+02  0.45594000000E+02  0.51100000000E-03 0. -1.
    9900012    2    1    2    0    0  0.36563899764E+02  0.11517876875E+02  0.23654453368E+02  0.46142318544E+02  0.10000007138E+02 0.  0.
         12    1    1    2    0    0 -0.36563899764E+02 -0.11517876875E+02 -0.23654453368E+02  0.45045681456E+02  0.00000000000E+00 0. -1.
         11    1    3    3    0    0  0.50186529218E+01  0.94438840875E+00  0.38149851067E+01  0.63743908133E+01  0.51100000000E-03 0. -1.
        -11    1    3    3    0    0  0.25890582525E+02  0.56081569389E+01  0.12634799114E+02  0.29349818341E+02  0.51100000000E-03 0.  1.
         12    1    3    3    0    0  0.56546643177E+01  0.49653315277E+01  0.72046691482E+01  0.10418109390E+02  0.00000000000E+00 0. -1.
</event>
<event>
 7    1  0.2297343E-008  0.4614232E+02  0.7816164E-02  0.1320468E+00
        -11   -1    0    0    0    0  0.00000000000E+00  0.00000000000E+00  0.45593999997E+02  0.45594000000E+02  0.51100000000E-03 0.  1.
         11   -1    0    0    0    0 -0.00000000000E+00 -0.00000000000E+00 -0.45593999997E+02  0.45594000000E+02  0.51100000000E-03 0. -1.
    9900012    2    1    2    0    0  0.37714381829E+02  0.24045678400E+02  0.53426775437E+01  0.46142318189E+02  0.10000003905E+02 0.  0.
         12    1    1    2    0    0 -0.37714381829E+02 -0.24045678400E+02 -0.53426775437E+01  0.45045681811E+02  0.00000000000E+00 0. -1.
         11    1    3    3    0    0  0.55722543779E+00 -0.85072260811E+00  0.29917337961E-02  0.10169751010E+01  0.51100000000E-03 0. -1.
        -11    1    3    3    0    0  0.26307270658E+01  0.11126705277E+01 -0.36850846238E-01  0.28565921732E+01  0.51100000000E-03 0.  1.
        -12    1    3    3    0    0  0.34526429325E+02  0.23783730481E+02  0.53765366561E+01  0.42268750915E+02  0.00000000000E+00 0.  1.
</event>
<event>
 7    1  0.2297343E-008  0.4614232E+02  0.7816164E-02  0.1320468E+00
        -11   -1    0    0    0    0  0.00000000000E+00  0.00000000000E+00  0.45593999997E+02  0.45594000000E+02  0.51100000000E-03 0. -1.
         11   -1    0    0    0    0 -0.00000000000E+00 -0.00000000000E+00 -0.45593999997E+02  0.45594000000E+02  0.51100000000E-03 0.  1.
    9900012    2    1    2    0    0  0.38480034816E+02 -0.20998745334E+02 -0.10365960717E+02  0.46142317337E+02  0.99999961310E+01 0.  0.
         12    1    1    2    0    0 -0.38480034816E+02  0.20998745334E+02  0.10365960717E+02  0.45045682663E+02  0.00000000000E+00 0. -1.
         11    1    3    3    0    0  0.87937297952E+01 -0.36168482919E+01 -0.60854088963E+01  0.11289086632E+02  0.51100000000E-03 0. -1.
        -11    1    3    3    0    0  0.58812246438E+01 -0.49315721281E+01 -0.17324047290E+01  0.78683183319E+01  0.51100000000E-03 0.  1.
        -12    1    3    3    0    0  0.23805080377E+02 -0.12450324914E+02 -0.25481470912E+01  0.26984912373E+02  0.00000000000E+00 0.  1.
</event>
<event>
 7    1  0.2297343E-008  0.4614232E+02  0.7816164E-02  0.1320468E+00
        -11   -1    0    0    0    0  0.00000000000E+00  0.00000000000E+00  0.45593999997E+02  0.45594000000E+02  0.51100000000E-03 0. -1.
         11   -1    0    0    0    0 -0.00000000000E+00 -0.00000000000E+00 -0.45593999997E+02  0.45594000000E+02  0.51100000000E-03 0.  1.
    9900012    2    1    2    0    0 -0.13093760745E+02 -0.41153983889E+02 -0.12806896820E+02  0.46142316894E+02  0.99999920910E+01 0.  0.
         12    1    1    2    0    0  0.13093760745E+02  0.41153983889E+02  0.12806896820E+02  0.45045683106E+02  0.00000000000E+00 0. -1.
         11    1    3    3    0    0 -0.25917553479E+01 -0.14699568243E+02 -0.61537894708E+01  0.16145080596E+02  0.51100000000E-03 0.  1.
        -11    1    3    3    0    0 -0.39764049745E+00 -0.80226531158E+01 -0.34203075912E+01  0.87303828818E+01  0.51100000000E-03 0. -1.
        -12    1    3    3    0    0 -0.10104364899E+02 -0.18431762530E+02 -0.32327997576E+01  0.21266853416E+02  0.00000000000E+00 0.  1.
</event>
<event>
 7    1  0.2297343E-008  0.4614232E+02  0.7816164E-02  0.1320468E+00
        -11   -1    0    0    0    0  0.00000000000E+00  0.00000000000E+00  0.45593999997E+02  0.45594000000E+02  0.51100000000E-03 0.  1.
         11   -1    0    0    0    0 -0.00000000000E+00 -0.00000000000E+00 -0.45593999997E+02  0.45594000000E+02  0.51100000000E-03 0. -1.
    9900012    2    1    2    0    0  0.19981217475E+02  0.45259460746E+01  0.40117083214E+02  0.46142316464E+02  0.99999881708E+01 0.  0.
         12    1    1    2    0    0 -0.19981217475E+02 -0.45259460746E+01 -0.40117083214E+02  0.45045683536E+02  0.00000000000E+00 0. -1.
         11    1    3    3    0    0  0.10447235534E+02  0.35517358541E+01  0.19923800824E+02  0.22775368217E+02  0.51100000000E-03 0. -1.
        -11    1    3    3    0    0  0.56946409645E+01  0.26695006750E+01  0.16899361693E+02  0.18031738559E+02  0.51100000000E-03 0.  1.
         12    1    3    3    0    0  0.38393409757E+01 -0.16952904545E+01  0.32939206965E+01  0.53352096873E+01  0.00000000000E+00 0. -1.
</event>
<event>
 7    1  0.2297343E-008  0.4614232E+02  0.7816164E-02  0.1320468E+00
        -11   -1    0    0    0    0  0.00000000000E+00  0.00000000000E+00  0.45593999997E+02  0.45594000000E+02  0.51100000000E-03 0.  1.
         11   -1    0    0    0    0 -0.00000000000E+00 -0.00000000000E+00 -0.45593999997E+02  0.45594000000E+02  0.51100000000E-03 0. -1.
    9900012    2    1    2    0    0  0.15986066354E+02  0.40720720285E+02  0.10741609423E+02  0.46142317066E+02  0.99999936578E+01 0.  0.
         12    1    1    2    0    0 -0.15986066354E+02 -0.40720720285E+02 -0.10741609423E+02  0.45045682934E+02  0.00000000000E+00 0. -1.
         11    1    3    3    0    0  0.65109095967E+01  0.67121492808E+01  0.36236211065E+01  0.10028734812E+02  0.51100000000E-03 0. -1.
        -11    1    3    3    0    0  0.45166512598E+01  0.15848681722E+02  0.46823436600E+01  0.17131993269E+02  0.51100000000E-03 0.  1.
         12    1    3    3    0    0  0.49585054972E+01  0.18159889282E+02  0.24356446569E+01  0.18981588985E+02  0.00000000000E+00 0. -1.
</event>
<event>
 7    1  0.2297343E-008  0.4614232E+02  0.7816164E-02  0.1320468E+00
        -11   -1    0    0    0    0  0.00000000000E+00  0.00000000000E+00  0.45593999997E+02  0.45594000000E+02  0.51100000000E-03 0.  1.
         11   -1    0    0    0    0 -0.00000000000E+00 -0.00000000000E+00 -0.45593999997E+02  0.45594000000E+02  0.51100000000E-03 0. -1.
    9900012    2    1    2    0    0  0.25142934639E+02 -0.83441638108E+01  0.36432420681E+02  0.46142317536E+02  0.99999979490E+01 0.  0.
         12    1    1    2    0    0 -0.25142934639E+02  0.83441638108E+01 -0.36432420681E+02  0.45045682464E+02  0.00000000000E+00 0. -1.
         11    1    3    3    0    0  0.55545166698E+01  0.76139307491E+00  0.11144224549E+02  0.12475019676E+02  0.51100000000E-03 0. -1.
        -11    1    3    3    0    0  0.10157967663E+02 -0.61006150491E+01  0.10266993505E+02  0.15678423610E+02  0.51100000000E-03 0.  1.
         12    1    3    3    0    0  0.94304503065E+01 -0.30049418367E+01  0.15021202627E+02  0.17988874250E+02  0.00000000000E+00 0. -1.
</event>
<event>
 7    1  0.2297343E-008  0.4614232E+02  0.7816164E-02  0.1320468E+00
        -11   -1    0    0    0    0  0.00000000000E+00  0.00000000000E+00  0.45593999997E+02  0.45594000000E+02  0.51100000000E-03 0. -1.
         11   -1    0    0    0    0 -0.00000000000E+00 -0.00000000000E+00 -0.45593999997E+02  0.45594000000E+02  0.51100000000E-03 0.  1.
    9900012    2    1    2    0    0  0.16375882087E+02 -0.11992399026E+01 -0.41946464881E+02  0.46142316450E+02  0.99999880480E+01 0.  0.
         12    1    1    2    0    0 -0.16375882087E+02  0.11992399026E+01  0.41946464881E+02  0.45045683550E+02  0.00000000000E+00 0. -1.
         11    1    3    3    0    0  0.10427110578E+02  0.13870785481E+01 -0.20525268848E+02  0.23063722238E+02  0.51100000000E-03 0. -1.
        -11    1    3    3    0    0  0.66870874889E+01 -0.24724094648E+01 -0.21088036212E+02  0.22260620368E+02  0.51100000000E-03 0.  1.
         12    1    3    3    0    0 -0.73831598018E+00 -0.11390898582E+00 -0.33315982006E+00  0.81797384392E+00  0.00000000000E+00 0. -1.
</event>
<event>
 7    1  0.2297343E-008  0.4614231E+02  0.7816164E-02  0.1320468E+00
        -11   -1    0    0    0    0  0.00000000000E+00  0.00000000000E+00  0.45593999997E+02  0.45594000000E+02  0.51100000000E-03 0. -1.
         11   -1    0    0    0    0 -0.00000000000E+00 -0.00000000000E+00 -0.45593999997E+02  0.45594000000E+02  0.51100000000E-03 0.  1.
    9900012    2    1    2    0    0 -0.11152586253E+02 -0.31128784511E+02 -0.30589755225E+02  0.46142306200E+02  0.99998945728E+01 0.  0.
         12    1    1    2    0    0  0.11152586253E+02  0.31128784511E+02  0.30589755225E+02  0.45045693800E+02  0.00000000000E+00 0. -1.
         11    1    3    3    0    0 -0.12452660859E+01 -0.11097456928E+02 -0.91765456746E+01  0.14453830934E+02  0.51100000000E-03 0. -1.
        -11    1    3    3    0    0 -0.31888319845E+01 -0.48084119940E+01 -0.19689845077E+01  0.60964231794E+01  0.51100000000E-03 0.  1.
        -12    1    3    3    0    0 -0.67184881826E+01 -0.15222915589E+02 -0.19444225042E+02  0.25592052086E+02  0.00000000000E+00 0.  1.
</event>
<event>
 7    1  0.2297343E-008  0.4614232E+02  0.7816164E-02  0.1320468E+00
        -11   -1    0    0    0    0  0.00000000000E+00  0.00000000000E+00  0.45593999997E+02  0.45594000000E+02  0.51100000000E-03 0.  1.
         11   -1    0    0    0    0 -0.00000000000E+00 -0.00000000000E+00 -0.45593999997E+02  0.45594000000E+02  0.51100000000E-03 0. -1.
    9900012    2    1    2    0    0 -0.13698518676E+02  0.19385559413E+02  0.38283993578E+02  0.46142317722E+02  0.99999996410E+01 0.  0.
         12    1    1    2    0    0  0.13698518676E+02 -0.19385559413E+02 -0.38283993578E+02  0.45045682278E+02  0.00000000000E+00 0. -1.
         11    1    3    3    0    0 -0.11836221396E+01  0.15326120173E+01  0.10614262949E+01  0.22082769313E+01  0.51100000000E-03 0. -1.
        -11    1    3    3    0    0 -0.12204250766E+02  0.12044079630E+02  0.24073346996E+02  0.29555534621E+02  0.51100000000E-03 0.  1.
         12    1    3    3    0    0 -0.31064577064E+00  0.58088677656E+01  0.13149220287E+02  0.14378506170E+02  0.00000000000E+00 0. -1.
</event>
<event>
 7    1  0.2297343E-008  0.4614232E+02  0.7816164E-02  0.1320468E+00
        -11   -1    0    0    0    0  0.00000000000E+00  0.00000000000E+00  0.45593999997E+02  0.45594000000E+02  0.51100000000E-03 0.  1.
         11   -1    0    0    0    0 -0.00000000000E+00 -0.00000000000E+00 -0.45593999997E+02  0.45594000000E+02  0.51100000000E-03 0. -1.
    9900012    2    1    2    0    0  0.14025282484E+00  0.25809460470E+02  0.36918365514E+02  0.46142316157E+02  0.99999853761E+01 0.  0.
         12    1    1    2    0    0 -0.14025282484E+00 -0.25809460470E+02 -0.36918365514E+02  0.45045683843E+02  0.00000000000E+00 0. -1.
         11    1    3    3    0    0 -0.27001277350E-01  0.12726047724E+02  0.11558196537E+02  0.17191420162E+02  0.51100000000E-03 0. -1.
        -11    1    3    3    0    0  0.24294495395E+01  0.55285791057E+01  0.99257225793E+01  0.11618406990E+02  0.51100000000E-03 0.  1.
        -12    1    3    3    0    0 -0.22621954374E+01  0.75548336408E+01  0.15434446398E+02  0.17332489006E+02  0.00000000000E+00 0.  1.
</event>
<event>
 7    1  0.2297343E-008  0.4614232E+02  0.7816164E-02  0.1320468E+00
        -11   -1    0    0    0    0  0.00000000000E+00  0.00000000000E+00  0.45593999997E+02  0.45594000000E+02  0.51100000000E-03 0.  1.
         11   -1    0    0    0    0 -0.00000000000E+00 -0.00000000000E+00 -0.45593999997E+02  0.45594000000E+02  0.51100000000E-03 0. -1.
    9900012    2    1    2    0    0  0.73027889187E+01 -0.15268718370E+02  0.41745047716E+02  0.46142317682E+02  0.99999992797E+01 0.  0.
         12    1    1    2    0    0 -0.73027889187E+01  0.15268718370E+02 -0.41745047716E+02  0.45045682318E+02  0.00000000000E+00 0. -1.
         11    1    3    3    0    0  0.81319957822E+01 -0.10910090214E+02  0.24681197573E+02  0.28183699860E+02  0.51100000000E-03 0. -1.
        -11    1    3    3    0    0  0.90962666004E+00 -0.33983096370E+01  0.12399985892E+02  0.12889359155E+02  0.51100000000E-03 0.  1.
         12    1    3    3    0    0 -0.17388335236E+01 -0.96031851859E+00  0.46638642517E+01  0.50692586675E+01  0.00000000000E+00 0. -1.
</event>
<event>
 7    1  0.2297343E-008  0.4614232E+02  0.7816164E-02  0.1320468E+00
        -11   -1    0    0    0    0  0.00000000000E+00  0.00000000000E+00  0.45593999997E+02  0.45594000000E+02  0.51100000000E-03 0. -1.
         11   -1    0    0    0    0 -0.00000000000E+00 -0.00000000000E+00 -0.45593999997E+02  0.45594000000E+02  0.51100000000E-03 0.  1.
    9900012    2    1    2    0    0  0.10623051089E+02 -0.43487868658E+02  0.50069544712E+01  0.46142317322E+02  0.99999959945E+01 0.  0.
         12    1    1    2    0    0 -0.10623051089E+02  0.43487868658E+02 -0.50069544712E+01  0.45045682678E+02  0.00000000000E+00 0. -1.
         11    1    3    3    0    0 -0.80698736943E+00 -0.29375598729E+01 -0.52259221036E+00  0.30908881411E+01  0.51100000000E-03 0. -1.
        -11    1    3    3    0    0  0.38448471655E+01 -0.24856599488E+02  0.17311185364E+01  0.25211706794E+02  0.51100000000E-03 0.  1.
         12    1    3    3    0    0  0.75851912926E+01 -0.15693709297E+02  0.37984281451E+01  0.17839722387E+02  0.00000000000E+00 0. -1.
</event>
<event>
 7    1  0.2297343E-008  0.4614232E+02  0.7816164E-02  0.1320468E+00
        -11   -1    0    0    0    0  0.00000000000E+00  0.00000000000E+00  0.45593999997E+02  0.45594000000E+02  0.51100000000E-03 0.  1.
         11   -1    0    0    0    0 -0.00000000000E+00 -0.00000000000E+00 -0.45593999997E+02  0.45594000000E+02  0.51100000000E-03 0. -1.
    9900012    2    1    2    0    0 -0.60731695362E+01  0.35817066861E+02  0.26633960126E+02  0.46142317646E+02  0.99999989538E+01 0.  0.
         12    1    1    2    0    0  0.60731695362E+01 -0.35817066861E+02 -0.26633960126E+02  0.45045682354E+02  0.00000000000E+00 0. -1.
         11    1    3    3    0    0 -0.43722085725E+01  0.99279984232E+01  0.35709288365E+01  0.11420722110E+02  0.51100000000E-03 0. -1.
        -11    1    3    3    0    0 -0.23540407570E+00  0.38135570539E+01  0.37537085378E+01  0.53562076630E+01  0.51100000000E-03 0.  1.
         12    1    3    3    0    0 -0.14655568880E+01  0.22075511384E+02  0.19309322752E+02  0.29365387874E+02  0.00000000000E+00 0. -1.
</event>
<event>
 7    1  0.2297343E-008  0.4614232E+02  0.7816164E-02  0.1320468E+00
        -11   -1    0    0    0    0  0.00000000000E+00  0.00000000000E+00  0.45593999997E+02  0.45594000000E+02  0.51100000000E-03 0. -1.
         11   -1    0    0    0    0 -0.00000000000E+00 -0.00000000000E+00 -0.45593999997E+02  0.45594000000E+02  0.51100000000E-03 0.  1.
    9900012    2    1    2    0    0 -0.23471558014E+02  0.70595386879E+01 -0.37793682183E+02  0.46142317243E+02  0.99999952792E+01 0.  0.
         12    1    1    2    0    0  0.23471558014E+02 -0.70595386879E+01  0.37793682183E+02  0.45045682757E+02  0.00000000000E+00 0. -1.
         11    1    3    3    0    0 -0.30726553441E+01  0.94942590873E+00 -0.26229525606E+01  0.41500000984E+01  0.51100000000E-03 0. -1.
        -11    1    3    3    0    0 -0.92719592187E+01  0.71950055650E+01 -0.16993541001E+02  0.20652306623E+02  0.51100000000E-03 0.  1.
        -12    1    3    3    0    0 -0.11126943451E+02 -0.10848927859E+01 -0.18177188621E+02  0.21340010522E+02  0.00000000000E+00 0.  1.
</event>
<event>
 7    1  0.2297343E-008  0.4614232E+02  0.7816164E-02  0.1320468E+00
        -11   -1    0    0    0    0  0.00000000000E+00  0.00000000000E+00  0.45593999997E+02  0.45594000000E+02  0.51100000000E-03 0.  1.
         11   -1    0    0    0    0 -0.00000000000E+00 -0.00000000000E+00 -0.45593999997E+02  0.45594000000E+02  0.51100000000E-03 0. -1.
    9900012    2    1    2    0    0 -0.26405081858E+00  0.53458163345E+01  0.44726569490E+02  0.46142317705E+02  0.99999994846E+01 0.  0.
         12    1    1    2    0    0  0.26405081858E+00 -0.53458163345E+01 -0.44726569490E+02  0.45045682295E+02  0.00000000000E+00 0. -1.
         11    1    3    3    0    0 -0.18810401407E+01 -0.14507366649E+00  0.10669536850E+02  0.10835053080E+02  0.51100000000E-03 0. -1.
        -11    1    3    3    0    0 -0.16154485893E+01  0.35700688238E+01  0.27254060868E+02  0.27534322211E+02  0.51100000000E-03 0.  1.
         12    1    3    3    0    0  0.32324379114E+01  0.19208211771E+01  0.68029717718E+01  0.77729424141E+01  0.00000000000E+00 0. -1.
</event>
<event>
 7    1  0.2297343E-008  0.4614232E+02  0.7816164E-02  0.1320468E+00
        -11   -1    0    0    0    0  0.00000000000E+00  0.00000000000E+00  0.45593999997E+02  0.45594000000E+02  0.51100000000E-03 0.  1.
         11   -1    0    0    0    0 -0.00000000000E+00 -0.00000000000E+00 -0.45593999997E+02  0.45594000000E+02  0.51100000000E-03 0. -1.
    9900012    2    1    2    0    0 -0.16342733974E+02  0.29798300866E+02  0.29565009771E+02  0.46142317732E+02  0.99999997390E+01 0.  0.
         12    1    1    2    0    0  0.16342733974E+02 -0.29798300866E+02 -0.29565009771E+02  0.45045682268E+02  0.00000000000E+00 0. -1.
         11    1    3    3    0    0 -0.93303880449E+01  0.21040365897E+02  0.16993522974E+02  0.28610015055E+02  0.51100000000E-03 0. -1.
        -11    1    3    3    0    0 -0.17404240492E+01  0.49812689718E+01  0.33196788064E+01  0.62339701699E+01  0.51100000000E-03 0.  1.
        -12    1    3    3    0    0 -0.52719218795E+01  0.37766659972E+01  0.92518079904E+01  0.11298332507E+02  0.00000000000E+00 0.  1.
</event>
<event>
 7    1  0.2297343E-008  0.4614232E+02  0.7816164E-02  0.1320468E+00
        -11   -1    0    0    0    0  0.00000000000E+00  0.00000000000E+00  0.45593999997E+02  0.45594000000E+02  0.51100000000E-03 0. -1.
         11   -1    0    0    0    0 -0.00000000000E+00 -0.00000000000E+00 -0.45593999997E+02  0.45594000000E+02  0.51100000000E-03 0.  1.
    9900012    2    1    2    0    0 -0.77614887412E+01  0.43118241413E+02 -0.10473306541E+02  0.46142316523E+02  0.99999887056E+01 0.  0.
         12    1    1    2    0    0  0.77614887412E+01 -0.43118241413E+02  0.10473306541E+02  0.45045683477E+02  0.00000000000E+00 0. -1.
         11    1    3    3    0    0 -0.41453589278E+01  0.12550729072E+02 -0.53000416853E+01  0.14240619474E+02  0.51100000000E-03 0.  1.
        -11    1    3    3    0    0  0.70889328705E+00  0.10995916422E+02 -0.43336973097E+01  0.11840339534E+02  0.51100000000E-03 0. -1.
        -12    1    3    3    0    0 -0.43250231004E+01  0.19571595920E+02 -0.83956754583E+00  0.20061357515E+02  0.00000000000E+00 0.  1.
</event>
<event>
 7    1  0.2297343E-008  0.4614232E+02  0.7816164E-02  0.1320468E+00
        -11   -1    0    0    0    0  0.00000000000E+00  0.00000000000E+00  0.45593999997E+02  0.45594000000E+02  0.51100000000E-03 0. -1.
         11   -1    0    0    0    0 -0.00000000000E+00 -0.00000000000E+00 -0.45593999997E+02  0.45594000000E+02  0.51100000000E-03 0.  1.
    9900012    2    1    2    0    0 -0.41844912468E+02 -0.15673818802E+02  0.56963302355E+01  0.46142317926E+02  0.10000001507E+02 0.  0.
         12    1    1    2    0    0  0.41844912468E+02  0.15673818802E+02 -0.56963302355E+01  0.45045682074E+02  0.00000000000E+00 0. -1.
         11    1    3    3    0    0 -0.97909176493E+01 -0.27690107513E+00  0.20221219492E+01  0.10001385907E+02  0.51100000000E-03 0. -1.
        -11    1    3    3    0    0 -0.26394901615E+02 -0.11430280926E+02  0.11598978693E+01  0.28786933089E+02  0.51100000000E-03 0.  1.
         12    1    3    3    0    0 -0.56590932034E+01 -0.39666368010E+01  0.25143104170E+01  0.73539989304E+01  0.00000000000E+00 0. -1.
</event>
<event>
 7    1  0.2297343E-008  0.4614232E+02  0.7816164E-02  0.1320468E+00
        -11   -1    0    0    0    0  0.00000000000E+00  0.00000000000E+00  0.45593999997E+02  0.45594000000E+02  0.51100000000E-03 0.  1.
         11   -1    0    0    0    0 -0.00000000000E+00 -0.00000000000E+00 -0.45593999997E+02  0.45594000000E+02  0.51100000000E-03 0. -1.
    9900012    2    1    2    0    0  0.24458380554E+02  0.21347188707E+02  0.31228169172E+02  0.46142318799E+02  0.10000009463E+02 0.  0.
         12    1    1    2    0    0 -0.24458380554E+02 -0.21347188707E+02 -0.31228169172E+02  0.45045681201E+02  0.00000000000E+00 0. -1.
         11    1    3    3    0    0  0.41605748667E+01  0.13508739907E+01  0.58704321170E+01  0.73210120381E+01  0.51100000000E-03 0. -1.
        -11    1    3    3    0    0  0.14627758016E+01  0.39372413952E+01  0.15472071943E+01  0.44760957556E+01  0.51100000000E-03 0.  1.
        -12    1    3    3    0    0  0.18835029886E+02  0.16059073321E+02  0.23810529861E+02  0.34345211005E+02  0.00000000000E+00 0.  1.
</event>
<event>
 7    1  0.2297343E-008  0.4614232E+02  0.7816164E-02  0.1320468E+00
        -11   -1    0    0    0    0  0.00000000000E+00  0.00000000000E+00  0.45593999997E+02  0.45594000000E+02  0.51100000000E-03 0.  1.
         11   -1    0    0    0    0 -0.00000000000E+00 -0.00000000000E+00 -0.45593999997E+02  0.45594000000E+02  0.51100000000E-03 0. -1.
    9900012    2    1    2    0    0  0.41387906138E+02  0.11915661953E+02  0.13197415796E+02  0.46142316989E+02  0.99999929573E+01 0.  0.
         12    1    1    2    0    0 -0.41387906138E+02 -0.11915661953E+02 -0.13197415796E+02  0.45045683011E+02  0.00000000000E+00 0. -1.
         11    1    3    3    0    0  0.40802973478E+01  0.41341180399E+01  0.19445505282E+01  0.61254416520E+01  0.51100000000E-03 0. -1.
        -11    1    3    3    0    0  0.57177050013E+01  0.10357130627E+01 -0.15827934071E-03  0.58107531626E+01  0.51100000000E-03 0.  1.
        -12    1    3    3    0    0  0.31589903789E+02  0.67458308508E+01  0.11253023547E+02  0.34206122174E+02  0.00000000000E+00 0.  1.
</event>
<event>
 7    1  0.2297343E-008  0.4614232E+02  0.7816164E-02  0.1320468E+00
        -11   -1    0    0    0    0  0.00000000000E+00  0.00000000000E+00  0.45593999997E+02  0.45594000000E+02  0.51100000000E-03 0. -1.
         11   -1    0    0    0    0 -0.00000000000E+00 -0.00000000000E+00 -0.45593999997E+02  0.45594000000E+02  0.51100000000E-03 0.  1.
    9900012    2    1    2    0    0 -0.32651785727E+02 -0.14100787470E+02 -0.27643121837E+02  0.46142317595E+02  0.99999984871E+01 0.  0.
         12    1    1    2    0    0  0.32651785727E+02  0.14100787470E+02  0.27643121837E+02  0.45045682405E+02  0.00000000000E+00 0. -1.
         11    1    3    3    0    0 -0.24065795512E+02 -0.10663955589E+02 -0.22352706412E+02  0.34532968980E+02  0.51100000000E-03 0. -1.
        -11    1    3    3    0    0 -0.69479672187E+01 -0.44568874463E+01 -0.50190454473E+01  0.96606889840E+01  0.51100000000E-03 0.  1.
         12    1    3    3    0    0 -0.16380229962E+01  0.10200555649E+01 -0.27136997788E+00  0.19486596308E+01  0.00000000000E+00 0. -1.
</event>
<event>
 7    1  0.2297343E-008  0.4614232E+02  0.7816164E-02  0.1320468E+00
        -11   -1    0    0    0    0  0.00000000000E+00  0.00000000000E+00  0.45593999997E+02  0.45594000000E+02  0.51100000000E-03 0.  1.
         11   -1    0    0    0    0 -0.00000000000E+00 -0.00000000000E+00 -0.45593999997E+02  0.45594000000E+02  0.51100000000E-03 0. -1.
    9900012    2    1    2    0    0 -0.24149270340E+02 -0.23667885476E+02  0.29761679864E+02  0.46142315976E+02  0.99999837251E+01 0.  0.
         12    1    1    2    0    0  0.24149270340E+02  0.23667885476E+02 -0.29761679864E+02  0.45045684024E+02  0.00000000000E+00 0. -1.
         11    1    3    3    0    0 -0.32035772029E+01 -0.36745391930E+01  0.42953006571E+01  0.64972881398E+01  0.51100000000E-03 0. -1.
        -11    1    3    3    0    0 -0.11514152145E+02 -0.53753673397E+01  0.13440925147E+02  0.18496722485E+02  0.51100000000E-03 0.  1.
         12    1    3    3    0    0 -0.94315409920E+01 -0.14617978943E+02  0.12025454060E+02  0.21148305351E+02  0.00000000000E+00 0. -1.
</event>
<event>
 7    1  0.2297343E-008  0.4614232E+02  0.7816164E-02  0.1320468E+00
        -11   -1    0    0    0    0  0.00000000000E+00  0.00000000000E+00  0.45593999997E+02  0.45594000000E+02  0.51100000000E-03 0.  1.
         11   -1    0    0    0    0 -0.00000000000E+00 -0.00000000000E+00 -0.45593999997E+02  0.45594000000E+02  0.51100000000E-03 0. -1.
    9900012    2    1    2    0    0 -0.39758899872E+01  0.35437043974E+02  0.27523113413E+02  0.46142316980E+02  0.99999928755E+01 0.  0.
         12    1    1    2    0    0  0.39758899872E+01 -0.35437043974E+02 -0.27523113413E+02  0.45045683020E+02  0.00000000000E+00 0. -1.
         11    1    3    3    0    0  0.94224191564E-01  0.17775783368E+02  0.15584497190E+02  0.23640302567E+02  0.51100000000E-03 0. -1.
        -11    1    3    3    0    0 -0.38151986974E+01  0.57476831954E+01  0.26381374532E+01  0.73858901087E+01  0.51100000000E-03 0.  1.
        -12    1    3    3    0    0 -0.25491548140E+00  0.11913577412E+02  0.93004787696E+01  0.15116124304E+02  0.00000000000E+00 0.  1.
</event>
<event>
 7    1  0.2297343E-008  0.4614232E+02  0.7816164E-02  0.1320468E+00
        -11   -1    0    0    0    0  0.00000000000E+00  0.00000000000E+00  0.45593999997E+02  0.45594000000E+02  0.51100000000E-03 0. -1.
         11   -1    0    0    0    0 -0.00000000000E+00 -0.00000000000E+00 -0.45593999997E+02  0.45594000000E+02  0.51100000000E-03 0.  1.
    9900012    2    1    2    0    0 -0.42501244322E+02 -0.14749542399E+02  0.22822565062E+01  0.46142318024E+02  0.10000002398E+02 0.  0.
         12    1    1    2    0    0  0.42501244322E+02  0.14749542399E+02 -0.22822565062E+01  0.45045681976E+02  0.00000000000E+00 0. -1.
         11    1    3    3    0    0 -0.16450601040E+02 -0.23320119568E+01  0.34614360796E+00  0.16618675338E+02  0.51100000000E-03 0. -1.
        -11    1    3    3    0    0 -0.10912557942E+01  0.45944342377E+00 -0.59376372910E+00  0.13245690224E+01  0.51100000000E-03 0.  1.
        -12    1    3    3    0    0 -0.24959387488E+02 -0.12876973866E+02  0.25298766273E+01  0.28199073664E+02  0.00000000000E+00 0.  1.
</event>
<event>
 7    1  0.2297343E-008  0.4614232E+02  0.7816164E-02  0.1320468E+00
        -11   -1    0    0    0    0  0.00000000000E+00  0.00000000000E+00  0.45593999997E+02  0.45594000000E+02  0.51100000000E-03 0.  1.
         11   -1    0    0    0    0 -0.00000000000E+00 -0.00000000000E+00 -0.45593999997E+02  0.45594000000E+02  0.51100000000E-03 0. -1.
    9900012    2    1    2    0    0 -0.74572278346E+01  0.26675062841E+00  0.44423324859E+02  0.46142321024E+02  0.10000029754E+02 0.  0.
         12    1    1    2    0    0  0.74572278346E+01 -0.26675062841E+00 -0.44423324859E+02  0.45045678976E+02  0.00000000000E+00 0. -1.
         11    1    3    3    0    0 -0.17900117597E+01  0.22894195743E+01  0.62797656448E+01  0.69196127711E+01  0.51100000000E-03 0. -1.
        -11    1    3    3    0    0 -0.14037980582E+01  0.79740973639E+00  0.25961443706E+02  0.26011594930E+02  0.51100000000E-03 0.  1.
        -12    1    3    3    0    0 -0.42634180168E+01 -0.28200786823E+01  0.12182115509E+02  0.13211113323E+02  0.00000000000E+00 0.  1.
</event>
<event>
 7    1  0.2297343E-008  0.4614232E+02  0.7816164E-02  0.1320468E+00
        -11   -1    0    0    0    0  0.00000000000E+00  0.00000000000E+00  0.45593999997E+02  0.45594000000E+02  0.51100000000E-03 0.  1.
         11   -1    0    0    0    0 -0.00000000000E+00 -0.00000000000E+00 -0.45593999997E+02  0.45594000000E+02  0.51100000000E-03 0. -1.
    9900012    2    1    2    0    0  0.41909348987E+02 -0.16506123681E+02 -0.51757864289E+00  0.46142317197E+02  0.99999948586E+01 0.  0.
         12    1    1    2    0    0 -0.41909348987E+02  0.16506123681E+02  0.51757864289E+00  0.45045682803E+02  0.00000000000E+00 0. -1.
         11    1    3    3    0    0  0.45081357291E+01 -0.34802238512E+01 -0.60113586147E-01  0.56955122430E+01  0.51100000000E-03 0. -1.
        -11    1    3    3    0    0  0.86220235719E+01 -0.57632608963E+01 -0.25883792420E+01  0.10688974413E+02  0.51100000000E-03 0.  1.
        -12    1    3    3    0    0  0.28779189686E+02 -0.72626389339E+01  0.21309141853E+01  0.29757830542E+02  0.00000000000E+00 0.  1.
</event>
<event>
 7    1  0.2297343E-008  0.4614232E+02  0.7816164E-02  0.1320468E+00
        -11   -1    0    0    0    0  0.00000000000E+00  0.00000000000E+00  0.45593999997E+02  0.45594000000E+02  0.51100000000E-03 0.  1.
         11   -1    0    0    0    0 -0.00000000000E+00 -0.00000000000E+00 -0.45593999997E+02  0.45594000000E+02  0.51100000000E-03 0. -1.
    9900012    2    1    2    0    0  0.68908729840E+01  0.39740354001E+02  0.20058256948E+02  0.46142317206E+02  0.99999949353E+01 0.  0.
         12    1    1    2    0    0 -0.68908729840E+01 -0.39740354001E+02 -0.20058256948E+02  0.45045682794E+02  0.00000000000E+00 0. -1.
         11    1    3    3    0    0  0.26466788136E+01  0.34405135812E+01  0.35936708736E+01  0.56352917452E+01  0.51100000000E-03 0. -1.
        -11    1    3    3    0    0  0.54925833205E+01  0.22955252175E+02  0.10782706708E+02  0.25949544084E+02  0.51100000000E-03 0.  1.
         12    1    3    3    0    0 -0.12483891500E+01  0.13344588245E+02  0.56818793662E+01  0.14557481377E+02  0.00000000000E+00 0. -1.
</event>
<event>
 7    1  0.2313073E-008  0.4614232E+02  0.7816164E-02  0.1320468E+00
        -11   -1    0    0    0    0  0.00000000000E+00  0.00000000000E+00  0.45593999997E+02  0.45594000000E+02  0.51100000000E-03 0. -1.
         11   -1    0    0    0    0 -0.00000000000E+00 -0.00000000000E+00 -0.45593999997E+02  0.45594000000E+02  0.51100000000E-03 0.  1.
    9900012    2    1    2    0    0 -0.19765208307E+02 -0.24991216696E+02 -0.31841627306E+02  0.46142316512E+02  0.99999886114E+01 0.  0.
         12    1    1    2    0    0  0.19765208307E+02  0.24991216696E+02  0.31841627306E+02  0.45045683488E+02  0.00000000000E+00 0. -1.
         11    1    3    3    0    0 -0.18231911067E+01 -0.32221516584E+01 -0.12202562050E+01  0.38981165437E+01  0.51100000000E-03 0. -1.
        -11    1    3    3    0    0 -0.69738880279E+01 -0.92793591179E+01 -0.76973152619E+01  0.13928039430E+02  0.51100000000E-03 0.  1.
        -12    1    3    3    0    0 -0.10968129173E+02 -0.12489705919E+02 -0.22924055839E+02  0.28316160538E+02  0.00000000000E+00 0.  1.
</event>
<event>
 7    1  0.2297343E-008  0.4614231E+02  0.7816164E-02  0.1320468E+00
        -11   -1    0    0    0    0  0.00000000000E+00  0.00000000000E+00  0.45593999997E+02  0.45594000000E+02  0.51100000000E-03 0.  1.
         11   -1    0    0    0    0 -0.00000000000E+00 -0.00000000000E+00 -0.45593999997E+02  0.45594000000E+02  0.51100000000E-03 0. -1.
    9900012    2    1    2    0    0  0.35669705929E+02 -0.26722054031E+02 -0.65358964853E+01  0.46142311688E+02  0.99999446179E+01 0.  0.
         12    1    1    2    0    0 -0.35669705929E+02  0.26722054031E+02  0.65358964853E+01  0.45045688312E+02  0.00000000000E+00 0. -1.
         11    1    3    3    0    0  0.62878601676E+01 -0.85332897024E+01 -0.79244678436E+00  0.10629308105E+02  0.51100000000E-03 0. -1.
        -11    1    3    3    0    0  0.27612595372E+02 -0.16223706497E+02 -0.66662373865E+01  0.32712425725E+02  0.51100000000E-03 0.  1.
        -12    1    3    3    0    0  0.17692503886E+01 -0.19650578318E+01  0.92278768554E+00  0.28005778569E+01  0.00000000000E+00 0.  1.
</event>
<event>
 7    1  0.2297343E-008  0.4614232E+02  0.7816164E-02  0.1320468E+00
        -11   -1    0    0    0    0  0.00000000000E+00  0.00000000000E+00  0.45593999997E+02  0.45594000000E+02  0.51100000000E-03 0.  1.
         11   -1    0    0    0    0 -0.00000000000E+00 -0.00000000000E+00 -0.45593999997E+02  0.45594000000E+02  0.51100000000E-03 0. -1.
    9900012    2    1    2    0    0 -0.36495327877E+02 -0.38091220137E+01  0.26128433993E+02  0.46142318406E+02  0.10000005882E+02 0.  0.
         12    1    1    2    0    0  0.36495327877E+02  0.38091220137E+01 -0.26128433993E+02  0.45045681594E+02  0.00000000000E+00 0. -1.
         11    1    3    3    0    0 -0.29101177983E+01  0.36919062463E+00 -0.24044277001E+00  0.29432805344E+01  0.51100000000E-03 0. -1.
        -11    1    3    3    0    0 -0.25392124226E+02 -0.10104684846E+01  0.18924283748E+02  0.31684531477E+02  0.51100000000E-03 0.  1.
        -12    1    3    3    0    0 -0.81930858524E+01 -0.31678441537E+01  0.74445930149E+01  0.11514506395E+02  0.00000000000E+00 0.  1.
</event>
<event>
 7    1  0.2297343E-008  0.4614232E+02  0.7816164E-02  0.1320468E+00
        -11   -1    0    0    0    0  0.00000000000E+00  0.00000000000E+00  0.45593999997E+02  0.45594000000E+02  0.51100000000E-03 0.  1.
         11   -1    0    0    0    0 -0.00000000000E+00 -0.00000000000E+00 -0.45593999997E+02  0.45594000000E+02  0.51100000000E-03 0. -1.
    9900012    2    1    2    0    0 -0.36953352289E+02 -0.25313835040E+02  0.47721104851E+01  0.46142317317E+02  0.99999959518E+01 0.  0.
         12    1    1    2    0    0  0.36953352289E+02  0.25313835040E+02 -0.47721104851E+01  0.45045682683E+02  0.00000000000E+00 0. -1.
         11    1    3    3    0    0 -0.65185370196E+01 -0.75007791126E+01  0.18730489814E+01  0.10112434174E+02  0.51100000000E-03 0. -1.
        -11    1    3    3    0    0 -0.15958647852E+02 -0.12228257646E+02 -0.64063246224E+00  0.20115146943E+02  0.51100000000E-03 0.  1.
         12    1    3    3    0    0 -0.14476167417E+02 -0.55847982817E+01  0.35396939659E+01  0.15914736200E+02  0.00000000000E+00 0. -1.
</event>
<event>
 7    1  0.2297343E-008  0.4614232E+02  0.7816164E-02  0.1320468E+00
        -11   -1    0    0    0    0  0.00000000000E+00  0.00000000000E+00  0.45593999997E+02  0.45594000000E+02  0.51100000000E-03 0.  1.
         11   -1    0    0    0    0 -0.00000000000E+00 -0.00000000000E+00 -0.45593999997E+02  0.45594000000E+02  0.51100000000E-03 0. -1.
    9900012    2    1    2    0    0  0.19316033572E+02 -0.37001908408E+02  0.16937035545E+02  0.46142317056E+02  0.99999935727E+01 0.  0.
         12    1    1    2    0    0 -0.19316033572E+02  0.37001908408E+02 -0.16937035545E+02  0.45045682944E+02  0.00000000000E+00 0. -1.
         11    1    3    3    0    0  0.23642670786E+01 -0.13362475882E+01  0.15995748639E+01  0.31518179583E+01  0.51100000000E-03 0. -1.
        -11    1    3    3    0    0  0.37099299873E+01 -0.14686548372E+02  0.79385957857E+01  0.17102034584E+02  0.51100000000E-03 0.  1.
         12    1    3    3    0    0  0.13241836506E+02 -0.20979112448E+02  0.73988648959E+01  0.25888464514E+02  0.00000000000E+00 0. -1.
</event>
<event>
 7    1  0.2297343E-008  0.4614232E+02  0.7816164E-02  0.1320468E+00
        -11   -1    0    0    0    0  0.00000000000E+00  0.00000000000E+00  0.45593999997E+02  0.45594000000E+02  0.51100000000E-03 0. -1.
         11   -1    0    0    0    0 -0.00000000000E+00 -0.00000000000E+00 -0.45593999997E+02  0.45594000000E+02  0.51100000000E-03 0.  1.
    9900012    2    1    2    0    0  0.33917257462E+02 -0.24528215766E+02 -0.16646308830E+02  0.46142319629E+02  0.10000017035E+02 0.  0.
         12    1    1    2    0    0 -0.33917257462E+02  0.24528215766E+02  0.16646308830E+02  0.45045680371E+02  0.00000000000E+00 0. -1.
         11    1    3    3    0    0  0.28090359836E+01 -0.42289962480E+01 -0.17617067021E+01  0.53738908798E+01  0.51100000000E-03 0. -1.
        -11    1    3    3    0    0  0.10802068943E+02 -0.35963417972E+01 -0.67969320409E+01  0.13259587218E+02  0.51100000000E-03 0.  1.
        -12    1    3    3    0    0  0.20306152536E+02 -0.16702877720E+02 -0.80876700867E+01  0.27508841531E+02  0.00000000000E+00 0.  1.
</event>
<event>
 7    1  0.2297343E-008  0.4614232E+02  0.7816164E-02  0.1320468E+00
        -11   -1    0    0    0    0  0.00000000000E+00  0.00000000000E+00  0.45593999997E+02  0.45594000000E+02  0.51100000000E-03 0. -1.
         11   -1    0    0    0    0 -0.00000000000E+00 -0.00000000000E+00 -0.45593999997E+02  0.45594000000E+02  0.51100000000E-03 0.  1.
    9900012    2    1    2    0    0 -0.22627825749E+02 -0.38924619989E+02 -0.14032337031E+01  0.46142316475E+02  0.99999882679E+01 0.  0.
         12    1    1    2    0    0  0.22627825749E+02  0.38924619989E+02  0.14032337031E+01  0.45045683525E+02  0.00000000000E+00 0. -1.
         11    1    3    3    0    0 -0.11264600053E+01 -0.25416035015E+01  0.11110410570E+01  0.29938391730E+01  0.51100000000E-03 0. -1.
        -11    1    3    3    0    0 -0.18587004615E+02 -0.34677686348E+02 -0.78020217271E+00  0.39352603303E+02  0.51100000000E-03 0.  1.
         12    1    3    3    0    0 -0.29143611290E+01 -0.17053301396E+01 -0.17340725873E+01  0.37958739986E+01  0.00000000000E+00 0. -1.
</event>
<event>
 7    1  0.2297343E-008  0.4614232E+02  0.7816164E-02  0.1320468E+00
        -11   -1    0    0    0    0  0.00000000000E+00  0.00000000000E+00  0.45593999997E+02  0.45594000000E+02  0.51100000000E-03 0. -1.
         11   -1    0    0    0    0 -0.00000000000E+00 -0.00000000000E+00 -0.45593999997E+02  0.45594000000E+02  0.51100000000E-03 0.  1.
    9900012    2    1    2    0    0 -0.26576136208E+02 -0.35542690248E+02  0.77161887183E+01  0.46142318585E+02  0.10000007515E+02 0.  0.
         12    1    1    2    0    0  0.26576136208E+02  0.35542690248E+02 -0.77161887183E+01  0.45045681415E+02  0.00000000000E+00 0. -1.
         11    1    3    3    0    0 -0.99125103782E+00  0.17245698773E+00  0.78545047207E+00  0.12764218495E+01  0.51100000000E-03 0. -1.
        -11    1    3    3    0    0 -0.12014903140E+02 -0.11920375721E+02  0.31139858303E+01  0.17209013998E+02  0.51100000000E-03 0.  1.
         12    1    3    3    0    0 -0.13569982030E+02 -0.23794771515E+02  0.38167524159E+01  0.27656882737E+02  0.00000000000E+00 0. -1.
</event>
<event>
 7    1  0.2297343E-008  0.4614232E+02  0.7816164E-02  0.1320468E+00
        -11   -1    0    0    0    0  0.00000000000E+00  0.00000000000E+00  0.45593999997E+02  0.45594000000E+02  0.51100000000E-03 0. -1.
         11   -1    0    0    0    0 -0.00000000000E+00 -0.00000000000E+00 -0.45593999997E+02  0.45594000000E+02  0.51100000000E-03 0.  1.
    9900012    2    1    2    0    0 -0.22321769276E+02  0.28888574115E+02 -0.26387542464E+02  0.46142317684E+02  0.99999993008E+01 0.  0.
         12    1    1    2    0    0  0.22321769276E+02 -0.28888574115E+02  0.26387542464E+02  0.45045682316E+02  0.00000000000E+00 0. -1.
         11    1    3    3    0    0 -0.12429597769E+01  0.67648348304E+00  0.20748306527E+00  0.14302546603E+01  0.51100000000E-03 0. -1.
        -11    1    3    3    0    0 -0.10740139943E+01  0.40708999930E+01 -0.54866970443E+01  0.69158931115E+01  0.51100000000E-03 0.  1.
         12    1    3    3    0    0 -0.20004795504E+02  0.24141190639E+02 -0.21108328485E+02  0.37796169913E+02  0.00000000000E+00 0. -1.
</event>
<event>
 7    1  0.2297343E-008  0.4614232E+02  0.7816164E-02  0.1320468E+00
        -11   -1    0    0    0    0  0.00000000000E+00  0.00000000000E+00  0.45593999997E+02  0.45594000000E+02  0.51100000000E-03 0. -1.
         11   -1    0    0    0    0 -0.00000000000E+00 -0.00000000000E+00 -0.45593999997E+02  0.45594000000E+02  0.51100000000E-03 0.  1.
    9900012    2    1    2    0    0  0.22345793378E+02 -0.32360302901E+02  0.21967922938E+02  0.46142319588E+02  0.10000016659E+02 0.  0.
         12    1    1    2    0    0 -0.22345793378E+02  0.32360302901E+02 -0.21967922938E+02  0.45045680412E+02  0.00000000000E+00 0. -1.
         11    1    3    3    0    0  0.62632511072E+01 -0.10768794697E+02  0.92640011845E+01  0.15524721314E+02  0.51100000000E-03 0. -1.
        -11    1    3    3    0    0  0.55658664455E+00 -0.28577745859E+01  0.36209849790E+01  0.46463100150E+01  0.51100000000E-03 0.  1.
        -12    1    3    3    0    0  0.15525955626E+02 -0.18733733618E+02  0.90829367747E+01  0.25971288259E+02  0.00000000000E+00 0.  1.
</event>
<event>
 7    1  0.2297343E-008  0.4614232E+02  0.7816164E-02  0.1320468E+00
        -11   -1    0    0    0    0  0.00000000000E+00  0.00000000000E+00  0.45593999997E+02  0.45594000000E+02  0.51100000000E-03 0.  1.
         11   -1    0    0    0    0 -0.00000000000E+00 -0.00000000000E+00 -0.45593999997E+02  0.45594000000E+02  0.51100000000E-03 0. -1.
    9900012    2    1    2    0    0  0.63404985837E+01 -0.11664707800E+02  0.43044698177E+02  0.46142319059E+02  0.10000011832E+02 0.  0.
         12    1    1    2    0    0 -0.63404985837E+01  0.11664707800E+02 -0.43044698177E+02  0.45045680941E+02  0.00000000000E+00 0. -1.
         11    1    3    3    0    0  0.55776369274E+01 -0.25007479966E+01  0.17034186487E+02  0.18097714877E+02  0.51100000000E-03 0. -1.
        -11    1    3    3    0    0 -0.95880827309E+00 -0.34687801022E+00  0.63179242781E+01  0.63996722653E+01  0.51100000000E-03 0.  1.
        -12    1    3    3    0    0  0.17216699294E+01 -0.88170817936E+01  0.19692587412E+02  0.21644931916E+02  0.00000000000E+00 0.  1.
</event>
<event>
 7    1  0.2297343E-008  0.4614232E+02  0.7816164E-02  0.1320468E+00
        -11   -1    0    0    0    0  0.00000000000E+00  0.00000000000E+00  0.45593999997E+02  0.45594000000E+02  0.51100000000E-03 0.  1.
         11   -1    0    0    0    0 -0.00000000000E+00 -0.00000000000E+00 -0.45593999997E+02  0.45594000000E+02  0.51100000000E-03 0. -1.
    9900012    2    1    2    0    0 -0.85705578851E+00 -0.57291994394E+01  0.44671638225E+02  0.46142317271E+02  0.99999955275E+01 0.  0.
         12    1    1    2    0    0  0.85705578851E+00  0.57291994394E+01 -0.44671638225E+02  0.45045682729E+02  0.00000000000E+00 0. -1.
         11    1    3    3    0    0  0.30950422345E+01 -0.34947141104E+01  0.28213819670E+02  0.28597411312E+02  0.51100000000E-03 0. -1.
        -11    1    3    3    0    0 -0.31904090521E+01  0.41379636270E+00  0.10476543740E+02  0.10959375272E+02  0.51100000000E-03 0.  1.
         12    1    3    3    0    0 -0.76168897094E+00 -0.26482816917E+01  0.59812748149E+01  0.65855306861E+01  0.00000000000E+00 0. -1.
</event>
<event>
 7    1  0.2297343E-008  0.4614232E+02  0.7816164E-02  0.1320468E+00
        -11   -1    0    0    0    0  0.00000000000E+00  0.00000000000E+00  0.45593999997E+02  0.45594000000E+02  0.51100000000E-03 0.  1.
         11   -1    0    0    0    0 -0.00000000000E+00 -0.00000000000E+00 -0.45593999997E+02  0.45594000000E+02  0.51100000000E-03 0. -1.
    9900012    2    1    2    0    0  0.18501760347E+02  0.31108554154E+02  0.26815224637E+02  0.46142317079E+02  0.99999937781E+01 0.  0.
         12    1    1    2    0    0 -0.18501760347E+02 -0.31108554154E+02 -0.26815224637E+02  0.45045682921E+02  0.00000000000E+00 0. -1.
         11    1    3    3    0    0  0.22062354671E+01  0.25487169900E+01 -0.32119334911E+00  0.33862366515E+01  0.51100000000E-03 0. -1.
        -11    1    3    3    0    0  0.81381982494E+01  0.13955465347E+02  0.11248167040E+02  0.19685185949E+02  0.51100000000E-03 0.  1.
         12    1    3    3    0    0  0.81573266305E+01  0.14604371817E+02  0.15888250946E+02  0.23070894479E+02  0.00000000000E+00 0. -1.
</event>
<event>
 7    1  0.2297343E-008  0.4614232E+02  0.7816164E-02  0.1320468E+00
        -11   -1    0    0    0    0  0.00000000000E+00  0.00000000000E+00  0.45593999997E+02  0.45594000000E+02  0.51100000000E-03 0.  1.
         11   -1    0    0    0    0 -0.00000000000E+00 -0.00000000000E+00 -0.45593999997E+02  0.45594000000E+02  0.51100000000E-03 0. -1.
    9900012    2    1    2    0    0 -0.27057362656E+02 -0.43828664824E+01  0.35746368316E+02  0.46142320515E+02  0.10000025111E+02 0.  0.
         12    1    1    2    0    0  0.27057362656E+02  0.43828664824E+01 -0.35746368316E+02  0.45045679485E+02  0.00000000000E+00 0. -1.
         11    1    3    3    0    0 -0.12671628169E+01 -0.10372709872E+01  0.47713523537E+01  0.50445451975E+01  0.51100000000E-03 0. -1.
        -11    1    3    3    0    0 -0.16617148345E+02 -0.14285735189E+01  0.24758190855E+02  0.29851942250E+02  0.51100000000E-03 0.  1.
         12    1    3    3    0    0 -0.91730514938E+01 -0.19170219764E+01  0.62168251074E+01  0.11245833068E+02  0.00000000000E+00 0. -1.
</event>
<event>
 7    1  0.2297343E-008  0.4614232E+02  0.7816164E-02  0.1320468E+00
        -11   -1    0    0    0    0  0.00000000000E+00  0.00000000000E+00  0.45593999997E+02  0.45594000000E+02  0.51100000000E-03 0.  1.
         11   -1    0    0    0    0 -0.00000000000E+00 -0.00000000000E+00 -0.45593999997E+02  0.45594000000E+02  0.51100000000E-03 0. -1.
    9900012    2    1    2    0    0 -0.28459439204E+02 -0.59636060476E+01  0.34403619379E+02  0.46142319815E+02  0.10000018729E+02 0.  0.
         12    1    1    2    0    0  0.28459439204E+02  0.59636060476E+01 -0.34403619379E+02  0.45045680185E+02  0.00000000000E+00 0. -1.
         11    1    3    3    0    0 -0.15139820516E+01 -0.91563749228E+00  0.25820289165E+01  0.31300810303E+01  0.51100000000E-03 0. -1.
        -11    1    3    3    0    0 -0.31199600433E+01  0.87558580907E+00  0.87147283073E+01  0.92977035290E+01  0.51100000000E-03 0.  1.
         12    1    3    3    0    0 -0.23825497110E+02 -0.59235543644E+01  0.23106862156E+02  0.33714535256E+02  0.00000000000E+00 0. -1.
</event>
<event>
 7    1  0.2297343E-008  0.4614232E+02  0.7816164E-02  0.1320468E+00
        -11   -1    0    0    0    0  0.00000000000E+00  0.00000000000E+00  0.45593999997E+02  0.45594000000E+02  0.51100000000E-03 0.  1.
         11   -1    0    0    0    0 -0.00000000000E+00 -0.00000000000E+00 -0.45593999997E+02  0.45594000000E+02  0.51100000000E-03 0. -1.
    9900012    2    1    2    0    0  0.73522450170E+01  0.24597841956E+02  0.37013567114E+02  0.46142317786E+02  0.10000000223E+02 0.  0.
         12    1    1    2    0    0 -0.73522450170E+01 -0.24597841956E+02 -0.37013567114E+02  0.45045682214E+02  0.00000000000E+00 0. -1.
         11    1    3    3    0    0  0.69372643176E+01  0.11633672329E+02  0.21829611609E+02  0.25690463432E+02  0.51100000000E-03 0. -1.
        -11    1    3    3    0    0  0.19454760945E+01  0.47230464569E+01  0.40689159205E+01  0.65305529702E+01  0.51100000000E-03 0.  1.
         12    1    3    3    0    0 -0.15304953951E+01  0.82411231694E+01  0.11115039585E+02  0.13921301384E+02  0.00000000000E+00 0. -1.
</event>
<event>
 7    1  0.2297343E-008  0.4614232E+02  0.7816164E-02  0.1320468E+00
        -11   -1    0    0    0    0  0.00000000000E+00  0.00000000000E+00  0.45593999997E+02  0.45594000000E+02  0.51100000000E-03 0.  1.
         11   -1    0    0    0    0 -0.00000000000E+00 -0.00000000000E+00 -0.45593999997E+02  0.45594000000E+02  0.51100000000E-03 0. -1.
    9900012    2    1    2    0    0  0.68599884410E+01 -0.37520184865E+02  0.23964342896E+02  0.46142318252E+02  0.10000004475E+02 0.  0.
         12    1    1    2    0    0 -0.68599884410E+01  0.37520184865E+02 -0.23964342896E+02  0.45045681748E+02  0.00000000000E+00 0. -1.
         11    1    3    3    0    0 -0.57674693903E-01 -0.26428847064E+01  0.41383393196E+01  0.49106026644E+01  0.51100000000E-03 0. -1.
        -11    1    3    3    0    0  0.49869810189E+01 -0.27935703994E+02  0.18582146682E+02  0.33920048834E+02  0.51100000000E-03 0.  1.
        -12    1    3    3    0    0  0.19306821160E+01 -0.69415961645E+01  0.12438568951E+01  0.73116667538E+01  0.00000000000E+00 0.  1.
</event>
<event>
 7    1  0.2297343E-008  0.4614232E+02  0.7816164E-02  0.1320468E+00
        -11   -1    0    0    0    0  0.00000000000E+00  0.00000000000E+00  0.45593999997E+02  0.45594000000E+02  0.51100000000E-03 0.  1.
         11   -1    0    0    0    0 -0.00000000000E+00 -0.00000000000E+00 -0.45593999997E+02  0.45594000000E+02  0.51100000000E-03 0. -1.
    9900012    2    1    2    0    0  0.17712057165E+02  0.12159260738E+02  0.39592282438E+02  0.46142318527E+02  0.10000006983E+02 0.  0.
         12    1    1    2    0    0 -0.17712057165E+02 -0.12159260738E+02 -0.39592282438E+02  0.45045681473E+02  0.00000000000E+00 0. -1.
         11    1    3    3    0    0  0.74604214788E+01  0.10537722089E+02  0.17982896650E+02  0.22137887154E+02  0.51100000000E-03 0. -1.
        -11    1    3    3    0    0  0.53239048499E+01  0.14428100325E+01  0.11030422840E+02  0.12332716324E+02  0.51100000000E-03 0.  1.
         12    1    3    3    0    0  0.49277308358E+01  0.17872861651E+00  0.10578962948E+02  0.11671715048E+02  0.00000000000E+00 0. -1.
</event>
<event>
 7    1  0.2297343E-008  0.4614232E+02  0.7816164E-02  0.1320468E+00
        -11   -1    0    0    0    0  0.00000000000E+00  0.00000000000E+00  0.45593999997E+02  0.45594000000E+02  0.51100000000E-03 0. -1.
         11   -1    0    0    0    0 -0.00000000000E+00 -0.00000000000E+00 -0.45593999997E+02  0.45594000000E+02  0.51100000000E-03 0.  1.
    9900012    2    1    2    0    0 -0.26371549983E+02  0.36047720526E+02  0.58495006995E+01  0.46142318053E+02  0.10000002664E+02 0.  0.
         12    1    1    2    0    0  0.26371549983E+02 -0.36047720526E+02 -0.58495006995E+01  0.45045681947E+02  0.00000000000E+00 0. -1.
         11    1    3    3    0    0 -0.81258326607E+01  0.17730606446E+02  0.11065502802E+01  0.19535301767E+02  0.51100000000E-03 0.  1.
        -11    1    3    3    0    0 -0.90134651747E+01  0.92209970370E+01  0.27320405827E+00  0.12897440891E+02  0.51100000000E-03 0. -1.
         12    1    3    3    0    0 -0.92322521474E+01  0.90961170433E+01  0.44697463610E+01  0.13709575395E+02  0.00000000000E+00 0. -1.
</event>
<event>
 7    1  0.2297343E-008  0.4614232E+02  0.7816164E-02  0.1320468E+00
        -11   -1    0    0    0    0  0.00000000000E+00  0.00000000000E+00  0.45593999997E+02  0.45594000000E+02  0.51100000000E-03 0.  1.
         11   -1    0    0    0    0 -0.00000000000E+00 -0.00000000000E+00 -0.45593999997E+02  0.45594000000E+02  0.51100000000E-03 0. -1.
    9900012    2    1    2    0    0  0.44575741385E+02  0.19664079229E+01 -0.61846465296E+01  0.46142319488E+02  0.10000015746E+02 0.  0.
         12    1    1    2    0    0 -0.44575741385E+02 -0.19664079229E+01  0.61846465296E+01  0.45045680512E+02  0.00000000000E+00 0. -1.
         11    1    3    3    0    0  0.88469776839E+00  0.11076905967E+01 -0.66104684515E+00  0.15641776728E+01  0.51100000000E-03 0. -1.
        -11    1    3    3    0    0  0.51559740505E+01 -0.16234557109E+01  0.74867132550E+00  0.54571224899E+01  0.51100000000E-03 0.  1.
        -12    1    3    3    0    0  0.38535069566E+02  0.24821730371E+01 -0.62722710099E+01  0.39121019325E+02  0.00000000000E+00 0.  1.
</event>
<event>
 7    1  0.2297343E-008  0.4614232E+02  0.7816164E-02  0.1320468E+00
        -11   -1    0    0    0    0  0.00000000000E+00  0.00000000000E+00  0.45593999997E+02  0.45594000000E+02  0.51100000000E-03 0.  1.
         11   -1    0    0    0    0 -0.00000000000E+00 -0.00000000000E+00 -0.45593999997E+02  0.45594000000E+02  0.51100000000E-03 0. -1.
    9900012    2    1    2    0    0  0.36512719652E+02 -0.23842141983E+02  0.11291017202E+02  0.46142317630E+02  0.99999988026E+01 0.  0.
         12    1    1    2    0    0 -0.36512719652E+02  0.23842141983E+02 -0.11291017202E+02  0.45045682370E+02  0.00000000000E+00 0. -1.
         11    1    3    3    0    0  0.21710601928E+01 -0.10714712615E+01  0.22655900591E+01  0.33157882324E+01  0.51100000000E-03 0. -1.
        -11    1    3    3    0    0  0.50603559779E+01 -0.32307901311E+01  0.41261544610E+01  0.72849405208E+01  0.51100000000E-03 0.  1.
         12    1    3    3    0    0  0.29281303481E+02 -0.19539880590E+02  0.48992726821E+01  0.35541588877E+02  0.00000000000E+00 0. -1.
</event>
<event>
 7    1  0.2297343E-008  0.4614232E+02  0.7816164E-02  0.1320468E+00
        -11   -1    0    0    0    0  0.00000000000E+00  0.00000000000E+00  0.45593999997E+02  0.45594000000E+02  0.51100000000E-03 0.  1.
         11   -1    0    0    0    0 -0.00000000000E+00 -0.00000000000E+00 -0.45593999997E+02  0.45594000000E+02  0.51100000000E-03 0. -1.
    9900012    2    1    2    0    0 -0.36815368374E+02  0.12461034102E+02  0.22769822515E+02  0.46142317223E+02  0.99999950976E+01 0.  0.
         12    1    1    2    0    0  0.36815368374E+02 -0.12461034102E+02 -0.22769822515E+02  0.45045682777E+02  0.00000000000E+00 0. -1.
         11    1    3    3    0    0 -0.13950023221E+02  0.28151993318E+01  0.11943277511E+02  0.18578761345E+02  0.51100000000E-03 0. -1.
        -11    1    3    3    0    0 -0.95645569601E+01  0.43638450911E+01  0.73753463578E+01  0.12842103721E+02  0.51100000000E-03 0.  1.
         12    1    3    3    0    0 -0.13300788193E+02  0.52819896793E+01  0.34511986461E+01  0.14721452157E+02  0.00000000000E+00 0. -1.
</event>
<event>
 7    1  0.2297343E-008  0.4614232E+02  0.7816164E-02  0.1320468E+00
        -11   -1    0    0    0    0  0.00000000000E+00  0.00000000000E+00  0.45593999997E+02  0.45594000000E+02  0.51100000000E-03 0. -1.
         11   -1    0    0    0    0 -0.00000000000E+00 -0.00000000000E+00 -0.45593999997E+02  0.45594000000E+02  0.51100000000E-03 0.  1.
    9900012    2    1    2    0    0 -0.24080314553E+02 -0.35315424970E+02 -0.14215228711E+02  0.46142317442E+02  0.99999970917E+01 0.  0.
         12    1    1    2    0    0  0.24080314553E+02  0.35315424970E+02  0.14215228711E+02  0.45045682558E+02  0.00000000000E+00 0. -1.
         11    1    3    3    0    0 -0.29622788310E+01 -0.63831353322E+01 -0.18042827057E+01  0.72646368722E+01  0.51100000000E-03 0. -1.
        -11    1    3    3    0    0 -0.13539891245E+02 -0.23067478925E+02 -0.11917495914E+02  0.29282485345E+02  0.51100000000E-03 0.  1.
         12    1    3    3    0    0 -0.75781444764E+01 -0.58648107138E+01 -0.49345009141E+00  0.95951952250E+01  0.00000000000E+00 0. -1.
</event>
<event>
 7    1  0.2297343E-008  0.4614232E+02  0.7816164E-02  0.1320468E+00
        -11   -1    0    0    0    0  0.00000000000E+00  0.00000000000E+00  0.45593999997E+02  0.45594000000E+02  0.51100000000E-03 0. -1.
         11   -1    0    0    0    0 -0.00000000000E+00 -0.00000000000E+00 -0.45593999997E+02  0.45594000000E+02  0.51100000000E-03 0.  1.
    9900012    2    1    2    0    0 -0.23452605069E+02  0.37563943671E+02 -0.82485537958E+01  0.46142321091E+02  0.10000030368E+02 0.  0.
         12    1    1    2    0    0  0.23452605069E+02 -0.37563943671E+02  0.82485537958E+01  0.45045678909E+02  0.00000000000E+00 0. -1.
         11    1    3    3    0    0 -0.40289885983E+01  0.13496590372E+02 -0.16017797625E+01  0.14175909123E+02  0.51100000000E-03 0. -1.
        -11    1    3    3    0    0 -0.16644964178E+02  0.22413402772E+02 -0.67819064030E+01  0.28729944500E+02  0.51100000000E-03 0.  1.
         12    1    3    3    0    0 -0.27786522931E+01  0.16539505266E+01  0.13513236974E+00  0.32364674674E+01  0.00000000000E+00 0. -1.
</event>
<event>
 7    1  0.2297343E-008  0.4614232E+02  0.7816164E-02  0.1320468E+00
        -11   -1    0    0    0    0  0.00000000000E+00  0.00000000000E+00  0.45593999997E+02  0.45594000000E+02  0.51100000000E-03 0.  1.
         11   -1    0    0    0    0 -0.00000000000E+00 -0.00000000000E+00 -0.45593999997E+02  0.45594000000E+02  0.51100000000E-03 0. -1.
    9900012    2    1    2    0    0 -0.31088532340E+02  0.16687511623E+02  0.28002564030E+02  0.46142317860E+02  0.10000000902E+02 0.  0.
         12    1    1    2    0    0  0.31088532340E+02 -0.16687511623E+02 -0.28002564030E+02  0.45045682140E+02  0.00000000000E+00 0. -1.
         11    1    3    3    0    0 -0.91498813855E+00 -0.61519546456E+00  0.73634990699E+00  0.13258507457E+01  0.51100000000E-03 0. -1.
        -11    1    3    3    0    0 -0.19320549537E+02  0.14985909368E+02  0.19429175993E+02  0.31230657919E+02  0.51100000000E-03 0.  1.
        -12    1    3    3    0    0 -0.10852994664E+02  0.23167977190E+01  0.78370381301E+01  0.13585809195E+02  0.00000000000E+00 0.  1.
</event>
<event>
 7    1  0.2297343E-008  0.4614232E+02  0.7816164E-02  0.1320468E+00
        -11   -1    0    0    0    0  0.00000000000E+00  0.00000000000E+00  0.45593999997E+02  0.45594000000E+02  0.51100000000E-03 0. -1.
         11   -1    0    0    0    0 -0.00000000000E+00 -0.00000000000E+00 -0.45593999997E+02  0.45594000000E+02  0.51100000000E-03 0.  1.
    9900012    2    1    2    0    0  0.27465282946E+01  0.33824445952E+02 -0.29622235733E+02  0.46142318615E+02  0.10000007787E+02 0.  0.
         12    1    1    2    0    0 -0.27465282946E+01 -0.33824445952E+02  0.29622235733E+02  0.45045681385E+02  0.00000000000E+00 0. -1.
         11    1    3    3    0    0 -0.21148198431E+01  0.62185345593E+01 -0.65727647037E+01  0.92921402887E+01  0.51100000000E-03 0. -1.
        -11    1    3    3    0    0 -0.97319426179E+00  0.10218586908E+02 -0.65204015224E+01  0.12160685085E+02  0.51100000000E-03 0.  1.
        -12    1    3    3    0    0  0.58345423995E+01  0.17387324485E+02 -0.16529069507E+02  0.24689493241E+02  0.00000000000E+00 0.  1.
</event>
<event>
 7    1  0.2297343E-008  0.4614232E+02  0.7816164E-02  0.1320468E+00
        -11   -1    0    0    0    0  0.00000000000E+00  0.00000000000E+00  0.45593999997E+02  0.45594000000E+02  0.51100000000E-03 0.  1.
         11   -1    0    0    0    0 -0.00000000000E+00 -0.00000000000E+00 -0.45593999997E+02  0.45594000000E+02  0.51100000000E-03 0. -1.
    9900012    2    1    2    0    0 -0.36762801993E+02 -0.14547967258E+02  0.21586258220E+02  0.46142317569E+02  0.99999982521E+01 0.  0.
         12    1    1    2    0    0  0.36762801993E+02  0.14547967258E+02 -0.21586258220E+02  0.45045682431E+02  0.00000000000E+00 0. -1.
         11    1    3    3    0    0 -0.43087549509E+01 -0.34515641090E+01  0.83998675672E+00  0.55842852754E+01  0.51100000000E-03 0. -1.
        -11    1    3    3    0    0 -0.24337377946E+02 -0.90664880525E+01  0.12546056819E+02  0.28842897096E+02  0.51100000000E-03 0.  1.
         12    1    3    3    0    0 -0.81166690960E+01 -0.20299150966E+01  0.82002146438E+01  0.11715135198E+02  0.00000000000E+00 0. -1.
</event>
<event>
 7    1  0.2297343E-008  0.4614232E+02  0.7816164E-02  0.1320468E+00
        -11   -1    0    0    0    0  0.00000000000E+00  0.00000000000E+00  0.45593999997E+02  0.45594000000E+02  0.51100000000E-03 0. -1.
         11   -1    0    0    0    0 -0.00000000000E+00 -0.00000000000E+00 -0.45593999997E+02  0.45594000000E+02  0.51100000000E-03 0.  1.
    9900012    2    1    2    0    0  0.39062498409E+01  0.41497170704E+02 -0.17083311739E+02  0.46142317585E+02  0.99999983971E+01 0.  0.
         12    1    1    2    0    0 -0.39062498409E+01 -0.41497170704E+02  0.17083311739E+02  0.45045682415E+02  0.00000000000E+00 0. -1.
         11    1    3    3    0    0  0.24371159322E+01  0.18586527641E+02 -0.42778309163E+01  0.19227542261E+02  0.51100000000E-03 0. -1.
        -11    1    3    3    0    0 -0.45764027085E+00  0.17452462409E+02 -0.72895833916E+01  0.18919194090E+02  0.51100000000E-03 0.  1.
         12    1    3    3    0    0  0.19267741795E+01  0.54581806546E+01 -0.55158974309E+01  0.79955812338E+01  0.00000000000E+00 0. -1.
</event>
<event>
 7    1  0.2297343E-008  0.4614232E+02  0.7816164E-02  0.1320468E+00
        -11   -1    0    0    0    0  0.00000000000E+00  0.00000000000E+00  0.45593999997E+02  0.45594000000E+02  0.51100000000E-03 0.  1.
         11   -1    0    0    0    0 -0.00000000000E+00 -0.00000000000E+00 -0.45593999997E+02  0.45594000000E+02  0.51100000000E-03 0. -1.
    9900012    2    1    2    0    0  0.42853728244E+02  0.13816378020E+02 -0.13338621574E+01  0.46142317474E+02  0.99999973833E+01 0.  0.
         12    1    1    2    0    0 -0.42853728244E+02 -0.13816378020E+02  0.13338621574E+01  0.45045682526E+02  0.00000000000E+00 0. -1.
         11    1    3    3    0    0  0.33830149388E+02  0.81407393498E+01 -0.47822143212E+00  0.34799128448E+02  0.51100000000E-03 0.  1.
        -11    1    3    3    0    0  0.58605555749E+01  0.41918821610E+01 -0.22986304768E+01  0.75631798887E+01  0.51100000000E-03 0. -1.
        -12    1    3    3    0    0  0.31630232807E+01  0.14837565093E+01  0.14429897516E+01  0.37800091370E+01  0.00000000000E+00 0.  1.
</event>
<event>
 7    1  0.2297343E-008  0.4614232E+02  0.7816164E-02  0.1320468E+00
        -11   -1    0    0    0    0  0.00000000000E+00  0.00000000000E+00  0.45593999997E+02  0.45594000000E+02  0.51100000000E-03 0.  1.
         11   -1    0    0    0    0 -0.00000000000E+00 -0.00000000000E+00 -0.45593999997E+02  0.45594000000E+02  0.51100000000E-03 0. -1.
    9900012    2    1    2    0    0  0.77590850700E+01 -0.15358502241E+02  0.41629634810E+02  0.46142317780E+02  0.10000000175E+02 0.  0.
         12    1    1    2    0    0 -0.77590850700E+01  0.15358502241E+02 -0.41629634810E+02  0.45045682220E+02  0.00000000000E+00 0. -1.
         11    1    3    3    0    0  0.50543330395E+00 -0.80374006916E+01  0.20357195164E+02  0.21892251322E+02  0.51100000000E-03 0. -1.
        -11    1    3    3    0    0  0.18968717774E+00  0.22529257105E+00  0.47599378318E+01  0.47690404058E+01  0.51100000000E-03 0.  1.
        -12    1    3    3    0    0  0.70639645883E+01 -0.75463941199E+01  0.16512501814E+02  0.19481026053E+02  0.00000000000E+00 0.  1.
</event>
<event>
 7    1  0.2297343E-008  0.4614232E+02  0.7816164E-02  0.1320468E+00
        -11   -1    0    0    0    0  0.00000000000E+00  0.00000000000E+00  0.45593999997E+02  0.45594000000E+02  0.51100000000E-03 0. -1.
         11   -1    0    0    0    0 -0.00000000000E+00 -0.00000000000E+00 -0.45593999997E+02  0.45594000000E+02  0.51100000000E-03 0.  1.
    9900012    2    1    2    0    0 -0.30632944333E+02 -0.12189067239E+02 -0.30694673502E+02  0.46142316300E+02  0.99999866738E+01 0.  0.
         12    1    1    2    0    0  0.30632944333E+02  0.12189067239E+02  0.30694673502E+02  0.45045683700E+02  0.00000000000E+00 0. -1.
         11    1    3    3    0    0 -0.47919801099E+01 -0.18290815798E+01 -0.31861713400E+01  0.60382365694E+01  0.51100000000E-03 0. -1.
        -11    1    3    3    0    0 -0.14363351969E+02 -0.59158763614E+01 -0.21175904708E+02  0.26262566771E+02  0.51100000000E-03 0.  1.
        -12    1    3    3    0    0 -0.11477612254E+02 -0.44441092977E+01 -0.63325974533E+01  0.13841512960E+02  0.00000000000E+00 0.  1.
</event>
<event>
 7    1  0.2297343E-008  0.4614232E+02  0.7816164E-02  0.1320468E+00
        -11   -1    0    0    0    0  0.00000000000E+00  0.00000000000E+00  0.45593999997E+02  0.45594000000E+02  0.51100000000E-03 0. -1.
         11   -1    0    0    0    0 -0.00000000000E+00 -0.00000000000E+00 -0.45593999997E+02  0.45594000000E+02  0.51100000000E-03 0.  1.
    9900012    2    1    2    0    0  0.10470887509E+02  0.23508095336E+02 -0.36970847407E+02  0.46142316638E+02  0.99999897599E+01 0.  0.
         12    1    1    2    0    0 -0.10470887509E+02 -0.23508095336E+02  0.36970847407E+02  0.45045683362E+02  0.00000000000E+00 0. -1.
         11    1    3    3    0    0 -0.20136272695E+00  0.68700512255E+01 -0.11126030474E+02  0.13077717888E+02  0.51100000000E-03 0. -1.
        -11    1    3    3    0    0  0.55804931024E+01  0.49177692101E+01 -0.12796643053E+02  0.14801365848E+02  0.51100000000E-03 0.  1.
        -12    1    3    3    0    0  0.50917571341E+01  0.11720274900E+02 -0.13048173879E+02  0.18263232902E+02  0.00000000000E+00 0.  1.
</event>
<event>
 7    1  0.2297343E-008  0.4614232E+02  0.7816164E-02  0.1320468E+00
        -11   -1    0    0    0    0  0.00000000000E+00  0.00000000000E+00  0.45593999997E+02  0.45594000000E+02  0.51100000000E-03 0.  1.
         11   -1    0    0    0    0 -0.00000000000E+00 -0.00000000000E+00 -0.45593999997E+02  0.45594000000E+02  0.51100000000E-03 0. -1.
    9900012    2    1    2    0    0  0.25918741996E+02 -0.25120507531E+02 -0.26949811130E+02  0.46142318684E+02  0.10000008418E+02 0.  0.
         12    1    1    2    0    0 -0.25918741996E+02  0.25120507531E+02  0.26949811130E+02  0.45045681316E+02  0.00000000000E+00 0. -1.
         11    1    3    3    0    0  0.94817357467E+01 -0.10143929647E+02 -0.12627041047E+02  0.18768185509E+02  0.51100000000E-03 0. -1.
        -11    1    3    3    0    0  0.16201503494E+02 -0.14217079310E+02 -0.15055976760E+02  0.26292517872E+02  0.51100000000E-03 0.  1.
         12    1    3    3    0    0  0.23550275551E+00 -0.75949857381E+00  0.73320667760E+00  0.10816153029E+01  0.00000000000E+00 0. -1.
</event>
<event>
 7    1  0.2297343E-008  0.4614231E+02  0.7816164E-02  0.1320468E+00
        -11   -1    0    0    0    0  0.00000000000E+00  0.00000000000E+00  0.45593999997E+02  0.45594000000E+02  0.51100000000E-03 0. -1.
         11   -1    0    0    0    0 -0.00000000000E+00 -0.00000000000E+00 -0.45593999997E+02  0.45594000000E+02  0.51100000000E-03 0.  1.
    9900012    2    1    2    0    0 -0.11091243070E+02 -0.42482321189E+02 -0.10067299934E+02  0.46142314142E+02  0.99999669951E+01 0.  0.
         12    1    1    2    0    0  0.11091243070E+02  0.42482321189E+02  0.10067299934E+02  0.45045685858E+02  0.00000000000E+00 0. -1.
         11    1    3    3    0    0 -0.28657387423E+01 -0.21740552536E+02 -0.26676014575E+01  0.22090273446E+02  0.51100000000E-03 0. -1.
        -11    1    3    3    0    0 -0.88089672747E+01 -0.18958212335E+02 -0.61255933882E+01  0.21783815414E+02  0.51100000000E-03 0.  1.
        -12    1    3    3    0    0  0.58346294710E+00 -0.17835563188E+01 -0.12741050885E+01  0.22682252819E+01  0.00000000000E+00 0.  1.
</event>
<event>
 7    1  0.2297343E-008  0.4614232E+02  0.7816164E-02  0.1320468E+00
        -11   -1    0    0    0    0  0.00000000000E+00  0.00000000000E+00  0.45593999997E+02  0.45594000000E+02  0.51100000000E-03 0.  1.
         11   -1    0    0    0    0 -0.00000000000E+00 -0.00000000000E+00 -0.45593999997E+02  0.45594000000E+02  0.51100000000E-03 0. -1.
    9900012    2    1    2    0    0 -0.43617154902E+01  0.38008243181E+02  0.23779452251E+02  0.46142318064E+02  0.10000002761E+02 0.  0.
         12    1    1    2    0    0  0.43617154902E+01 -0.38008243181E+02 -0.23779452251E+02  0.45045681936E+02  0.00000000000E+00 0. -1.
         11    1    3    3    0    0  0.48189667387E+00  0.90890485669E+00 -0.34239133702E+00  0.10842345372E+01  0.51100000000E-03 0. -1.
        -11    1    3    3    0    0 -0.49175476161E+01  0.34583429524E+02  0.20065388301E+02  0.40284186477E+02  0.51100000000E-03 0.  1.
         12    1    3    3    0    0  0.73935452020E-01  0.25159088003E+01  0.40564552871E+01  0.47738970494E+01  0.00000000000E+00 0. -1.
</event>
<event>
 7    1  0.2297343E-008  0.4614232E+02  0.7816164E-02  0.1320468E+00
        -11   -1    0    0    0    0  0.00000000000E+00  0.00000000000E+00  0.45593999997E+02  0.45594000000E+02  0.51100000000E-03 0. -1.
         11   -1    0    0    0    0 -0.00000000000E+00 -0.00000000000E+00 -0.45593999997E+02  0.45594000000E+02  0.51100000000E-03 0.  1.
    9900012    2    1    2    0    0 -0.29105251737E+02  0.10972806000E+02 -0.32582130146E+02  0.46142319241E+02  0.10000013495E+02 0.  0.
         12    1    1    2    0    0  0.29105251737E+02 -0.10972806000E+02  0.32582130146E+02  0.45045680759E+02  0.00000000000E+00 0. -1.
         11    1    3    3    0    0 -0.18250017210E+02  0.59706636535E+01 -0.21231647149E+02  0.28626819480E+02  0.51100000000E-03 0. -1.
        -11    1    3    3    0    0 -0.42238107620E+01 -0.10528173915E+01 -0.34379354421E+01  0.55469272736E+01  0.51100000000E-03 0.  1.
         12    1    3    3    0    0 -0.66314237646E+01  0.60549597376E+01 -0.79125475551E+01  0.11968572487E+02  0.00000000000E+00 0. -1.
</event>
<event>
 7    1  0.2297343E-008  0.4614232E+02  0.7816164E-02  0.1320468E+00
        -11   -1    0    0    0    0  0.00000000000E+00  0.00000000000E+00  0.45593999997E+02  0.45594000000E+02  0.51100000000E-03 0.  1.
         11   -1    0    0    0    0 -0.00000000000E+00 -0.00000000000E+00 -0.45593999997E+02  0.45594000000E+02  0.51100000000E-03 0. -1.
    9900012    2    1    2    0    0  0.36544244138E+02  0.84173618911E+01  0.24955556069E+02  0.46142317193E+02  0.99999948186E+01 0.  0.
         12    1    1    2    0    0 -0.36544244138E+02 -0.84173618911E+01 -0.24955556069E+02  0.45045682807E+02  0.00000000000E+00 0. -1.
         11    1    3    3    0    0  0.44920985038E+01  0.42076167503E+01  0.36158477860E+01  0.71384412274E+01  0.51100000000E-03 0. -1.
        -11    1    3    3    0    0  0.62403301241E+01 -0.69685235800E+00  0.53312810519E+01  0.82371039318E+01  0.51100000000E-03 0.  1.
        -12    1    3    3    0    0  0.25811815511E+02  0.49065974988E+01  0.16008427231E+02  0.30766772034E+02  0.00000000000E+00 0.  1.
</event>
<event>
 7    1  0.2297343E-008  0.4614232E+02  0.7816164E-02  0.1320468E+00
        -11   -1    0    0    0    0  0.00000000000E+00  0.00000000000E+00  0.45593999997E+02  0.45594000000E+02  0.51100000000E-03 0.  1.
         11   -1    0    0    0    0 -0.00000000000E+00 -0.00000000000E+00 -0.45593999997E+02  0.45594000000E+02  0.51100000000E-03 0. -1.
    9900012    2    1    2    0    0 -0.32383661009E+02 -0.11418646930E+02  0.29155206713E+02  0.46142322333E+02  0.10000041689E+02 0.  0.
         12    1    1    2    0    0  0.32383661009E+02  0.11418646930E+02 -0.29155206713E+02  0.45045677667E+02  0.00000000000E+00 0. -1.
         11    1    3    3    0    0 -0.94657608587E+01 -0.34281876931E+01  0.53074951204E+01  0.11380799805E+02  0.51100000000E-03 0. -1.
        -11    1    3    3    0    0 -0.79849193325E+00  0.80625227088E+00  0.26662561305E+01  0.28976808152E+01  0.51100000000E-03 0.  1.
        -12    1    3    3    0    0 -0.22119408217E+02 -0.87967115075E+01  0.21181455462E+02  0.31863841713E+02  0.00000000000E+00 0.  1.
</event>
<event>
 7    1  0.2297343E-008  0.4614232E+02  0.7816164E-02  0.1320468E+00
        -11   -1    0    0    0    0  0.00000000000E+00  0.00000000000E+00  0.45593999997E+02  0.45594000000E+02  0.51100000000E-03 0.  1.
         11   -1    0    0    0    0 -0.00000000000E+00 -0.00000000000E+00 -0.45593999997E+02  0.45594000000E+02  0.51100000000E-03 0. -1.
    9900012    2    1    2    0    0 -0.19262466309E+02  0.35125406778E+02  0.20597976078E+02  0.46142318430E+02  0.10000006098E+02 0.  0.
         12    1    1    2    0    0  0.19262466309E+02 -0.35125406778E+02 -0.20597976078E+02  0.45045681570E+02  0.00000000000E+00 0. -1.
         11    1    3    3    0    0 -0.59569579723E+01  0.10686076868E+02  0.75037904670E+01  0.14352158679E+02  0.51100000000E-03 0.  1.
        -11    1    3    3    0    0 -0.13361174927E+02  0.21909789311E+02  0.13834455074E+02  0.29153936450E+02  0.51100000000E-03 0. -1.
         12    1    3    3    0    0  0.55666590929E-01  0.25295405991E+01 -0.74026946333E+00  0.26362233005E+01  0.00000000000E+00 0. -1.
</event>
<event>
 7    1  0.2297343E-008  0.4614232E+02  0.7816164E-02  0.1320468E+00
        -11   -1    0    0    0    0  0.00000000000E+00  0.00000000000E+00  0.45593999997E+02  0.45594000000E+02  0.51100000000E-03 0.  1.
         11   -1    0    0    0    0 -0.00000000000E+00 -0.00000000000E+00 -0.45593999997E+02  0.45594000000E+02  0.51100000000E-03 0. -1.
    9900012    2    1    2    0    0 -0.16306494010E+02 -0.22525261599E+02  0.35437611947E+02  0.46142317660E+02  0.99999990762E+01 0.  0.
         12    1    1    2    0    0  0.16306494010E+02  0.22525261599E+02 -0.35437611947E+02  0.45045682340E+02  0.00000000000E+00 0. -1.
         11    1    3    3    0    0 -0.78138858047E+00 -0.16204009464E+01  0.44253266229E+01  0.47770056857E+01  0.51100000000E-03 0. -1.
        -11    1    3    3    0    0 -0.38158048267E+01 -0.72969487532E+01  0.46076777073E+01  0.94359165796E+01  0.51100000000E-03 0.  1.
        -12    1    3    3    0    0 -0.11709300603E+02 -0.13607911899E+02  0.26404607616E+02  0.31929395394E+02  0.00000000000E+00 0.  1.
</event>
<event>
 7    1  0.2297343E-008  0.4614232E+02  0.7816164E-02  0.1320468E+00
        -11   -1    0    0    0    0  0.00000000000E+00  0.00000000000E+00  0.45593999997E+02  0.45594000000E+02  0.51100000000E-03 0. -1.
         11   -1    0    0    0    0 -0.00000000000E+00 -0.00000000000E+00 -0.45593999997E+02  0.45594000000E+02  0.51100000000E-03 0.  1.
    9900012    2    1    2    0    0  0.63472164664E+01 -0.29098697874E+02 -0.33794853029E+02  0.46142318009E+02  0.10000002258E+02 0.  0.
         12    1    1    2    0    0 -0.63472164664E+01  0.29098697874E+02  0.33794853029E+02  0.45045681991E+02  0.00000000000E+00 0. -1.
         11    1    3    3    0    0  0.20868493969E+01 -0.32377520766E+01 -0.67228680805E+01  0.77482213703E+01  0.51100000000E-03 0. -1.
        -11    1    3    3    0    0 -0.14436198406E+01 -0.58155364312E+01 -0.89803484459E+01  0.10795886286E+02  0.51100000000E-03 0.  1.
        -12    1    3    3    0    0  0.57039869102E+01 -0.20045409366E+02 -0.18091636502E+02  0.27598210352E+02  0.00000000000E+00 0.  1.
</event>
<event>
 7    1  0.2297343E-008  0.4614232E+02  0.7816164E-02  0.1320468E+00
        -11   -1    0    0    0    0  0.00000000000E+00  0.00000000000E+00  0.45593999997E+02  0.45594000000E+02  0.51100000000E-03 0.  1.
         11   -1    0    0    0    0 -0.00000000000E+00 -0.00000000000E+00 -0.45593999997E+02  0.45594000000E+02  0.51100000000E-03 0. -1.
    9900012    2    1    2    0    0 -0.38989099526E+02 -0.13772590355E+02 -0.17868388124E+02  0.46142318508E+02  0.10000006810E+02 0.  0.
         12    1    1    2    0    0  0.38989099526E+02  0.13772590355E+02  0.17868388124E+02  0.45045681492E+02  0.00000000000E+00 0. -1.
         11    1    3    3    0    0 -0.22072446805E+02 -0.65199860824E+01 -0.10224447393E+02  0.25184170648E+02  0.51100000000E-03 0. -1.
        -11    1    3    3    0    0 -0.17210838879E+02 -0.69773870121E+01 -0.81754241417E+01  0.20291241081E+02  0.51100000000E-03 0.  1.
         12    1    3    3    0    0  0.29418615770E+00 -0.27521726064E+00  0.53148341123E+00  0.66690677936E+00  0.00000000000E+00 0. -1.
</event>
<event>
 7    1  0.2297343E-008  0.4614232E+02  0.7816164E-02  0.1320468E+00
        -11   -1    0    0    0    0  0.00000000000E+00  0.00000000000E+00  0.45593999997E+02  0.45594000000E+02  0.51100000000E-03 0.  1.
         11   -1    0    0    0    0 -0.00000000000E+00 -0.00000000000E+00 -0.45593999997E+02  0.45594000000E+02  0.51100000000E-03 0. -1.
    9900012    2    1    2    0    0  0.17076767417E+02  0.25380762706E+00  0.41682527103E+02  0.46142317972E+02  0.10000001920E+02 0.  0.
         12    1    1    2    0    0 -0.17076767417E+02 -0.25380762706E+00 -0.41682527103E+02  0.45045682028E+02  0.00000000000E+00 0. -1.
         11    1    3    3    0    0  0.93710526418E+01  0.95828200428E+00  0.19423876854E+02  0.21587540951E+02  0.51100000000E-03 0.  1.
        -11    1    3    3    0    0  0.36300427220E+01 -0.11909051495E+01  0.18809026272E+02  0.19193096019E+02  0.51100000000E-03 0. -1.
         12    1    3    3    0    0  0.40756720529E+01  0.48643077224E+00  0.34496239766E+01  0.53616810012E+01  0.00000000000E+00 0. -1.
</event>
<event>
 7    1  0.2297343E-008  0.4614232E+02  0.7816164E-02  0.1320468E+00
        -11   -1    0    0    0    0  0.00000000000E+00  0.00000000000E+00  0.45593999997E+02  0.45594000000E+02  0.51100000000E-03 0. -1.
         11   -1    0    0    0    0 -0.00000000000E+00 -0.00000000000E+00 -0.45593999997E+02  0.45594000000E+02  0.51100000000E-03 0.  1.
    9900012    2    1    2    0    0 -0.44024463694E+02 -0.49610149913E+01 -0.81454544629E+01  0.46142317613E+02  0.99999986524E+01 0.  0.
         12    1    1    2    0    0  0.44024463694E+02  0.49610149913E+01  0.81454544629E+01  0.45045682387E+02  0.00000000000E+00 0. -1.
         11    1    3    3    0    0 -0.90793609937E+01  0.24616233890E+01 -0.36881459851E+01  0.10104296454E+02  0.51100000000E-03 0. -1.
        -11    1    3    3    0    0 -0.13700162627E+02 -0.31210040005E+01 -0.25224379332E+01  0.14275777225E+02  0.51100000000E-03 0.  1.
         12    1    3    3    0    0 -0.21244940073E+02 -0.43016343798E+01 -0.19348705446E+01  0.21762243934E+02  0.00000000000E+00 0. -1.
</event>
<event>
 7    1  0.2297343E-008  0.4614232E+02  0.7816164E-02  0.1320468E+00
        -11   -1    0    0    0    0  0.00000000000E+00  0.00000000000E+00  0.45593999997E+02  0.45594000000E+02  0.51100000000E-03 0. -1.
         11   -1    0    0    0    0 -0.00000000000E+00 -0.00000000000E+00 -0.45593999997E+02  0.45594000000E+02  0.51100000000E-03 0.  1.
    9900012    2    1    2    0    0 -0.21719326564E+00  0.19204284622E+02 -0.40746309828E+02  0.46142317795E+02  0.10000000307E+02 0.  0.
         12    1    1    2    0    0  0.21719326564E+00 -0.19204284622E+02  0.40746309828E+02  0.45045682205E+02  0.00000000000E+00 0. -1.
         11    1    3    3    0    0  0.31531457789E+01  0.99176758372E+01 -0.23704324418E+02  0.25888175267E+02  0.51100000000E-03 0.  1.
        -11    1    3    3    0    0 -0.37693640264E+01  0.37227317310E+01 -0.94422225806E+01  0.10826929585E+02  0.51100000000E-03 0. -1.
         12    1    3    3    0    0  0.39902498185E+00  0.55638770537E+01 -0.75997628294E+01  0.94272129428E+01  0.00000000000E+00 0. -1.
</event>
<event>
 7    1  0.2297343E-008  0.4614232E+02  0.7816164E-02  0.1320468E+00
        -11   -1    0    0    0    0  0.00000000000E+00  0.00000000000E+00  0.45593999997E+02  0.45594000000E+02  0.51100000000E-03 0.  1.
         11   -1    0    0    0    0 -0.00000000000E+00 -0.00000000000E+00 -0.45593999997E+02  0.45594000000E+02  0.51100000000E-03 0. -1.
    9900012    2    1    2    0    0 -0.35972839358E+02 -0.23617236591E+02 -0.13315201681E+02  0.46142316173E+02  0.99999855170E+01 0.  0.
         12    1    1    2    0    0  0.35972839358E+02  0.23617236591E+02  0.13315201681E+02  0.45045683827E+02  0.00000000000E+00 0. -1.
         11    1    3    3    0    0 -0.16663317832E+00  0.41024726189E+00 -0.60304688299E+00  0.74815455369E+00  0.51100000000E-03 0. -1.
        -11    1    3    3    0    0 -0.23088753182E+02 -0.11842667234E+02 -0.81844923345E+01  0.27208917762E+02  0.51100000000E-03 0.  1.
        -12    1    3    3    0    0 -0.12717452997E+02 -0.12184816619E+02 -0.45276624638E+01  0.18185243857E+02  0.00000000000E+00 0.  1.
</event>
<event>
 7    1  0.2297343E-008  0.4614232E+02  0.7816164E-02  0.1320468E+00
        -11   -1    0    0    0    0  0.00000000000E+00  0.00000000000E+00  0.45593999997E+02  0.45594000000E+02  0.51100000000E-03 0.  1.
         11   -1    0    0    0    0 -0.00000000000E+00 -0.00000000000E+00 -0.45593999997E+02  0.45594000000E+02  0.51100000000E-03 0. -1.
    9900012    2    1    2    0    0 -0.37350875875E+02 -0.19644566862E+02  0.15751718683E+02  0.46142316774E+02  0.99999910025E+01 0.  0.
         12    1    1    2    0    0  0.37350875875E+02  0.19644566862E+02 -0.15751718683E+02  0.45045683226E+02  0.00000000000E+00 0. -1.
         11    1    3    3    0    0 -0.12081073714E+02 -0.10350362758E+02  0.45045338508E+01  0.16534000629E+02  0.51100000000E-03 0. -1.
        -11    1    3    3    0    0 -0.58840685369E+01 -0.17641678496E+01  0.40814723921E+00  0.61563897845E+01  0.51100000000E-03 0.  1.
        -12    1    3    3    0    0 -0.19385733624E+02 -0.75300362538E+01  0.10839037593E+02  0.23451926361E+02  0.00000000000E+00 0.  1.
</event>
<event>
 7    1  0.2297343E-008  0.4614232E+02  0.7816164E-02  0.1320468E+00
        -11   -1    0    0    0    0  0.00000000000E+00  0.00000000000E+00  0.45593999997E+02  0.45594000000E+02  0.51100000000E-03 0. -1.
         11   -1    0    0    0    0 -0.00000000000E+00 -0.00000000000E+00 -0.45593999997E+02  0.45594000000E+02  0.51100000000E-03 0.  1.
    9900012    2    1    2    0    0  0.32500334275E+02 -0.79357254918E+01 -0.30163983567E+02  0.46142319056E+02  0.10000011809E+02 0.  0.
         12    1    1    2    0    0 -0.32500334275E+02  0.79357254918E+01  0.30163983567E+02  0.45045680944E+02  0.00000000000E+00 0. -1.
         11    1    3    3    0    0  0.11920960689E+02 -0.39533614840E+01 -0.13501576345E+02  0.18439927733E+02  0.51100000000E-03 0. -1.
        -11    1    3    3    0    0  0.20041650753E+02 -0.50928505082E+01 -0.16506357544E+02  0.26458736381E+02  0.51100000000E-03 0.  1.
         12    1    3    3    0    0  0.53772283330E+00  0.11104865004E+01 -0.15604967796E+00  0.12436549421E+01  0.00000000000E+00 0. -1.
</event>
<event>
 7    1  0.2297343E-008  0.4614232E+02  0.7816164E-02  0.1320468E+00
        -11   -1    0    0    0    0  0.00000000000E+00  0.00000000000E+00  0.45593999997E+02  0.45594000000E+02  0.51100000000E-03 0.  1.
         11   -1    0    0    0    0 -0.00000000000E+00 -0.00000000000E+00 -0.45593999997E+02  0.45594000000E+02  0.51100000000E-03 0. -1.
    9900012    2    1    2    0    0 -0.33650114781E+02  0.21774154814E+02  0.20558925922E+02  0.46142317880E+02  0.10000001081E+02 0.  0.
         12    1    1    2    0    0  0.33650114781E+02 -0.21774154814E+02 -0.20558925922E+02  0.45045682120E+02  0.00000000000E+00 0. -1.
         11    1    3    3    0    0 -0.18284613128E+02  0.13433129714E+02  0.12381774279E+02  0.25847328406E+02  0.51100000000E-03 0. -1.
        -11    1    3    3    0    0 -0.45795105379E+01  0.55374462335E+01  0.48322548312E+01  0.86594407770E+01  0.51100000000E-03 0.  1.
        -12    1    3    3    0    0 -0.10785991116E+02  0.28035788662E+01  0.33448968110E+01  0.11635548697E+02  0.00000000000E+00 0.  1.
</event>
<event>
 7    1  0.2297343E-008  0.4614232E+02  0.7816164E-02  0.1320468E+00
        -11   -1    0    0    0    0  0.00000000000E+00  0.00000000000E+00  0.45593999997E+02  0.45594000000E+02  0.51100000000E-03 0.  1.
         11   -1    0    0    0    0 -0.00000000000E+00 -0.00000000000E+00 -0.45593999997E+02  0.45594000000E+02  0.51100000000E-03 0. -1.
    9900012    2    1    2    0    0 -0.10500703446E+02 -0.37896029426E+02  0.21971341718E+02  0.46142315678E+02  0.99999810072E+01 0.  0.
         12    1    1    2    0    0  0.10500703446E+02  0.37896029426E+02 -0.21971341718E+02  0.45045684322E+02  0.00000000000E+00 0. -1.
         11    1    3    3    0    0 -0.17577385893E+01 -0.27911358369E+01 -0.20218055641E+00  0.33046877987E+01  0.51100000000E-03 0. -1.
        -11    1    3    3    0    0 -0.36551684483E+01 -0.79819174132E+01  0.31811880485E+01  0.93376238754E+01  0.51100000000E-03 0.  1.
        -12    1    3    3    0    0 -0.50877964081E+01 -0.27122976176E+02  0.18992334226E+02  0.33500004004E+02  0.00000000000E+00 0.  1.
</event>
<event>
 7    1  0.2297343E-008  0.4614232E+02  0.7816164E-02  0.1320468E+00
        -11   -1    0    0    0    0  0.00000000000E+00  0.00000000000E+00  0.45593999997E+02  0.45594000000E+02  0.51100000000E-03 0.  1.
         11   -1    0    0    0    0 -0.00000000000E+00 -0.00000000000E+00 -0.45593999997E+02  0.45594000000E+02  0.51100000000E-03 0. -1.
    9900012    2    1    2    0    0  0.21797896899E+02  0.37823169228E+02  0.11107340811E+02  0.46142318081E+02  0.10000002918E+02 0.  0.
         12    1    1    2    0    0 -0.21797896899E+02 -0.37823169228E+02 -0.11107340811E+02  0.45045681919E+02  0.00000000000E+00 0. -1.
         11    1    3    3    0    0  0.20404611970E+01  0.72896200428E+00  0.20853457846E+01  0.30072470472E+01  0.51100000000E-03 0. -1.
        -11    1    3    3    0    0  0.86936975267E+01  0.14535502933E+02  0.52213205492E+01  0.17723527040E+02  0.51100000000E-03 0.  1.
        -12    1    3    3    0    0  0.11063738176E+02  0.22558704291E+02  0.38006744768E+01  0.25411543994E+02  0.00000000000E+00 0.  1.
</event>
<event>
 7    1  0.2297343E-008  0.4614232E+02  0.7816164E-02  0.1320468E+00
        -11   -1    0    0    0    0  0.00000000000E+00  0.00000000000E+00  0.45593999997E+02  0.45594000000E+02  0.51100000000E-03 0. -1.
         11   -1    0    0    0    0 -0.00000000000E+00 -0.00000000000E+00 -0.45593999997E+02  0.45594000000E+02  0.51100000000E-03 0.  1.
    9900012    2    1    2    0    0 -0.40698507301E+02 -0.16089298213E+02  0.10671431956E+02  0.46142317926E+02  0.10000001505E+02 0.  0.
         12    1    1    2    0    0  0.40698507301E+02  0.16089298213E+02 -0.10671431956E+02  0.45045682074E+02  0.00000000000E+00 0. -1.
         11    1    3    3    0    0 -0.28490225973E+02 -0.11376502953E+02  0.84011608267E+01  0.31807189422E+02  0.51100000000E-03 0. -1.
        -11    1    3    3    0    0 -0.13587696462E+01 -0.28344450766E+01  0.49872891628E+00  0.31826191472E+01  0.51100000000E-03 0.  1.
         12    1    3    3    0    0 -0.10849511681E+02 -0.18783501833E+01  0.17715422132E+01  0.11152509357E+02  0.00000000000E+00 0. -1.
</event>
<event>
 7    1  0.2297343E-008  0.4614232E+02  0.7816164E-02  0.1320468E+00
        -11   -1    0    0    0    0  0.00000000000E+00  0.00000000000E+00  0.45593999997E+02  0.45594000000E+02  0.51100000000E-03 0. -1.
         11   -1    0    0    0    0 -0.00000000000E+00 -0.00000000000E+00 -0.45593999997E+02  0.45594000000E+02  0.51100000000E-03 0.  1.
    9900012    2    1    2    0    0  0.11570492071E+02  0.98660004233E+01 -0.42401641923E+02  0.46142317755E+02  0.99999999461E+01 0.  0.
         12    1    1    2    0    0 -0.11570492071E+02 -0.98660004233E+01  0.42401641923E+02  0.45045682245E+02  0.00000000000E+00 0. -1.
         11    1    3    3    0    0  0.57634230744E+01  0.24762179504E+01 -0.10602030083E+02  0.12318755741E+02  0.51100000000E-03 0. -1.
        -11    1    3    3    0    0 -0.62833273574E+00  0.42480104562E+01 -0.13758685621E+02  0.14413251720E+02  0.51100000000E-03 0.  1.
        -12    1    3    3    0    0  0.64354017323E+01  0.31417720166E+01 -0.18040926219E+02  0.19410310294E+02  0.00000000000E+00 0.  1.
</event>
<event>
 7    1  0.2297343E-008  0.4614232E+02  0.7816164E-02  0.1320468E+00
        -11   -1    0    0    0    0  0.00000000000E+00  0.00000000000E+00  0.45593999997E+02  0.45594000000E+02  0.51100000000E-03 0.  1.
         11   -1    0    0    0    0 -0.00000000000E+00 -0.00000000000E+00 -0.45593999997E+02  0.45594000000E+02  0.51100000000E-03 0. -1.
    9900012    2    1    2    0    0 -0.36452588816E+01  0.44433375597E+02 -0.64421043592E+01  0.46142317767E+02  0.10000000056E+02 0.  0.
         12    1    1    2    0    0  0.36452588816E+01 -0.44433375597E+02  0.64421043592E+01  0.45045682233E+02  0.00000000000E+00 0. -1.
         11    1    3    3    0    0 -0.27514163658E+01  0.21671266256E+02 -0.77909260870E+01  0.23192942950E+02  0.51100000000E-03 0. -1.
        -11    1    3    3    0    0 -0.20877991142E+00  0.92527550942E+01 -0.64011184700E+00  0.92772199134E+01  0.51100000000E-03 0.  1.
         12    1    3    3    0    0 -0.68506260441E+00  0.13509354247E+02  0.19889335747E+01  0.13672154904E+02  0.00000000000E+00 0. -1.
</event>
<event>
 7    1  0.2297343E-008  0.4614232E+02  0.7816164E-02  0.1320468E+00
        -11   -1    0    0    0    0  0.00000000000E+00  0.00000000000E+00  0.45593999997E+02  0.45594000000E+02  0.51100000000E-03 0.  1.
         11   -1    0    0    0    0 -0.00000000000E+00 -0.00000000000E+00 -0.45593999997E+02  0.45594000000E+02  0.51100000000E-03 0. -1.
    9900012    2    1    2    0    0 -0.54152413502E+01 -0.25519667467E+02  0.36722405810E+02  0.46142319242E+02  0.10000013501E+02 0.  0.
         12    1    1    2    0    0  0.54152413502E+01  0.25519667467E+02 -0.36722405810E+02  0.45045680758E+02  0.00000000000E+00 0. -1.
         11    1    3    3    0    0 -0.85817579425E+00 -0.11429997389E+01  0.53740170178E+01  0.55608428557E+01  0.51100000000E-03 0. -1.
        -11    1    3    3    0    0 -0.16034476661E+01 -0.20484543769E+02  0.27674765602E+02  0.34468539702E+02  0.51100000000E-03 0.  1.
        -12    1    3    3    0    0 -0.29536178899E+01 -0.38921239596E+01  0.36736231901E+01  0.61129366838E+01  0.00000000000E+00 0.  1.
</event>
<event>
 7    1  0.2297343E-008  0.4614232E+02  0.7816164E-02  0.1320468E+00
        -11   -1    0    0    0    0  0.00000000000E+00  0.00000000000E+00  0.45593999997E+02  0.45594000000E+02  0.51100000000E-03 0.  1.
         11   -1    0    0    0    0 -0.00000000000E+00 -0.00000000000E+00 -0.45593999997E+02  0.45594000000E+02  0.51100000000E-03 0. -1.
    9900012    2    1    2    0    0 -0.10637041068E+02 -0.44157657934E+01  0.43548452719E+02  0.46142319137E+02  0.10000012546E+02 0.  0.
         12    1    1    2    0    0  0.10637041068E+02  0.44157657934E+01 -0.43548452719E+02  0.45045680863E+02  0.00000000000E+00 0. -1.
         11    1    3    3    0    0 -0.67979729886E+01  0.19687375411E+01  0.18909524746E+02  0.20190554491E+02  0.51100000000E-03 0. -1.
        -11    1    3    3    0    0 -0.55873608035E-01  0.19145543779E+00  0.32699824163E+01  0.32760589599E+01  0.51100000000E-03 0.  1.
         12    1    3    3    0    0 -0.37831944709E+01 -0.65759587723E+01  0.21368945557E+02  0.22675705686E+02  0.00000000000E+00 0. -1.
</event>
<event>
 7    1  0.2297343E-008  0.4614232E+02  0.7816164E-02  0.1320468E+00
        -11   -1    0    0    0    0  0.00000000000E+00  0.00000000000E+00  0.45593999997E+02  0.45594000000E+02  0.51100000000E-03 0.  1.
         11   -1    0    0    0    0 -0.00000000000E+00 -0.00000000000E+00 -0.45593999997E+02  0.45594000000E+02  0.51100000000E-03 0. -1.
    9900012    2    1    2    0    0 -0.22871192324E+01 -0.39080606135E+02  0.22284272458E+02  0.46142317751E+02  0.99999999118E+01 0.  0.
         12    1    1    2    0    0  0.22871192324E+01  0.39080606135E+02 -0.22284272458E+02  0.45045682249E+02  0.00000000000E+00 0. -1.
         11    1    3    3    0    0 -0.16117411613E+01 -0.22646939568E+01  0.30115846402E+01  0.40983155802E+01  0.51100000000E-03 0. -1.
        -11    1    3    3    0    0 -0.33814870999E+01 -0.25100006450E+02  0.12500498411E+02  0.28243711505E+02  0.51100000000E-03 0.  1.
         12    1    3    3    0    0  0.27061090289E+01 -0.11715905728E+02  0.67721894073E+01  0.13800290666E+02  0.00000000000E+00 0. -1.
</event>
<event>
 7    1  0.2297343E-008  0.4614232E+02  0.7816164E-02  0.1320468E+00
        -11   -1    0    0    0    0  0.00000000000E+00  0.00000000000E+00  0.45593999997E+02  0.45594000000E+02  0.51100000000E-03 0.  1.
         11   -1    0    0    0    0 -0.00000000000E+00 -0.00000000000E+00 -0.45593999997E+02  0.45594000000E+02  0.51100000000E-03 0. -1.
    9900012    2    1    2    0    0  0.23042973969E+02 -0.19127082027E+01  0.38658458383E+02  0.46142317559E+02  0.99999981579E+01 0.  0.
         12    1    1    2    0    0 -0.23042973969E+02  0.19127082027E+01 -0.38658458383E+02  0.45045682441E+02  0.00000000000E+00 0. -1.
         11    1    3    3    0    0  0.36087389000E+01 -0.75688563529E+00  0.38644730148E+01  0.53413504151E+01  0.51100000000E-03 0. -1.
        -11    1    3    3    0    0  0.96295160434E+01 -0.43313149831E+01  0.21744401946E+02  0.24172440608E+02  0.51100000000E-03 0.  1.
         12    1    3    3    0    0  0.98047190253E+01  0.31754924156E+01  0.13049583423E+02  0.16628526536E+02  0.00000000000E+00 0. -1.
</event>
<event>
 7    1  0.2297343E-008  0.4614232E+02  0.7816164E-02  0.1320468E+00
        -11   -1    0    0    0    0  0.00000000000E+00  0.00000000000E+00  0.45593999997E+02  0.45594000000E+02  0.51100000000E-03 0. -1.
         11   -1    0    0    0    0 -0.00000000000E+00 -0.00000000000E+00 -0.45593999997E+02  0.45594000000E+02  0.51100000000E-03 0.  1.
    9900012    2    1    2    0    0 -0.13633600616E+02  0.42929588197E+02  0.53736245478E+00  0.46142319109E+02  0.10000012296E+02 0.  0.
         12    1    1    2    0    0  0.13633600616E+02 -0.42929588197E+02 -0.53736245478E+00  0.45045680891E+02  0.00000000000E+00 0. -1.
         11    1    3    3    0    0  0.12689081926E+01  0.53477307661E+01 -0.10593649750E+01  0.55973749882E+01  0.51100000000E-03 0. -1.
        -11    1    3    3    0    0 -0.48716864363E+01  0.94599962772E+01  0.91354544299E+00  0.10679860666E+02  0.51100000000E-03 0.  1.
        -12    1    3    3    0    0 -0.10030822372E+02  0.28121861153E+02  0.68318198680E+00  0.29865083456E+02  0.00000000000E+00 0.  1.
</event>
<event>
 7    1  0.2297343E-008  0.4614232E+02  0.7816164E-02  0.1320468E+00
        -11   -1    0    0    0    0  0.00000000000E+00  0.00000000000E+00  0.45593999997E+02  0.45594000000E+02  0.51100000000E-03 0. -1.
         11   -1    0    0    0    0 -0.00000000000E+00 -0.00000000000E+00 -0.45593999997E+02  0.45594000000E+02  0.51100000000E-03 0.  1.
    9900012    2    1    2    0    0 -0.41881026214E+02  0.13958819965E+02  0.89579250939E+01  0.46142318370E+02  0.10000005550E+02 0.  0.
         12    1    1    2    0    0  0.41881026214E+02 -0.13958819965E+02 -0.89579250939E+01  0.45045681630E+02  0.00000000000E+00 0. -1.
         11    1    3    3    0    0 -0.30322835249E+02  0.11006156598E+02  0.56881301970E+01  0.32756139058E+02  0.51100000000E-03 0.  1.
        -11    1    3    3    0    0 -0.53176439266E+01  0.39571924804E+01  0.21381658844E+01  0.69648017106E+01  0.51100000000E-03 0. -1.
        -12    1    3    3    0    0 -0.62405470381E+01 -0.10045291126E+01  0.11316290124E+01  0.64213776010E+01  0.00000000000E+00 0.  1.
</event>
<event>
 7    1  0.2297343E-008  0.4614232E+02  0.7816164E-02  0.1320468E+00
        -11   -1    0    0    0    0  0.00000000000E+00  0.00000000000E+00  0.45593999997E+02  0.45594000000E+02  0.51100000000E-03 0. -1.
         11   -1    0    0    0    0 -0.00000000000E+00 -0.00000000000E+00 -0.45593999997E+02  0.45594000000E+02  0.51100000000E-03 0.  1.
    9900012    2    1    2    0    0 -0.19534387875E+01 -0.21926129939E+02 -0.39300666024E+02  0.46142318219E+02  0.10000004175E+02 0.  0.
         12    1    1    2    0    0  0.19534387875E+01  0.21926129939E+02  0.39300666024E+02  0.45045681781E+02  0.00000000000E+00 0. -1.
         11    1    3    3    0    0 -0.37315488144E+01 -0.31742039602E+01 -0.93047408486E+01  0.10515618377E+02  0.51100000000E-03 0. -1.
        -11    1    3    3    0    0  0.24473288927E+01 -0.94290760443E+01 -0.13202942175E+02  0.16407759630E+02  0.51100000000E-03 0.  1.
        -12    1    3    3    0    0 -0.66921886575E+00 -0.93228499349E+01 -0.16792983000E+02  0.19218940211E+02  0.00000000000E+00 0.  1.
</event>
<event>
 7    1  0.2297343E-008  0.4614232E+02  0.7816164E-02  0.1320468E+00
        -11   -1    0    0    0    0  0.00000000000E+00  0.00000000000E+00  0.45593999997E+02  0.45594000000E+02  0.51100000000E-03 0.  1.
         11   -1    0    0    0    0 -0.00000000000E+00 -0.00000000000E+00 -0.45593999997E+02  0.45594000000E+02  0.51100000000E-03 0. -1.
    9900012    2    1    2    0    0  0.19655485118E+02 -0.37117302096E+02  0.16281317256E+02  0.46142317613E+02  0.99999986454E+01 0.  0.
         12    1    1    2    0    0 -0.19655485118E+02  0.37117302096E+02 -0.16281317256E+02  0.45045682387E+02  0.00000000000E+00 0. -1.
         11    1    3    3    0    0  0.49461711934E+01 -0.31295211430E+01  0.28831546773E+01  0.65246527274E+01  0.51100000000E-03 0. -1.
        -11    1    3    3    0    0  0.97416220734E+01 -0.18700638347E+02  0.91927720128E+01  0.23002611433E+02  0.51100000000E-03 0.  1.
         12    1    3    3    0    0  0.49676918517E+01 -0.15287142606E+02  0.42053905663E+01  0.16615053452E+02  0.00000000000E+00 0. -1.
</event>
<event>
 7    1  0.2297343E-008  0.4614232E+02  0.7816164E-02  0.1320468E+00
        -11   -1    0    0    0    0  0.00000000000E+00  0.00000000000E+00  0.45593999997E+02  0.45594000000E+02  0.51100000000E-03 0. -1.
         11   -1    0    0    0    0 -0.00000000000E+00 -0.00000000000E+00 -0.45593999997E+02  0.45594000000E+02  0.51100000000E-03 0.  1.
    9900012    2    1    2    0    0 -0.42712159849E+02 -0.46653895087E+01 -0.13528451352E+02  0.46142318140E+02  0.10000003459E+02 0.  0.
         12    1    1    2    0    0  0.42712159849E+02  0.46653895087E+01  0.13528451352E+02  0.45045681860E+02  0.00000000000E+00 0. -1.
         11    1    3    3    0    0 -0.42702186486E+01 -0.19166646336E+01 -0.29762453930E+01  0.55467474726E+01  0.51100000000E-03 0. -1.
        -11    1    3    3    0    0 -0.10521714263E+01 -0.12229864654E+01  0.28221625891E+00  0.16378055082E+01  0.51100000000E-03 0.  1.
         12    1    3    3    0    0 -0.37389769774E+02 -0.15257384097E+01 -0.10834422218E+02  0.38957765160E+02  0.00000000000E+00 0. -1.
</event>
<event>
 7    1  0.2297343E-008  0.4614232E+02  0.7816164E-02  0.1320468E+00
        -11   -1    0    0    0    0  0.00000000000E+00  0.00000000000E+00  0.45593999997E+02  0.45594000000E+02  0.51100000000E-03 0. -1.
         11   -1    0    0    0    0 -0.00000000000E+00 -0.00000000000E+00 -0.45593999997E+02  0.45594000000E+02  0.51100000000E-03 0.  1.
    9900012    2    1    2    0    0  0.29537516378E+02 -0.25341988858E+02 -0.22681098073E+02  0.46142317823E+02  0.10000000561E+02 0.  0.
         12    1    1    2    0    0 -0.29537516378E+02  0.25341988858E+02  0.22681098073E+02  0.45045682177E+02  0.00000000000E+00 0. -1.
         11    1    3    3    0    0  0.71042633340E+01 -0.57904149655E+01 -0.11319705016E+01  0.92347615274E+01  0.51100000000E-03 0. -1.
        -11    1    3    3    0    0  0.11484305527E+01 -0.15006019511E+01 -0.24299954487E+01  0.30782425329E+01  0.51100000000E-03 0.  1.
        -12    1    3    3    0    0  0.21284822492E+02 -0.18050971941E+02 -0.19119132122E+02  0.33829313762E+02  0.00000000000E+00 0.  1.
</event>
<event>
 7    1  0.2297343E-008  0.4614232E+02  0.7816164E-02  0.1320468E+00
        -11   -1    0    0    0    0  0.00000000000E+00  0.00000000000E+00  0.45593999997E+02  0.45594000000E+02  0.51100000000E-03 0.  1.
         11   -1    0    0    0    0 -0.00000000000E+00 -0.00000000000E+00 -0.45593999997E+02  0.45594000000E+02  0.51100000000E-03 0. -1.
    9900012    2    1    2    0    0  0.49730090262E+00  0.33409856218E+02  0.30210059254E+02  0.46142317844E+02  0.10000000759E+02 0.  0.
         12    1    1    2    0    0 -0.49730090262E+00 -0.33409856218E+02 -0.30210059254E+02  0.45045682156E+02  0.00000000000E+00 0. -1.
         11    1    3    3    0    0  0.23250100938E+01  0.59316163122E+01  0.51650042354E+01  0.82016469702E+01  0.51100000000E-03 0. -1.
        -11    1    3    3    0    0 -0.70668143047E+00  0.18113464700E+02  0.20820950760E+02  0.27606321611E+02  0.51100000000E-03 0.  1.
         12    1    3    3    0    0 -0.11210277607E+01  0.93647752062E+01  0.42241042592E+01  0.10334349263E+02  0.00000000000E+00 0. -1.
</event>
<event>
 7    1  0.2297343E-008  0.4614232E+02  0.7816164E-02  0.1320468E+00
        -11   -1    0    0    0    0  0.00000000000E+00  0.00000000000E+00  0.45593999997E+02  0.45594000000E+02  0.51100000000E-03 0.  1.
         11   -1    0    0    0    0 -0.00000000000E+00 -0.00000000000E+00 -0.45593999997E+02  0.45594000000E+02  0.51100000000E-03 0. -1.
    9900012    2    1    2    0    0  0.78997932562E+01 -0.43842883776E+02  0.66714119637E+01  0.46142323972E+02  0.10000056632E+02 0.  0.
         12    1    1    2    0    0 -0.78997932562E+01  0.43842883776E+02 -0.66714119637E+01  0.45045676028E+02  0.00000000000E+00 0. -1.
         11    1    3    3    0    0  0.30710714482E+01 -0.17881232244E+02  0.39824513857E+01  0.18574979561E+02  0.51100000000E-03 0. -1.
        -11    1    3    3    0    0  0.53539983149E+01 -0.95958879047E+01  0.94416513631E-01  0.10988870614E+02  0.51100000000E-03 0.  1.
         12    1    3    3    0    0 -0.52527650687E+00 -0.16365763627E+02  0.25945440644E+01  0.16578473796E+02  0.00000000000E+00 0. -1.
</event>
<event>
 7    1  0.2297343E-008  0.4614232E+02  0.7816164E-02  0.1320468E+00
        -11   -1    0    0    0    0  0.00000000000E+00  0.00000000000E+00  0.45593999997E+02  0.45594000000E+02  0.51100000000E-03 0.  1.
         11   -1    0    0    0    0 -0.00000000000E+00 -0.00000000000E+00 -0.45593999997E+02  0.45594000000E+02  0.51100000000E-03 0. -1.
    9900012    2    1    2    0    0 -0.44102550739E+02  0.91591195734E+01  0.43477801413E+00  0.46142317799E+02  0.10000000346E+02 0.  0.
         12    1    1    2    0    0  0.44102550739E+02 -0.91591195734E+01 -0.43477801413E+00  0.45045682201E+02  0.00000000000E+00 0. -1.
         11    1    3    3    0    0 -0.44554858523E+01  0.16624058681E+00 -0.14071246427E+01  0.46753598935E+01  0.51100000000E-03 0. -1.
        -11    1    3    3    0    0 -0.32247971077E+02  0.65100734839E+01 -0.15994364733E+01  0.32937378351E+02  0.51100000000E-03 0.  1.
         12    1    3    3    0    0 -0.73990938094E+01  0.24828055027E+01  0.34413391301E+01  0.85295795543E+01  0.00000000000E+00 0. -1.
</event>
<event>
 7    1  0.2297343E-008  0.4614232E+02  0.7816164E-02  0.1320468E+00
        -11   -1    0    0    0    0  0.00000000000E+00  0.00000000000E+00  0.45593999997E+02  0.45594000000E+02  0.51100000000E-03 0.  1.
         11   -1    0    0    0    0 -0.00000000000E+00 -0.00000000000E+00 -0.45593999997E+02  0.45594000000E+02  0.51100000000E-03 0. -1.
    9900012    2    1    2    0    0  0.25975868884E+02  0.33687012582E+02  0.14817319112E+02  0.46142317336E+02  0.99999961266E+01 0.  0.
         12    1    1    2    0    0 -0.25975868884E+02 -0.33687012582E+02 -0.14817319112E+02  0.45045682664E+02  0.00000000000E+00 0. -1.
         11    1    3    3    0    0  0.86863690525E+01  0.12330571219E+02  0.31938020860E+01  0.15417404643E+02  0.51100000000E-03 0. -1.
        -11    1    3    3    0    0  0.15921427888E+02  0.19670741636E+02  0.12685427101E+02  0.28308126104E+02  0.51100000000E-03 0.  1.
         12    1    3    3    0    0  0.13680719438E+01  0.16856997264E+01 -0.10619100751E+01  0.24167865893E+01  0.00000000000E+00 0. -1.
</event>
<event>
 7    1  0.2297343E-008  0.4614232E+02  0.7816164E-02  0.1320468E+00
        -11   -1    0    0    0    0  0.00000000000E+00  0.00000000000E+00  0.45593999997E+02  0.45594000000E+02  0.51100000000E-03 0. -1.
         11   -1    0    0    0    0 -0.00000000000E+00 -0.00000000000E+00 -0.45593999997E+02  0.45594000000E+02  0.51100000000E-03 0.  1.
    9900012    2    1    2    0    0 -0.82051089840E+01 -0.93864569117E+01 -0.43286072984E+02  0.46142317619E+02  0.99999987064E+01 0.  0.
         12    1    1    2    0    0  0.82051089840E+01  0.93864569117E+01  0.43286072984E+02  0.45045682381E+02  0.00000000000E+00 0. -1.
         11    1    3    3    0    0 -0.22390440700E+01 -0.87083889678E-01 -0.10675592529E+02  0.10908216080E+02  0.51100000000E-03 0. -1.
        -11    1    3    3    0    0 -0.68214882285E+01 -0.69734908253E+01 -0.30352126124E+02  0.31881245842E+02  0.51100000000E-03 0.  1.
         12    1    3    3    0    0  0.85542331443E+00 -0.23258821968E+01 -0.22583543311E+01  0.33528556970E+01  0.00000000000E+00 0. -1.
</event>
<event>
 7    1  0.2297343E-008  0.4614232E+02  0.7816164E-02  0.1320468E+00
        -11   -1    0    0    0    0  0.00000000000E+00  0.00000000000E+00  0.45593999997E+02  0.45594000000E+02  0.51100000000E-03 0. -1.
         11   -1    0    0    0    0 -0.00000000000E+00 -0.00000000000E+00 -0.45593999997E+02  0.45594000000E+02  0.51100000000E-03 0.  1.
    9900012    2    1    2    0    0  0.26255245728E+02 -0.17976236287E+02 -0.31884641693E+02  0.46142319018E+02  0.10000011457E+02 0.  0.
         12    1    1    2    0    0 -0.26255245728E+02  0.17976236287E+02  0.31884641693E+02  0.45045680982E+02  0.00000000000E+00 0. -1.
         11    1    3    3    0    0  0.99185131778E+01 -0.78393530387E+01 -0.95635487955E+01  0.15852249858E+02  0.51100000000E-03 0. -1.
        -11    1    3    3    0    0  0.79125960467E+01 -0.50699220958E+01 -0.57341236251E+01  0.11008790136E+02  0.51100000000E-03 0.  1.
        -12    1    3    3    0    0  0.84241365040E+01 -0.50669611525E+01 -0.16586969272E+02  0.19281279024E+02  0.00000000000E+00 0.  1.
</event>
<event>
 7    1  0.2297343E-008  0.4614232E+02  0.7816164E-02  0.1320468E+00
        -11   -1    0    0    0    0  0.00000000000E+00  0.00000000000E+00  0.45593999997E+02  0.45594000000E+02  0.51100000000E-03 0.  1.
         11   -1    0    0    0    0 -0.00000000000E+00 -0.00000000000E+00 -0.45593999997E+02  0.45594000000E+02  0.51100000000E-03 0. -1.
    9900012    2    1    2    0    0 -0.11657515784E+02  0.50211161238E+01  0.43220413516E+02  0.46142318455E+02  0.10000006326E+02 0.  0.
         12    1    1    2    0    0  0.11657515784E+02 -0.50211161238E+01 -0.43220413516E+02  0.45045681545E+02  0.00000000000E+00 0. -1.
         11    1    3    3    0    0 -0.52421682798E+01  0.66433390852E+01  0.24897003454E+02  0.26295913441E+02  0.51100000000E-03 0. -1.
        -11    1    3    3    0    0 -0.37310742938E+01  0.31811417363E+00  0.13394054470E+02  0.13907652836E+02  0.51100000000E-03 0.  1.
         12    1    3    3    0    0 -0.26842732107E+01 -0.19403371351E+01  0.49293555924E+01  0.59387521774E+01  0.00000000000E+00 0. -1.
</event>
<event>
 7    1  0.2297343E-008  0.4614232E+02  0.7816164E-02  0.1320468E+00
        -11   -1    0    0    0    0  0.00000000000E+00  0.00000000000E+00  0.45593999997E+02  0.45594000000E+02  0.51100000000E-03 0.  1.
         11   -1    0    0    0    0 -0.00000000000E+00 -0.00000000000E+00 -0.45593999997E+02  0.45594000000E+02  0.51100000000E-03 0. -1.
    9900012    2    1    2    0    0  0.36943521634E+02 -0.11908675609E+02  0.22857671703E+02  0.46142317619E+02  0.99999987078E+01 0.  0.
         12    1    1    2    0    0 -0.36943521634E+02  0.11908675609E+02 -0.22857671703E+02  0.45045682381E+02  0.00000000000E+00 0. -1.
         11    1    3    3    0    0  0.17018568999E+02 -0.25080642662E+01  0.10229124711E+02  0.20013921899E+02  0.51100000000E-03 0. -1.
        -11    1    3    3    0    0  0.95162390299E+01 -0.36626034017E+01  0.92619977604E+01  0.13775270296E+02  0.51100000000E-03 0.  1.
        -12    1    3    3    0    0  0.10408713605E+02 -0.57380079412E+01  0.33665492310E+01  0.12353125425E+02  0.00000000000E+00 0.  1.
</event>
<event>
 7    1  0.2297343E-008  0.4614232E+02  0.7816164E-02  0.1320468E+00
        -11   -1    0    0    0    0  0.00000000000E+00  0.00000000000E+00  0.45593999997E+02  0.45594000000E+02  0.51100000000E-03 0.  1.
         11   -1    0    0    0    0 -0.00000000000E+00 -0.00000000000E+00 -0.45593999997E+02  0.45594000000E+02  0.51100000000E-03 0. -1.
    9900012    2    1    2    0    0  0.21873135939E+02  0.34509325390E+02  0.18968019802E+02  0.46142318855E+02  0.10000009974E+02 0.  0.
         12    1    1    2    0    0 -0.21873135939E+02 -0.34509325390E+02 -0.18968019802E+02  0.45045681145E+02  0.00000000000E+00 0. -1.
         11    1    3    3    0    0  0.11916477272E+02  0.10503195106E+02  0.59948923301E+01  0.16978170464E+02  0.51100000000E-03 0. -1.
        -11    1    3    3    0    0  0.19542474084E+01  0.43425093608E+01  0.12968836760E+01  0.49354207533E+01  0.51100000000E-03 0.  1.
        -12    1    3    3    0    0  0.80024112584E+01  0.19663620923E+02  0.11676243796E+02  0.24228727637E+02  0.00000000000E+00 0.  1.
</event>
<event>
 7    1  0.2297343E-008  0.4614232E+02  0.7816164E-02  0.1320468E+00
        -11   -1    0    0    0    0  0.00000000000E+00  0.00000000000E+00  0.45593999997E+02  0.45594000000E+02  0.51100000000E-03 0.  1.
         11   -1    0    0    0    0 -0.00000000000E+00 -0.00000000000E+00 -0.45593999997E+02  0.45594000000E+02  0.51100000000E-03 0. -1.
    9900012    2    1    2    0    0  0.93215179134E+01 -0.93757599742E+01  0.43061792000E+02  0.46142317615E+02  0.99999986693E+01 0.  0.
         12    1    1    2    0    0 -0.93215179134E+01  0.93757599742E+01 -0.43061792000E+02  0.45045682385E+02  0.00000000000E+00 0. -1.
         11    1    3    3    0    0 -0.11164606576E+01 -0.14816519267E+01  0.86450574706E+01  0.88418773890E+01  0.51100000000E-03 0. -1.
        -11    1    3    3    0    0  0.45804052772E+01 -0.44535476602E+01  0.24217075163E+02  0.25045577035E+02  0.51100000000E-03 0.  1.
         12    1    3    3    0    0  0.58575732938E+01 -0.34405603873E+01  0.10199659365E+02  0.12254863191E+02  0.00000000000E+00 0. -1.
</event>
<event>
 7    1  0.2297343E-008  0.4614232E+02  0.7816164E-02  0.1320468E+00
        -11   -1    0    0    0    0  0.00000000000E+00  0.00000000000E+00  0.45593999997E+02  0.45594000000E+02  0.51100000000E-03 0.  1.
         11   -1    0    0    0    0 -0.00000000000E+00 -0.00000000000E+00 -0.45593999997E+02  0.45594000000E+02  0.51100000000E-03 0. -1.
    9900012    2    1    2    0    0 -0.41897339998E+01 -0.64949548286E+01  0.44377643086E+02  0.46142317465E+02  0.99999972996E+01 0.  0.
         12    1    1    2    0    0  0.41897339998E+01  0.64949548286E+01 -0.44377643086E+02  0.45045682535E+02  0.00000000000E+00 0. -1.
         11    1    3    3    0    0  0.12937962173E+01  0.16830313907E+01  0.82245174852E+01  0.84940680148E+01  0.51100000000E-03 0. -1.
        -11    1    3    3    0    0 -0.29361468262E+01 -0.14058112494E+01  0.12122793670E+02  0.12552266333E+02  0.51100000000E-03 0.  1.
         12    1    3    3    0    0 -0.25473833909E+01 -0.67721749699E+01  0.24030331930E+02  0.25095983117E+02  0.00000000000E+00 0. -1.
</event>
<event>
 7    1  0.2297343E-008  0.4614232E+02  0.7816164E-02  0.1320468E+00
        -11   -1    0    0    0    0  0.00000000000E+00  0.00000000000E+00  0.45593999997E+02  0.45594000000E+02  0.51100000000E-03 0.  1.
         11   -1    0    0    0    0 -0.00000000000E+00 -0.00000000000E+00 -0.45593999997E+02  0.45594000000E+02  0.51100000000E-03 0. -1.
    9900012    2    1    2    0    0 -0.30876235271E+02  0.25077856265E+02  0.21139364599E+02  0.46142317465E+02  0.99999973036E+01 0.  0.
         12    1    1    2    0    0  0.30876235271E+02 -0.25077856265E+02 -0.21139364599E+02  0.45045682535E+02  0.00000000000E+00 0. -1.
         11    1    3    3    0    0 -0.65261094139E+01  0.65332425473E+01  0.89434629526E+01  0.12855305991E+02  0.51100000000E-03 0. -1.
        -11    1    3    3    0    0 -0.17691050399E+02  0.14460245514E+02  0.11087351364E+02  0.25396876286E+02  0.51100000000E-03 0.  1.
        -12    1    3    3    0    0 -0.66590754574E+01  0.40843682039E+01  0.11085502832E+01  0.78901351891E+01  0.00000000000E+00 0.  1.
</event>
<event>
 7    1  0.2297343E-008  0.4614232E+02  0.7816164E-02  0.1320468E+00
        -11   -1    0    0    0    0  0.00000000000E+00  0.00000000000E+00  0.45593999997E+02  0.45594000000E+02  0.51100000000E-03 0. -1.
         11   -1    0    0    0    0 -0.00000000000E+00 -0.00000000000E+00 -0.45593999997E+02  0.45594000000E+02  0.51100000000E-03 0.  1.
    9900012    2    1    2    0    0 -0.40619102348E+02  0.66822616504E+01 -0.18290690702E+02  0.46142318046E+02  0.10000002597E+02 0.  0.
         12    1    1    2    0    0  0.40619102348E+02 -0.66822616504E+01  0.18290690702E+02  0.45045681954E+02  0.00000000000E+00 0. -1.
         11    1    3    3    0    0 -0.19647057192E+01  0.39358492726E+00  0.80459088077E+00  0.21592462584E+01  0.51100000000E-03 0. -1.
        -11    1    3    3    0    0 -0.33089002720E+02  0.34506136359E+01 -0.17217389757E+02  0.37459676264E+02  0.51100000000E-03 0.  1.
        -12    1    3    3    0    0 -0.55653939088E+01  0.28380630872E+01 -0.18778918260E+01  0.65233955236E+01  0.00000000000E+00 0.  1.
</event>
<event>
 7    1  0.2297343E-008  0.4614232E+02  0.7816164E-02  0.1320468E+00
        -11   -1    0    0    0    0  0.00000000000E+00  0.00000000000E+00  0.45593999997E+02  0.45594000000E+02  0.51100000000E-03 0. -1.
         11   -1    0    0    0    0 -0.00000000000E+00 -0.00000000000E+00 -0.45593999997E+02  0.45594000000E+02  0.51100000000E-03 0.  1.
    9900012    2    1    2    0    0  0.20100523680E+02  0.21211622974E+02 -0.34280454645E+02  0.46142316832E+02  0.99999915298E+01 0.  0.
         12    1    1    2    0    0 -0.20100523680E+02 -0.21211622974E+02  0.34280454645E+02  0.45045683168E+02  0.00000000000E+00 0. -1.
         11    1    3    3    0    0  0.75407569427E+00 -0.36356384652E+00 -0.30328269711E+01  0.31462435572E+01  0.51100000000E-03 0. -1.
        -11    1    3    3    0    0  0.32438774518E+01  0.42786045939E+01 -0.29424729814E+01  0.61226910506E+01  0.51100000000E-03 0.  1.
        -12    1    3    3    0    0  0.16102570534E+02  0.17296582226E+02 -0.28305154692E+02  0.36873382224E+02  0.00000000000E+00 0.  1.
</event>
<event>
 7    1  0.2297343E-008  0.4614232E+02  0.7816164E-02  0.1320468E+00
        -11   -1    0    0    0    0  0.00000000000E+00  0.00000000000E+00  0.45593999997E+02  0.45594000000E+02  0.51100000000E-03 0.  1.
         11   -1    0    0    0    0 -0.00000000000E+00 -0.00000000000E+00 -0.45593999997E+02  0.45594000000E+02  0.51100000000E-03 0. -1.
    9900012    2    1    2    0    0  0.92004604506E+00  0.43966172305E+02 -0.97592352966E+01  0.46142318015E+02  0.10000002316E+02 0.  0.
         12    1    1    2    0    0 -0.92004604506E+00 -0.43966172305E+02  0.97592352966E+01  0.45045681985E+02  0.00000000000E+00 0. -1.
         11    1    3    3    0    0  0.31287595083E+01  0.19027361812E+02 -0.15915078388E+01  0.19348450353E+02  0.51100000000E-03 0. -1.
        -11    1    3    3    0    0  0.15379676380E+01  0.54298395385E+01 -0.15023898819E+01  0.58400066342E+01  0.51100000000E-03 0.  1.
        -12    1    3    3    0    0 -0.37466811013E+01  0.19508970955E+02 -0.66653375759E+01  0.20953861028E+02  0.00000000000E+00 0.  1.
</event>
<event>
 7    1  0.2297343E-008  0.4614232E+02  0.7816164E-02  0.1320468E+00
        -11   -1    0    0    0    0  0.00000000000E+00  0.00000000000E+00  0.45593999997E+02  0.45594000000E+02  0.51100000000E-03 0.  1.
         11   -1    0    0    0    0 -0.00000000000E+00 -0.00000000000E+00 -0.45593999997E+02  0.45594000000E+02  0.51100000000E-03 0. -1.
    9900012    2    1    2    0    0  0.89365372399E+01 -0.36560214018E+02  0.24750809263E+02  0.46142317565E+02  0.99999982112E+01 0.  0.
         12    1    1    2    0    0 -0.89365372399E+01  0.36560214018E+02 -0.24750809263E+02  0.45045682435E+02  0.00000000000E+00 0. -1.
         11    1    3    3    0    0  0.24172381636E+00  0.58098924822E+00  0.34716327810E+00  0.71868039679E+00  0.51100000000E-03 0. -1.
        -11    1    3    3    0    0  0.65763274502E+00 -0.49990870880E+01  0.45954101447E+01  0.68221072404E+01  0.51100000000E-03 0.  1.
        -12    1    3    3    0    0  0.80371806786E+01 -0.32142116178E+02  0.19808235840E+02  0.38601529928E+02  0.00000000000E+00 0.  1.
</event>
<event>
 7    1  0.2297343E-008  0.4614232E+02  0.7816164E-02  0.1320468E+00
        -11   -1    0    0    0    0  0.00000000000E+00  0.00000000000E+00  0.45593999997E+02  0.45594000000E+02  0.51100000000E-03 0. -1.
         11   -1    0    0    0    0 -0.00000000000E+00 -0.00000000000E+00 -0.45593999997E+02  0.45594000000E+02  0.51100000000E-03 0.  1.
    9900012    2    1    2    0    0  0.17943456330E+02 -0.41248149691E+02 -0.23950005992E+01  0.46142317567E+02  0.99999982268E+01 0.  0.
         12    1    1    2    0    0 -0.17943456330E+02  0.41248149691E+02  0.23950005992E+01  0.45045682433E+02  0.00000000000E+00 0. -1.
         11    1    3    3    0    0 -0.69352028093E+00 -0.29536007125E+01  0.56330614446E+00  0.30857805532E+01  0.51100000000E-03 0. -1.
        -11    1    3    3    0    0  0.12351318254E+01 -0.71014248794E+00  0.46265534924E+00  0.14979663590E+01  0.51100000000E-03 0.  1.
        -12    1    3    3    0    0  0.17401844785E+02 -0.37584406491E+02 -0.34209620929E+01  0.41558570654E+02  0.00000000000E+00 0.  1.
</event>
<event>
 7    1  0.2297343E-008  0.4614232E+02  0.7816164E-02  0.1320468E+00
        -11   -1    0    0    0    0  0.00000000000E+00  0.00000000000E+00  0.45593999997E+02  0.45594000000E+02  0.51100000000E-03 0.  1.
         11   -1    0    0    0    0 -0.00000000000E+00 -0.00000000000E+00 -0.45593999997E+02  0.45594000000E+02  0.51100000000E-03 0. -1.
    9900012    2    1    2    0    0 -0.12927253436E+02  0.83405759700E+01  0.42337152918E+02  0.46142316454E+02  0.99999880815E+01 0.  0.
         12    1    1    2    0    0  0.12927253436E+02 -0.83405759700E+01 -0.42337152918E+02  0.45045683546E+02  0.00000000000E+00 0. -1.
         11    1    3    3    0    0 -0.15856921964E+01 -0.16576357624E+00  0.94340508117E+00  0.18525416900E+01  0.51100000000E-03 0. -1.
        -11    1    3    3    0    0 -0.63248516189E+01  0.35357972136E+01  0.11653983952E+02  0.13723008131E+02  0.51100000000E-03 0.  1.
        -12    1    3    3    0    0 -0.50167096206E+01  0.49705423327E+01  0.29739763885E+02  0.30566766633E+02  0.00000000000E+00 0.  1.
</event>
<event>
 7    1  0.2297343E-008  0.4614232E+02  0.7816164E-02  0.1320468E+00
        -11   -1    0    0    0    0  0.00000000000E+00  0.00000000000E+00  0.45593999997E+02  0.45594000000E+02  0.51100000000E-03 0. -1.
         11   -1    0    0    0    0 -0.00000000000E+00 -0.00000000000E+00 -0.45593999997E+02  0.45594000000E+02  0.51100000000E-03 0.  1.
    9900012    2    1    2    0    0 -0.23337501145E+02 -0.38528150067E+02  0.23683798495E+00  0.46142318747E+02  0.10000008993E+02 0.  0.
         12    1    1    2    0    0  0.23337501145E+02  0.38528150067E+02 -0.23683798495E+00  0.45045681253E+02  0.00000000000E+00 0. -1.
         11    1    3    3    0    0 -0.10008853293E+02 -0.20868004718E+02 -0.29383631985E+01  0.23329910924E+02  0.51100000000E-03 0.  1.
        -11    1    3    3    0    0 -0.13517884618E+02 -0.17753389139E+02  0.33155726412E+01  0.22559012670E+02  0.51100000000E-03 0. -1.
         12    1    3    3    0    0  0.18923676535E+00  0.93243789948E-01 -0.14037145773E+00  0.25339515360E+00  0.00000000000E+00 0. -1.
</event>
<event>
 7    1  0.2297343E-008  0.4614232E+02  0.7816164E-02  0.1320468E+00
        -11   -1    0    0    0    0  0.00000000000E+00  0.00000000000E+00  0.45593999997E+02  0.45594000000E+02  0.51100000000E-03 0.  1.
         11   -1    0    0    0    0 -0.00000000000E+00 -0.00000000000E+00 -0.45593999997E+02  0.45594000000E+02  0.51100000000E-03 0. -1.
    9900012    2    1    2    0    0  0.25760513785E+02 -0.21052914511E+02  0.30369126022E+02  0.46142322125E+02  0.10000039792E+02 0.  0.
         12    1    1    2    0    0 -0.25760513785E+02  0.21052914511E+02 -0.30369126022E+02  0.45045677875E+02  0.00000000000E+00 0. -1.
         11    1    3    3    0    0  0.14926190142E+02 -0.87082025765E+01  0.11245349686E+02  0.20617512801E+02  0.51100000000E-03 0. -1.
        -11    1    3    3    0    0  0.71393180899E+01 -0.74019397652E+01  0.89876532302E+01  0.13657836063E+02  0.51100000000E-03 0.  1.
        -12    1    3    3    0    0  0.36950055533E+01 -0.49427721694E+01  0.10136123106E+02  0.11866973261E+02  0.00000000000E+00 0.  1.
</event>
<event>
 7    1  0.2297343E-008  0.4614232E+02  0.7816164E-02  0.1320468E+00
        -11   -1    0    0    0    0  0.00000000000E+00  0.00000000000E+00  0.45593999997E+02  0.45594000000E+02  0.51100000000E-03 0. -1.
         11   -1    0    0    0    0 -0.00000000000E+00 -0.00000000000E+00 -0.45593999997E+02  0.45594000000E+02  0.51100000000E-03 0.  1.
    9900012    2    1    2    0    0 -0.12112753624E+02 -0.43046027290E+02 -0.54253461864E+01  0.46142316000E+02  0.99999839410E+01 0.  0.
         12    1    1    2    0    0  0.12112753624E+02  0.43046027290E+02  0.54253461864E+01  0.45045684000E+02  0.00000000000E+00 0. -1.
         11    1    3    3    0    0 -0.18721827435E+01 -0.42025304029E+01  0.17220010325E+01  0.49123943072E+01  0.51100000000E-03 0. -1.
        -11    1    3    3    0    0 -0.26810391146E+01 -0.17107237708E+02 -0.54529315539E+01  0.18154338752E+02  0.51100000000E-03 0.  1.
        -12    1    3    3    0    0 -0.75595317662E+01 -0.21736259178E+02 -0.16944156650E+01  0.23075582940E+02  0.00000000000E+00 0.  1.
</event>
<event>
 7    1  0.2297343E-008  0.4614232E+02  0.7816164E-02  0.1320468E+00
        -11   -1    0    0    0    0  0.00000000000E+00  0.00000000000E+00  0.45593999997E+02  0.45594000000E+02  0.51100000000E-03 0.  1.
         11   -1    0    0    0    0 -0.00000000000E+00 -0.00000000000E+00 -0.45593999997E+02  0.45594000000E+02  0.51100000000E-03 0. -1.
    9900012    2    1    2    0    0  0.31602451972E+02  0.28549013537E+02  0.14674887862E+02  0.46142317873E+02  0.10000001016E+02 0.  0.
         12    1    1    2    0    0 -0.31602451972E+02 -0.28549013537E+02 -0.14674887862E+02  0.45045682127E+02  0.00000000000E+00 0. -1.
         11    1    3    3    0    0  0.92929432294E+00  0.38737622595E+01  0.72420081323E+00  0.40489614793E+01  0.51100000000E-03 0. -1.
        -11    1    3    3    0    0  0.87473569730E+00  0.21028507342E+01  0.30396122987E+00  0.22977241873E+01  0.51100000000E-03 0.  1.
        -12    1    3    3    0    0  0.29798421951E+02  0.22572400543E+02  0.13646725819E+02  0.39795632206E+02  0.00000000000E+00 0.  1.
</event>
<event>
 7    1  0.2297343E-008  0.4614232E+02  0.7816164E-02  0.1320468E+00
        -11   -1    0    0    0    0  0.00000000000E+00  0.00000000000E+00  0.45593999997E+02  0.45594000000E+02  0.51100000000E-03 0.  1.
         11   -1    0    0    0    0 -0.00000000000E+00 -0.00000000000E+00 -0.45593999997E+02  0.45594000000E+02  0.51100000000E-03 0. -1.
    9900012    2    1    2    0    0  0.27338747964E+02 -0.21430781780E+02  0.28678004552E+02  0.46142317710E+02  0.99999995316E+01 0.  0.
         12    1    1    2    0    0 -0.27338747964E+02  0.21430781780E+02 -0.28678004552E+02  0.45045682290E+02  0.00000000000E+00 0. -1.
         11    1    3    3    0    0  0.46980534509E+01 -0.44633636840E+01  0.47970966575E+01  0.80625962447E+01  0.51100000000E-03 0. -1.
        -11    1    3    3    0    0  0.11924658821E+02 -0.13971753641E+02  0.16786319769E+02  0.24883486883E+02  0.51100000000E-03 0.  1.
         12    1    3    3    0    0  0.10716035692E+02 -0.29956644551E+01  0.70945881250E+01  0.13196234582E+02  0.00000000000E+00 0. -1.
</event>
<event>
 7    1  0.2297343E-008  0.4614232E+02  0.7816164E-02  0.1320468E+00
        -11   -1    0    0    0    0  0.00000000000E+00  0.00000000000E+00  0.45593999997E+02  0.45594000000E+02  0.51100000000E-03 0.  1.
         11   -1    0    0    0    0 -0.00000000000E+00 -0.00000000000E+00 -0.45593999997E+02  0.45594000000E+02  0.51100000000E-03 0. -1.
    9900012    2    1    2    0    0  0.30525850716E+02 -0.66219731615E+01  0.32456669894E+02  0.46142317509E+02  0.99999977018E+01 0.  0.
         12    1    1    2    0    0 -0.30525850716E+02  0.66219731615E+01 -0.32456669894E+02  0.45045682491E+02  0.00000000000E+00 0. -1.
         11    1    3    3    0    0  0.60987755100E+01 -0.43943721533E+01  0.68200058791E+01  0.10149780776E+02  0.51100000000E-03 0. -1.
        -11    1    3    3    0    0  0.22285324353E+02 -0.30627130304E+01  0.24949866359E+02  0.33593328567E+02  0.51100000000E-03 0.  1.
         12    1    3    3    0    0  0.21417508530E+01  0.83511202221E+00  0.68679765591E+00  0.23992081665E+01  0.00000000000E+00 0. -1.
</event>
<event>
 7    1  0.2297343E-008  0.4614232E+02  0.7816164E-02  0.1320468E+00
        -11   -1    0    0    0    0  0.00000000000E+00  0.00000000000E+00  0.45593999997E+02  0.45594000000E+02  0.51100000000E-03 0. -1.
         11   -1    0    0    0    0 -0.00000000000E+00 -0.00000000000E+00 -0.45593999997E+02  0.45594000000E+02  0.51100000000E-03 0.  1.
    9900012    2    1    2    0    0 -0.39832059546E+02  0.18234634913E+02  0.10488974309E+02  0.46142318074E+02  0.10000002858E+02 0.  0.
         12    1    1    2    0    0  0.39832059546E+02 -0.18234634913E+02 -0.10488974309E+02  0.45045681926E+02  0.00000000000E+00 0. -1.
         11    1    3    3    0    0 -0.60191246117E+01  0.82175065863E+00  0.29418095428E+01  0.67497688022E+01  0.51100000000E-03 0. -1.
        -11    1    3    3    0    0 -0.14826793190E+02  0.98929775787E+01  0.64027488814E+01  0.18939376842E+02  0.51100000000E-03 0.  1.
         12    1    3    3    0    0 -0.18986141744E+02  0.75199066754E+01  0.11444158853E+01  0.20453172430E+02  0.00000000000E+00 0. -1.
</event>
<event>
 7    1  0.2297343E-008  0.4614232E+02  0.7816164E-02  0.1320468E+00
        -11   -1    0    0    0    0  0.00000000000E+00  0.00000000000E+00  0.45593999997E+02  0.45594000000E+02  0.51100000000E-03 0.  1.
         11   -1    0    0    0    0 -0.00000000000E+00 -0.00000000000E+00 -0.45593999997E+02  0.45594000000E+02  0.51100000000E-03 0. -1.
    9900012    2    1    2    0    0  0.63974152946E+01 -0.33309439084E+02  0.29642334071E+02  0.46142316258E+02  0.99999862967E+01 0.  0.
         12    1    1    2    0    0 -0.63974152946E+01  0.33309439084E+02 -0.29642334071E+02  0.45045683742E+02  0.00000000000E+00 0. -1.
         11    1    3    3    0    0  0.44958623167E+00 -0.11630908722E+02  0.12522743431E+02  0.17096761938E+02  0.51100000000E-03 0.  1.
        -11    1    3    3    0    0  0.27514976251E+01 -0.16668305130E+02  0.94979870148E+01  0.19380786689E+02  0.51100000000E-03 0. -1.
         12    1    3    3    0    0  0.31963314378E+01 -0.50102252323E+01  0.76216036257E+01  0.96647676313E+01  0.00000000000E+00 0. -1.
</event>
<event>
 7    1  0.2297343E-008  0.4614232E+02  0.7816164E-02  0.1320468E+00
        -11   -1    0    0    0    0  0.00000000000E+00  0.00000000000E+00  0.45593999997E+02  0.45594000000E+02  0.51100000000E-03 0. -1.
         11   -1    0    0    0    0 -0.00000000000E+00 -0.00000000000E+00 -0.45593999997E+02  0.45594000000E+02  0.51100000000E-03 0.  1.
    9900012    2    1    2    0    0  0.13684986053E+02 -0.13461051855E+02 -0.40750886300E+02  0.46142317692E+02  0.99999993712E+01 0.  0.
         12    1    1    2    0    0 -0.13684986053E+02  0.13461051855E+02  0.40750886300E+02  0.45045682308E+02  0.00000000000E+00 0. -1.
         11    1    3    3    0    0  0.61910380286E+01 -0.28638906411E+01 -0.74586227594E+01  0.10107515778E+02  0.51100000000E-03 0. -1.
        -11    1    3    3    0    0  0.55827927259E+01 -0.54104848074E+01 -0.14580575375E+02  0.16523743492E+02  0.51100000000E-03 0.  1.
        -12    1    3    3    0    0  0.19111552988E+01 -0.51866764068E+01 -0.18711688166E+02  0.19511058422E+02  0.00000000000E+00 0.  1.
</event>
<event>
 7    1  0.2297343E-008  0.4614232E+02  0.7816164E-02  0.1320468E+00
        -11   -1    0    0    0    0  0.00000000000E+00  0.00000000000E+00  0.45593999997E+02  0.45594000000E+02  0.51100000000E-03 0.  1.
         11   -1    0    0    0    0 -0.00000000000E+00 -0.00000000000E+00 -0.45593999997E+02  0.45594000000E+02  0.51100000000E-03 0. -1.
    9900012    2    1    2    0    0 -0.31794676276E+02 -0.41139590210E+01  0.31643124599E+02  0.46142318378E+02  0.10000005630E+02 0.  0.
         12    1    1    2    0    0  0.31794676276E+02  0.41139590210E+01 -0.31643124599E+02  0.45045681622E+02  0.00000000000E+00 0. -1.
         11    1    3    3    0    0 -0.16633969727E+02 -0.43831506810E+01  0.14228897876E+02  0.22324033994E+02  0.51100000000E-03 0. -1.
        -11    1    3    3    0    0 -0.13734787822E+02  0.14091336910E+01  0.12686737056E+02  0.18750556036E+02  0.51100000000E-03 0.  1.
         12    1    3    3    0    0 -0.14259187275E+01 -0.11399420311E+01  0.47274896676E+01  0.50677283480E+01  0.00000000000E+00 0. -1.
</event>
<event>
 7    1  0.2297343E-008  0.4614232E+02  0.7816164E-02  0.1320468E+00
        -11   -1    0    0    0    0  0.00000000000E+00  0.00000000000E+00  0.45593999997E+02  0.45594000000E+02  0.51100000000E-03 0.  1.
         11   -1    0    0    0    0 -0.00000000000E+00 -0.00000000000E+00 -0.45593999997E+02  0.45594000000E+02  0.51100000000E-03 0. -1.
    9900012    2    1    2    0    0  0.19058848685E+02  0.68699617688E+00  0.40809334415E+02  0.46142318161E+02  0.10000003650E+02 0.  0.
         12    1    1    2    0    0 -0.19058848685E+02 -0.68699617688E+00 -0.40809334415E+02  0.45045681839E+02  0.00000000000E+00 0. -1.
         11    1    3    3    0    0  0.62965686138E+01  0.53668551313E+00  0.15716629845E+02  0.16939517750E+02  0.51100000000E-03 0. -1.
        -11    1    3    3    0    0  0.13582886705E+02  0.17730198843E+00  0.24892389350E+02  0.28357667306E+02  0.51100000000E-03 0.  1.
         12    1    3    3    0    0 -0.82060663381E+00 -0.26991324680E-01  0.20031521984E+00  0.84513310571E+00  0.00000000000E+00 0. -1.
</event>
<event>
 7    1  0.2297343E-008  0.4614232E+02  0.7816164E-02  0.1320468E+00
        -11   -1    0    0    0    0  0.00000000000E+00  0.00000000000E+00  0.45593999997E+02  0.45594000000E+02  0.51100000000E-03 0.  1.
         11   -1    0    0    0    0 -0.00000000000E+00 -0.00000000000E+00 -0.45593999997E+02  0.45594000000E+02  0.51100000000E-03 0. -1.
    9900012    2    1    2    0    0  0.23671175471E+02  0.31819000276E+02  0.21362119980E+02  0.46142317668E+02  0.99999991527E+01 0.  0.
         12    1    1    2    0    0 -0.23671175471E+02 -0.31819000276E+02 -0.21362119980E+02  0.45045682332E+02  0.00000000000E+00 0. -1.
         11    1    3    3    0    0  0.75631277275E+01  0.86858121308E+01  0.45459862165E+01  0.12381850602E+02  0.51100000000E-03 0. -1.
        -11    1    3    3    0    0  0.15122360083E+02  0.21007683383E+02  0.17587031739E+02  0.31293964614E+02  0.51100000000E-03 0.  1.
         12    1    3    3    0    0  0.98568766078E+00  0.21255047620E+01 -0.77089797612E+00  0.24665024523E+01  0.00000000000E+00 0. -1.
</event>
<event>
 7    1  0.2297343E-008  0.4614232E+02  0.7816164E-02  0.1320468E+00
        -11   -1    0    0    0    0  0.00000000000E+00  0.00000000000E+00  0.45593999997E+02  0.45594000000E+02  0.51100000000E-03 0.  1.
         11   -1    0    0    0    0 -0.00000000000E+00 -0.00000000000E+00 -0.45593999997E+02  0.45594000000E+02  0.51100000000E-03 0. -1.
    9900012    2    1    2    0    0 -0.20267034815E+02  0.38829779106E+02  0.10517085176E+02  0.46142317341E+02  0.99999961666E+01 0.  0.
         12    1    1    2    0    0  0.20267034815E+02 -0.38829779106E+02 -0.10517085176E+02  0.45045682659E+02  0.00000000000E+00 0. -1.
         11    1    3    3    0    0 -0.12512148901E+02  0.19429846916E+02  0.61991495838E+01  0.23927019813E+02  0.51100000000E-03 0. -1.
        -11    1    3    3    0    0 -0.70483624759E+01  0.16172010577E+02  0.12159705578E+01  0.17683097137E+02  0.51100000000E-03 0.  1.
         12    1    3    3    0    0 -0.70652343848E+00  0.32279216129E+01  0.31019650344E+01  0.45322003909E+01  0.00000000000E+00 0. -1.
</event>
<event>
 7    1  0.2297343E-008  0.4614232E+02  0.7816164E-02  0.1320468E+00
        -11   -1    0    0    0    0  0.00000000000E+00  0.00000000000E+00  0.45593999997E+02  0.45594000000E+02  0.51100000000E-03 0.  1.
         11   -1    0    0    0    0 -0.00000000000E+00 -0.00000000000E+00 -0.45593999997E+02  0.45594000000E+02  0.51100000000E-03 0. -1.
    9900012    2    1    2    0    0  0.15418806852E+02 -0.34807386197E+01  0.42181254977E+02  0.46142318548E+02  0.10000007175E+02 0.  0.
         12    1    1    2    0    0 -0.15418806852E+02  0.34807386197E+01 -0.42181254977E+02  0.45045681452E+02  0.00000000000E+00 0. -1.
         11    1    3    3    0    0  0.20227497568E+00 -0.80767584815E+00  0.18581529269E+01  0.20361699345E+01  0.51100000000E-03 0. -1.
        -11    1    3    3    0    0  0.49744197897E+00 -0.15172615397E+01  0.56269447794E+00  0.16929726634E+01  0.51100000000E-03 0.  1.
        -12    1    3    3    0    0  0.14719089897E+02 -0.11558012318E+01  0.39760407572E+02  0.42413175950E+02  0.00000000000E+00 0.  1.
</event>
<event>
 7    1  0.2297343E-008  0.4614232E+02  0.7816164E-02  0.1320468E+00
        -11   -1    0    0    0    0  0.00000000000E+00  0.00000000000E+00  0.45593999997E+02  0.45594000000E+02  0.51100000000E-03 0.  1.
         11   -1    0    0    0    0 -0.00000000000E+00 -0.00000000000E+00 -0.45593999997E+02  0.45594000000E+02  0.51100000000E-03 0. -1.
    9900012    2    1    2    0    0  0.33832038812E+02 -0.19202732960E+02  0.22710388829E+02  0.46142316921E+02  0.99999923397E+01 0.  0.
         12    1    1    2    0    0 -0.33832038812E+02  0.19202732960E+02 -0.22710388829E+02  0.45045683079E+02  0.00000000000E+00 0. -1.
         11    1    3    3    0    0  0.15491842465E+02 -0.42848355661E+01  0.86563820268E+01  0.18256230412E+02  0.51100000000E-03 0. -1.
        -11    1    3    3    0    0  0.12017369346E+02 -0.75047386754E+01  0.99534782782E+01  0.17315022342E+02  0.51100000000E-03 0.  1.
        -12    1    3    3    0    0  0.63228270000E+01 -0.74131587188E+01  0.41005285238E+01  0.10571064168E+02  0.00000000000E+00 0.  1.
</event>
<event>
 7    1  0.2297343E-008  0.4614232E+02  0.7816164E-02  0.1320468E+00
        -11   -1    0    0    0    0  0.00000000000E+00  0.00000000000E+00  0.45593999997E+02  0.45594000000E+02  0.51100000000E-03 0. -1.
         11   -1    0    0    0    0 -0.00000000000E+00 -0.00000000000E+00 -0.45593999997E+02  0.45594000000E+02  0.51100000000E-03 0.  1.
    9900012    2    1    2    0    0 -0.25933629403E+02  0.35173290405E+01 -0.36663179529E+02  0.46142317956E+02  0.10000001779E+02 0.  0.
         12    1    1    2    0    0  0.25933629403E+02 -0.35173290405E+01  0.36663179529E+02  0.45045682044E+02  0.00000000000E+00 0. -1.
         11    1    3    3    0    0 -0.60373204561E+00  0.10307617770E+01 -0.27176204134E+01  0.29685725857E+01  0.51100000000E-03 0. -1.
        -11    1    3    3    0    0 -0.56811935227E+01 -0.66422447509E+00 -0.13406108016E+02  0.14575352016E+02  0.51100000000E-03 0.  1.
         12    1    3    3    0    0 -0.19648703835E+02  0.31507917385E+01 -0.20539451100E+02  0.28598393354E+02  0.00000000000E+00 0. -1.
</event>
<event>
 7    1  0.2297343E-008  0.4614232E+02  0.7816164E-02  0.1320468E+00
        -11   -1    0    0    0    0  0.00000000000E+00  0.00000000000E+00  0.45593999997E+02  0.45594000000E+02  0.51100000000E-03 0.  1.
         11   -1    0    0    0    0 -0.00000000000E+00 -0.00000000000E+00 -0.45593999997E+02  0.45594000000E+02  0.51100000000E-03 0. -1.
    9900012    2    1    2    0    0  0.41605552050E+01 -0.33338688483E+02  0.30005584731E+02  0.46142317804E+02  0.10000000394E+02 0.  0.
         12    1    1    2    0    0 -0.41605552050E+01  0.33338688483E+02 -0.30005584731E+02  0.45045682196E+02  0.00000000000E+00 0. -1.
         11    1    3    3    0    0 -0.14652102828E+01 -0.10134427085E+02  0.11812358540E+02  0.15632826617E+02  0.51100000000E-03 0. -1.
        -11    1    3    3    0    0  0.20693987640E+01 -0.15431862370E+02  0.91203693819E+01  0.18044553898E+02  0.51100000000E-03 0.  1.
         12    1    3    3    0    0  0.35563667238E+01 -0.77723990287E+01  0.90728568093E+01  0.12464937289E+02  0.00000000000E+00 0. -1.
</event>
<event>
 7    1  0.2297343E-008  0.4614232E+02  0.7816164E-02  0.1320468E+00
        -11   -1    0    0    0    0  0.00000000000E+00  0.00000000000E+00  0.45593999997E+02  0.45594000000E+02  0.51100000000E-03 0.  1.
         11   -1    0    0    0    0 -0.00000000000E+00 -0.00000000000E+00 -0.45593999997E+02  0.45594000000E+02  0.51100000000E-03 0. -1.
    9900012    2    1    2    0    0 -0.80711481419E+01  0.11348780574E+02  0.42838945078E+02  0.46142317984E+02  0.10000002037E+02 0.  0.
         12    1    1    2    0    0  0.80711481419E+01 -0.11348780574E+02 -0.42838945078E+02  0.45045682016E+02  0.00000000000E+00 0. -1.
         11    1    3    3    0    0 -0.66674003515E+01  0.43650537776E+01  0.20707499289E+02  0.22188024901E+02  0.51100000000E-03 0. -1.
        -11    1    3    3    0    0 -0.87566845845E+00  0.61799688477E+01  0.22129160363E+02  0.22992575951E+02  0.51100000000E-03 0.  1.
         12    1    3    3    0    0 -0.52807933193E+00  0.80375794868E+00  0.22854258530E-02  0.96171713307E+00  0.00000000000E+00 0. -1.
</event>
<event>
 7    1  0.2297343E-008  0.4614232E+02  0.7816164E-02  0.1320468E+00
        -11   -1    0    0    0    0  0.00000000000E+00  0.00000000000E+00  0.45593999997E+02  0.45594000000E+02  0.51100000000E-03 0.  1.
         11   -1    0    0    0    0 -0.00000000000E+00 -0.00000000000E+00 -0.45593999997E+02  0.45594000000E+02  0.51100000000E-03 0. -1.
    9900012    2    1    2    0    0 -0.79066125783E+01  0.19620992176E+02  0.39769531423E+02  0.46142317787E+02  0.10000000238E+02 0.  0.
         12    1    1    2    0    0  0.79066125783E+01 -0.19620992176E+02 -0.39769531423E+02  0.45045682213E+02  0.00000000000E+00 0. -1.
         11    1    3    3    0    0 -0.43133563796E+01  0.62595729392E+01  0.13609361400E+02  0.15588521887E+02  0.51100000000E-03 0. -1.
        -11    1    3    3    0    0 -0.23970236074E+01  0.13808349678E+02  0.25543588270E+02  0.29135736561E+02  0.51100000000E-03 0.  1.
         12    1    3    3    0    0 -0.11962325913E+01 -0.44693044079E+00  0.61658175244E+00  0.14180593389E+01  0.00000000000E+00 0. -1.
</event>
<event>
 7    1  0.2297343E-008  0.4614232E+02  0.7816164E-02  0.1320468E+00
        -11   -1    0    0    0    0  0.00000000000E+00  0.00000000000E+00  0.45593999997E+02  0.45594000000E+02  0.51100000000E-03 0. -1.
         11   -1    0    0    0    0 -0.00000000000E+00 -0.00000000000E+00 -0.45593999997E+02  0.45594000000E+02  0.51100000000E-03 0.  1.
    9900012    2    1    2    0    0 -0.30672589684E+02 -0.11706296892E+02 -0.30842639014E+02  0.46142317341E+02  0.99999961709E+01 0.  0.
         12    1    1    2    0    0  0.30672589684E+02  0.11706296892E+02  0.30842639014E+02  0.45045682659E+02  0.00000000000E+00 0. -1.
         11    1    3    3    0    0 -0.43527503731E+01 -0.36381564711E+01 -0.47747931475E+01  0.74149354806E+01  0.51100000000E-03 0. -1.
        -11    1    3    3    0    0 -0.12865667583E+02 -0.27201748562E+01 -0.17548077125E+02  0.21928514876E+02  0.51100000000E-03 0.  1.
         12    1    3    3    0    0 -0.13454171728E+02 -0.53479655647E+01 -0.85197687413E+01  0.16798866985E+02  0.00000000000E+00 0. -1.
</event>
<event>
 7    1  0.2297343E-008  0.4614232E+02  0.7816164E-02  0.1320468E+00
        -11   -1    0    0    0    0  0.00000000000E+00  0.00000000000E+00  0.45593999997E+02  0.45594000000E+02  0.51100000000E-03 0.  1.
         11   -1    0    0    0    0 -0.00000000000E+00 -0.00000000000E+00 -0.45593999997E+02  0.45594000000E+02  0.51100000000E-03 0. -1.
    9900012    2    1    2    0    0  0.16745393998E+02  0.83312831517E+00  0.41809223754E+02  0.46142317478E+02  0.99999974222E+01 0.  0.
         12    1    1    2    0    0 -0.16745393998E+02 -0.83312831517E+00 -0.41809223754E+02  0.45045682522E+02  0.00000000000E+00 0. -1.
         11    1    3    3    0    0  0.12479088835E+00  0.16639865896E+01  0.16703667790E+01  0.23610484056E+01  0.51100000000E-03 0. -1.
        -11    1    3    3    0    0  0.47173598603E+01 -0.65355984198E+00  0.62190446367E+01  0.78330799162E+01  0.51100000000E-03 0.  1.
        -12    1    3    3    0    0  0.11903243249E+02 -0.17729843244E+00  0.33919812338E+02  0.35948189157E+02  0.00000000000E+00 0.  1.
</event>
<event>
 7    1  0.2297343E-008  0.4614232E+02  0.7816164E-02  0.1320468E+00
        -11   -1    0    0    0    0  0.00000000000E+00  0.00000000000E+00  0.45593999997E+02  0.45594000000E+02  0.51100000000E-03 0.  1.
         11   -1    0    0    0    0 -0.00000000000E+00 -0.00000000000E+00 -0.45593999997E+02  0.45594000000E+02  0.51100000000E-03 0. -1.
    9900012    2    1    2    0    0 -0.17352996714E+02 -0.52556750173E+01  0.41235480854E+02  0.46142317675E+02  0.99999992152E+01 0.  0.
         12    1    1    2    0    0  0.17352996714E+02  0.52556750173E+01 -0.41235480854E+02  0.45045682325E+02  0.00000000000E+00 0. -1.
         11    1    3    3    0    0 -0.17867756604E+01  0.58235891421E+00  0.48123893434E+00  0.19399227662E+01  0.51100000000E-03 0. -1.
        -11    1    3    3    0    0 -0.82346404125E+01 -0.51782119143E+01  0.21962294577E+02  0.24020107508E+02  0.51100000000E-03 0.  1.
         12    1    3    3    0    0 -0.73315806413E+01 -0.65982201726E+00  0.18791947342E+02  0.20182287400E+02  0.00000000000E+00 0. -1.
</event>
<event>
 7    1  0.2297343E-008  0.4614232E+02  0.7816164E-02  0.1320468E+00
        -11   -1    0    0    0    0  0.00000000000E+00  0.00000000000E+00  0.45593999997E+02  0.45594000000E+02  0.51100000000E-03 0.  1.
         11   -1    0    0    0    0 -0.00000000000E+00 -0.00000000000E+00 -0.45593999997E+02  0.45594000000E+02  0.51100000000E-03 0. -1.
    9900012    2    1    2    0    0 -0.12443269971E+02 -0.36288057492E+01  0.43140587880E+02  0.46142317395E+02  0.99999966575E+01 0.  0.
         12    1    1    2    0    0  0.12443269971E+02  0.36288057492E+01 -0.43140587880E+02  0.45045682605E+02  0.00000000000E+00 0. -1.
         11    1    3    3    0    0 -0.58856119299E+01 -0.63270920211E+01  0.19337785567E+02  0.21180709906E+02  0.51100000000E-03 0. -1.
        -11    1    3    3    0    0 -0.50533366411E+01  0.85091166233E+00  0.16846203787E+02  0.17608374262E+02  0.51100000000E-03 0.  1.
         12    1    3    3    0    0 -0.15043213999E+01  0.18473746095E+01  0.69565985265E+01  0.73532332264E+01  0.00000000000E+00 0. -1.
</event>
<event>
 7    1  0.2297343E-008  0.4614232E+02  0.7816164E-02  0.1320468E+00
        -11   -1    0    0    0    0  0.00000000000E+00  0.00000000000E+00  0.45593999997E+02  0.45594000000E+02  0.51100000000E-03 0.  1.
         11   -1    0    0    0    0 -0.00000000000E+00 -0.00000000000E+00 -0.45593999997E+02  0.45594000000E+02  0.51100000000E-03 0. -1.
    9900012    2    1    2    0    0  0.39388012280E+02 -0.17456442691E+02  0.13151825478E+02  0.46142318562E+02  0.10000007302E+02 0.  0.
         12    1    1    2    0    0 -0.39388012280E+02  0.17456442691E+02 -0.13151825478E+02  0.45045681438E+02  0.00000000000E+00 0. -1.
         11    1    3    3    0    0  0.75604832567E+01 -0.47303791786E+00  0.49440395688E+01  0.90458940667E+01  0.51100000000E-03 0. -1.
        -11    1    3    3    0    0  0.27181413918E+02 -0.13595257472E+02  0.74932491359E+01  0.31301902038E+02  0.51100000000E-03 0.  1.
         12    1    3    3    0    0  0.46461151051E+01 -0.33881473013E+01  0.71453677372E+00  0.57945224572E+01  0.00000000000E+00 0. -1.
</event>
<event>
 7    1  0.2297343E-008  0.4614232E+02  0.7816164E-02  0.1320468E+00
        -11   -1    0    0    0    0  0.00000000000E+00  0.00000000000E+00  0.45593999997E+02  0.45594000000E+02  0.51100000000E-03 0.  1.
         11   -1    0    0    0    0 -0.00000000000E+00 -0.00000000000E+00 -0.45593999997E+02  0.45594000000E+02  0.51100000000E-03 0. -1.
    9900012    2    1    2    0    0  0.43940090085E+02  0.99183484013E+01 -0.91127511712E-01  0.46142318121E+02  0.10000003284E+02 0.  0.
         12    1    1    2    0    0 -0.43940090085E+02 -0.99183484013E+01  0.91127511712E-01  0.45045681879E+02  0.00000000000E+00 0. -1.
         11    1    3    3    0    0  0.12633720767E+02  0.36964227613E+01  0.27303634498E+01  0.13443560781E+02  0.51100000000E-03 0. -1.
        -11    1    3    3    0    0  0.75825667592E+01  0.38312151948E+01  0.98669237200E+00  0.85526072413E+01  0.51100000000E-03 0.  1.
        -12    1    3    3    0    0  0.23723802559E+02  0.23907104453E+01 -0.38081833336E+01  0.24146150099E+02  0.00000000000E+00 0.  1.
</event>
<event>
 7    1  0.2297343E-008  0.4614232E+02  0.7816164E-02  0.1320468E+00
        -11   -1    0    0    0    0  0.00000000000E+00  0.00000000000E+00  0.45593999997E+02  0.45594000000E+02  0.51100000000E-03 0. -1.
         11   -1    0    0    0    0 -0.00000000000E+00 -0.00000000000E+00 -0.45593999997E+02  0.45594000000E+02  0.51100000000E-03 0.  1.
    9900012    2    1    2    0    0 -0.20254255700E+02  0.37465567444E+02 -0.14670020420E+02  0.46142321883E+02  0.10000037586E+02 0.  0.
         12    1    1    2    0    0  0.20254255700E+02 -0.37465567444E+02  0.14670020420E+02  0.45045678117E+02  0.00000000000E+00 0. -1.
         11    1    3    3    0    0 -0.64529985433E+01  0.11502310995E+02 -0.20564131695E+01  0.13348152824E+02  0.51100000000E-03 0. -1.
        -11    1    3    3    0    0 -0.13471773424E+02  0.20820660660E+02 -0.85497412507E+01  0.26231406085E+02  0.51100000000E-03 0.  1.
         12    1    3    3    0    0 -0.32948373339E+00  0.51425957891E+01 -0.40638659999E+01  0.65627629734E+01  0.00000000000E+00 0. -1.
</event>
<event>
 7    1  0.2297343E-008  0.4614232E+02  0.7816164E-02  0.1320468E+00
        -11   -1    0    0    0    0  0.00000000000E+00  0.00000000000E+00  0.45593999997E+02  0.45594000000E+02  0.51100000000E-03 0.  1.
         11   -1    0    0    0    0 -0.00000000000E+00 -0.00000000000E+00 -0.45593999997E+02  0.45594000000E+02  0.51100000000E-03 0. -1.
    9900012    2    1    2    0    0 -0.22924634102E+02 -0.89596288381E+00  0.38765602267E+02  0.46142317440E+02  0.99999970700E+01 0.  0.
         12    1    1    2    0    0  0.22924634102E+02  0.89596288381E+00 -0.38765602267E+02  0.45045682560E+02  0.00000000000E+00 0. -1.
         11    1    3    3    0    0 -0.10175968944E+02  0.15048741706E+01  0.14801075196E+02  0.18024616985E+02  0.51100000000E-03 0. -1.
        -11    1    3    3    0    0 -0.54014916460E+01  0.23861229772E+01  0.87271794252E+01  0.10537236632E+02  0.51100000000E-03 0.  1.
         12    1    3    3    0    0 -0.73471735122E+01 -0.47869600316E+01  0.15237347645E+02  0.17580463823E+02  0.00000000000E+00 0. -1.
</event>
<event>
 7    1  0.2297343E-008  0.4614232E+02  0.7816164E-02  0.1320468E+00
        -11   -1    0    0    0    0  0.00000000000E+00  0.00000000000E+00  0.45593999997E+02  0.45594000000E+02  0.51100000000E-03 0.  1.
         11   -1    0    0    0    0 -0.00000000000E+00 -0.00000000000E+00 -0.45593999997E+02  0.45594000000E+02  0.51100000000E-03 0. -1.
    9900012    2    1    2    0    0  0.44028049894E+01  0.44776508314E+02  0.21893232309E+01  0.46142317357E+02  0.99999963117E+01 0.  0.
         12    1    1    2    0    0 -0.44028049894E+01 -0.44776508314E+02 -0.21893232309E+01  0.45045682643E+02  0.00000000000E+00 0. -1.
         11    1    3    3    0    0 -0.13012082043E+01  0.13638993585E+02  0.42206468309E+00  0.13707422356E+02  0.51100000000E-03 0. -1.
        -11    1    3    3    0    0  0.54265809866E+00  0.81351408189E+01  0.33340340221E+01  0.88085627135E+01  0.51100000000E-03 0.  1.
        -12    1    3    3    0    0  0.51613550951E+01  0.23002373911E+02 -0.15667754742E+01  0.23626332287E+02  0.00000000000E+00 0.  1.
</event>
<event>
 7    1  0.2297343E-008  0.4614232E+02  0.7816164E-02  0.1320468E+00
        -11   -1    0    0    0    0  0.00000000000E+00  0.00000000000E+00  0.45593999997E+02  0.45594000000E+02  0.51100000000E-03 0. -1.
         11   -1    0    0    0    0 -0.00000000000E+00 -0.00000000000E+00 -0.45593999997E+02  0.45594000000E+02  0.51100000000E-03 0.  1.
    9900012    2    1    2    0    0  0.31581466608E+02 -0.92127440850E+01 -0.30770924467E+02  0.46142317862E+02  0.10000000922E+02 0.  0.
         12    1    1    2    0    0 -0.31581466608E+02  0.92127440850E+01  0.30770924467E+02  0.45045682138E+02  0.00000000000E+00 0. -1.
         11    1    3    3    0    0  0.11939659146E+02 -0.63744134397E+01 -0.89181990300E+01  0.16208728557E+02  0.51100000000E-03 0. -1.
        -11    1    3    3    0    0  0.14771272650E+02 -0.41416163018E+01 -0.15308908993E+02  0.21672705787E+02  0.51100000000E-03 0.  1.
         12    1    3    3    0    0  0.48705348113E+01  0.13032856564E+01 -0.65438164445E+01  0.82608835187E+01  0.00000000000E+00 0. -1.
</event>
<event>
 7    1  0.2297343E-008  0.4614232E+02  0.7816164E-02  0.1320468E+00
        -11   -1    0    0    0    0  0.00000000000E+00  0.00000000000E+00  0.45593999997E+02  0.45594000000E+02  0.51100000000E-03 0.  1.
         11   -1    0    0    0    0 -0.00000000000E+00 -0.00000000000E+00 -0.45593999997E+02  0.45594000000E+02  0.51100000000E-03 0. -1.
    9900012    2    1    2    0    0 -0.73578522849E+01  0.84191190717E+01  0.43635923867E+02  0.46142318654E+02  0.10000008143E+02 0.  0.
         12    1    1    2    0    0  0.73578522849E+01 -0.84191190717E+01 -0.43635923867E+02  0.45045681346E+02  0.00000000000E+00 0. -1.
         11    1    3    3    0    0 -0.48395044883E+00 -0.84147879413E-01  0.86193192120E+01  0.86333048621E+01  0.51100000000E-03 0.  1.
        -11    1    3    3    0    0 -0.16145507335E+01  0.33623874939E+01  0.23837913248E+02  0.24127961622E+02  0.51100000000E-03 0. -1.
        -12    1    3    3    0    0 -0.52593511026E+01  0.51408794572E+01  0.11178691407E+02  0.13381052170E+02  0.00000000000E+00 0.  1.
</event>
<event>
 7    1  0.2297343E-008  0.4614232E+02  0.7816164E-02  0.1320468E+00
        -11   -1    0    0    0    0  0.00000000000E+00  0.00000000000E+00  0.45593999997E+02  0.45594000000E+02  0.51100000000E-03 0.  1.
         11   -1    0    0    0    0 -0.00000000000E+00 -0.00000000000E+00 -0.45593999997E+02  0.45594000000E+02  0.51100000000E-03 0. -1.
    9900012    2    1    2    0    0 -0.19428839000E+02 -0.13535073092E+02  0.38320170637E+02  0.46142318008E+02  0.10000002249E+02 0.  0.
         12    1    1    2    0    0  0.19428839000E+02  0.13535073092E+02 -0.38320170637E+02  0.45045681992E+02  0.00000000000E+00 0. -1.
         11    1    3    3    0    0 -0.14266568400E+01 -0.38990348216E-01  0.25823552917E+01  0.29504964158E+01  0.51100000000E-03 0. -1.
        -11    1    3    3    0    0 -0.17859847667E+02 -0.14638603410E+02  0.34313367957E+02  0.41360247694E+02  0.51100000000E-03 0.  1.
         12    1    3    3    0    0 -0.14233449309E+00  0.11425206665E+01  0.14244473887E+01  0.18315738982E+01  0.00000000000E+00 0. -1.
</event>
<event>
 7    1  0.2297343E-008  0.4614232E+02  0.7816164E-02  0.1320468E+00
        -11   -1    0    0    0    0  0.00000000000E+00  0.00000000000E+00  0.45593999997E+02  0.45594000000E+02  0.51100000000E-03 0.  1.
         11   -1    0    0    0    0 -0.00000000000E+00 -0.00000000000E+00 -0.45593999997E+02  0.45594000000E+02  0.51100000000E-03 0. -1.
    9900012    2    1    2    0    0  0.63909366550E+01  0.68032716483E+01  0.44067958003E+02  0.46142317644E+02  0.99999989277E+01 0.  0.
         12    1    1    2    0    0 -0.63909366550E+01 -0.68032716483E+01 -0.44067958003E+02  0.45045682356E+02  0.00000000000E+00 0. -1.
         11    1    3    3    0    0  0.31559614898E+01  0.54357065450E+01  0.15363664213E+02  0.16599673999E+02  0.51100000000E-03 0. -1.
        -11    1    3    3    0    0  0.95220572933E+00 -0.18130321570E+01  0.18501711512E+02  0.18614701461E+02  0.51100000000E-03 0.  1.
        -12    1    3    3    0    0  0.22827694359E+01  0.31805972602E+01  0.10202582278E+02  0.10927942184E+02  0.00000000000E+00 0.  1.
</event>
<event>
 7    1  0.2297343E-008  0.4614232E+02  0.7816164E-02  0.1320468E+00
        -11   -1    0    0    0    0  0.00000000000E+00  0.00000000000E+00  0.45593999997E+02  0.45594000000E+02  0.51100000000E-03 0.  1.
         11   -1    0    0    0    0 -0.00000000000E+00 -0.00000000000E+00 -0.45593999997E+02  0.45594000000E+02  0.51100000000E-03 0. -1.
    9900012    2    1    2    0    0  0.11350093096E+02 -0.20611139716E+02  0.38411843194E+02  0.46142318840E+02  0.10000009836E+02 0.  0.
         12    1    1    2    0    0 -0.11350093096E+02  0.20611139716E+02 -0.38411843194E+02  0.45045681160E+02  0.00000000000E+00 0. -1.
         11    1    3    3    0    0 -0.58401188161E+00 -0.67510405794E+00  0.69601139674E+00  0.11319308691E+01  0.51100000000E-03 0. -1.
        -11    1    3    3    0    0  0.64634678305E+01 -0.57853527304E+01  0.88024936420E+01  0.12358422925E+02  0.51100000000E-03 0.  1.
        -12    1    3    3    0    0  0.54706371469E+01 -0.14150682927E+02  0.28913338155E+02  0.32651965046E+02  0.00000000000E+00 0.  1.
</event>
<event>
 7    1  0.2297343E-008  0.4614232E+02  0.7816164E-02  0.1320468E+00
        -11   -1    0    0    0    0  0.00000000000E+00  0.00000000000E+00  0.45593999997E+02  0.45594000000E+02  0.51100000000E-03 0. -1.
         11   -1    0    0    0    0 -0.00000000000E+00 -0.00000000000E+00 -0.45593999997E+02  0.45594000000E+02  0.51100000000E-03 0.  1.
    9900012    2    1    2    0    0 -0.26574181745E+02  0.34657204839E+02 -0.11036509105E+02  0.46142317456E+02  0.99999972141E+01 0.  0.
         12    1    1    2    0    0  0.26574181745E+02 -0.34657204839E+02  0.11036509105E+02  0.45045682544E+02  0.00000000000E+00 0. -1.
         11    1    3    3    0    0 -0.51496173023E+01  0.10997274108E+02 -0.43504216333E+01  0.12899021855E+02  0.51100000000E-03 0. -1.
        -11    1    3    3    0    0 -0.13399472095E+02  0.18288183481E+02 -0.64979276266E+01  0.23584456134E+02  0.51100000000E-03 0.  1.
         12    1    3    3    0    0 -0.80250923479E+01  0.53717472507E+01 -0.18815984507E+00  0.96588394667E+01  0.00000000000E+00 0. -1.
</event>
<event>
 7    1  0.2297343E-008  0.4614232E+02  0.7816164E-02  0.1320468E+00
        -11   -1    0    0    0    0  0.00000000000E+00  0.00000000000E+00  0.45593999997E+02  0.45594000000E+02  0.51100000000E-03 0.  1.
         11   -1    0    0    0    0 -0.00000000000E+00 -0.00000000000E+00 -0.45593999997E+02  0.45594000000E+02  0.51100000000E-03 0. -1.
    9900012    2    1    2    0    0  0.33563286835E+01  0.44568735479E+02  0.56103793862E+01  0.46142317840E+02  0.10000000720E+02 0.  0.
         12    1    1    2    0    0 -0.33563286835E+01 -0.44568735479E+02 -0.56103793862E+01  0.45045682160E+02  0.00000000000E+00 0. -1.
         11    1    3    3    0    0 -0.51146286763E+00  0.22882207227E+01  0.11762957410E+01  0.26232080116E+01  0.51100000000E-03 0. -1.
        -11    1    3    3    0    0 -0.25048145030E+01  0.17711331663E+02  0.25300760024E+01  0.18065620660E+02  0.51100000000E-03 0.  1.
        -12    1    3    3    0    0  0.63726060541E+01  0.24569183093E+02  0.19040076429E+01  0.25453489169E+02  0.00000000000E+00 0.  1.
</event>
<event>
 7    1  0.2297343E-008  0.4614232E+02  0.7816164E-02  0.1320468E+00
        -11   -1    0    0    0    0  0.00000000000E+00  0.00000000000E+00  0.45593999997E+02  0.45594000000E+02  0.51100000000E-03 0.  1.
         11   -1    0    0    0    0 -0.00000000000E+00 -0.00000000000E+00 -0.45593999997E+02  0.45594000000E+02  0.51100000000E-03 0. -1.
    9900012    2    1    2    0    0 -0.12285759660E+02  0.50305857320E+01  0.43044939838E+02  0.46142317312E+02  0.99999959010E+01 0.  0.
         12    1    1    2    0    0  0.12285759660E+02 -0.50305857320E+01 -0.43044939838E+02  0.45045682688E+02  0.00000000000E+00 0. -1.
         11    1    3    3    0    0 -0.52064160496E+01 -0.48112172496E+00  0.80046921810E+01  0.95610325472E+01  0.51100000000E-03 0. -1.
        -11    1    3    3    0    0 -0.78365364254E+01  0.42305736013E+01  0.27871154194E+02  0.29259362476E+02  0.51100000000E-03 0.  1.
         12    1    3    3    0    0  0.75719281543E+00  0.12811338556E+01  0.71690934625E+01  0.73219222879E+01  0.00000000000E+00 0. -1.
</event>
<event>
 7    1  0.2297343E-008  0.4614232E+02  0.7816164E-02  0.1320468E+00
        -11   -1    0    0    0    0  0.00000000000E+00  0.00000000000E+00  0.45593999997E+02  0.45594000000E+02  0.51100000000E-03 0.  1.
         11   -1    0    0    0    0 -0.00000000000E+00 -0.00000000000E+00 -0.45593999997E+02  0.45594000000E+02  0.51100000000E-03 0. -1.
    9900012    2    1    2    0    0 -0.18875404873E+01  0.40689410223E+02  0.19233372042E+02  0.46142317482E+02  0.99999974574E+01 0.  0.
         12    1    1    2    0    0  0.18875404873E+01 -0.40689410223E+02 -0.19233372042E+02  0.45045682518E+02  0.00000000000E+00 0. -1.
         11    1    3    3    0    0 -0.47762085859E+01  0.23014368054E+02  0.11215589985E+02  0.26043478346E+02  0.51100000000E-03 0. -1.
        -11    1    3    3    0    0  0.34887637881E+01  0.17301237145E+02  0.80332255783E+01  0.19391673290E+02  0.51100000000E-03 0.  1.
         12    1    3    3    0    0 -0.60009568952E+00  0.37380502308E+00 -0.15443520662E-01  0.70716584631E+00  0.00000000000E+00 0. -1.
</event>
<event>
 7    1  0.2297343E-008  0.4614232E+02  0.7816164E-02  0.1320468E+00
        -11   -1    0    0    0    0  0.00000000000E+00  0.00000000000E+00  0.45593999997E+02  0.45594000000E+02  0.51100000000E-03 0.  1.
         11   -1    0    0    0    0 -0.00000000000E+00 -0.00000000000E+00 -0.45593999997E+02  0.45594000000E+02  0.51100000000E-03 0. -1.
    9900012    2    1    2    0    0  0.18675388967E+02 -0.40961487240E+02 -0.15810956983E+01  0.46142318147E+02  0.10000003515E+02 0.  0.
         12    1    1    2    0    0 -0.18675388967E+02  0.40961487240E+02  0.15810956983E+01  0.45045681853E+02  0.00000000000E+00 0. -1.
         11    1    3    3    0    0  0.44575658069E+01 -0.11708407130E+02  0.18593547014E+01  0.12665460537E+02  0.51100000000E-03 0. -1.
        -11    1    3    3    0    0  0.51036192353E+01 -0.13428841108E+02  0.18005413320E+01  0.14478351155E+02  0.51100000000E-03 0.  1.
         12    1    3    3    0    0  0.91142039253E+01 -0.15824239002E+02 -0.52409917318E+01  0.18998506455E+02  0.00000000000E+00 0. -1.
</event>
<event>
 7    1  0.2297343E-008  0.4614232E+02  0.7816164E-02  0.1320468E+00
        -11   -1    0    0    0    0  0.00000000000E+00  0.00000000000E+00  0.45593999997E+02  0.45594000000E+02  0.51100000000E-03 0. -1.
         11   -1    0    0    0    0 -0.00000000000E+00 -0.00000000000E+00 -0.45593999997E+02  0.45594000000E+02  0.51100000000E-03 0.  1.
    9900012    2    1    2    0    0  0.44494297588E+02 -0.69192812122E+01 -0.12225140108E+01  0.46142317512E+02  0.99999977258E+01 0.  0.
         12    1    1    2    0    0 -0.44494297588E+02  0.69192812122E+01  0.12225140108E+01  0.45045682488E+02  0.00000000000E+00 0. -1.
         11    1    3    3    0    0  0.15355745492E+01  0.83092132419E+00 -0.11952303488E+01  0.21158911341E+01  0.51100000000E-03 0. -1.
        -11    1    3    3    0    0  0.14485104731E+01 -0.71799269845E+00 -0.10226822641E+01  0.19130016675E+01  0.51100000000E-03 0.  1.
        -12    1    3    3    0    0  0.41510212565E+02 -0.70322098380E+01  0.99539860208E+00  0.42113424710E+02  0.00000000000E+00 0.  1.
</event>
<event>
 7    1  0.2297343E-008  0.4614232E+02  0.7816164E-02  0.1320468E+00
        -11   -1    0    0    0    0  0.00000000000E+00  0.00000000000E+00  0.45593999997E+02  0.45594000000E+02  0.51100000000E-03 0.  1.
         11   -1    0    0    0    0 -0.00000000000E+00 -0.00000000000E+00 -0.45593999997E+02  0.45594000000E+02  0.51100000000E-03 0. -1.
    9900012    2    1    2    0    0  0.44711295751E+02 -0.54097816292E+01 -0.86473734388E+00  0.46142317902E+02  0.10000001285E+02 0.  0.
         12    1    1    2    0    0 -0.44711295751E+02  0.54097816292E+01  0.86473734388E+00  0.45045682098E+02  0.00000000000E+00 0. -1.
         11    1    3    3    0    0  0.41284216924E+01  0.55390499836E+00  0.20619827233E+01  0.46478435247E+01  0.51100000000E-03 0. -1.
        -11    1    3    3    0    0  0.34843676263E+02 -0.68235945364E+01 -0.16004496702E+01  0.35541590529E+02  0.51100000000E-03 0.  1.
        -12    1    3    3    0    0  0.57391977952E+01  0.85990790883E+00 -0.13262703970E+01  0.59528838482E+01  0.00000000000E+00 0.  1.
</event>
<event>
 7    1  0.2297343E-008  0.4614232E+02  0.7816164E-02  0.1320468E+00
        -11   -1    0    0    0    0  0.00000000000E+00  0.00000000000E+00  0.45593999997E+02  0.45594000000E+02  0.51100000000E-03 0.  1.
         11   -1    0    0    0    0 -0.00000000000E+00 -0.00000000000E+00 -0.45593999997E+02  0.45594000000E+02  0.51100000000E-03 0. -1.
    9900012    2    1    2    0    0  0.97992895621E+01 -0.26284788900E+02  0.35244818638E+02  0.46142318250E+02  0.10000004460E+02 0.  0.
         12    1    1    2    0    0 -0.97992895621E+01  0.26284788900E+02 -0.35244818638E+02  0.45045681750E+02  0.00000000000E+00 0. -1.
         11    1    3    3    0    0  0.88192453747E+00 -0.58941711050E+00  0.35496763127E+01  0.37047814519E+01  0.51100000000E-03 0. -1.
        -11    1    3    3    0    0  0.82044299174E+01 -0.17897499850E+02  0.26606552986E+02  0.33098970274E+02  0.51100000000E-03 0.  1.
         12    1    3    3    0    0  0.71293510730E+00 -0.77978719401E+01  0.50885893393E+01  0.93385665241E+01  0.00000000000E+00 0. -1.
</event>
<event>
 7    1  0.2297343E-008  0.4614232E+02  0.7816164E-02  0.1320468E+00
        -11   -1    0    0    0    0  0.00000000000E+00  0.00000000000E+00  0.45593999997E+02  0.45594000000E+02  0.51100000000E-03 0. -1.
         11   -1    0    0    0    0 -0.00000000000E+00 -0.00000000000E+00 -0.45593999997E+02  0.45594000000E+02  0.51100000000E-03 0.  1.
    9900012    2    1    2    0    0  0.25631560076E+02 -0.35391035352E+02 -0.10936687977E+02  0.46142318752E+02  0.10000009033E+02 0.  0.
         12    1    1    2    0    0 -0.25631560076E+02  0.35391035352E+02  0.10936687977E+02  0.45045681248E+02  0.00000000000E+00 0. -1.
         11    1    3    3    0    0  0.64873745527E+01 -0.66172204783E+01 -0.26492235285E+00  0.92705889543E+01  0.51100000000E-03 0. -1.
        -11    1    3    3    0    0  0.17048941024E+02 -0.22236271194E+02 -0.62583307223E+01  0.28710361376E+02  0.51100000000E-03 0.  1.
        -12    1    3    3    0    0  0.20952444995E+01 -0.65375436793E+01 -0.44134349023E+01  0.81613684213E+01  0.00000000000E+00 0.  1.
</event>
<event>
 7    1  0.2297343E-008  0.4614232E+02  0.7816164E-02  0.1320468E+00
        -11   -1    0    0    0    0  0.00000000000E+00  0.00000000000E+00  0.45593999997E+02  0.45594000000E+02  0.51100000000E-03 0.  1.
         11   -1    0    0    0    0 -0.00000000000E+00 -0.00000000000E+00 -0.45593999997E+02  0.45594000000E+02  0.51100000000E-03 0. -1.
    9900012    2    1    2    0    0  0.22357097282E+02  0.32650233751E+02  0.21522919859E+02  0.46142316054E+02  0.99999844331E+01 0.  0.
         12    1    1    2    0    0 -0.22357097282E+02 -0.32650233751E+02 -0.21522919859E+02  0.45045683946E+02  0.00000000000E+00 0. -1.
         11    1    3    3    0    0  0.18419535002E+00  0.25682526334E+01  0.38888821980E+01  0.46640384354E+01  0.51100000000E-03 0. -1.
        -11    1    3    3    0    0  0.27853152781E+01  0.60873762750E+01  0.30639039373E+01  0.73621762211E+01  0.51100000000E-03 0.  1.
        -12    1    3    3    0    0  0.19387586654E+02  0.23994604843E+02  0.14570133724E+02  0.34116101398E+02  0.00000000000E+00 0.  1.
</event>
<event>
 7    1  0.2297343E-008  0.4614232E+02  0.7816164E-02  0.1320468E+00
        -11   -1    0    0    0    0  0.00000000000E+00  0.00000000000E+00  0.45593999997E+02  0.45594000000E+02  0.51100000000E-03 0. -1.
         11   -1    0    0    0    0 -0.00000000000E+00 -0.00000000000E+00 -0.45593999997E+02  0.45594000000E+02  0.51100000000E-03 0.  1.
    9900012    2    1    2    0    0 -0.42267014430E+02  0.11184781302E+02 -0.10840371309E+02  0.46142317724E+02  0.99999996637E+01 0.  0.
         12    1    1    2    0    0  0.42267014430E+02 -0.11184781302E+02  0.10840371309E+02  0.45045682276E+02  0.00000000000E+00 0. -1.
         11    1    3    3    0    0 -0.19024434554E-01  0.39826377871E+00  0.51499766717E+00  0.65130547737E+00  0.51100000000E-03 0. -1.
        -11    1    3    3    0    0 -0.19888849200E+02  0.51785540414E+01 -0.85867231869E+01  0.22273651694E+02  0.51100000000E-03 0.  1.
        -12    1    3    3    0    0 -0.22359140796E+02  0.56079634814E+01 -0.27686457897E+01  0.23217360553E+02  0.00000000000E+00 0.  1.
</event>
<event>
 7    1  0.2297343E-008  0.4614232E+02  0.7816164E-02  0.1320468E+00
        -11   -1    0    0    0    0  0.00000000000E+00  0.00000000000E+00  0.45593999997E+02  0.45594000000E+02  0.51100000000E-03 0.  1.
         11   -1    0    0    0    0 -0.00000000000E+00 -0.00000000000E+00 -0.45593999997E+02  0.45594000000E+02  0.51100000000E-03 0. -1.
    9900012    2    1    2    0    0  0.32209222409E+02 -0.27971067407E+02  0.14467164878E+02  0.46142317858E+02  0.10000000881E+02 0.  0.
         12    1    1    2    0    0 -0.32209222409E+02  0.27971067407E+02 -0.14467164878E+02  0.45045682142E+02  0.00000000000E+00 0. -1.
         11    1    3    3    0    0  0.19340012474E+02 -0.14386875945E+02  0.39539474875E+01  0.24426460712E+02  0.51100000000E-03 0. -1.
        -11    1    3    3    0    0  0.81442054523E+01 -0.10766878020E+02  0.74547852814E+01  0.15421659074E+02  0.51100000000E-03 0.  1.
         12    1    3    3    0    0  0.47250044826E+01 -0.28173134419E+01  0.30584321088E+01  0.62941980708E+01  0.00000000000E+00 0. -1.
</event>
<event>
 7    1  0.2297343E-008  0.4614232E+02  0.7816164E-02  0.1320468E+00
        -11   -1    0    0    0    0  0.00000000000E+00  0.00000000000E+00  0.45593999997E+02  0.45594000000E+02  0.51100000000E-03 0.  1.
         11   -1    0    0    0    0 -0.00000000000E+00 -0.00000000000E+00 -0.45593999997E+02  0.45594000000E+02  0.51100000000E-03 0. -1.
    9900012    2    1    2    0    0  0.31763085015E+02 -0.30294344737E+02  0.10122874794E+02  0.46142317778E+02  0.10000000156E+02 0.  0.
         12    1    1    2    0    0 -0.31763085015E+02  0.30294344737E+02 -0.10122874794E+02  0.45045682222E+02  0.00000000000E+00 0. -1.
         11    1    3    3    0    0  0.81975778040E+01 -0.28491316926E+01  0.97522989063E+00  0.87332071345E+01  0.51100000000E-03 0.  1.
        -11    1    3    3    0    0  0.81203058995E+01 -0.91813913566E+01  0.44033049057E+01  0.13024070389E+02  0.51100000000E-03 0. -1.
        -12    1    3    3    0    0  0.15445201312E+02 -0.18263821688E+02  0.47443399973E+01  0.24385040255E+02  0.00000000000E+00 0.  1.
</event>
<event>
 7    1  0.2297343E-008  0.4614232E+02  0.7816164E-02  0.1320468E+00
        -11   -1    0    0    0    0  0.00000000000E+00  0.00000000000E+00  0.45593999997E+02  0.45594000000E+02  0.51100000000E-03 0.  1.
         11   -1    0    0    0    0 -0.00000000000E+00 -0.00000000000E+00 -0.45593999997E+02  0.45594000000E+02  0.51100000000E-03 0. -1.
    9900012    2    1    2    0    0  0.29873364655E+02 -0.30415851117E+02  0.14545498974E+02  0.46142318127E+02  0.10000003339E+02 0.  0.
         12    1    1    2    0    0 -0.29873364655E+02  0.30415851117E+02 -0.14545498974E+02  0.45045681873E+02  0.00000000000E+00 0. -1.
         11    1    3    3    0    0  0.21399073124E+01 -0.62324211670E+00  0.15673261385E+01  0.27247285236E+01  0.51100000000E-03 0. -1.
        -11    1    3    3    0    0  0.13418538340E+02 -0.98267479542E+01  0.75109868950E+01  0.18249303300E+02  0.51100000000E-03 0.  1.
         12    1    3    3    0    0  0.14314919002E+02 -0.19965861046E+02  0.54671859409E+01  0.25168286304E+02  0.00000000000E+00 0. -1.
</event>
<event>
 7    1  0.2297343E-008  0.4614232E+02  0.7816164E-02  0.1320468E+00
        -11   -1    0    0    0    0  0.00000000000E+00  0.00000000000E+00  0.45593999997E+02  0.45594000000E+02  0.51100000000E-03 0. -1.
         11   -1    0    0    0    0 -0.00000000000E+00 -0.00000000000E+00 -0.45593999997E+02  0.45594000000E+02  0.51100000000E-03 0.  1.
    9900012    2    1    2    0    0  0.18246163227E+02 -0.19504277175E+02 -0.36273601281E+02  0.46142318181E+02  0.10000003833E+02 0.  0.
         12    1    1    2    0    0 -0.18246163227E+02  0.19504277175E+02  0.36273601281E+02  0.45045681819E+02  0.00000000000E+00 0. -1.
         11    1    3    3    0    0  0.16975602054E+01 -0.29654532295E+01 -0.14528415471E+01  0.37130004484E+01  0.51100000000E-03 0. -1.
        -11    1    3    3    0    0  0.17848268787E+01 -0.39142514211E+01 -0.10184799909E+02  0.11056089753E+02  0.51100000000E-03 0.  1.
         12    1    3    3    0    0  0.14763776143E+02 -0.12624572524E+02 -0.24635959825E+02  0.31373227980E+02  0.00000000000E+00 0. -1.
</event>
<event>
 7    1  0.2297343E-008  0.4614232E+02  0.7816164E-02  0.1320468E+00
        -11   -1    0    0    0    0  0.00000000000E+00  0.00000000000E+00  0.45593999997E+02  0.45594000000E+02  0.51100000000E-03 0.  1.
         11   -1    0    0    0    0 -0.00000000000E+00 -0.00000000000E+00 -0.45593999997E+02  0.45594000000E+02  0.51100000000E-03 0. -1.
    9900012    2    1    2    0    0 -0.34117066980E+02 -0.26500937115E+02  0.12760843289E+02  0.46142322641E+02  0.10000044496E+02 0.  0.
         12    1    1    2    0    0  0.34117066980E+02  0.26500937115E+02 -0.12760843289E+02  0.45045677359E+02  0.00000000000E+00 0. -1.
         11    1    3    3    0    0 -0.46238001023E+01 -0.48115221609E+01  0.54119016951E+01  0.85917956860E+01  0.51100000000E-03 0. -1.
        -11    1    3    3    0    0 -0.10934799715E+02 -0.10174626063E+02  0.39238119346E+01  0.15443094272E+02  0.51100000000E-03 0.  1.
        -12    1    3    3    0    0 -0.18558467163E+02 -0.11514788891E+02  0.34251296590E+01  0.22107432683E+02  0.00000000000E+00 0.  1.
</event>
<event>
 7    1  0.2297343E-008  0.4614232E+02  0.7816164E-02  0.1320468E+00
        -11   -1    0    0    0    0  0.00000000000E+00  0.00000000000E+00  0.45593999997E+02  0.45594000000E+02  0.51100000000E-03 0.  1.
         11   -1    0    0    0    0 -0.00000000000E+00 -0.00000000000E+00 -0.45593999997E+02  0.45594000000E+02  0.51100000000E-03 0. -1.
    9900012    2    1    2    0    0  0.19013379040E+02  0.48804668411E+01  0.40543626892E+02  0.46142320732E+02  0.10000027093E+02 0.  0.
         12    1    1    2    0    0 -0.19013379040E+02 -0.48804668411E+01 -0.40543626892E+02  0.45045679268E+02  0.00000000000E+00 0. -1.
         11    1    3    3    0    0  0.24517349673E+01  0.38645438717E+01  0.46507043956E+01  0.65249333577E+01  0.51100000000E-03 0. -1.
        -11    1    3    3    0    0  0.77778304860E+01  0.16936308439E+01  0.16980419126E+02  0.18753604092E+02  0.51100000000E-03 0.  1.
        -12    1    3    3    0    0  0.87838135867E+01 -0.67770787456E+00  0.18912503371E+02  0.20863783282E+02  0.00000000000E+00 0.  1.
</event>
<event>
 7    1  0.2297343E-008  0.4614232E+02  0.7816164E-02  0.1320468E+00
        -11   -1    0    0    0    0  0.00000000000E+00  0.00000000000E+00  0.45593999997E+02  0.45594000000E+02  0.51100000000E-03 0.  1.
         11   -1    0    0    0    0 -0.00000000000E+00 -0.00000000000E+00 -0.45593999997E+02  0.45594000000E+02  0.51100000000E-03 0. -1.
    9900012    2    1    2    0    0 -0.15511365653E+02 -0.24567036995E+02  0.34423420127E+02  0.46142316251E+02  0.99999862293E+01 0.  0.
         12    1    1    2    0    0  0.15511365653E+02  0.24567036995E+02 -0.34423420127E+02  0.45045683749E+02  0.00000000000E+00 0. -1.
         11    1    3    3    0    0 -0.33118083557E+01 -0.14271599311E+01  0.80974829286E+01  0.88642027331E+01  0.51100000000E-03 0.  1.
        -11    1    3    3    0    0 -0.69537912500E+01 -0.94558311565E+01  0.11572931248E+02  0.16483345945E+02  0.51100000000E-03 0. -1.
        -12    1    3    3    0    0 -0.52457660473E+01 -0.13684045908E+02  0.14753005951E+02  0.20794767573E+02  0.00000000000E+00 0.  1.
</event>
<event>
 7    1  0.2297343E-008  0.4614232E+02  0.7816164E-02  0.1320468E+00
        -11   -1    0    0    0    0  0.00000000000E+00  0.00000000000E+00  0.45593999997E+02  0.45594000000E+02  0.51100000000E-03 0.  1.
         11   -1    0    0    0    0 -0.00000000000E+00 -0.00000000000E+00 -0.45593999997E+02  0.45594000000E+02  0.51100000000E-03 0. -1.
    9900012    2    1    2    0    0  0.38848911673E+02 -0.12642746023E+02  0.18974628517E+02  0.46142317715E+02  0.99999995795E+01 0.  0.
         12    1    1    2    0    0 -0.38848911673E+02  0.12642746023E+02 -0.18974628517E+02  0.45045682285E+02  0.00000000000E+00 0. -1.
         11    1    3    3    0    0  0.20490409779E+02 -0.65606883077E+01  0.11315447908E+02  0.24309234574E+02  0.51100000000E-03 0. -1.
        -11    1    3    3    0    0  0.12870807476E+02 -0.67113639918E+01  0.35353463024E+01  0.14939838200E+02  0.51100000000E-03 0.  1.
         12    1    3    3    0    0  0.54876944185E+01  0.62930627683E+00  0.41238343070E+01  0.68932449407E+01  0.00000000000E+00 0. -1.
</event>
<event>
 7    1  0.2297343E-008  0.4614232E+02  0.7816164E-02  0.1320468E+00
        -11   -1    0    0    0    0  0.00000000000E+00  0.00000000000E+00  0.45593999997E+02  0.45594000000E+02  0.51100000000E-03 0.  1.
         11   -1    0    0    0    0 -0.00000000000E+00 -0.00000000000E+00 -0.45593999997E+02  0.45594000000E+02  0.51100000000E-03 0. -1.
    9900012    2    1    2    0    0  0.13256818979E+01  0.43464374550E+02  0.11756032132E+02  0.46142316755E+02  0.99999908271E+01 0.  0.
         12    1    1    2    0    0 -0.13256818979E+01 -0.43464374550E+02 -0.11756032132E+02  0.45045683245E+02  0.00000000000E+00 0. -1.
         11    1    3    3    0    0  0.40276231324E+01  0.30078327851E+02  0.10243629945E+02  0.32029041652E+02  0.51100000000E-03 0.  1.
        -11    1    3    3    0    0 -0.35660787629E+00  0.31599174715E+01 -0.98398995675E+00  0.33287361116E+01  0.51100000000E-03 0. -1.
         12    1    3    3    0    0 -0.23453333582E+01  0.10226129227E+02  0.24963921442E+01  0.10784538992E+02  0.00000000000E+00 0. -1.
</event>
<event>
 7    1  0.2297343E-008  0.4614232E+02  0.7816164E-02  0.1320468E+00
        -11   -1    0    0    0    0  0.00000000000E+00  0.00000000000E+00  0.45593999997E+02  0.45594000000E+02  0.51100000000E-03 0. -1.
         11   -1    0    0    0    0 -0.00000000000E+00 -0.00000000000E+00 -0.45593999997E+02  0.45594000000E+02  0.51100000000E-03 0.  1.
    9900012    2    1    2    0    0  0.23479101447E+02 -0.33023509974E+01 -0.38300649537E+02  0.46142317834E+02  0.10000000664E+02 0.  0.
         12    1    1    2    0    0 -0.23479101447E+02  0.33023509974E+01  0.38300649537E+02  0.45045682166E+02  0.00000000000E+00 0. -1.
         11    1    3    3    0    0  0.85148228433E+00 -0.15133484131E+01 -0.16738715319E+01  0.24118647695E+01  0.51100000000E-03 0.  1.
        -11    1    3    3    0    0  0.21938104317E+02 -0.32965662192E+01 -0.34737194912E+02  0.41216749999E+02  0.51100000000E-03 0. -1.
         12    1    3    3    0    0  0.68951484540E+00  0.15075636349E+01 -0.18895830932E+01  0.25137030655E+01  0.00000000000E+00 0. -1.
</event>
<event>
 7    1  0.2297343E-008  0.4614232E+02  0.7816164E-02  0.1320468E+00
        -11   -1    0    0    0    0  0.00000000000E+00  0.00000000000E+00  0.45593999997E+02  0.45594000000E+02  0.51100000000E-03 0.  1.
         11   -1    0    0    0    0 -0.00000000000E+00 -0.00000000000E+00 -0.45593999997E+02  0.45594000000E+02  0.51100000000E-03 0. -1.
    9900012    2    1    2    0    0 -0.14869814130E+02  0.41804527497E+02 -0.77706894008E+01  0.46142317574E+02  0.99999982931E+01 0.  0.
         12    1    1    2    0    0  0.14869814130E+02 -0.41804527497E+02  0.77706894008E+01  0.45045682426E+02  0.00000000000E+00 0. -1.
         11    1    3    3    0    0 -0.28105168920E+01  0.65247603399E+01  0.96098922091E-01  0.71049797999E+01  0.51100000000E-03 0. -1.
        -11    1    3    3    0    0 -0.76797406223E+01  0.23390870157E+02 -0.10307677509E+01  0.24640894975E+02  0.51100000000E-03 0.  1.
        -12    1    3    3    0    0 -0.43795566154E+01  0.11888896999E+02 -0.68360205720E+01  0.14396442799E+02  0.00000000000E+00 0.  1.
</event>
<event>
 7    1  0.2297343E-008  0.4614232E+02  0.7816164E-02  0.1320468E+00
        -11   -1    0    0    0    0  0.00000000000E+00  0.00000000000E+00  0.45593999997E+02  0.45594000000E+02  0.51100000000E-03 0.  1.
         11   -1    0    0    0    0 -0.00000000000E+00 -0.00000000000E+00 -0.45593999997E+02  0.45594000000E+02  0.51100000000E-03 0. -1.
    9900012    2    1    2    0    0  0.13399503858E+02 -0.28574388258E+01  0.42911558062E+02  0.46142317903E+02  0.10000001290E+02 0.  0.
         12    1    1    2    0    0 -0.13399503858E+02  0.28574388258E+01 -0.42911558062E+02  0.45045682097E+02  0.00000000000E+00 0. -1.
         11    1    3    3    0    0  0.42127801865E+01 -0.24557631926E+01  0.97262705172E+01  0.10880194309E+02  0.51100000000E-03 0. -1.
        -11    1    3    3    0    0  0.33129057287E+01 -0.34378167212E+01  0.19316652615E+02  0.19897914380E+02  0.51100000000E-03 0.  1.
        -12    1    3    3    0    0  0.58738179433E+01  0.30361410880E+01  0.13868634930E+02  0.15364209214E+02  0.00000000000E+00 0.  1.
</event>
<event>
 7    1  0.2297343E-008  0.4614232E+02  0.7816164E-02  0.1320468E+00
        -11   -1    0    0    0    0  0.00000000000E+00  0.00000000000E+00  0.45593999997E+02  0.45594000000E+02  0.51100000000E-03 0.  1.
         11   -1    0    0    0    0 -0.00000000000E+00 -0.00000000000E+00 -0.45593999997E+02  0.45594000000E+02  0.51100000000E-03 0. -1.
    9900012    2    1    2    0    0 -0.24808638823E+02  0.23842272584E+02  0.29072168680E+02  0.46142317477E+02  0.99999974065E+01 0.  0.
         12    1    1    2    0    0  0.24808638823E+02 -0.23842272584E+02 -0.29072168680E+02  0.45045682523E+02  0.00000000000E+00 0. -1.
         11    1    3    3    0    0 -0.23321692395E+01  0.75741617120E+01  0.56702765449E+01  0.97446895978E+01  0.51100000000E-03 0. -1.
        -11    1    3    3    0    0 -0.52779026897E+01  0.48800977319E+01  0.71338984948E+01  0.10127394466E+02  0.51100000000E-03 0.  1.
         12    1    3    3    0    0 -0.17198566894E+02  0.11388013140E+02  0.16267993640E+02  0.26270233413E+02  0.00000000000E+00 0. -1.
</event>
<event>
 7    1  0.2297343E-008  0.4614232E+02  0.7816164E-02  0.1320468E+00
        -11   -1    0    0    0    0  0.00000000000E+00  0.00000000000E+00  0.45593999997E+02  0.45594000000E+02  0.51100000000E-03 0. -1.
         11   -1    0    0    0    0 -0.00000000000E+00 -0.00000000000E+00 -0.45593999997E+02  0.45594000000E+02  0.51100000000E-03 0.  1.
    9900012    2    1    2    0    0 -0.36527573526E+02  0.16246748712E+02 -0.20757962231E+02  0.46142317994E+02  0.10000002123E+02 0.  0.
         12    1    1    2    0    0  0.36527573526E+02 -0.16246748712E+02  0.20757962231E+02  0.45045682006E+02  0.00000000000E+00 0. -1.
         11    1    3    3    0    0 -0.17982523081E+02  0.11344013023E+02 -0.76904408832E+01  0.22609746771E+02  0.51100000000E-03 0. -1.
        -11    1    3    3    0    0 -0.62643374486E+01  0.16326819652E+01 -0.67053865506E+01  0.93203960819E+01  0.51100000000E-03 0.  1.
         12    1    3    3    0    0 -0.12280712996E+02  0.32700537246E+01 -0.63621347975E+01  0.14212175141E+02  0.00000000000E+00 0. -1.
</event>
<event>
 7    1  0.2297343E-008  0.4614233E+02  0.7816164E-02  0.1320468E+00
        -11   -1    0    0    0    0  0.00000000000E+00  0.00000000000E+00  0.45593999997E+02  0.45594000000E+02  0.51100000000E-03 0.  1.
         11   -1    0    0    0    0 -0.00000000000E+00 -0.00000000000E+00 -0.45593999997E+02  0.45594000000E+02  0.51100000000E-03 0. -1.
    9900012    2    1    2    0    0  0.14706641900E+02  0.36775326164E+01  0.42418193817E+02  0.46142326192E+02  0.10000076876E+02 0.  0.
         12    1    1    2    0    0 -0.14706641900E+02 -0.36775326164E+01 -0.42418193817E+02  0.45045673808E+02  0.00000000000E+00 0. -1.
         11    1    3    3    0    0  0.14223004170E+01  0.30215719154E+01  0.15157170253E+02  0.15520716660E+02  0.51100000000E-03 0. -1.
        -11    1    3    3    0    0  0.26262498539E+01  0.10050986856E+01  0.94775917908E+01  0.98859576206E+01  0.51100000000E-03 0.  1.
         12    1    3    3    0    0  0.10658091629E+02 -0.34913798465E+00  0.17783431774E+02  0.20735651911E+02  0.00000000000E+00 0. -1.
</event>
<event>
 7    1  0.2297343E-008  0.4614232E+02  0.7816164E-02  0.1320468E+00
        -11   -1    0    0    0    0  0.00000000000E+00  0.00000000000E+00  0.45593999997E+02  0.45594000000E+02  0.51100000000E-03 0. -1.
         11   -1    0    0    0    0 -0.00000000000E+00 -0.00000000000E+00 -0.45593999997E+02  0.45594000000E+02  0.51100000000E-03 0.  1.
    9900012    2    1    2    0    0  0.38862534648E+02 -0.21800008057E+02 -0.66012574658E+01  0.46142317070E+02  0.99999936937E+01 0.  0.
         12    1    1    2    0    0 -0.38862534648E+02  0.21800008057E+02  0.66012574658E+01  0.45045682930E+02  0.00000000000E+00 0. -1.
         11    1    3    3    0    0  0.15483304934E+02 -0.51370859814E+01 -0.40174262394E+01  0.16800657663E+02  0.51100000000E-03 0. -1.
        -11    1    3    3    0    0  0.14867555724E+02 -0.72665000862E+01 -0.15826993162E+01  0.16623813464E+02  0.51100000000E-03 0.  1.
        -12    1    3    3    0    0  0.85116739901E+01 -0.93964219890E+01 -0.10011319102E+01  0.12717845942E+02  0.00000000000E+00 0.  1.
</event>
<event>
 7    1  0.2297343E-008  0.4614232E+02  0.7816164E-02  0.1320468E+00
        -11   -1    0    0    0    0  0.00000000000E+00  0.00000000000E+00  0.45593999997E+02  0.45594000000E+02  0.51100000000E-03 0.  1.
         11   -1    0    0    0    0 -0.00000000000E+00 -0.00000000000E+00 -0.45593999997E+02  0.45594000000E+02  0.51100000000E-03 0. -1.
    9900012    2    1    2    0    0  0.14700662771E+02 -0.29162375183E+02  0.31025148849E+02  0.46142317928E+02  0.10000001520E+02 0.  0.
         12    1    1    2    0    0 -0.14700662771E+02  0.29162375183E+02 -0.31025148849E+02  0.45045682072E+02  0.00000000000E+00 0. -1.
         11    1    3    3    0    0  0.58236620129E+01 -0.14842158880E+02  0.10327258440E+02  0.18996236117E+02  0.51100000000E-03 0. -1.
        -11    1    3    3    0    0  0.56834000390E+01 -0.45367401495E+01  0.84446313591E+01  0.11144274146E+02  0.51100000000E-03 0.  1.
        -12    1    3    3    0    0  0.31936007191E+01 -0.97834761540E+01  0.12253259050E+02  0.16001807665E+02  0.00000000000E+00 0.  1.
</event>
<event>
 7    1  0.2297343E-008  0.4614232E+02  0.7816164E-02  0.1320468E+00
        -11   -1    0    0    0    0  0.00000000000E+00  0.00000000000E+00  0.45593999997E+02  0.45594000000E+02  0.51100000000E-03 0.  1.
         11   -1    0    0    0    0 -0.00000000000E+00 -0.00000000000E+00 -0.45593999997E+02  0.45594000000E+02  0.51100000000E-03 0. -1.
    9900012    2    1    2    0    0 -0.38003437369E+02  0.34214643844E+01  0.23940464191E+02  0.46142317676E+02  0.99999992245E+01 0.  0.
         12    1    1    2    0    0  0.38003437369E+02 -0.34214643844E+01 -0.23940464191E+02  0.45045682324E+02  0.00000000000E+00 0. -1.
         11    1    3    3    0    0 -0.94280558771E+00  0.53864959649E+00  0.64280580864E+00  0.12618341146E+01  0.51100000000E-03 0. -1.
        -11    1    3    3    0    0 -0.56162274810E+00  0.47225092761E+00 -0.79387079715E+00  0.10810514111E+01  0.51100000000E-03 0.  1.
        -12    1    3    3    0    0 -0.36499009033E+02  0.24105638603E+01  0.24091529179E+02  0.43799432150E+02  0.00000000000E+00 0.  1.
</event>
<event>
 7    1  0.2297343E-008  0.4614232E+02  0.7816164E-02  0.1320468E+00
        -11   -1    0    0    0    0  0.00000000000E+00  0.00000000000E+00  0.45593999997E+02  0.45594000000E+02  0.51100000000E-03 0. -1.
         11   -1    0    0    0    0 -0.00000000000E+00 -0.00000000000E+00 -0.45593999997E+02  0.45594000000E+02  0.51100000000E-03 0.  1.
    9900012    2    1    2    0    0 -0.19214881957E+02 -0.14599318728E+01 -0.40715726988E+02  0.46142317479E+02  0.99999974231E+01 0.  0.
         12    1    1    2    0    0  0.19214881957E+02  0.14599318728E+01  0.40715726988E+02  0.45045682521E+02  0.00000000000E+00 0. -1.
         11    1    3    3    0    0 -0.64567327674E+01 -0.14931662897E+00 -0.63148313810E+01  0.90326512783E+01  0.51100000000E-03 0. -1.
        -11    1    3    3    0    0 -0.14297019667E+01  0.14673015402E+01 -0.31978502944E+01  0.37977978211E+01  0.51100000000E-03 0.  1.
        -12    1    3    3    0    0 -0.11328447223E+02 -0.27779167840E+01 -0.31203045312E+02  0.33311868379E+02  0.00000000000E+00 0.  1.
</event>
<event>
 7    1  0.2297343E-008  0.4614232E+02  0.7816164E-02  0.1320468E+00
        -11   -1    0    0    0    0  0.00000000000E+00  0.00000000000E+00  0.45593999997E+02  0.45594000000E+02  0.51100000000E-03 0.  1.
         11   -1    0    0    0    0 -0.00000000000E+00 -0.00000000000E+00 -0.45593999997E+02  0.45594000000E+02  0.51100000000E-03 0. -1.
    9900012    2    1    2    0    0 -0.17397863068E+02  0.33367226163E+02  0.24759971352E+02  0.46142316494E+02  0.99999884487E+01 0.  0.
         12    1    1    2    0    0  0.17397863068E+02 -0.33367226163E+02 -0.24759971352E+02  0.45045683506E+02  0.00000000000E+00 0. -1.
         11    1    3    3    0    0 -0.39365400779E+01  0.85633993351E+01  0.26823816814E+01  0.97991493357E+01  0.51100000000E-03 0. -1.
        -11    1    3    3    0    0 -0.35602188642E+01  0.50492994758E+01  0.20186097979E+01  0.64996437852E+01  0.51100000000E-03 0.  1.
        -12    1    3    3    0    0 -0.99011041262E+01  0.19754527352E+02  0.20058979872E+02  0.29843523373E+02  0.00000000000E+00 0.  1.
</event>
<event>
 7    1  0.2297343E-008  0.4614232E+02  0.7816164E-02  0.1320468E+00
        -11   -1    0    0    0    0  0.00000000000E+00  0.00000000000E+00  0.45593999997E+02  0.45594000000E+02  0.51100000000E-03 0.  1.
         11   -1    0    0    0    0 -0.00000000000E+00 -0.00000000000E+00 -0.45593999997E+02  0.45594000000E+02  0.51100000000E-03 0. -1.
    9900012    2    1    2    0    0 -0.13819629797E+02 -0.22592998240E+02  0.36437450307E+02  0.46142317388E+02  0.99999965938E+01 0.  0.
         12    1    1    2    0    0  0.13819629797E+02  0.22592998240E+02 -0.36437450307E+02  0.45045682612E+02  0.00000000000E+00 0. -1.
         11    1    3    3    0    0 -0.56162959048E+01 -0.55932442508E+01  0.17888786503E+02  0.19566191345E+02  0.51100000000E-03 0.  1.
        -11    1    3    3    0    0 -0.31079418234E+00 -0.23782165040E+01  0.19647691391E+01  0.31004555786E+01  0.51100000000E-03 0. -1.
        -12    1    3    3    0    0 -0.78925397093E+01 -0.14621537485E+02  0.16583894665E+02  0.23475670464E+02  0.00000000000E+00 0.  1.
</event>
<event>
 7    1  0.2297343E-008  0.4614232E+02  0.7816164E-02  0.1320468E+00
        -11   -1    0    0    0    0  0.00000000000E+00  0.00000000000E+00  0.45593999997E+02  0.45594000000E+02  0.51100000000E-03 0.  1.
         11   -1    0    0    0    0 -0.00000000000E+00 -0.00000000000E+00 -0.45593999997E+02  0.45594000000E+02  0.51100000000E-03 0. -1.
    9900012    2    1    2    0    0  0.42672514039E+02  0.10968912608E+02  0.93729933878E+01  0.46142317596E+02  0.99999984931E+01 0.  0.
         12    1    1    2    0    0 -0.42672514039E+02 -0.10968912608E+02 -0.93729933878E+01  0.45045682404E+02  0.00000000000E+00 0. -1.
         11    1    3    3    0    0  0.20732417697E+02  0.41457248906E+01  0.94629369831E+01  0.23163923567E+02  0.51100000000E-03 0. -1.
        -11    1    3    3    0    0  0.10306835478E+02  0.30751361646E+01 -0.98331412186E-01  0.10756253499E+02  0.51100000000E-03 0.  1.
         12    1    3    3    0    0  0.11633260865E+02  0.37480515525E+01  0.83878168966E-02  0.12222140530E+02  0.00000000000E+00 0. -1.
</event>
<event>
 7    1  0.2297343E-008  0.4614232E+02  0.7816164E-02  0.1320468E+00
        -11   -1    0    0    0    0  0.00000000000E+00  0.00000000000E+00  0.45593999997E+02  0.45594000000E+02  0.51100000000E-03 0. -1.
         11   -1    0    0    0    0 -0.00000000000E+00 -0.00000000000E+00 -0.45593999997E+02  0.45594000000E+02  0.51100000000E-03 0.  1.
    9900012    2    1    2    0    0  0.14431061849E+02  0.16582719683E+02 -0.39317570555E+02  0.46142317715E+02  0.99999995813E+01 0.  0.
         12    1    1    2    0    0 -0.14431061849E+02 -0.16582719683E+02  0.39317570555E+02  0.45045682285E+02  0.00000000000E+00 0. -1.
         11    1    3    3    0    0  0.18358338013E+01 -0.26715711635E+00 -0.11741203692E+01  0.21954993904E+01  0.51100000000E-03 0. -1.
        -11    1    3    3    0    0  0.12080914177E+02  0.17324492962E+02 -0.36728601942E+02  0.42368346022E+02  0.51100000000E-03 0.  1.
         12    1    3    3    0    0  0.51431387093E+00 -0.47461616248E+00 -0.14148482433E+01  0.15784723029E+01  0.00000000000E+00 0. -1.
</event>
<event>
 7    1  0.2297343E-008  0.4614232E+02  0.7816164E-02  0.1320468E+00
        -11   -1    0    0    0    0  0.00000000000E+00  0.00000000000E+00  0.45593999997E+02  0.45594000000E+02  0.51100000000E-03 0.  1.
         11   -1    0    0    0    0 -0.00000000000E+00 -0.00000000000E+00 -0.45593999997E+02  0.45594000000E+02  0.51100000000E-03 0. -1.
    9900012    2    1    2    0    0 -0.33222631610E+02 -0.15329275734E+02  0.26275149928E+02  0.46142318194E+02  0.10000003950E+02 0.  0.
         12    1    1    2    0    0  0.33222631610E+02  0.15329275734E+02 -0.26275149928E+02  0.45045681806E+02  0.00000000000E+00 0. -1.
         11    1    3    3    0    0 -0.18765815385E+02 -0.75452513706E+01  0.12683001335E+02  0.23873524424E+02  0.51100000000E-03 0. -1.
        -11    1    3    3    0    0 -0.13534902108E+02 -0.81059073321E+01  0.14107953873E+02  0.21164443567E+02  0.51100000000E-03 0.  1.
         12    1    3    3    0    0 -0.92191411725E+00  0.32188296832E+00 -0.51580528021E+00  0.11043502035E+01  0.00000000000E+00 0. -1.
</event>
<event>
 7    1  0.2297343E-008  0.4614232E+02  0.7816164E-02  0.1320468E+00
        -11   -1    0    0    0    0  0.00000000000E+00  0.00000000000E+00  0.45593999997E+02  0.45594000000E+02  0.51100000000E-03 0. -1.
         11   -1    0    0    0    0 -0.00000000000E+00 -0.00000000000E+00 -0.45593999997E+02  0.45594000000E+02  0.51100000000E-03 0.  1.
    9900012    2    1    2    0    0 -0.38793133639E+02  0.83289924010E+01 -0.21326842282E+02  0.46142317258E+02  0.99999954161E+01 0.  0.
         12    1    1    2    0    0  0.38793133639E+02 -0.83289924010E+01  0.21326842282E+02  0.45045682742E+02  0.00000000000E+00 0. -1.
         11    1    3    3    0    0 -0.21702271493E+02  0.36794946421E+01 -0.16991544656E+02  0.27807190776E+02  0.51100000000E-03 0. -1.
        -11    1    3    3    0    0 -0.10038571024E+02  0.17569868008E+01 -0.23577502739E+01  0.10460348820E+02  0.51100000000E-03 0.  1.
         12    1    3    3    0    0 -0.70522911217E+01  0.28925109580E+01 -0.19775473525E+01  0.78747776628E+01  0.00000000000E+00 0. -1.
</event>
<event>
 7    1  0.2297343E-008  0.4614232E+02  0.7816164E-02  0.1320468E+00
        -11   -1    0    0    0    0  0.00000000000E+00  0.00000000000E+00  0.45593999997E+02  0.45594000000E+02  0.51100000000E-03 0. -1.
         11   -1    0    0    0    0 -0.00000000000E+00 -0.00000000000E+00 -0.45593999997E+02  0.45594000000E+02  0.51100000000E-03 0.  1.
    9900012    2    1    2    0    0 -0.34230503481E+02  0.22026353081E+02 -0.19293158355E+02  0.46142316989E+02  0.99999929595E+01 0.  0.
         12    1    1    2    0    0  0.34230503481E+02 -0.22026353081E+02  0.19293158355E+02  0.45045683011E+02  0.00000000000E+00 0. -1.
         11    1    3    3    0    0 -0.13887615570E+02  0.48496355453E+01 -0.65419955885E+01  0.16099147111E+02  0.51100000000E-03 0. -1.
        -11    1    3    3    0    0 -0.17386044050E+02  0.12601980720E+02 -0.83463679809E+01  0.23037931863E+02  0.51100000000E-03 0.  1.
         12    1    3    3    0    0 -0.29568438604E+01  0.45747368162E+01 -0.44047947858E+01  0.70052380158E+01  0.00000000000E+00 0. -1.
</event>
<event>
 7    1  0.2297343E-008  0.4614232E+02  0.7816164E-02  0.1320468E+00
        -11   -1    0    0    0    0  0.00000000000E+00  0.00000000000E+00  0.45593999997E+02  0.45594000000E+02  0.51100000000E-03 0. -1.
         11   -1    0    0    0    0 -0.00000000000E+00 -0.00000000000E+00 -0.45593999997E+02  0.45594000000E+02  0.51100000000E-03 0.  1.
    9900012    2    1    2    0    0 -0.84347618062E+00  0.27748381090E+02  0.35474349014E+02  0.46142317153E+02  0.99999944538E+01 0.  0.
         12    1    1    2    0    0  0.84347618062E+00 -0.27748381090E+02 -0.35474349014E+02  0.45045682847E+02  0.00000000000E+00 0. -1.
         11    1    3    3    0    0  0.15594475133E+01  0.92905954184E+00  0.32526546711E+01  0.37248880319E+01  0.51100000000E-03 0. -1.
        -11    1    3    3    0    0 -0.12176799603E+00 -0.20636361483E+00  0.11457751983E+01  0.11705615971E+01  0.51100000000E-03 0.  1.
        -12    1    3    3    0    0 -0.22811556979E+01  0.27025685163E+02  0.31075919145E+02  0.41246867524E+02  0.00000000000E+00 0.  1.
</event>
<event>
 7    1  0.2297343E-008  0.4614232E+02  0.7816164E-02  0.1320468E+00
        -11   -1    0    0    0    0  0.00000000000E+00  0.00000000000E+00  0.45593999997E+02  0.45594000000E+02  0.51100000000E-03 0.  1.
         11   -1    0    0    0    0 -0.00000000000E+00 -0.00000000000E+00 -0.45593999997E+02  0.45594000000E+02  0.51100000000E-03 0. -1.
    9900012    2    1    2    0    0 -0.49832625627E+01  0.21326088872E+02  0.39363416394E+02  0.46142317382E+02  0.99999965394E+01 0.  0.
         12    1    1    2    0    0  0.49832625627E+01 -0.21326088872E+02 -0.39363416394E+02  0.45045682618E+02  0.00000000000E+00 0. -1.
         11    1    3    3    0    0  0.11106544793E+01  0.18679883503E+01  0.93562531262E+00  0.23660787891E+01  0.51100000000E-03 0. -1.
        -11    1    3    3    0    0 -0.44696021569E+01  0.14363589736E+02  0.23328026272E+02  0.27757645137E+02  0.51100000000E-03 0.  1.
         12    1    3    3    0    0 -0.16243148851E+01  0.50945107854E+01  0.15099764810E+02  0.16018593455E+02  0.00000000000E+00 0. -1.
</event>
<event>
 7    1  0.2297343E-008  0.4614232E+02  0.7816164E-02  0.1320468E+00
        -11   -1    0    0    0    0  0.00000000000E+00  0.00000000000E+00  0.45593999997E+02  0.45594000000E+02  0.51100000000E-03 0.  1.
         11   -1    0    0    0    0 -0.00000000000E+00 -0.00000000000E+00 -0.45593999997E+02  0.45594000000E+02  0.51100000000E-03 0. -1.
    9900012    2    1    2    0    0 -0.18645892750E+02 -0.14449882232E+02  0.38375057841E+02  0.46142317885E+02  0.10000001128E+02 0.  0.
         12    1    1    2    0    0  0.18645892750E+02  0.14449882232E+02 -0.38375057841E+02  0.45045682115E+02  0.00000000000E+00 0. -1.
         11    1    3    3    0    0 -0.34600541093E+01 -0.13632324748E+01  0.56793244142E+01  0.67886009812E+01  0.51100000000E-03 0. -1.
        -11    1    3    3    0    0 -0.15677326876E+02 -0.11749152095E+02  0.32453324019E+02  0.37908302429E+02  0.51100000000E-03 0.  1.
         12    1    3    3    0    0  0.49148823533E+00 -0.13374976623E+01  0.24240940745E+00  0.14454144745E+01  0.00000000000E+00 0. -1.
</event>
<event>
 7    1  0.2297343E-008  0.4614232E+02  0.7816164E-02  0.1320468E+00
        -11   -1    0    0    0    0  0.00000000000E+00  0.00000000000E+00  0.45593999997E+02  0.45594000000E+02  0.51100000000E-03 0.  1.
         11   -1    0    0    0    0 -0.00000000000E+00 -0.00000000000E+00 -0.45593999997E+02  0.45594000000E+02  0.51100000000E-03 0. -1.
    9900012    2    1    2    0    0 -0.34782303962E+02 -0.27720852359E+02  0.71315651701E+01  0.46142317119E+02  0.99999941444E+01 0.  0.
         12    1    1    2    0    0  0.34782303962E+02  0.27720852359E+02 -0.71315651701E+01  0.45045682881E+02  0.00000000000E+00 0. -1.
         11    1    3    3    0    0 -0.65083760054E+01 -0.19990483937E+01  0.19956194531E+00  0.68113859044E+01  0.51100000000E-03 0. -1.
        -11    1    3    3    0    0 -0.39752550958E+01 -0.19180937871E+01 -0.70253368336E+00  0.44693725164E+01  0.51100000000E-03 0.  1.
        -12    1    3    3    0    0 -0.24298672861E+02 -0.23803710178E+02  0.76345369082E+01  0.34861558698E+02  0.00000000000E+00 0.  1.
</event>
<event>
 7    1  0.2297343E-008  0.4614232E+02  0.7816164E-02  0.1320468E+00
        -11   -1    0    0    0    0  0.00000000000E+00  0.00000000000E+00  0.45593999997E+02  0.45594000000E+02  0.51100000000E-03 0.  1.
         11   -1    0    0    0    0 -0.00000000000E+00 -0.00000000000E+00 -0.45593999997E+02  0.45594000000E+02  0.51100000000E-03 0. -1.
    9900012    2    1    2    0    0 -0.16343153509E+02  0.10977280043E+02  0.40515603823E+02  0.46142317666E+02  0.99999991330E+01 0.  0.
         12    1    1    2    0    0  0.16343153509E+02 -0.10977280043E+02 -0.40515603823E+02  0.45045682334E+02  0.00000000000E+00 0. -1.
         11    1    3    3    0    0 -0.98741596619E+01  0.74043184930E+01  0.22061084956E+02  0.25278734760E+02  0.51100000000E-03 0. -1.
        -11    1    3    3    0    0  0.45594256142E+00  0.26996131071E+01  0.57287417648E+01  0.63493524880E+01  0.51100000000E-03 0.  1.
        -12    1    3    3    0    0 -0.69249364083E+01  0.87334844333E+00  0.12725777103E+02  0.14514230418E+02  0.00000000000E+00 0.  1.
</event>
<event>
 7    1  0.2297343E-008  0.4614232E+02  0.7816164E-02  0.1320468E+00
        -11   -1    0    0    0    0  0.00000000000E+00  0.00000000000E+00  0.45593999997E+02  0.45594000000E+02  0.51100000000E-03 0.  1.
         11   -1    0    0    0    0 -0.00000000000E+00 -0.00000000000E+00 -0.45593999997E+02  0.45594000000E+02  0.51100000000E-03 0. -1.
    9900012    2    1    2    0    0  0.21912295709E+02  0.42130766876E+01  0.39130739602E+02  0.46142317629E+02  0.99999987969E+01 0.  0.
         12    1    1    2    0    0 -0.21912295709E+02 -0.42130766876E+01 -0.39130739602E+02  0.45045682371E+02  0.00000000000E+00 0. -1.
         11    1    3    3    0    0  0.26549629439E+01  0.29322487472E+01  0.32480946730E+01  0.51183034508E+01  0.51100000000E-03 0. -1.
        -11    1    3    3    0    0  0.37092762387E+01 -0.13428201779E+01  0.95312305817E+01  0.10315340659E+02  0.51100000000E-03 0.  1.
         12    1    3    3    0    0  0.15548056526E+02  0.26236481184E+01  0.26351414348E+02  0.30708673519E+02  0.00000000000E+00 0. -1.
</event>
<event>
 7    1  0.2297343E-008  0.4614232E+02  0.7816164E-02  0.1320468E+00
        -11   -1    0    0    0    0  0.00000000000E+00  0.00000000000E+00  0.45593999997E+02  0.45594000000E+02  0.51100000000E-03 0.  1.
         11   -1    0    0    0    0 -0.00000000000E+00 -0.00000000000E+00 -0.45593999997E+02  0.45594000000E+02  0.51100000000E-03 0. -1.
    9900012    2    1    2    0    0 -0.20111189089E+02  0.22962004455E+01  0.40241533580E+02  0.46142317766E+02  0.10000000044E+02 0.  0.
         12    1    1    2    0    0  0.20111189089E+02 -0.22962004455E+01 -0.40241533580E+02  0.45045682234E+02  0.00000000000E+00 0. -1.
         11    1    3    3    0    0 -0.83815433631E+01  0.17139799405E+01  0.12095559593E+02  0.14815213752E+02  0.51100000000E-03 0. -1.
        -11    1    3    3    0    0 -0.10526696847E+02  0.11019499720E+01  0.28087306470E+02  0.30015369817E+02  0.51100000000E-03 0.  1.
         12    1    3    3    0    0 -0.12029488797E+01 -0.51972946710E+00  0.58667516633E-01  0.13117341971E+01  0.00000000000E+00 0. -1.
</event>
<event>
 7    1  0.2297343E-008  0.4614232E+02  0.7816164E-02  0.1320468E+00
        -11   -1    0    0    0    0  0.00000000000E+00  0.00000000000E+00  0.45593999997E+02  0.45594000000E+02  0.51100000000E-03 0.  1.
         11   -1    0    0    0    0 -0.00000000000E+00 -0.00000000000E+00 -0.45593999997E+02  0.45594000000E+02  0.51100000000E-03 0. -1.
    9900012    2    1    2    0    0  0.13578753860E+02  0.19173159632E+02  0.38433325868E+02  0.46142321584E+02  0.10000034860E+02 0.  0.
         12    1    1    2    0    0 -0.13578753860E+02 -0.19173159632E+02 -0.38433325868E+02  0.45045678416E+02  0.00000000000E+00 0. -1.
         11    1    3    3    0    0  0.73945368439E+00  0.17690519839E+01  0.53343852358E+01  0.56685097493E+01  0.51100000000E-03 0. -1.
        -11    1    3    3    0    0  0.59297956043E+01  0.58962019259E+01  0.20179759819E+02  0.21843772102E+02  0.51100000000E-03 0.  1.
        -12    1    3    3    0    0  0.69095045710E+01  0.11507905722E+02  0.12919180814E+02  0.18630039732E+02  0.00000000000E+00 0.  1.
</event>
<event>
 7    1  0.2297343E-008  0.4614232E+02  0.7816164E-02  0.1320468E+00
        -11   -1    0    0    0    0  0.00000000000E+00  0.00000000000E+00  0.45593999997E+02  0.45594000000E+02  0.51100000000E-03 0.  1.
         11   -1    0    0    0    0 -0.00000000000E+00 -0.00000000000E+00 -0.45593999997E+02  0.45594000000E+02  0.51100000000E-03 0. -1.
    9900012    2    1    2    0    0  0.25164563051E+02 -0.17144438777E+02  0.33195277930E+02  0.46142317727E+02  0.99999996929E+01 0.  0.
         12    1    1    2    0    0 -0.25164563051E+02  0.17144438777E+02 -0.33195277930E+02  0.45045682273E+02  0.00000000000E+00 0. -1.
         11    1    3    3    0    0  0.94597617426E+01 -0.36395333359E+01  0.70352261009E+01  0.12338059073E+02  0.51100000000E-03 0. -1.
        -11    1    3    3    0    0  0.47184965986E+01 -0.28943079074E+01  0.37568676342E+01  0.66899389456E+01  0.51100000000E-03 0.  1.
        -12    1    3    3    0    0  0.10986304710E+02 -0.10610597534E+02  0.22403184195E+02  0.27114319709E+02  0.00000000000E+00 0.  1.
</event>
<event>
 7    1  0.2297343E-008  0.4614232E+02  0.7816164E-02  0.1320468E+00
        -11   -1    0    0    0    0  0.00000000000E+00  0.00000000000E+00  0.45593999997E+02  0.45594000000E+02  0.51100000000E-03 0.  1.
         11   -1    0    0    0    0 -0.00000000000E+00 -0.00000000000E+00 -0.45593999997E+02  0.45594000000E+02  0.51100000000E-03 0. -1.
    9900012    2    1    2    0    0  0.87215755928E+01 -0.37811811008E+02  0.22876070070E+02  0.46142317472E+02  0.99999973630E+01 0.  0.
         12    1    1    2    0    0 -0.87215755928E+01  0.37811811008E+02 -0.22876070070E+02  0.45045682528E+02  0.00000000000E+00 0. -1.
         11    1    3    3    0    0  0.39606511318E+01 -0.75867271294E+01  0.44090608726E+01  0.96273051246E+01  0.51100000000E-03 0.  1.
        -11    1    3    3    0    0  0.69788679389E+00 -0.74270619292E+00 -0.58787316772E+00  0.11765430670E+01  0.51100000000E-03 0. -1.
        -12    1    3    3    0    0  0.40630376671E+01 -0.29482377686E+02  0.19054882365E+02  0.35338469280E+02  0.00000000000E+00 0.  1.
</event>
<event>
 7    1  0.2297343E-008  0.4614232E+02  0.7816164E-02  0.1320468E+00
        -11   -1    0    0    0    0  0.00000000000E+00  0.00000000000E+00  0.45593999997E+02  0.45594000000E+02  0.51100000000E-03 0. -1.
         11   -1    0    0    0    0 -0.00000000000E+00 -0.00000000000E+00 -0.45593999997E+02  0.45594000000E+02  0.51100000000E-03 0.  1.
    9900012    2    1    2    0    0  0.23291161584E+02  0.36252983250E+02  0.13128461881E+02  0.46142317479E+02  0.99999974284E+01 0.  0.
         12    1    1    2    0    0 -0.23291161584E+02 -0.36252983250E+02 -0.13128461881E+02  0.45045682521E+02  0.00000000000E+00 0. -1.
         11    1    3    3    0    0  0.31490624929E+01  0.64265822762E+01 -0.62502376822E+00  0.71838853908E+01  0.51100000000E-03 0. -1.
        -11    1    3    3    0    0  0.62040506976E+01  0.13022461990E+02  0.35262298014E+01  0.14849547407E+02  0.51100000000E-03 0.  1.
        -12    1    3    3    0    0  0.13938048393E+02  0.16803938984E+02  0.10227255848E+02  0.24108884681E+02  0.00000000000E+00 0.  1.
</event>
<event>
 7    1  0.2297343E-008  0.4614232E+02  0.7816164E-02  0.1320468E+00
        -11   -1    0    0    0    0  0.00000000000E+00  0.00000000000E+00  0.45593999997E+02  0.45594000000E+02  0.51100000000E-03 0.  1.
         11   -1    0    0    0    0 -0.00000000000E+00 -0.00000000000E+00 -0.45593999997E+02  0.45594000000E+02  0.51100000000E-03 0. -1.
    9900012    2    1    2    0    0 -0.37987095457E+02  0.52393400477E+01  0.23635634482E+02  0.46142319599E+02  0.10000016763E+02 0.  0.
         12    1    1    2    0    0  0.37987095457E+02 -0.52393400477E+01 -0.23635634482E+02  0.45045680401E+02  0.00000000000E+00 0. -1.
         11    1    3    3    0    0 -0.32369434746E+00  0.11896507226E+01  0.26799968248E+00  0.12616936884E+01  0.51100000000E-03 0. -1.
        -11    1    3    3    0    0 -0.41260507662E+01  0.12466569334E+01  0.47724556445E+01  0.64307683502E+01  0.51100000000E-03 0.  1.
        -12    1    3    3    0    0 -0.33537350343E+02  0.28030323917E+01  0.18595179155E+02  0.38449857561E+02  0.00000000000E+00 0.  1.
</event>
<event>
 7    1  0.2297343E-008  0.4614232E+02  0.7816164E-02  0.1320468E+00
        -11   -1    0    0    0    0  0.00000000000E+00  0.00000000000E+00  0.45593999997E+02  0.45594000000E+02  0.51100000000E-03 0.  1.
         11   -1    0    0    0    0 -0.00000000000E+00 -0.00000000000E+00 -0.45593999997E+02  0.45594000000E+02  0.51100000000E-03 0. -1.
    9900012    2    1    2    0    0 -0.35382883092E+02  0.23822824850E+02  0.14478880524E+02  0.46142318953E+02  0.10000010870E+02 0.  0.
         12    1    1    2    0    0  0.35382883092E+02 -0.23822824850E+02 -0.14478880524E+02  0.45045681047E+02  0.00000000000E+00 0. -1.
         11    1    3    3    0    0 -0.10357115144E+01 -0.53527004779E-01  0.15163314798E+01  0.18370696501E+01  0.51100000000E-03 0. -1.
        -11    1    3    3    0    0 -0.16675067198E+02  0.14467317961E+02  0.92855000205E+01  0.23949565047E+02  0.51100000000E-03 0.  1.
        -12    1    3    3    0    0 -0.17672104380E+02  0.94090338940E+01  0.36770490241E+01  0.20355684256E+02  0.00000000000E+00 0.  1.
</event>
<event>
 7    1  0.2297343E-008  0.4614232E+02  0.7816164E-02  0.1320468E+00
        -11   -1    0    0    0    0  0.00000000000E+00  0.00000000000E+00  0.45593999997E+02  0.45594000000E+02  0.51100000000E-03 0. -1.
         11   -1    0    0    0    0 -0.00000000000E+00 -0.00000000000E+00 -0.45593999997E+02  0.45594000000E+02  0.51100000000E-03 0.  1.
    9900012    2    1    2    0    0 -0.15675835456E+02  0.41892341201E+02  0.53304146771E+01  0.46142318862E+02  0.10000010039E+02 0.  0.
         12    1    1    2    0    0  0.15675835456E+02 -0.41892341201E+02 -0.53304146771E+01  0.45045681138E+02  0.00000000000E+00 0. -1.
         11    1    3    3    0    0 -0.13822150940E+02  0.23208420495E+02  0.22398124751E+01  0.27105338933E+02  0.51100000000E-03 0. -1.
        -11    1    3    3    0    0 -0.16649337326E+00  0.39390742689E+01  0.57829362247E+00  0.39847772729E+01  0.51100000000E-03 0.  1.
         12    1    3    3    0    0 -0.16871911428E+01  0.14744846437E+02  0.25123085795E+01  0.15052202657E+02  0.00000000000E+00 0. -1.
</event>
<event>
 7    1  0.2297343E-008  0.4614232E+02  0.7816164E-02  0.1320468E+00
        -11   -1    0    0    0    0  0.00000000000E+00  0.00000000000E+00  0.45593999997E+02  0.45594000000E+02  0.51100000000E-03 0.  1.
         11   -1    0    0    0    0 -0.00000000000E+00 -0.00000000000E+00 -0.45593999997E+02  0.45594000000E+02  0.51100000000E-03 0. -1.
    9900012    2    1    2    0    0  0.17936289268E+02  0.17506450563E+02  0.37428961017E+02  0.46142318666E+02  0.10000008256E+02 0.  0.
         12    1    1    2    0    0 -0.17936289268E+02 -0.17506450563E+02 -0.37428961017E+02  0.45045681334E+02  0.00000000000E+00 0. -1.
         11    1    3    3    0    0  0.74584949288E+01  0.53766636293E+01  0.77478870944E+01  0.12023618967E+02  0.51100000000E-03 0. -1.
        -11    1    3    3    0    0  0.23710203177E+01  0.21968580630E+00  0.50553798506E+01  0.55881002940E+01  0.51100000000E-03 0.  1.
        -12    1    3    3    0    0  0.81067740210E+01  0.11910101128E+02  0.24625694072E+02  0.28530599405E+02  0.00000000000E+00 0.  1.
</event>
<event>
 7    1  0.2297343E-008  0.4614232E+02  0.7816164E-02  0.1320468E+00
        -11   -1    0    0    0    0  0.00000000000E+00  0.00000000000E+00  0.45593999997E+02  0.45594000000E+02  0.51100000000E-03 0.  1.
         11   -1    0    0    0    0 -0.00000000000E+00 -0.00000000000E+00 -0.45593999997E+02  0.45594000000E+02  0.51100000000E-03 0. -1.
    9900012    2    1    2    0    0 -0.14196632328E+02 -0.15906852201E+01  0.42720472621E+02  0.46142318410E+02  0.10000005919E+02 0.  0.
         12    1    1    2    0    0  0.14196632328E+02  0.15906852201E+01 -0.42720472621E+02  0.45045681590E+02  0.00000000000E+00 0. -1.
         11    1    3    3    0    0 -0.51372772163E+01 -0.32320435230E+01  0.24105745188E+02  0.24858090712E+02  0.51100000000E-03 0. -1.
        -11    1    3    3    0    0 -0.89330797851E+01  0.72113368575E+00  0.18157766466E+02  0.20249060016E+02  0.51100000000E-03 0.  1.
         12    1    3    3    0    0 -0.12627532698E+00  0.92022461712E+00  0.45696096663E+00  0.10351676817E+01  0.00000000000E+00 0. -1.
</event>
<event>
 7    1  0.2297343E-008  0.4614232E+02  0.7816164E-02  0.1320468E+00
        -11   -1    0    0    0    0  0.00000000000E+00  0.00000000000E+00  0.45593999997E+02  0.45594000000E+02  0.51100000000E-03 0.  1.
         11   -1    0    0    0    0 -0.00000000000E+00 -0.00000000000E+00 -0.45593999997E+02  0.45594000000E+02  0.51100000000E-03 0. -1.
    9900012    2    1    2    0    0 -0.31492574471E+02  0.96547027104E+00  0.32193153316E+02  0.46142317631E+02  0.99999988169E+01 0.  0.
         12    1    1    2    0    0  0.31492574471E+02 -0.96547027104E+00 -0.32193153316E+02  0.45045682369E+02  0.00000000000E+00 0. -1.
         11    1    3    3    0    0 -0.78179624349E+01 -0.21432582674E+01  0.36575817905E+01  0.88933681724E+01  0.51100000000E-03 0. -1.
        -11    1    3    3    0    0 -0.82393789789E+01  0.13261565001E+01  0.87513505245E+01  0.12092650383E+02  0.51100000000E-03 0.  1.
         12    1    3    3    0    0 -0.15435233057E+02  0.17825720384E+01  0.19784221001E+02  0.25156299076E+02  0.00000000000E+00 0. -1.
</event>
<event>
 7    1  0.2297343E-008  0.4614232E+02  0.7816164E-02  0.1320468E+00
        -11   -1    0    0    0    0  0.00000000000E+00  0.00000000000E+00  0.45593999997E+02  0.45594000000E+02  0.51100000000E-03 0.  1.
         11   -1    0    0    0    0 -0.00000000000E+00 -0.00000000000E+00 -0.45593999997E+02  0.45594000000E+02  0.51100000000E-03 0. -1.
    9900012    2    1    2    0    0 -0.85597297781E+01 -0.22986612239E+01  0.44165154273E+02  0.46142315753E+02  0.99999816869E+01 0.  0.
         12    1    1    2    0    0  0.85597297781E+01  0.22986612239E+01 -0.44165154273E+02  0.45045684247E+02  0.00000000000E+00 0. -1.
         11    1    3    3    0    0 -0.12216993495E+01 -0.31516779468E+01  0.52782057546E+01  0.62677810612E+01  0.51100000000E-03 0. -1.
        -11    1    3    3    0    0 -0.22846303393E+01 -0.58476523931E-01  0.24355810060E+02  0.24462797045E+02  0.51100000000E-03 0.  1.
        -12    1    3    3    0    0 -0.50534000893E+01  0.91149324684E+00  0.14531138458E+02  0.15411737647E+02  0.00000000000E+00 0.  1.
</event>
<event>
 7    1  0.2297343E-008  0.4614232E+02  0.7816164E-02  0.1320468E+00
        -11   -1    0    0    0    0  0.00000000000E+00  0.00000000000E+00  0.45593999997E+02  0.45594000000E+02  0.51100000000E-03 0.  1.
         11   -1    0    0    0    0 -0.00000000000E+00 -0.00000000000E+00 -0.45593999997E+02  0.45594000000E+02  0.51100000000E-03 0. -1.
    9900012    2    1    2    0    0  0.18140668650E+02 -0.25948920693E+02  0.32041893650E+02  0.46142319931E+02  0.10000019785E+02 0.  0.
         12    1    1    2    0    0 -0.18140668650E+02  0.25948920693E+02 -0.32041893650E+02  0.45045680069E+02  0.00000000000E+00 0. -1.
         11    1    3    3    0    0  0.21319385490E+01 -0.89571835848E+01  0.84547658783E+01  0.12500374637E+02  0.51100000000E-03 0. -1.
        -11    1    3    3    0    0  0.53518109334E+01 -0.70213975014E+01  0.12551498951E+02  0.15345423726E+02  0.51100000000E-03 0.  1.
        -12    1    3    3    0    0  0.10656919168E+02 -0.99703396063E+01  0.11035628821E+02  0.18296521568E+02  0.00000000000E+00 0.  1.
</event>
<event>
 7    1  0.2297343E-008  0.4614233E+02  0.7816164E-02  0.1320468E+00
        -11   -1    0    0    0    0  0.00000000000E+00  0.00000000000E+00  0.45593999997E+02  0.45594000000E+02  0.51100000000E-03 0.  1.
         11   -1    0    0    0    0 -0.00000000000E+00 -0.00000000000E+00 -0.45593999997E+02  0.45594000000E+02  0.51100000000E-03 0. -1.
    9900012    2    1    2    0    0 -0.37724668639E+02 -0.15511551889E+02  0.19114234322E+02  0.46142325184E+02  0.10000067685E+02 0.  0.
         12    1    1    2    0    0  0.37724668639E+02  0.15511551889E+02 -0.19114234322E+02  0.45045674816E+02  0.00000000000E+00 0. -1.
         11    1    3    3    0    0 -0.64159801219E+01 -0.42594295965E+01  0.69162625023E+01  0.10350953032E+02  0.51100000000E-03 0. -1.
        -11    1    3    3    0    0 -0.17402657643E+02 -0.36486460254E+01  0.58545743045E+01  0.18720073488E+02  0.51100000000E-03 0.  1.
        -12    1    3    3    0    0 -0.13906030874E+02 -0.76034762666E+01  0.63433975153E+01  0.17071298663E+02  0.00000000000E+00 0.  1.
</event>
<event>
 7    1  0.2297343E-008  0.4614232E+02  0.7816164E-02  0.1320468E+00
        -11   -1    0    0    0    0  0.00000000000E+00  0.00000000000E+00  0.45593999997E+02  0.45594000000E+02  0.51100000000E-03 0.  1.
         11   -1    0    0    0    0 -0.00000000000E+00 -0.00000000000E+00 -0.45593999997E+02  0.45594000000E+02  0.51100000000E-03 0. -1.
    9900012    2    1    2    0    0 -0.27029290740E+02 -0.29060836132E+02  0.21307242346E+02  0.46142319508E+02  0.10000015929E+02 0.  0.
         12    1    1    2    0    0  0.27029290740E+02  0.29060836132E+02 -0.21307242346E+02  0.45045680492E+02  0.00000000000E+00 0. -1.
         11    1    3    3    0    0 -0.68789189106E+01 -0.49370638530E+01  0.69618175399E+01  0.10961798602E+02  0.51100000000E-03 0. -1.
        -11    1    3    3    0    0 -0.19425425199E+02 -0.21074045279E+02  0.14334240066E+02  0.32045794843E+02  0.51100000000E-03 0.  1.
         12    1    3    3    0    0 -0.72494662976E+00 -0.30497270006E+01  0.11184740446E-01  0.31347260634E+01  0.00000000000E+00 0. -1.
</event>
<event>
 7    1  0.2297343E-008  0.4614232E+02  0.7816164E-02  0.1320468E+00
        -11   -1    0    0    0    0  0.00000000000E+00  0.00000000000E+00  0.45593999997E+02  0.45594000000E+02  0.51100000000E-03 0. -1.
         11   -1    0    0    0    0 -0.00000000000E+00 -0.00000000000E+00 -0.45593999997E+02  0.45594000000E+02  0.51100000000E-03 0.  1.
    9900012    2    1    2    0    0  0.20838026322E+02  0.14458995875E+02 -0.37226705201E+02  0.46142317823E+02  0.10000000562E+02 0.  0.
         12    1    1    2    0    0 -0.20838026322E+02 -0.14458995875E+02  0.37226705201E+02  0.45045682177E+02  0.00000000000E+00 0. -1.
         11    1    3    3    0    0  0.22024560931E+01  0.34449378205E+01 -0.15720134388E+01  0.43805976695E+01  0.51100000000E-03 0. -1.
        -11    1    3    3    0    0  0.98015525359E+01  0.54885981825E+01 -0.16593052044E+02  0.20038076717E+02  0.51100000000E-03 0.  1.
         12    1    3    3    0    0  0.88340176928E+01  0.55254598715E+01 -0.19061639718E+02  0.21723643436E+02  0.00000000000E+00 0. -1.
</event>
<event>
 7    1  0.2297343E-008  0.4614232E+02  0.7816164E-02  0.1320468E+00
        -11   -1    0    0    0    0  0.00000000000E+00  0.00000000000E+00  0.45593999997E+02  0.45594000000E+02  0.51100000000E-03 0.  1.
         11   -1    0    0    0    0 -0.00000000000E+00 -0.00000000000E+00 -0.45593999997E+02  0.45594000000E+02  0.51100000000E-03 0. -1.
    9900012    2    1    2    0    0  0.38589428735E+02  0.11047879048E+02  0.20442941580E+02  0.46142317610E+02  0.99999986188E+01 0.  0.
         12    1    1    2    0    0 -0.38589428735E+02 -0.11047879048E+02 -0.20442941580E+02  0.45045682390E+02  0.00000000000E+00 0. -1.
         11    1    3    3    0    0  0.13447959221E+02 -0.23988356978E+00  0.70049484138E+01  0.15164908634E+02  0.51100000000E-03 0. -1.
        -11    1    3    3    0    0  0.15912862792E+02  0.49048715178E+01  0.88212412141E+01  0.18843865412E+02  0.51100000000E-03 0.  1.
        -12    1    3    3    0    0  0.92286067219E+01  0.63828910995E+01  0.46167519520E+01  0.12133543563E+02  0.00000000000E+00 0.  1.
</event>
<event>
 7    1  0.2297343E-008  0.4614232E+02  0.7816164E-02  0.1320468E+00
        -11   -1    0    0    0    0  0.00000000000E+00  0.00000000000E+00  0.45593999997E+02  0.45594000000E+02  0.51100000000E-03 0.  1.
         11   -1    0    0    0    0 -0.00000000000E+00 -0.00000000000E+00 -0.45593999997E+02  0.45594000000E+02  0.51100000000E-03 0. -1.
    9900012    2    1    2    0    0  0.19437827301E+02  0.16346938960E+02  0.37202983291E+02  0.46142317529E+02  0.99999978827E+01 0.  0.
         12    1    1    2    0    0 -0.19437827301E+02 -0.16346938960E+02 -0.37202983291E+02  0.45045682471E+02  0.00000000000E+00 0. -1.
         11    1    3    3    0    0  0.79407364287E+01  0.26142030038E+01  0.11983475130E+02  0.14611400646E+02  0.51100000000E-03 0. -1.
        -11    1    3    3    0    0  0.58239618086E+01  0.45178900048E+01  0.14673614535E+02  0.16420865538E+02  0.51100000000E-03 0.  1.
        -12    1    3    3    0    0  0.56731290635E+01  0.92148459512E+01  0.10545893626E+02  0.15110051345E+02  0.00000000000E+00 0.  1.
</event>
<event>
 7    1  0.2297343E-008  0.4614232E+02  0.7816164E-02  0.1320468E+00
        -11   -1    0    0    0    0  0.00000000000E+00  0.00000000000E+00  0.45593999997E+02  0.45594000000E+02  0.51100000000E-03 0.  1.
         11   -1    0    0    0    0 -0.00000000000E+00 -0.00000000000E+00 -0.45593999997E+02  0.45594000000E+02  0.51100000000E-03 0. -1.
    9900012    2    1    2    0    0 -0.57081068253E+01 -0.80863129310E+01  0.43944767339E+02  0.46142317445E+02  0.99999971163E+01 0.  0.
         12    1    1    2    0    0  0.57081068253E+01  0.80863129310E+01 -0.43944767339E+02  0.45045682555E+02  0.00000000000E+00 0. -1.
         11    1    3    3    0    0  0.12449633915E+01  0.49805194984E+00  0.19634358115E+01  0.23776185645E+01  0.51100000000E-03 0. -1.
        -11    1    3    3    0    0 -0.54792880835E+00 -0.46307075475E+01  0.19775192619E+02  0.20317527451E+02  0.51100000000E-03 0.  1.
        -12    1    3    3    0    0 -0.64051414085E+01 -0.39536573334E+01  0.22206138909E+02  0.23447171429E+02  0.00000000000E+00 0.  1.
</event>
<event>
 7    1  0.2297343E-008  0.4614231E+02  0.7816164E-02  0.1320468E+00
        -11   -1    0    0    0    0  0.00000000000E+00  0.00000000000E+00  0.45593999997E+02  0.45594000000E+02  0.51100000000E-03 0.  1.
         11   -1    0    0    0    0 -0.00000000000E+00 -0.00000000000E+00 -0.45593999997E+02  0.45594000000E+02  0.51100000000E-03 0. -1.
    9900012    2    1    2    0    0 -0.32010900407E+02 -0.27098597453E+02  0.16434179453E+02  0.46142312270E+02  0.99999499261E+01 0.  0.
         12    1    1    2    0    0  0.32010900407E+02  0.27098597453E+02 -0.16434179453E+02  0.45045687730E+02  0.00000000000E+00 0. -1.
         11    1    3    3    0    0 -0.69575109326E+01 -0.92056419939E+01  0.25023517508E+01  0.11807309916E+02  0.51100000000E-03 0. -1.
        -11    1    3    3    0    0 -0.97548626409E+01 -0.34695885498E+01  0.47920143019E+01  0.11408715580E+02  0.51100000000E-03 0.  1.
         12    1    3    3    0    0 -0.15298526834E+02 -0.14423366909E+02  0.91398133998E+01  0.22926286775E+02  0.00000000000E+00 0. -1.
</event>
<event>
 7    1  0.2297343E-008  0.4614232E+02  0.7816164E-02  0.1320468E+00
        -11   -1    0    0    0    0  0.00000000000E+00  0.00000000000E+00  0.45593999997E+02  0.45594000000E+02  0.51100000000E-03 0.  1.
         11   -1    0    0    0    0 -0.00000000000E+00 -0.00000000000E+00 -0.45593999997E+02  0.45594000000E+02  0.51100000000E-03 0. -1.
    9900012    2    1    2    0    0  0.43284944672E+02 -0.95161443316E+01  0.80604012146E+01  0.46142317566E+02  0.99999982218E+01 0.  0.
         12    1    1    2    0    0 -0.43284944672E+02  0.95161443316E+01 -0.80604012146E+01  0.45045682434E+02  0.00000000000E+00 0. -1.
         11    1    3    3    0    0  0.34381037842E+01 -0.28731984096E+01  0.27292872387E+01  0.52464117094E+01  0.51100000000E-03 0. -1.
        -11    1    3    3    0    0  0.18189180093E+02 -0.47042623616E+01  0.30262400732E+01  0.19029831477E+02  0.51100000000E-03 0.  1.
        -12    1    3    3    0    0  0.21657660795E+02 -0.19386835604E+01  0.23048739027E+01  0.21866074379E+02  0.00000000000E+00 0.  1.
</event>
<event>
 7    1  0.2297343E-008  0.4614232E+02  0.7816164E-02  0.1320468E+00
        -11   -1    0    0    0    0  0.00000000000E+00  0.00000000000E+00  0.45593999997E+02  0.45594000000E+02  0.51100000000E-03 0.  1.
         11   -1    0    0    0    0 -0.00000000000E+00 -0.00000000000E+00 -0.45593999997E+02  0.45594000000E+02  0.51100000000E-03 0. -1.
    9900012    2    1    2    0    0  0.13653786770E+02  0.41731377121E+02 -0.10058819236E+02  0.46142316810E+02  0.99999913292E+01 0.  0.
         12    1    1    2    0    0 -0.13653786770E+02 -0.41731377121E+02  0.10058819236E+02  0.45045683190E+02  0.00000000000E+00 0. -1.
         11    1    3    3    0    0  0.16358298923E+00  0.37757984598E+01 -0.20498440538E+01  0.42994504660E+01  0.51100000000E-03 0. -1.
        -11    1    3    3    0    0  0.72402829717E+01  0.28315461048E+02 -0.81910027286E+01  0.30352587333E+02  0.51100000000E-03 0.  1.
         12    1    3    3    0    0  0.62499208087E+01  0.96401176138E+01  0.18202754617E+00  0.11490279011E+02  0.00000000000E+00 0. -1.
</event>
<event>
 7    1  0.2297343E-008  0.4614232E+02  0.7816164E-02  0.1320468E+00
        -11   -1    0    0    0    0  0.00000000000E+00  0.00000000000E+00  0.45593999997E+02  0.45594000000E+02  0.51100000000E-03 0. -1.
         11   -1    0    0    0    0 -0.00000000000E+00 -0.00000000000E+00 -0.45593999997E+02  0.45594000000E+02  0.51100000000E-03 0.  1.
    9900012    2    1    2    0    0  0.35198730793E+02  0.20712865223E+02 -0.19003684706E+02  0.46142317992E+02  0.10000002106E+02 0.  0.
         12    1    1    2    0    0 -0.35198730793E+02 -0.20712865223E+02  0.19003684706E+02  0.45045682008E+02  0.00000000000E+00 0. -1.
         11    1    3    3    0    0  0.26074024139E+00  0.22088289839E+01 -0.89103871932E+00  0.23960094353E+01  0.51100000000E-03 0. -1.
        -11    1    3    3    0    0  0.72481565750E+01  0.51377271690E+01 -0.58868015563E+01  0.10657694264E+02  0.51100000000E-03 0.  1.
         12    1    3    3    0    0  0.27689833976E+02  0.13366309070E+02 -0.12225844430E+02  0.33088614293E+02  0.00000000000E+00 0. -1.
</event>
<event>
 7    1  0.2297343E-008  0.4614232E+02  0.7816164E-02  0.1320468E+00
        -11   -1    0    0    0    0  0.00000000000E+00  0.00000000000E+00  0.45593999997E+02  0.45594000000E+02  0.51100000000E-03 0.  1.
         11   -1    0    0    0    0 -0.00000000000E+00 -0.00000000000E+00 -0.45593999997E+02  0.45594000000E+02  0.51100000000E-03 0. -1.
    9900012    2    1    2    0    0  0.34620370157E+02 -0.26613308771E+01  0.28696005918E+02  0.46142317993E+02  0.10000002112E+02 0.  0.
         12    1    1    2    0    0 -0.34620370157E+02  0.26613308771E+01 -0.28696005918E+02  0.45045682007E+02  0.00000000000E+00 0. -1.
         11    1    3    3    0    0  0.34388351781E+01 -0.13667726387E+01  0.42774959994E+01  0.56560257349E+01  0.51100000000E-03 0.  1.
        -11    1    3    3    0    0  0.19402093059E+02  0.30874322323E+01  0.16261905589E+02  0.25503392451E+02  0.51100000000E-03 0. -1.
        -12    1    3    3    0    0  0.11779441920E+02 -0.43819904707E+01  0.81566043297E+01  0.14982899807E+02  0.00000000000E+00 0.  1.
</event>
<event>
 7    1  0.2297343E-008  0.4614232E+02  0.7816164E-02  0.1320468E+00
        -11   -1    0    0    0    0  0.00000000000E+00  0.00000000000E+00  0.45593999997E+02  0.45594000000E+02  0.51100000000E-03 0.  1.
         11   -1    0    0    0    0 -0.00000000000E+00 -0.00000000000E+00 -0.45593999997E+02  0.45594000000E+02  0.51100000000E-03 0. -1.
    9900012    2    1    2    0    0  0.19841455790E+02 -0.24958291884E+02  0.31820016043E+02  0.46142321821E+02  0.10000037023E+02 0.  0.
         12    1    1    2    0    0 -0.19841455790E+02  0.24958291884E+02 -0.31820016043E+02  0.45045678179E+02  0.00000000000E+00 0. -1.
         11    1    3    3    0    0  0.55204152436E+01 -0.37395633559E+01  0.50671647732E+01  0.83746926901E+01  0.51100000000E-03 0. -1.
        -11    1    3    3    0    0  0.88443840484E+01 -0.18541554071E+02  0.20011110786E+02  0.28678509580E+02  0.51100000000E-03 0.  1.
        -12    1    3    3    0    0  0.54766564976E+01 -0.26771744569E+01  0.67417404841E+01  0.90891195514E+01  0.00000000000E+00 0.  1.
</event>
<event>
 7    1  0.2297343E-008  0.4614231E+02  0.7816164E-02  0.1320468E+00
        -11   -1    0    0    0    0  0.00000000000E+00  0.00000000000E+00  0.45593999997E+02  0.45594000000E+02  0.51100000000E-03 0.  1.
         11   -1    0    0    0    0 -0.00000000000E+00 -0.00000000000E+00 -0.45593999997E+02  0.45594000000E+02  0.51100000000E-03 0. -1.
    9900012    2    1    2    0    0  0.28329442387E+01  0.44639396559E+02  0.53303570622E+01  0.46142312031E+02  0.99999477502E+01 0.  0.
         12    1    1    2    0    0 -0.28329442387E+01 -0.44639396559E+02 -0.53303570622E+01  0.45045687969E+02  0.00000000000E+00 0. -1.
         11    1    3    3    0    0 -0.32333273132E+01  0.11576564226E+02  0.17266652641E+01  0.12143006958E+02  0.51100000000E-03 0. -1.
        -11    1    3    3    0    0  0.17741374464E-01  0.58502473967E+00  0.58161551422E+00  0.82513366790E+00  0.51100000000E-03 0.  1.
        -12    1    3    3    0    0  0.60485301775E+01  0.32477807593E+02  0.30220762838E+01  0.33174171405E+02  0.00000000000E+00 0.  1.
</event>
<event>
 7    1  0.2297343E-008  0.4614232E+02  0.7816164E-02  0.1320468E+00
        -11   -1    0    0    0    0  0.00000000000E+00  0.00000000000E+00  0.45593999997E+02  0.45594000000E+02  0.51100000000E-03 0. -1.
         11   -1    0    0    0    0 -0.00000000000E+00 -0.00000000000E+00 -0.45593999997E+02  0.45594000000E+02  0.51100000000E-03 0.  1.
    9900012    2    1    2    0    0  0.31128489459E+02 -0.10622022406E+02 -0.30778293449E+02  0.46142316926E+02  0.99999923813E+01 0.  0.
         12    1    1    2    0    0 -0.31128489459E+02  0.10622022406E+02  0.30778293449E+02  0.45045683074E+02  0.00000000000E+00 0. -1.
         11    1    3    3    0    0  0.82016650164E+01 -0.51900936845E+01 -0.11603903755E+02  0.15127953071E+02  0.51100000000E-03 0. -1.
        -11    1    3    3    0    0  0.20880584835E+02 -0.28439861878E+01 -0.16777051815E+02  0.26936156896E+02  0.51100000000E-03 0.  1.
        -12    1    3    3    0    0  0.20462396079E+01 -0.25879425334E+01 -0.23973378791E+01  0.40782069585E+01  0.00000000000E+00 0.  1.
</event>
<event>
 7    1  0.2297343E-008  0.4614232E+02  0.7816164E-02  0.1320468E+00
        -11   -1    0    0    0    0  0.00000000000E+00  0.00000000000E+00  0.45593999997E+02  0.45594000000E+02  0.51100000000E-03 0. -1.
         11   -1    0    0    0    0 -0.00000000000E+00 -0.00000000000E+00 -0.45593999997E+02  0.45594000000E+02  0.51100000000E-03 0.  1.
    9900012    2    1    2    0    0  0.10736925710E+02 -0.23492285424E+02 -0.36904530685E+02  0.46142318373E+02  0.10000005582E+02 0.  0.
         12    1    1    2    0    0 -0.10736925710E+02  0.23492285424E+02  0.36904530685E+02  0.45045681627E+02  0.00000000000E+00 0. -1.
         11    1    3    3    0    0  0.19047680401E+00 -0.15230219543E+01 -0.61219582164E+01  0.63114380256E+01  0.51100000000E-03 0. -1.
        -11    1    3    3    0    0  0.49254721677E+01 -0.43639528608E+01 -0.10497174899E+02  0.12389311593E+02  0.51100000000E-03 0.  1.
         12    1    3    3    0    0  0.56209767385E+01 -0.17605310609E+02 -0.20285397570E+02  0.27441568754E+02  0.00000000000E+00 0. -1.
</event>
<event>
 7    1  0.2297343E-008  0.4614232E+02  0.7816164E-02  0.1320468E+00
        -11   -1    0    0    0    0  0.00000000000E+00  0.00000000000E+00  0.45593999997E+02  0.45594000000E+02  0.51100000000E-03 0.  1.
         11   -1    0    0    0    0 -0.00000000000E+00 -0.00000000000E+00 -0.45593999997E+02  0.45594000000E+02  0.51100000000E-03 0. -1.
    9900012    2    1    2    0    0 -0.25919627692E+02 -0.36837828379E+02  0.51074836786E+00  0.46142316930E+02  0.99999924214E+01 0.  0.
         12    1    1    2    0    0  0.25919627692E+02  0.36837828379E+02 -0.51074836786E+00  0.45045683070E+02  0.00000000000E+00 0. -1.
         11    1    3    3    0    0 -0.61244899915E+01 -0.78440356015E+01 -0.93648093072E+00  0.99957625506E+01  0.51100000000E-03 0. -1.
        -11    1    3    3    0    0 -0.18404032404E+02 -0.27417780924E+02 -0.84984030288E+00  0.33032792015E+02  0.51100000000E-03 0.  1.
         12    1    3    3    0    0 -0.13911052962E+01 -0.15760118538E+01  0.22970696015E+01  0.31137623645E+01  0.00000000000E+00 0. -1.
</event>
<event>
 7    1  0.2297343E-008  0.4614232E+02  0.7816164E-02  0.1320468E+00
        -11   -1    0    0    0    0  0.00000000000E+00  0.00000000000E+00  0.45593999997E+02  0.45594000000E+02  0.51100000000E-03 0. -1.
         11   -1    0    0    0    0 -0.00000000000E+00 -0.00000000000E+00 -0.45593999997E+02  0.45594000000E+02  0.51100000000E-03 0.  1.
    9900012    2    1    2    0    0 -0.15654358193E+02 -0.22061270846E+02 -0.36018813288E+02  0.46142317494E+02  0.99999975658E+01 0.  0.
         12    1    1    2    0    0  0.15654358193E+02  0.22061270846E+02  0.36018813288E+02  0.45045682506E+02  0.00000000000E+00 0. -1.
         11    1    3    3    0    0 -0.17981188753E+01 -0.84141838651E+01 -0.88847591058E+01  0.12368131073E+02  0.51100000000E-03 0. -1.
        -11    1    3    3    0    0 -0.50635778562E+01 -0.85135928557E+01 -0.12564703632E+02  0.15999776925E+02  0.51100000000E-03 0.  1.
         12    1    3    3    0    0 -0.87926614618E+01 -0.51334941248E+01 -0.14569350550E+02  0.17774409496E+02  0.00000000000E+00 0. -1.
</event>
<event>
 7    1  0.2297343E-008  0.4614232E+02  0.7816164E-02  0.1320468E+00
        -11   -1    0    0    0    0  0.00000000000E+00  0.00000000000E+00  0.45593999997E+02  0.45594000000E+02  0.51100000000E-03 0. -1.
         11   -1    0    0    0    0 -0.00000000000E+00 -0.00000000000E+00 -0.45593999997E+02  0.45594000000E+02  0.51100000000E-03 0.  1.
    9900012    2    1    2    0    0 -0.21279647405E+02 -0.14847559563E+02 -0.36821734020E+02  0.46142317467E+02  0.99999973169E+01 0.  0.
         12    1    1    2    0    0  0.21279647405E+02  0.14847559563E+02  0.36821734020E+02  0.45045682533E+02  0.00000000000E+00 0. -1.
         11    1    3    3    0    0 -0.44700992347E+01 -0.41085628672E+00 -0.96561281186E+01  0.10648539832E+02  0.51100000000E-03 0. -1.
        -11    1    3    3    0    0 -0.63130973152E+01 -0.41157225540E+01 -0.56265772918E+01  0.94049317985E+01  0.51100000000E-03 0.  1.
         12    1    3    3    0    0 -0.10496450855E+02 -0.10320980723E+02 -0.21539028609E+02  0.26088845836E+02  0.00000000000E+00 0. -1.
</event>
<event>
 7    1  0.2297343E-008  0.4614231E+02  0.7816164E-02  0.1320468E+00
        -11   -1    0    0    0    0  0.00000000000E+00  0.00000000000E+00  0.45593999997E+02  0.45594000000E+02  0.51100000000E-03 0.  1.
         11   -1    0    0    0    0 -0.00000000000E+00 -0.00000000000E+00 -0.45593999997E+02  0.45594000000E+02  0.51100000000E-03 0. -1.
    9900012    2    1    2    0    0  0.92386182976E+01  0.11952444497E+02  0.42437021052E+02  0.46142314821E+02  0.99999731898E+01 0.  0.
         12    1    1    2    0    0 -0.92386182976E+01 -0.11952444497E+02 -0.42437021052E+02  0.45045685179E+02  0.00000000000E+00 0. -1.
         11    1    3    3    0    0  0.88611730681E+01  0.10385817453E+02  0.32467692568E+02  0.35221252863E+02  0.51100000000E-03 0. -1.
        -11    1    3    3    0    0  0.21958556276E+01  0.11249579910E+01  0.43838271933E+01  0.50304327389E+01  0.51100000000E-03 0.  1.
         12    1    3    3    0    0 -0.18184103980E+01  0.44166905279E+00  0.55855012910E+01  0.58906292193E+01  0.00000000000E+00 0. -1.
</event>
<event>
 7    1  0.2297343E-008  0.4614232E+02  0.7816164E-02  0.1320468E+00
        -11   -1    0    0    0    0  0.00000000000E+00  0.00000000000E+00  0.45593999997E+02  0.45594000000E+02  0.51100000000E-03 0. -1.
         11   -1    0    0    0    0 -0.00000000000E+00 -0.00000000000E+00 -0.45593999997E+02  0.45594000000E+02  0.51100000000E-03 0.  1.
    9900012    2    1    2    0    0 -0.28686334107E+01  0.90669930828E+01 -0.44030376918E+02  0.46142317491E+02  0.99999975327E+01 0.  0.
         12    1    1    2    0    0  0.28686334107E+01 -0.90669930828E+01  0.44030376918E+02  0.45045682509E+02  0.00000000000E+00 0. -1.
         11    1    3    3    0    0 -0.35348880991E+00  0.33884907589E+00 -0.13001924169E+02  0.13011141587E+02  0.51100000000E-03 0. -1.
        -11    1    3    3    0    0 -0.46505422920E+01  0.31252059785E+01 -0.14123234587E+02  0.15194084753E+02  0.51100000000E-03 0.  1.
        -12    1    3    3    0    0  0.21353976911E+01  0.56029380283E+01 -0.16905218162E+02  0.17937091151E+02  0.00000000000E+00 0.  1.
</event>
<event>
 7    1  0.2297343E-008  0.4614232E+02  0.7816164E-02  0.1320468E+00
        -11   -1    0    0    0    0  0.00000000000E+00  0.00000000000E+00  0.45593999997E+02  0.45594000000E+02  0.51100000000E-03 0.  1.
         11   -1    0    0    0    0 -0.00000000000E+00 -0.00000000000E+00 -0.45593999997E+02  0.45594000000E+02  0.51100000000E-03 0. -1.
    9900012    2    1    2    0    0 -0.34896101606E+02 -0.28441544647E+02 -0.15665548933E+01  0.46142318038E+02  0.10000002527E+02 0.  0.
         12    1    1    2    0    0  0.34896101606E+02  0.28441544647E+02  0.15665548933E+01  0.45045681962E+02  0.00000000000E+00 0. -1.
         11    1    3    3    0    0 -0.96555699647E+01 -0.11804843527E+02 -0.40477442712E+01  0.15778738732E+02  0.51100000000E-03 0. -1.
        -11    1    3    3    0    0 -0.16935653528E+00 -0.26684100414E+00 -0.22661131113E-01  0.31685887319E+00  0.51100000000E-03 0.  1.
        -12    1    3    3    0    0 -0.25071175106E+02 -0.16369860115E+02  0.25038505091E+01  0.30046720433E+02  0.00000000000E+00 0.  1.
</event>
<event>
 7    1  0.2297343E-008  0.4614232E+02  0.7816164E-02  0.1320468E+00
        -11   -1    0    0    0    0  0.00000000000E+00  0.00000000000E+00  0.45593999997E+02  0.45594000000E+02  0.51100000000E-03 0.  1.
         11   -1    0    0    0    0 -0.00000000000E+00 -0.00000000000E+00 -0.45593999997E+02  0.45594000000E+02  0.51100000000E-03 0. -1.
    9900012    2    1    2    0    0  0.98684479193E+01  0.22749932716E+02  0.37605420233E+02  0.46142319476E+02  0.10000015641E+02 0.  0.
         12    1    1    2    0    0 -0.98684479193E+01 -0.22749932716E+02 -0.37605420233E+02  0.45045680524E+02  0.00000000000E+00 0. -1.
         11    1    3    3    0    0 -0.15351711468E+01  0.29733510210E+01  0.49863283258E+01  0.60050842774E+01  0.51100000000E-03 0. -1.
        -11    1    3    3    0    0  0.58793223330E+01  0.14817277265E+02  0.21414470407E+02  0.26696398253E+02  0.51100000000E-03 0.  1.
         12    1    3    3    0    0  0.55242967331E+01  0.49593044305E+01  0.11204621501E+02  0.13440836946E+02  0.00000000000E+00 0. -1.
</event>
<event>
 7    1  0.2297343E-008  0.4614232E+02  0.7816164E-02  0.1320468E+00
        -11   -1    0    0    0    0  0.00000000000E+00  0.00000000000E+00  0.45593999997E+02  0.45594000000E+02  0.51100000000E-03 0. -1.
         11   -1    0    0    0    0 -0.00000000000E+00 -0.00000000000E+00 -0.45593999997E+02  0.45594000000E+02  0.51100000000E-03 0.  1.
    9900012    2    1    2    0    0  0.29360817489E+02  0.16718141692E+02 -0.29791937872E+02  0.46142318438E+02  0.10000006169E+02 0.  0.
         12    1    1    2    0    0 -0.29360817489E+02 -0.16718141692E+02  0.29791937872E+02  0.45045681562E+02  0.00000000000E+00 0. -1.
         11    1    3    3    0    0  0.88718547446E+01  0.31975767004E+01 -0.90987139554E+01  0.13104232113E+02  0.51100000000E-03 0. -1.
        -11    1    3    3    0    0  0.12396942245E+02  0.36230910133E+01 -0.93222336164E+01  0.15928433864E+02  0.51100000000E-03 0.  1.
         12    1    3    3    0    0  0.80920204999E+01  0.98974739778E+01 -0.11370990300E+02  0.17109652460E+02  0.00000000000E+00 0. -1.
</event>
<event>
 7    1  0.2297343E-008  0.4614232E+02  0.7816164E-02  0.1320468E+00
        -11   -1    0    0    0    0  0.00000000000E+00  0.00000000000E+00  0.45593999997E+02  0.45594000000E+02  0.51100000000E-03 0.  1.
         11   -1    0    0    0    0 -0.00000000000E+00 -0.00000000000E+00 -0.45593999997E+02  0.45594000000E+02  0.51100000000E-03 0. -1.
    9900012    2    1    2    0    0 -0.12407363236E+02 -0.23301772569E+02  0.36499290260E+02  0.46142318111E+02  0.10000003193E+02 0.  0.
         12    1    1    2    0    0  0.12407363236E+02  0.23301772569E+02 -0.36499290260E+02  0.45045681889E+02  0.00000000000E+00 0. -1.
         11    1    3    3    0    0 -0.97633411766E+01 -0.88224098464E+01  0.15736044774E+02  0.20512943519E+02  0.51100000000E-03 0. -1.
        -11    1    3    3    0    0 -0.24068953512E+01 -0.10705769826E+02  0.17388695861E+02  0.20561454151E+02  0.51100000000E-03 0.  1.
         12    1    3    3    0    0 -0.23712670772E+00 -0.37735928962E+01  0.33745496256E+01  0.50679204411E+01  0.00000000000E+00 0. -1.
</event>
<event>
 7    1  0.2297343E-008  0.4614232E+02  0.7816164E-02  0.1320468E+00
        -11   -1    0    0    0    0  0.00000000000E+00  0.00000000000E+00  0.45593999997E+02  0.45594000000E+02  0.51100000000E-03 0. -1.
         11   -1    0    0    0    0 -0.00000000000E+00 -0.00000000000E+00 -0.45593999997E+02  0.45594000000E+02  0.51100000000E-03 0.  1.
    9900012    2    1    2    0    0 -0.32279638211E+02 -0.24871703585E+02 -0.19197312668E+02  0.46142317677E+02  0.99999992355E+01 0.  0.
         12    1    1    2    0    0  0.32279638211E+02  0.24871703585E+02  0.19197312668E+02  0.45045682323E+02  0.00000000000E+00 0. -1.
         11    1    3    3    0    0 -0.50596848546E+01 -0.47356216684E+01 -0.64491917396E+00  0.69600606619E+01  0.51100000000E-03 0. -1.
        -11    1    3    3    0    0 -0.11051047643E+02 -0.11199045716E+02 -0.59606385151E+01  0.16824787984E+02  0.51100000000E-03 0.  1.
        -12    1    3    3    0    0 -0.16168905713E+02 -0.89370362007E+01 -0.12591754979E+02  0.22357469031E+02  0.00000000000E+00 0.  1.
</event>
<event>
 7    1  0.2297343E-008  0.4614232E+02  0.7816164E-02  0.1320468E+00
        -11   -1    0    0    0    0  0.00000000000E+00  0.00000000000E+00  0.45593999997E+02  0.45594000000E+02  0.51100000000E-03 0.  1.
         11   -1    0    0    0    0 -0.00000000000E+00 -0.00000000000E+00 -0.45593999997E+02  0.45594000000E+02  0.51100000000E-03 0. -1.
    9900012    2    1    2    0    0  0.21036608054E+02  0.38371859787E+02  0.10685270353E+02  0.46142317583E+02  0.99999983730E+01 0.  0.
         12    1    1    2    0    0 -0.21036608054E+02 -0.38371859787E+02 -0.10685270353E+02  0.45045682417E+02  0.00000000000E+00 0. -1.
         11    1    3    3    0    0  0.88131512320E+00  0.48810204803E+01  0.22419899917E+01  0.54431237961E+01  0.51100000000E-03 0. -1.
        -11    1    3    3    0    0  0.41410414918E+00  0.21098347501E+01 -0.11020902153E+01  0.24160894070E+01  0.51100000000E-03 0.  1.
        -12    1    3    3    0    0  0.19741188782E+02  0.31381004556E+02  0.95453705769E+01  0.38283104380E+02  0.00000000000E+00 0.  1.
</event>
<event>
 7    1  0.2297343E-008  0.4614232E+02  0.7816164E-02  0.1320468E+00
        -11   -1    0    0    0    0  0.00000000000E+00  0.00000000000E+00  0.45593999997E+02  0.45594000000E+02  0.51100000000E-03 0. -1.
         11   -1    0    0    0    0 -0.00000000000E+00 -0.00000000000E+00 -0.45593999997E+02  0.45594000000E+02  0.51100000000E-03 0.  1.
    9900012    2    1    2    0    0 -0.16333313786E+01  0.24572178643E+02 -0.37718082470E+02  0.46142317856E+02  0.10000000862E+02 0.  0.
         12    1    1    2    0    0  0.16333313786E+01 -0.24572178643E+02  0.37718082470E+02  0.45045682144E+02  0.00000000000E+00 0. -1.
         11    1    3    3    0    0  0.25504341717E+01  0.10210105856E+02 -0.10979037835E+02  0.15208229618E+02  0.51100000000E-03 0. -1.
        -11    1    3    3    0    0 -0.92844578526E+00  0.52189584910E+00 -0.37976686261E+01  0.39441949886E+01  0.51100000000E-03 0.  1.
        -12    1    3    3    0    0 -0.32553197651E+01  0.13840176938E+02 -0.22941376009E+02  0.26989893249E+02  0.00000000000E+00 0.  1.
</event>
<event>
 7    1  0.2297343E-008  0.4614232E+02  0.7816164E-02  0.1320468E+00
        -11   -1    0    0    0    0  0.00000000000E+00  0.00000000000E+00  0.45593999997E+02  0.45594000000E+02  0.51100000000E-03 0.  1.
         11   -1    0    0    0    0 -0.00000000000E+00 -0.00000000000E+00 -0.45593999997E+02  0.45594000000E+02  0.51100000000E-03 0. -1.
    9900012    2    1    2    0    0 -0.40518557171E+02 -0.45487624843E+01  0.19148597638E+02  0.46142317556E+02  0.99999981266E+01 0.  0.
         12    1    1    2    0    0  0.40518557171E+02  0.45487624843E+01 -0.19148597638E+02  0.45045682444E+02  0.00000000000E+00 0. -1.
         11    1    3    3    0    0 -0.68051162702E+01 -0.98965517692E+00  0.19498665252E+01  0.71477971814E+01  0.51100000000E-03 0. -1.
        -11    1    3    3    0    0 -0.82108934937E+01  0.15949506114E+01  0.11972750360E+01  0.84496217188E+01  0.51100000000E-03 0.  1.
         12    1    3    3    0    0 -0.25502547407E+02 -0.51540579188E+01  0.16001456077E+02  0.30544898655E+02  0.00000000000E+00 0. -1.
</event>
<event>
 7    1  0.2297343E-008  0.4614232E+02  0.7816164E-02  0.1320468E+00
        -11   -1    0    0    0    0  0.00000000000E+00  0.00000000000E+00  0.45593999997E+02  0.45594000000E+02  0.51100000000E-03 0.  1.
         11   -1    0    0    0    0 -0.00000000000E+00 -0.00000000000E+00 -0.45593999997E+02  0.45594000000E+02  0.51100000000E-03 0. -1.
    9900012    2    1    2    0    0  0.21879779874E+02  0.24432461712E+02  0.30877881756E+02  0.46142317251E+02  0.99999953448E+01 0.  0.
         12    1    1    2    0    0 -0.21879779874E+02 -0.24432461712E+02 -0.30877881756E+02  0.45045682749E+02  0.00000000000E+00 0. -1.
         11    1    3    3    0    0  0.52105536572E+01  0.23111941381E+01  0.28933002654E+01  0.63923919190E+01  0.51100000000E-03 0. -1.
        -11    1    3    3    0    0  0.14337215168E+01  0.14070678519E+00  0.19658202635E+01  0.24371715895E+01  0.51100000000E-03 0.  1.
        -12    1    3    3    0    0  0.15235504700E+02  0.21980560789E+02  0.26018761227E+02  0.37312753742E+02  0.00000000000E+00 0.  1.
</event>
<event>
 7    1  0.2297343E-008  0.4614232E+02  0.7816164E-02  0.1320468E+00
        -11   -1    0    0    0    0  0.00000000000E+00  0.00000000000E+00  0.45593999997E+02  0.45594000000E+02  0.51100000000E-03 0.  1.
         11   -1    0    0    0    0 -0.00000000000E+00 -0.00000000000E+00 -0.45593999997E+02  0.45594000000E+02  0.51100000000E-03 0. -1.
    9900012    2    1    2    0    0 -0.79220112230E+01 -0.36365859158E+02  0.25374782322E+02  0.46142317055E+02  0.99999935611E+01 0.  0.
         12    1    1    2    0    0  0.79220112230E+01  0.36365859158E+02 -0.25374782322E+02  0.45045682945E+02  0.00000000000E+00 0. -1.
         11    1    3    3    0    0 -0.11621652011E+00 -0.19574777903E+02  0.11628843010E+02  0.22768737915E+02  0.51100000000E-03 0. -1.
        -11    1    3    3    0    0 -0.38129701131E+01 -0.11873678696E+02  0.10222822551E+02  0.16125417453E+02  0.51100000000E-03 0.  1.
        -12    1    3    3    0    0 -0.39928245898E+01 -0.49174025583E+01  0.35231167605E+01  0.72481616865E+01  0.00000000000E+00 0.  1.
</event>
<event>
 7    1  0.2297343E-008  0.4614232E+02  0.7816164E-02  0.1320468E+00
        -11   -1    0    0    0    0  0.00000000000E+00  0.00000000000E+00  0.45593999997E+02  0.45594000000E+02  0.51100000000E-03 0. -1.
         11   -1    0    0    0    0 -0.00000000000E+00 -0.00000000000E+00 -0.45593999997E+02  0.45594000000E+02  0.51100000000E-03 0.  1.
    9900012    2    1    2    0    0 -0.12961846582E+02  0.11601355206E+02 -0.41551323787E+02  0.46142318544E+02  0.10000007139E+02 0.  0.
         12    1    1    2    0    0  0.12961846582E+02 -0.11601355206E+02  0.41551323787E+02  0.45045681456E+02  0.00000000000E+00 0. -1.
         11    1    3    3    0    0 -0.15124057490E+01  0.47629452515E+00 -0.10818872282E+01  0.19195592880E+01  0.51100000000E-03 0. -1.
        -11    1    3    3    0    0 -0.11823786113E+01  0.64009970046E+01 -0.15760158575E+02  0.17051492029E+02  0.51100000000E-03 0.  1.
        -12    1    3    3    0    0 -0.10267062222E+02  0.47240636757E+01 -0.24709277984E+02  0.27171267227E+02  0.00000000000E+00 0.  1.
</event>
<event>
 7    1  0.2297343E-008  0.4614232E+02  0.7816164E-02  0.1320468E+00
        -11   -1    0    0    0    0  0.00000000000E+00  0.00000000000E+00  0.45593999997E+02  0.45594000000E+02  0.51100000000E-03 0.  1.
         11   -1    0    0    0    0 -0.00000000000E+00 -0.00000000000E+00 -0.45593999997E+02  0.45594000000E+02  0.51100000000E-03 0. -1.
    9900012    2    1    2    0    0 -0.19573807031E+02  0.77573492335E+00  0.40563257113E+02  0.46142317477E+02  0.99999974073E+01 0.  0.
         12    1    1    2    0    0  0.19573807031E+02 -0.77573492335E+00 -0.40563257113E+02  0.45045682523E+02  0.00000000000E+00 0. -1.
         11    1    3    3    0    0 -0.83788877844E+01  0.94796804949E+00  0.24067804736E+02  0.25502227922E+02  0.51100000000E-03 0. -1.
        -11    1    3    3    0    0 -0.65779609670E+01 -0.26227426470E+01  0.81931692442E+01  0.10829421591E+02  0.51100000000E-03 0.  1.
        -12    1    3    3    0    0 -0.46169582798E+01  0.24505095209E+01  0.83022831332E+01  0.98106679636E+01  0.00000000000E+00 0.  1.
</event>
<event>
 7    1  0.2297343E-008  0.4614232E+02  0.7816164E-02  0.1320468E+00
        -11   -1    0    0    0    0  0.00000000000E+00  0.00000000000E+00  0.45593999997E+02  0.45594000000E+02  0.51100000000E-03 0.  1.
         11   -1    0    0    0    0 -0.00000000000E+00 -0.00000000000E+00 -0.45593999997E+02  0.45594000000E+02  0.51100000000E-03 0. -1.
    9900012    2    1    2    0    0  0.11786060168E+00 -0.13933157357E+02  0.42836512609E+02  0.46142316771E+02  0.99999909746E+01 0.  0.
         12    1    1    2    0    0 -0.11786060168E+00  0.13933157357E+02 -0.42836512609E+02  0.45045683229E+02  0.00000000000E+00 0. -1.
         11    1    3    3    0    0  0.22544826454E+01 -0.19191463744E+01  0.50589774920E+01  0.58616608850E+01  0.51100000000E-03 0. -1.
        -11    1    3    3    0    0 -0.23443061279E+01 -0.11756378879E+02  0.38023416181E+02  0.39868388404E+02  0.51100000000E-03 0.  1.
        -12    1    3    3    0    0  0.20768408422E+00 -0.25763210352E+00 -0.24588106421E+00  0.41226748276E+00  0.00000000000E+00 0.  1.
</event>
<event>
 7    1  0.2297343E-008  0.4614231E+02  0.7816164E-02  0.1320468E+00
        -11   -1    0    0    0    0  0.00000000000E+00  0.00000000000E+00  0.45593999997E+02  0.45594000000E+02  0.51100000000E-03 0.  1.
         11   -1    0    0    0    0 -0.00000000000E+00 -0.00000000000E+00 -0.45593999997E+02  0.45594000000E+02  0.51100000000E-03 0. -1.
    9900012    2    1    2    0    0  0.16206685617E+02  0.22319749067E+02  0.35613003097E+02  0.46142313784E+02  0.99999637303E+01 0.  0.
         12    1    1    2    0    0 -0.16206685617E+02 -0.22319749067E+02 -0.35613003097E+02  0.45045686216E+02  0.00000000000E+00 0. -1.
         11    1    3    3    0    0  0.84088923822E+01  0.11581143908E+02  0.18003707905E+02  0.22999257899E+02  0.51100000000E-03 0. -1.
        -11    1    3    3    0    0  0.89638714895E+01  0.80197962010E+01  0.13518989510E+02  0.18095060122E+02  0.51100000000E-03 0.  1.
         12    1    3    3    0    0 -0.11660782547E+01  0.27188089581E+01  0.40903056827E+01  0.50479957632E+01  0.00000000000E+00 0. -1.
</event>
<event>
 7    1  0.2297343E-008  0.4614232E+02  0.7816164E-02  0.1320468E+00
        -11   -1    0    0    0    0  0.00000000000E+00  0.00000000000E+00  0.45593999997E+02  0.45594000000E+02  0.51100000000E-03 0.  1.
         11   -1    0    0    0    0 -0.00000000000E+00 -0.00000000000E+00 -0.45593999997E+02  0.45594000000E+02  0.51100000000E-03 0. -1.
    9900012    2    1    2    0    0 -0.27273712621E+02 -0.10834604712E+02  0.34174104517E+02  0.46142317865E+02  0.10000000951E+02 0.  0.
         12    1    1    2    0    0  0.27273712621E+02  0.10834604712E+02 -0.34174104517E+02  0.45045682135E+02  0.00000000000E+00 0. -1.
         11    1    3    3    0    0 -0.38464586449E+01  0.12121409565E+01  0.20953290180E+01  0.45447699348E+01  0.51100000000E-03 0. -1.
        -11    1    3    3    0    0 -0.14090436494E+02 -0.86799754520E+01  0.19569561462E+02  0.25629087196E+02  0.51100000000E-03 0.  1.
        -12    1    3    3    0    0 -0.93368174825E+01 -0.33667702170E+01  0.12509214037E+02  0.15968460734E+02  0.00000000000E+00 0.  1.
</event>
<event>
 7    1  0.2297343E-008  0.4614232E+02  0.7816164E-02  0.1320468E+00
        -11   -1    0    0    0    0  0.00000000000E+00  0.00000000000E+00  0.45593999997E+02  0.45594000000E+02  0.51100000000E-03 0. -1.
         11   -1    0    0    0    0 -0.00000000000E+00 -0.00000000000E+00 -0.45593999997E+02  0.45594000000E+02  0.51100000000E-03 0.  1.
    9900012    2    1    2    0    0 -0.25782158045E+02  0.29308984111E+02 -0.22480599097E+02  0.46142316979E+02  0.99999928660E+01 0.  0.
         12    1    1    2    0    0  0.25782158045E+02 -0.29308984111E+02  0.22480599097E+02  0.45045683021E+02  0.00000000000E+00 0. -1.
         11    1    3    3    0    0 -0.35101798667E+01  0.33001066245E+01 -0.18008462088E+00  0.48212547290E+01  0.51100000000E-03 0. -1.
        -11    1    3    3    0    0 -0.19280677407E+02  0.21050730847E+02 -0.15844113372E+02  0.32648334096E+02  0.51100000000E-03 0.  1.
         12    1    3    3    0    0 -0.29913007713E+01  0.49581466397E+01 -0.64564011041E+01  0.86727281533E+01  0.00000000000E+00 0. -1.
</event>
<event>
 7    1  0.2297343E-008  0.4614232E+02  0.7816164E-02  0.1320468E+00
        -11   -1    0    0    0    0  0.00000000000E+00  0.00000000000E+00  0.45593999997E+02  0.45594000000E+02  0.51100000000E-03 0. -1.
         11   -1    0    0    0    0 -0.00000000000E+00 -0.00000000000E+00 -0.45593999997E+02  0.45594000000E+02  0.51100000000E-03 0.  1.
    9900012    2    1    2    0    0 -0.73063268990E+01  0.37123271239E+02 -0.24445731884E+02  0.46142317769E+02  0.10000000075E+02 0.  0.
         12    1    1    2    0    0  0.73063268990E+01 -0.37123271239E+02  0.24445731884E+02  0.45045682231E+02  0.00000000000E+00 0. -1.
         11    1    3    3    0    0 -0.52798329425E+01  0.14198114626E+02 -0.11018783884E+02  0.18731702896E+02  0.51100000000E-03 0. -1.
        -11    1    3    3    0    0 -0.11542770989E+01  0.80771146722E+01 -0.84002576828E+01  0.11710528017E+02  0.51100000000E-03 0.  1.
        -12    1    3    3    0    0 -0.87221685768E+00  0.14848041942E+02 -0.50266903168E+01  0.15700086856E+02  0.00000000000E+00 0.  1.
</event>
<event>
 7    1  0.2297343E-008  0.4614232E+02  0.7816164E-02  0.1320468E+00
        -11   -1    0    0    0    0  0.00000000000E+00  0.00000000000E+00  0.45593999997E+02  0.45594000000E+02  0.51100000000E-03 0.  1.
         11   -1    0    0    0    0 -0.00000000000E+00 -0.00000000000E+00 -0.45593999997E+02  0.45594000000E+02  0.51100000000E-03 0. -1.
    9900012    2    1    2    0    0  0.92271444614E+01  0.18352186860E+01  0.44052301526E+02  0.46142317718E+02  0.99999996050E+01 0.  0.
         12    1    1    2    0    0 -0.92271444614E+01 -0.18352186860E+01 -0.44052301526E+02  0.45045682282E+02  0.00000000000E+00 0. -1.
         11    1    3    3    0    0 -0.36387917171E+00  0.27363765602E-02  0.43203121753E+00  0.56485995911E+00  0.51100000000E-03 0. -1.
        -11    1    3    3    0    0  0.60540102940E+01  0.38343991932E+01  0.14491807680E+02  0.16166822443E+02  0.51100000000E-03 0.  1.
        -12    1    3    3    0    0  0.35370133391E+01 -0.20019168837E+01  0.29128462629E+02  0.29410635316E+02  0.00000000000E+00 0.  1.
</event>
<event>
 7    1  0.2297343E-008  0.4614232E+02  0.7816164E-02  0.1320468E+00
        -11   -1    0    0    0    0  0.00000000000E+00  0.00000000000E+00  0.45593999997E+02  0.45594000000E+02  0.51100000000E-03 0.  1.
         11   -1    0    0    0    0 -0.00000000000E+00 -0.00000000000E+00 -0.45593999997E+02  0.45594000000E+02  0.51100000000E-03 0. -1.
    9900012    2    1    2    0    0 -0.14215423349E+01  0.39581887238E+02  0.21456163446E+02  0.46142317302E+02  0.99999958147E+01 0.  0.
         12    1    1    2    0    0  0.14215423349E+01 -0.39581887238E+02 -0.21456163446E+02  0.45045682698E+02  0.00000000000E+00 0. -1.
         11    1    3    3    0    0  0.17218597326E+01  0.11076471448E+02  0.83047845246E+01  0.13950715642E+02  0.51100000000E-03 0. -1.
        -11    1    3    3    0    0 -0.47992332668E+01  0.14411638328E+02  0.66019343209E+01  0.16562412151E+02  0.51100000000E-03 0.  1.
         12    1    3    3    0    0  0.16558311993E+01  0.14093777462E+02  0.65494446005E+01  0.15629189508E+02  0.00000000000E+00 0. -1.
</event>
<event>
 7    1  0.2297343E-008  0.4614232E+02  0.7816164E-02  0.1320468E+00
        -11   -1    0    0    0    0  0.00000000000E+00  0.00000000000E+00  0.45593999997E+02  0.45594000000E+02  0.51100000000E-03 0. -1.
         11   -1    0    0    0    0 -0.00000000000E+00 -0.00000000000E+00 -0.45593999997E+02  0.45594000000E+02  0.51100000000E-03 0.  1.
    9900012    2    1    2    0    0  0.39875584900E+02 -0.20779906552E+02 -0.26919809771E+01  0.46142317088E+02  0.99999938613E+01 0.  0.
         12    1    1    2    0    0 -0.39875584900E+02  0.20779906552E+02  0.26919809771E+01  0.45045682912E+02  0.00000000000E+00 0. -1.
         11    1    3    3    0    0  0.17627940574E+02 -0.11908393997E+02  0.44900984575E+00  0.21278057866E+02  0.51100000000E-03 0. -1.
        -11    1    3    3    0    0  0.66168007775E+01 -0.43564842928E+01 -0.33292281350E+01  0.85932978628E+01  0.51100000000E-03 0.  1.
         12    1    3    3    0    0  0.15630843549E+02 -0.45150282626E+01  0.18823731221E+00  0.16270961359E+02  0.00000000000E+00 0. -1.
</event>
<event>
 7    1  0.2297343E-008  0.4614232E+02  0.7816164E-02  0.1320468E+00
        -11   -1    0    0    0    0  0.00000000000E+00  0.00000000000E+00  0.45593999997E+02  0.45594000000E+02  0.51100000000E-03 0.  1.
         11   -1    0    0    0    0 -0.00000000000E+00 -0.00000000000E+00 -0.45593999997E+02  0.45594000000E+02  0.51100000000E-03 0. -1.
    9900012    2    1    2    0    0 -0.68086848998E+01  0.14606645509E+02  0.42064250845E+02  0.46142317830E+02  0.10000000624E+02 0.  0.
         12    1    1    2    0    0  0.68086848998E+01 -0.14606645509E+02 -0.42064250845E+02  0.45045682170E+02  0.00000000000E+00 0. -1.
         11    1    3    3    0    0  0.13106537224E+01  0.37899898396E+00  0.33210101694E+01  0.35903429107E+01  0.51100000000E-03 0. -1.
        -11    1    3    3    0    0 -0.34637879233E+01  0.37433475583E+01  0.60965102044E+01  0.79484536014E+01  0.51100000000E-03 0.  1.
        -12    1    3    3    0    0 -0.46555506989E+01  0.10484298966E+02  0.32646730471E+02  0.34603521317E+02  0.00000000000E+00 0.  1.
</event>
<event>
 7    1  0.2297343E-008  0.4614231E+02  0.7816164E-02  0.1320468E+00
        -11   -1    0    0    0    0  0.00000000000E+00  0.00000000000E+00  0.45593999997E+02  0.45594000000E+02  0.51100000000E-03 0. -1.
         11   -1    0    0    0    0 -0.00000000000E+00 -0.00000000000E+00 -0.45593999997E+02  0.45594000000E+02  0.51100000000E-03 0.  1.
    9900012    2    1    2    0    0 -0.28237657514E+02  0.33923928799E+02 -0.89953074104E+01  0.46142314275E+02  0.99999682141E+01 0.  0.
         12    1    1    2    0    0  0.28237657514E+02 -0.33923928799E+02  0.89953074104E+01  0.45045685725E+02  0.00000000000E+00 0. -1.
         11    1    3    3    0    0 -0.12198933030E+02  0.11866462903E+02 -0.75312062081E+01  0.18610372810E+02  0.51100000000E-03 0. -1.
        -11    1    3    3    0    0 -0.14398903198E+02  0.20009466423E+02 -0.23483785354E+01  0.24763320493E+02  0.51100000000E-03 0.  1.
        -12    1    3    3    0    0 -0.16398212854E+01  0.20479994732E+01  0.88427733309E+00  0.27686209730E+01  0.00000000000E+00 0.  1.
</event>
<event>
 7    1  0.2297343E-008  0.4614231E+02  0.7816164E-02  0.1320468E+00
        -11   -1    0    0    0    0  0.00000000000E+00  0.00000000000E+00  0.45593999997E+02  0.45594000000E+02  0.51100000000E-03 0.  1.
         11   -1    0    0    0    0 -0.00000000000E+00 -0.00000000000E+00 -0.45593999997E+02  0.45594000000E+02  0.51100000000E-03 0. -1.
    9900012    2    1    2    0    0 -0.68111284232E+01 -0.22454743902E+02  0.38451359635E+02  0.46142311507E+02  0.99999429666E+01 0.  0.
         12    1    1    2    0    0  0.68111284232E+01  0.22454743902E+02 -0.38451359635E+02  0.45045688493E+02  0.00000000000E+00 0. -1.
         11    1    3    3    0    0 -0.98869352474E-01 -0.10386733485E+01  0.13565875223E+00  0.10521506698E+01  0.51100000000E-03 0. -1.
        -11    1    3    3    0    0 -0.69332667185E+01 -0.16211237194E+02  0.23456401290E+02  0.29344116284E+02  0.51100000000E-03 0.  1.
        -12    1    3    3    0    0  0.22100764776E+00 -0.52048333586E+01  0.14859299593E+02  0.15746044553E+02  0.00000000000E+00 0.  1.
</event>
<event>
 7    1  0.2297343E-008  0.4614231E+02  0.7816164E-02  0.1320468E+00
        -11   -1    0    0    0    0  0.00000000000E+00  0.00000000000E+00  0.45593999997E+02  0.45594000000E+02  0.51100000000E-03 0.  1.
         11   -1    0    0    0    0 -0.00000000000E+00 -0.00000000000E+00 -0.45593999997E+02  0.45594000000E+02  0.51100000000E-03 0. -1.
    9900012    2    1    2    0    0  0.15982421520E+01  0.42584579450E+02 -0.14598390454E+02  0.46142314427E+02  0.99999695954E+01 0.  0.
         12    1    1    2    0    0 -0.15982421520E+01 -0.42584579450E+02  0.14598390454E+02  0.45045685573E+02  0.00000000000E+00 0. -1.
         11    1    3    3    0    0 -0.61855113181E+00  0.21912675880E+02 -0.92099413026E+01  0.23777531175E+02  0.51100000000E-03 0.  1.
        -11    1    3    3    0    0 -0.53484968790E+00  0.10053369044E+02  0.16692727508E+00  0.10068970071E+02  0.51100000000E-03 0. -1.
        -12    1    3    3    0    0  0.27516429717E+01  0.10618534526E+02 -0.55553764268E+01  0.12295813180E+02  0.00000000000E+00 0.  1.
</event>
<event>
 7    1  0.2297343E-008  0.4614232E+02  0.7816164E-02  0.1320468E+00
        -11   -1    0    0    0    0  0.00000000000E+00  0.00000000000E+00  0.45593999997E+02  0.45594000000E+02  0.51100000000E-03 0.  1.
         11   -1    0    0    0    0 -0.00000000000E+00 -0.00000000000E+00 -0.45593999997E+02  0.45594000000E+02  0.51100000000E-03 0. -1.
    9900012    2    1    2    0    0 -0.15275127113E+02 -0.17626060641E+02  0.38537071960E+02  0.46142318328E+02  0.10000005166E+02 0.  0.
         12    1    1    2    0    0  0.15275127113E+02  0.17626060641E+02 -0.38537071960E+02  0.45045681672E+02  0.00000000000E+00 0. -1.
         11    1    3    3    0    0  0.15266697958E+00  0.29853060746E+00  0.44639883385E+00  0.55830091369E+00  0.51100000000E-03 0. -1.
        -11    1    3    3    0    0 -0.13771512885E+02 -0.18646014857E+02  0.36040579253E+02  0.42851508612E+02  0.51100000000E-03 0.  1.
        -12    1    3    3    0    0 -0.16562812076E+01  0.72142360813E+00  0.20500938735E+01  0.27325088017E+01  0.00000000000E+00 0.  1.
</event>
<event>
 7    1  0.2297343E-008  0.4614231E+02  0.7816164E-02  0.1320468E+00
        -11   -1    0    0    0    0  0.00000000000E+00  0.00000000000E+00  0.45593999997E+02  0.45594000000E+02  0.51100000000E-03 0.  1.
         11   -1    0    0    0    0 -0.00000000000E+00 -0.00000000000E+00 -0.45593999997E+02  0.45594000000E+02  0.51100000000E-03 0. -1.
    9900012    2    1    2    0    0  0.52290192562E+01 -0.15236848826E+02  0.42066730798E+02  0.46142311587E+02  0.99999437026E+01 0.  0.
         12    1    1    2    0    0 -0.52290192562E+01  0.15236848826E+02 -0.42066730798E+02  0.45045688413E+02  0.00000000000E+00 0. -1.
         11    1    3    3    0    0  0.61764182753E+01 -0.63157098199E+01  0.17736589320E+02  0.19814715092E+02  0.51100000000E-03 0. -1.
        -11    1    3    3    0    0  0.15376016460E+01 -0.31396219617E+01  0.11784877911E+02  0.12292468935E+02  0.51100000000E-03 0.  1.
         12    1    3    3    0    0 -0.24850006651E+01 -0.57815170445E+01  0.12545263568E+02  0.14035127560E+02  0.00000000000E+00 0. -1.
</event>
<event>
 7    1  0.2297343E-008  0.4614232E+02  0.7816164E-02  0.1320468E+00
        -11   -1    0    0    0    0  0.00000000000E+00  0.00000000000E+00  0.45593999997E+02  0.45594000000E+02  0.51100000000E-03 0.  1.
         11   -1    0    0    0    0 -0.00000000000E+00 -0.00000000000E+00 -0.45593999997E+02  0.45594000000E+02  0.51100000000E-03 0. -1.
    9900012    2    1    2    0    0  0.31445666471E+02  0.16726191934E+02  0.27577492383E+02  0.46142317382E+02  0.99999965444E+01 0.  0.
         12    1    1    2    0    0 -0.31445666471E+02 -0.16726191934E+02 -0.27577492383E+02  0.45045682618E+02  0.00000000000E+00 0. -1.
         11    1    3    3    0    0  0.19438739782E+02  0.68276093191E+01  0.16927922766E+02  0.26665247472E+02  0.51100000000E-03 0.  1.
        -11    1    3    3    0    0  0.89030673558E+01  0.42994030923E+01  0.60023678611E+01  0.11566239471E+02  0.51100000000E-03 0. -1.
         12    1    3    3    0    0  0.31038593330E+01  0.55991795222E+01  0.46472017561E+01  0.79108304396E+01  0.00000000000E+00 0. -1.
</event>
<event>
 7    1  0.2297343E-008  0.4614231E+02  0.7816164E-02  0.1320468E+00
        -11   -1    0    0    0    0  0.00000000000E+00  0.00000000000E+00  0.45593999997E+02  0.45594000000E+02  0.51100000000E-03 0. -1.
         11   -1    0    0    0    0 -0.00000000000E+00 -0.00000000000E+00 -0.45593999997E+02  0.45594000000E+02  0.51100000000E-03 0.  1.
    9900012    2    1    2    0    0 -0.11132374313E+02  0.19263645442E+02  0.39167536930E+02  0.46142314938E+02  0.99999742555E+01 0.  0.
         12    1    1    2    0    0  0.11132374313E+02 -0.19263645442E+02 -0.39167536930E+02  0.45045685062E+02  0.00000000000E+00 0. -1.
         11    1    3    3    0    0 -0.52866172084E+01  0.87396574818E+01  0.23374568287E+02  0.25508829398E+02  0.51100000000E-03 0. -1.
        -11    1    3    3    0    0 -0.62215907939E+01  0.91702140933E+01  0.15711246990E+02  0.19226135877E+02  0.51100000000E-03 0.  1.
         12    1    3    3    0    0  0.37583368933E+00  0.13537738667E+01  0.81721653102E-01  0.14073496626E+01  0.00000000000E+00 0. -1.
</event>
<event>
 7    1  0.2297343E-008  0.4614232E+02  0.7816164E-02  0.1320468E+00
        -11   -1    0    0    0    0  0.00000000000E+00  0.00000000000E+00  0.45593999997E+02  0.45594000000E+02  0.51100000000E-03 0.  1.
         11   -1    0    0    0    0 -0.00000000000E+00 -0.00000000000E+00 -0.45593999997E+02  0.45594000000E+02  0.51100000000E-03 0. -1.
    9900012    2    1    2    0    0  0.24949428894E+01 -0.24942255769E+02  0.37426896825E+02  0.46142317978E+02  0.10000001979E+02 0.  0.
         12    1    1    2    0    0 -0.24949428894E+01  0.24942255769E+02 -0.37426896825E+02  0.45045682022E+02  0.00000000000E+00 0. -1.
         11    1    3    3    0    0 -0.16057177824E+00 -0.15129383615E+01  0.72312294210E+01  0.73895497144E+01  0.51100000000E-03 0. -1.
        -11    1    3    3    0    0  0.12949026273E+00 -0.12908326072E+01  0.93036868885E-01  0.13006431747E+01  0.51100000000E-03 0.  1.
        -12    1    3    3    0    0  0.25260244049E+01 -0.22138484800E+02  0.30102630535E+02  0.37452125089E+02  0.00000000000E+00 0.  1.
</event>
<event>
 7    1  0.2297343E-008  0.4614232E+02  0.7816164E-02  0.1320468E+00
        -11   -1    0    0    0    0  0.00000000000E+00  0.00000000000E+00  0.45593999997E+02  0.45594000000E+02  0.51100000000E-03 0.  1.
         11   -1    0    0    0    0 -0.00000000000E+00 -0.00000000000E+00 -0.45593999997E+02  0.45594000000E+02  0.51100000000E-03 0. -1.
    9900012    2    1    2    0    0  0.31935365139E+01  0.30792109870E+02  0.32722477649E+02  0.46142320416E+02  0.10000024208E+02 0.  0.
         12    1    1    2    0    0 -0.31935365139E+01 -0.30792109870E+02 -0.32722477649E+02  0.45045679584E+02  0.00000000000E+00 0. -1.
         11    1    3    3    0    0 -0.94539764588E+00  0.15512511827E+01  0.10333014938E+00  0.18195698177E+01  0.51100000000E-03 0. -1.
        -11    1    3    3    0    0  0.95337550451E+00  0.51082511413E+00  0.88991011206E+00  0.14006453579E+01  0.51100000000E-03 0.  1.
        -12    1    3    3    0    0  0.31855586552E+01  0.28730033573E+02  0.31729237388E+02  0.42922105240E+02  0.00000000000E+00 0.  1.
</event>
<event>
 7    1  0.2297343E-008  0.4614232E+02  0.7816164E-02  0.1320468E+00
        -11   -1    0    0    0    0  0.00000000000E+00  0.00000000000E+00  0.45593999997E+02  0.45594000000E+02  0.51100000000E-03 0.  1.
         11   -1    0    0    0    0 -0.00000000000E+00 -0.00000000000E+00 -0.45593999997E+02  0.45594000000E+02  0.51100000000E-03 0. -1.
    9900012    2    1    2    0    0 -0.10301166179E+02  0.40281144767E+02  0.17332882695E+02  0.46142317955E+02  0.10000001766E+02 0.  0.
         12    1    1    2    0    0  0.10301166179E+02 -0.40281144767E+02 -0.17332882695E+02  0.45045682045E+02  0.00000000000E+00 0. -1.
         11    1    3    3    0    0 -0.39519739691E+01  0.95698218483E+01  0.67629708166E+01  0.12366784667E+02  0.51100000000E-03 0.  1.
        -11    1    3    3    0    0 -0.45746500977E+01  0.83100150896E+01  0.44967962224E+01  0.10497854582E+02  0.51100000000E-03 0. -1.
        -12    1    3    3    0    0 -0.17745421124E+01  0.22401307829E+02  0.60731156564E+01  0.23277678706E+02  0.00000000000E+00 0.  1.
</event>
<event>
 7    1  0.2297343E-008  0.4614232E+02  0.7816164E-02  0.1320468E+00
        -11   -1    0    0    0    0  0.00000000000E+00  0.00000000000E+00  0.45593999997E+02  0.45594000000E+02  0.51100000000E-03 0.  1.
         11   -1    0    0    0    0 -0.00000000000E+00 -0.00000000000E+00 -0.45593999997E+02  0.45594000000E+02  0.51100000000E-03 0. -1.
    9900012    2    1    2    0    0 -0.14072206181E+02 -0.12218400099E+02  0.41009721170E+02  0.46142317430E+02  0.99999969796E+01 0.  0.
         12    1    1    2    0    0  0.14072206181E+02  0.12218400099E+02 -0.41009721170E+02  0.45045682570E+02  0.00000000000E+00 0. -1.
         11    1    3    3    0    0 -0.19317371902E+00 -0.44058462771E+00 -0.16656732677E-01  0.48136120300E+00  0.51100000000E-03 0. -1.
        -11    1    3    3    0    0 -0.12796080241E+02 -0.13039040978E+02  0.36060159530E+02  0.40423895962E+02  0.51100000000E-03 0.  1.
        -12    1    3    3    0    0 -0.10829522216E+01  0.12612255072E+01  0.49662183728E+01  0.52370602651E+01  0.00000000000E+00 0.  1.
</event>
<event>
 7    1  0.2297343E-008  0.4614232E+02  0.7816164E-02  0.1320468E+00
        -11   -1    0    0    0    0  0.00000000000E+00  0.00000000000E+00  0.45593999997E+02  0.45594000000E+02  0.51100000000E-03 0.  1.
         11   -1    0    0    0    0 -0.00000000000E+00 -0.00000000000E+00 -0.45593999997E+02  0.45594000000E+02  0.51100000000E-03 0. -1.
    9900012    2    1    2    0    0 -0.90044848652E+01  0.19723556016E+02  0.39484352263E+02  0.46142317818E+02  0.10000000522E+02 0.  0.
         12    1    1    2    0    0  0.90044848652E+01 -0.19723556016E+02 -0.39484352263E+02  0.45045682182E+02  0.00000000000E+00 0. -1.
         11    1    3    3    0    0 -0.31476760903E+01  0.46802554046E+01  0.92166621491E+01  0.10805531771E+02  0.51100000000E-03 0. -1.
        -11    1    3    3    0    0 -0.41667024994E+01  0.13578726347E+01  0.60844066598E+01  0.74983486497E+01  0.51100000000E-03 0.  1.
        -12    1    3    3    0    0 -0.16901062755E+01  0.13685427977E+02  0.24183283454E+02  0.27838437398E+02  0.00000000000E+00 0.  1.
</event>
<event>
 7    1  0.2297343E-008  0.4614232E+02  0.7816164E-02  0.1320468E+00
        -11   -1    0    0    0    0  0.00000000000E+00  0.00000000000E+00  0.45593999997E+02  0.45594000000E+02  0.51100000000E-03 0. -1.
         11   -1    0    0    0    0 -0.00000000000E+00 -0.00000000000E+00 -0.45593999997E+02  0.45594000000E+02  0.51100000000E-03 0.  1.
    9900012    2    1    2    0    0  0.11571684402E+02 -0.19223125652E+02 -0.39059966222E+02  0.46142318731E+02  0.10000008848E+02 0.  0.
         12    1    1    2    0    0 -0.11571684402E+02  0.19223125652E+02  0.39059966222E+02  0.45045681269E+02  0.00000000000E+00 0. -1.
         11    1    3    3    0    0  0.25726274058E+01 -0.63108261175E+01 -0.77095892252E+01  0.10289932183E+02  0.51100000000E-03 0. -1.
        -11    1    3    3    0    0  0.25337081288E+01 -0.57727999194E+00 -0.17313468543E+01  0.31225776631E+01  0.51100000000E-03 0.  1.
        -12    1    3    3    0    0  0.64653488670E+01 -0.12335019542E+02 -0.29619030142E+02  0.32729808885E+02  0.00000000000E+00 0.  1.
</event>
<event>
 7    1  0.2297343E-008  0.4614232E+02  0.7816164E-02  0.1320468E+00
        -11   -1    0    0    0    0  0.00000000000E+00  0.00000000000E+00  0.45593999997E+02  0.45594000000E+02  0.51100000000E-03 0. -1.
         11   -1    0    0    0    0 -0.00000000000E+00 -0.00000000000E+00 -0.45593999997E+02  0.45594000000E+02  0.51100000000E-03 0.  1.
    9900012    2    1    2    0    0 -0.35478513060E+02  0.25800830968E+02 -0.10232580381E+02  0.46142317978E+02  0.10000001975E+02 0.  0.
         12    1    1    2    0    0  0.35478513060E+02 -0.25800830968E+02  0.10232580381E+02  0.45045682022E+02  0.00000000000E+00 0. -1.
         11    1    3    3    0    0 -0.41124340918E+01  0.49437677748E+01 -0.34812848723E+01  0.73124755449E+01  0.51100000000E-03 0. -1.
        -11    1    3    3    0    0 -0.16797597747E+02  0.13427448512E+02 -0.65314594130E+01  0.22474777550E+02  0.51100000000E-03 0.  1.
        -12    1    3    3    0    0 -0.14568481221E+02  0.74296146819E+01 -0.21983609599E+00  0.16355064883E+02  0.00000000000E+00 0.  1.
</event>
<event>
 7    1  0.2297343E-008  0.4614232E+02  0.7816164E-02  0.1320468E+00
        -11   -1    0    0    0    0  0.00000000000E+00  0.00000000000E+00  0.45593999997E+02  0.45594000000E+02  0.51100000000E-03 0.  1.
         11   -1    0    0    0    0 -0.00000000000E+00 -0.00000000000E+00 -0.45593999997E+02  0.45594000000E+02  0.51100000000E-03 0. -1.
    9900012    2    1    2    0    0 -0.25480008883E+02 -0.36130222339E+02  0.86307416588E+01  0.46142317404E+02  0.99999967449E+01 0.  0.
         12    1    1    2    0    0  0.25480008883E+02  0.36130222339E+02 -0.86307416588E+01  0.45045682596E+02  0.00000000000E+00 0. -1.
         11    1    3    3    0    0 -0.36029961221E+01 -0.84907847701E+01  0.46645072523E+01  0.10335987386E+02  0.51100000000E-03 0. -1.
        -11    1    3    3    0    0 -0.12739140272E+02 -0.19777083191E+02  0.29427811125E+01  0.23708198484E+02  0.51100000000E-03 0.  1.
         12    1    3    3    0    0 -0.91378724887E+01 -0.78623543784E+01  0.10234532939E+01  0.12098131535E+02  0.00000000000E+00 0. -1.
</event>
<event>
 7    1  0.2297343E-008  0.4614232E+02  0.7816164E-02  0.1320468E+00
        -11   -1    0    0    0    0  0.00000000000E+00  0.00000000000E+00  0.45593999997E+02  0.45594000000E+02  0.51100000000E-03 0. -1.
         11   -1    0    0    0    0 -0.00000000000E+00 -0.00000000000E+00 -0.45593999997E+02  0.45594000000E+02  0.51100000000E-03 0.  1.
    9900012    2    1    2    0    0 -0.25485564262E+02  0.33565482963E+02  0.15904651849E+02  0.46142316714E+02  0.99999904507E+01 0.  0.
         12    1    1    2    0    0  0.25485564262E+02 -0.33565482963E+02 -0.15904651849E+02  0.45045683286E+02  0.00000000000E+00 0. -1.
         11    1    3    3    0    0 -0.78429678482E+01  0.97040984179E+01  0.80953693435E+01  0.14873354559E+02  0.51100000000E-03 0. -1.
        -11    1    3    3    0    0 -0.17855258257E+02  0.24050532914E+02  0.75663942139E+01  0.30894800575E+02  0.51100000000E-03 0.  1.
         12    1    3    3    0    0  0.21266184355E+00 -0.18914836973E+00  0.24288829198E+00  0.37416157988E+00  0.00000000000E+00 0. -1.
</event>
<event>
 7    1  0.2297343E-008  0.4614232E+02  0.7816164E-02  0.1320468E+00
        -11   -1    0    0    0    0  0.00000000000E+00  0.00000000000E+00  0.45593999997E+02  0.45594000000E+02  0.51100000000E-03 0.  1.
         11   -1    0    0    0    0 -0.00000000000E+00 -0.00000000000E+00 -0.45593999997E+02  0.45594000000E+02  0.51100000000E-03 0. -1.
    9900012    2    1    2    0    0  0.77515107003E+00  0.45038868526E+02 -0.11367644461E+00  0.46142318080E+02  0.10000002910E+02 0.  0.
         12    1    1    2    0    0 -0.77515107003E+00 -0.45038868526E+02  0.11367644461E+00  0.45045681920E+02  0.00000000000E+00 0. -1.
         11    1    3    3    0    0 -0.36569522248E+00  0.58467491400E+00 -0.94020285439E+00  0.11660014663E+01  0.51100000000E-03 0. -1.
        -11    1    3    3    0    0  0.34192645765E+01  0.15038152011E+02 -0.64539773437E+00  0.15435476172E+02  0.51100000000E-03 0.  1.
         12    1    3    3    0    0 -0.22784182840E+01  0.29416041601E+02  0.14719241442E+01  0.29540840442E+02  0.00000000000E+00 0. -1.
</event>
<event>
 7    1  0.2297343E-008  0.4614232E+02  0.7816164E-02  0.1320468E+00
        -11   -1    0    0    0    0  0.00000000000E+00  0.00000000000E+00  0.45593999997E+02  0.45594000000E+02  0.51100000000E-03 0.  1.
         11   -1    0    0    0    0 -0.00000000000E+00 -0.00000000000E+00 -0.45593999997E+02  0.45594000000E+02  0.51100000000E-03 0. -1.
    9900012    2    1    2    0    0 -0.21558356264E+02  0.12353346677E+02  0.37573203149E+02  0.46142317701E+02  0.99999994526E+01 0.  0.
         12    1    1    2    0    0  0.21558356264E+02 -0.12353346677E+02 -0.37573203149E+02  0.45045682299E+02  0.00000000000E+00 0. -1.
         11    1    3    3    0    0 -0.47808605798E+01  0.63772959024E+01  0.97020774609E+01  0.12556147428E+02  0.51100000000E-03 0. -1.
        -11    1    3    3    0    0 -0.10177748862E+02  0.98845865885E+00  0.18050570309E+02  0.20745763691E+02  0.51100000000E-03 0.  1.
        -12    1    3    3    0    0 -0.65997468226E+01  0.49875921157E+01  0.98205553791E+01  0.12840406582E+02  0.00000000000E+00 0.  1.
</event>
<event>
 7    1  0.2297343E-008  0.4614232E+02  0.7816164E-02  0.1320468E+00
        -11   -1    0    0    0    0  0.00000000000E+00  0.00000000000E+00  0.45593999997E+02  0.45594000000E+02  0.51100000000E-03 0.  1.
         11   -1    0    0    0    0 -0.00000000000E+00 -0.00000000000E+00 -0.45593999997E+02  0.45594000000E+02  0.51100000000E-03 0. -1.
    9900012    2    1    2    0    0  0.14593470689E+02 -0.18493729629E+02  0.38394349550E+02  0.46142317635E+02  0.99999988518E+01 0.  0.
         12    1    1    2    0    0 -0.14593470689E+02  0.18493729629E+02 -0.38394349550E+02  0.45045682365E+02  0.00000000000E+00 0. -1.
         11    1    3    3    0    0  0.99682991124E-01  0.68692290159E-01 -0.47593587301E+00  0.49109117868E+00  0.51100000000E-03 0. -1.
        -11    1    3    3    0    0  0.50385136553E+01 -0.98240100093E+01  0.18980235283E+02  0.21957848806E+02  0.51100000000E-03 0.  1.
         12    1    3    3    0    0  0.94552740428E+01 -0.87384119095E+01  0.19890050140E+02  0.23693377651E+02  0.00000000000E+00 0. -1.
</event>
<event>
 7    1  0.2297343E-008  0.4614232E+02  0.7816164E-02  0.1320468E+00
        -11   -1    0    0    0    0  0.00000000000E+00  0.00000000000E+00  0.45593999997E+02  0.45594000000E+02  0.51100000000E-03 0. -1.
         11   -1    0    0    0    0 -0.00000000000E+00 -0.00000000000E+00 -0.45593999997E+02  0.45594000000E+02  0.51100000000E-03 0.  1.
    9900012    2    1    2    0    0  0.11889528276E+02 -0.39248621695E+02  0.18635941530E+02  0.46142317584E+02  0.99999983889E+01 0.  0.
         12    1    1    2    0    0 -0.11889528276E+02  0.39248621695E+02 -0.18635941530E+02  0.45045682416E+02  0.00000000000E+00 0. -1.
         11    1    3    3    0    0 -0.10404179371E+01 -0.59439629273E+01  0.13721599037E+01  0.61883752170E+01  0.51100000000E-03 0. -1.
        -11    1    3    3    0    0  0.14949538116E+01 -0.89159737352E+01  0.53076049901E+01  0.10483327026E+02  0.51100000000E-03 0.  1.
         12    1    3    3    0    0  0.11434992401E+02 -0.24388685032E+02  0.11956176636E+02  0.29470615341E+02  0.00000000000E+00 0. -1.
</event>
<event>
 7    1  0.2297343E-008  0.4614232E+02  0.7816164E-02  0.1320468E+00
        -11   -1    0    0    0    0  0.00000000000E+00  0.00000000000E+00  0.45593999997E+02  0.45594000000E+02  0.51100000000E-03 0.  1.
         11   -1    0    0    0    0 -0.00000000000E+00 -0.00000000000E+00 -0.45593999997E+02  0.45594000000E+02  0.51100000000E-03 0. -1.
    9900012    2    1    2    0    0 -0.12825572432E+02 -0.42241342276E+02  0.89603075001E+01  0.46142318564E+02  0.10000007323E+02 0.  0.
         12    1    1    2    0    0  0.12825572432E+02  0.42241342276E+02 -0.89603075001E+01  0.45045681436E+02  0.00000000000E+00 0. -1.
         11    1    3    3    0    0 -0.14001876456E+01 -0.76930451928E+00 -0.63287003373E-01  0.15988622180E+01  0.51100000000E-03 0. -1.
        -11    1    3    3    0    0 -0.30104293879E+01 -0.11346639233E+02  0.58156157637E+01  0.13100774556E+02  0.51100000000E-03 0.  1.
        -12    1    3    3    0    0 -0.84149553983E+01 -0.30125398524E+02  0.32079787398E+01  0.31442681791E+02  0.00000000000E+00 0.  1.
</event>
<event>
 7    1  0.2297343E-008  0.4614232E+02  0.7816164E-02  0.1320468E+00
        -11   -1    0    0    0    0  0.00000000000E+00  0.00000000000E+00  0.45593999997E+02  0.45594000000E+02  0.51100000000E-03 0.  1.
         11   -1    0    0    0    0 -0.00000000000E+00 -0.00000000000E+00 -0.45593999997E+02  0.45594000000E+02  0.51100000000E-03 0. -1.
    9900012    2    1    2    0    0  0.51001008058E+01  0.23372262553E+02  0.38168570592E+02  0.46142318008E+02  0.10000002252E+02 0.  0.
         12    1    1    2    0    0 -0.51001008058E+01 -0.23372262553E+02 -0.38168570592E+02  0.45045681992E+02  0.00000000000E+00 0. -1.
         11    1    3    3    0    0  0.29083141876E+01  0.14712360000E+02  0.27826673522E+02  0.31610687872E+02  0.51100000000E-03 0. -1.
        -11    1    3    3    0    0  0.25457986135E+01  0.88739824065E+01  0.10590115435E+02  0.14049170777E+02  0.51100000000E-03 0.  1.
        -12    1    3    3    0    0 -0.35401199529E+00 -0.21407985317E+00 -0.24821836519E+00  0.48245935908E+00  0.00000000000E+00 0.  1.
</event>
<event>
 7    1  0.2297343E-008  0.4614232E+02  0.7816164E-02  0.1320468E+00
        -11   -1    0    0    0    0  0.00000000000E+00  0.00000000000E+00  0.45593999997E+02  0.45594000000E+02  0.51100000000E-03 0.  1.
         11   -1    0    0    0    0 -0.00000000000E+00 -0.00000000000E+00 -0.45593999997E+02  0.45594000000E+02  0.51100000000E-03 0. -1.
    9900012    2    1    2    0    0  0.28113920833E+02 -0.30699477317E+02  0.17212293206E+02  0.46142317748E+02  0.99999998823E+01 0.  0.
         12    1    1    2    0    0 -0.28113920833E+02  0.30699477317E+02 -0.17212293206E+02  0.45045682252E+02  0.00000000000E+00 0. -1.
         11    1    3    3    0    0  0.10577731099E+02 -0.15907491403E+02  0.10971676893E+02  0.22029851838E+02  0.51100000000E-03 0. -1.
        -11    1    3    3    0    0  0.65859433749E+01 -0.80200295686E+01  0.21001828649E+01  0.10588025914E+02  0.51100000000E-03 0.  1.
        -12    1    3    3    0    0  0.10950246359E+02 -0.67719563458E+01  0.41404334482E+01  0.13524439996E+02  0.00000000000E+00 0.  1.
</event>
<event>
 7    1  0.2297343E-008  0.4614232E+02  0.7816164E-02  0.1320468E+00
        -11   -1    0    0    0    0  0.00000000000E+00  0.00000000000E+00  0.45593999997E+02  0.45594000000E+02  0.51100000000E-03 0.  1.
         11   -1    0    0    0    0 -0.00000000000E+00 -0.00000000000E+00 -0.45593999997E+02  0.45594000000E+02  0.51100000000E-03 0. -1.
    9900012    2    1    2    0    0  0.21811505275E+01 -0.14922388940E+02  0.42446180134E+02  0.46142319660E+02  0.10000017319E+02 0.  0.
         12    1    1    2    0    0 -0.21811505275E+01  0.14922388940E+02 -0.42446180134E+02  0.45045680340E+02  0.00000000000E+00 0. -1.
         11    1    3    3    0    0 -0.59504521118E+00 -0.88138784136E+00  0.80929767737E+00  0.13363705781E+01  0.51100000000E-03 0. -1.
        -11    1    3    3    0    0  0.26144032482E+01 -0.17941612800E+00  0.52457983546E+01  0.58639317125E+01  0.51100000000E-03 0.  1.
        -12    1    3    3    0    0  0.16179249048E+00 -0.13861584971E+02  0.36391084102E+02  0.38942017370E+02  0.00000000000E+00 0.  1.
</event>
<event>
 7    1  0.2297343E-008  0.4614232E+02  0.7816164E-02  0.1320468E+00
        -11   -1    0    0    0    0  0.00000000000E+00  0.00000000000E+00  0.45593999997E+02  0.45594000000E+02  0.51100000000E-03 0.  1.
         11   -1    0    0    0    0 -0.00000000000E+00 -0.00000000000E+00 -0.45593999997E+02  0.45594000000E+02  0.51100000000E-03 0. -1.
    9900012    2    1    2    0    0  0.14687057225E+02  0.22000108892E+02  0.36460925260E+02  0.46142317499E+02  0.99999976086E+01 0.  0.
         12    1    1    2    0    0 -0.14687057225E+02 -0.22000108892E+02 -0.36460925260E+02  0.45045682501E+02  0.00000000000E+00 0. -1.
         11    1    3    3    0    0  0.12133869415E+01  0.48357685512E+01  0.10500079686E+02  0.11623624178E+02  0.51100000000E-03 0. -1.
        -11    1    3    3    0    0  0.11642761046E+02  0.16314921185E+02  0.25524846105E+02  0.32453787252E+02  0.51100000000E-03 0.  1.
         12    1    3    3    0    0  0.18309092377E+01  0.84941915599E+00  0.43599946908E+00  0.20649060696E+01  0.00000000000E+00 0. -1.
</event>
<event>
 7    1  0.2297343E-008  0.4614232E+02  0.7816164E-02  0.1320468E+00
        -11   -1    0    0    0    0  0.00000000000E+00  0.00000000000E+00  0.45593999997E+02  0.45594000000E+02  0.51100000000E-03 0.  1.
         11   -1    0    0    0    0 -0.00000000000E+00 -0.00000000000E+00 -0.45593999997E+02  0.45594000000E+02  0.51100000000E-03 0. -1.
    9900012    2    1    2    0    0  0.41711964208E+02  0.51577113744E+01  0.16205664424E+02  0.46142317586E+02  0.99999984066E+01 0.  0.
         12    1    1    2    0    0 -0.41711964208E+02 -0.51577113744E+01 -0.16205664424E+02  0.45045682414E+02  0.00000000000E+00 0. -1.
         11    1    3    3    0    0  0.72977384901E+00  0.71352672926E+00  0.16430153993E+01  0.19342156362E+01  0.51100000000E-03 0. -1.
        -11    1    3    3    0    0  0.15218877350E+02 -0.12572206281E+01  0.40003954223E+01  0.15786006313E+02  0.51100000000E-03 0.  1.
        -12    1    3    3    0    0  0.25763313008E+02  0.57014052732E+01  0.10562253603E+02  0.28422095638E+02  0.00000000000E+00 0.  1.
</event>
<event>
 7    1  0.2297343E-008  0.4614232E+02  0.7816164E-02  0.1320468E+00
        -11   -1    0    0    0    0  0.00000000000E+00  0.00000000000E+00  0.45593999997E+02  0.45594000000E+02  0.51100000000E-03 0.  1.
         11   -1    0    0    0    0 -0.00000000000E+00 -0.00000000000E+00 -0.45593999997E+02  0.45594000000E+02  0.51100000000E-03 0. -1.
    9900012    2    1    2    0    0 -0.27283963021E+02 -0.10613201647E+02  0.34235344550E+02  0.46142317589E+02  0.99999984350E+01 0.  0.
         12    1    1    2    0    0  0.27283963021E+02  0.10613201647E+02 -0.34235344550E+02  0.45045682411E+02  0.00000000000E+00 0. -1.
         11    1    3    3    0    0 -0.11808966207E+02 -0.49399682063E+01  0.18293860643E+02  0.22327568301E+02  0.51100000000E-03 0. -1.
        -11    1    3    3    0    0 -0.92580141546E+01 -0.33253732444E+01  0.13566315997E+02  0.16757501702E+02  0.51100000000E-03 0.  1.
        -12    1    3    3    0    0 -0.62169826599E+01 -0.23478601962E+01  0.23751679106E+01  0.70572475866E+01  0.00000000000E+00 0.  1.
</event>
<event>
 7    1  0.2297343E-008  0.4614232E+02  0.7816164E-02  0.1320468E+00
        -11   -1    0    0    0    0  0.00000000000E+00  0.00000000000E+00  0.45593999997E+02  0.45594000000E+02  0.51100000000E-03 0.  1.
         11   -1    0    0    0    0 -0.00000000000E+00 -0.00000000000E+00 -0.45593999997E+02  0.45594000000E+02  0.51100000000E-03 0. -1.
    9900012    2    1    2    0    0  0.33876083871E+02 -0.13282174330E+02  0.26553874859E+02  0.46142317816E+02  0.10000000504E+02 0.  0.
         12    1    1    2    0    0 -0.33876083871E+02  0.13282174330E+02 -0.26553874859E+02  0.45045682184E+02  0.00000000000E+00 0. -1.
         11    1    3    3    0    0  0.86734280607E+01 -0.55004276288E+01  0.78464767153E+01  0.12924792282E+02  0.51100000000E-03 0. -1.
        -11    1    3    3    0    0  0.22079121393E+02 -0.91020508153E+01  0.17540963525E+02  0.29631407867E+02  0.51100000000E-03 0.  1.
        -12    1    3    3    0    0  0.31235344169E+01  0.13203041137E+01  0.11664346189E+01  0.35861176676E+01  0.00000000000E+00 0.  1.
</event>
<event>
 7    1  0.2297343E-008  0.4614232E+02  0.7816164E-02  0.1320468E+00
        -11   -1    0    0    0    0  0.00000000000E+00  0.00000000000E+00  0.45593999997E+02  0.45594000000E+02  0.51100000000E-03 0.  1.
         11   -1    0    0    0    0 -0.00000000000E+00 -0.00000000000E+00 -0.45593999997E+02  0.45594000000E+02  0.51100000000E-03 0. -1.
    9900012    2    1    2    0    0  0.27827596365E+02  0.13572531266E+02  0.32718875584E+02  0.46142317145E+02  0.99999943776E+01 0.  0.
         12    1    1    2    0    0 -0.27827596365E+02 -0.13572531266E+02 -0.32718875584E+02  0.45045682855E+02  0.00000000000E+00 0. -1.
         11    1    3    3    0    0  0.48426295705E+01  0.47192866078E+01  0.10166860074E+02  0.12210150338E+02  0.51100000000E-03 0. -1.
        -11    1    3    3    0    0  0.99699089451E+01  0.12740652867E+01  0.67792811345E+01  0.12123571243E+02  0.51100000000E-03 0.  1.
        -12    1    3    3    0    0  0.13015057850E+02  0.75791793718E+01  0.15772734375E+02  0.21808595563E+02  0.00000000000E+00 0.  1.
</event>
<event>
 7    1  0.2297343E-008  0.4614232E+02  0.7816164E-02  0.1320468E+00
        -11   -1    0    0    0    0  0.00000000000E+00  0.00000000000E+00  0.45593999997E+02  0.45594000000E+02  0.51100000000E-03 0.  1.
         11   -1    0    0    0    0 -0.00000000000E+00 -0.00000000000E+00 -0.45593999997E+02  0.45594000000E+02  0.51100000000E-03 0. -1.
    9900012    2    1    2    0    0 -0.40523376244E+02  0.51316341737E+01  0.18990413493E+02  0.46142317675E+02  0.99999992178E+01 0.  0.
         12    1    1    2    0    0  0.40523376244E+02 -0.51316341737E+01 -0.18990413493E+02  0.45045682325E+02  0.00000000000E+00 0. -1.
         11    1    3    3    0    0 -0.32455694488E+00  0.14630274130E+01  0.10853056965E+01  0.18503175775E+01  0.51100000000E-03 0. -1.
        -11    1    3    3    0    0 -0.47547339596E+01  0.13492268915E+01  0.29195125759E+01  0.57403364164E+01  0.51100000000E-03 0.  1.
        -12    1    3    3    0    0 -0.35444085339E+02  0.23193798693E+01  0.14985595220E+02  0.38551663681E+02  0.00000000000E+00 0.  1.
</event>
<event>
 7    1  0.2297343E-008  0.4614232E+02  0.7816164E-02  0.1320468E+00
        -11   -1    0    0    0    0  0.00000000000E+00  0.00000000000E+00  0.45593999997E+02  0.45594000000E+02  0.51100000000E-03 0.  1.
         11   -1    0    0    0    0 -0.00000000000E+00 -0.00000000000E+00 -0.45593999997E+02  0.45594000000E+02  0.51100000000E-03 0. -1.
    9900012    2    1    2    0    0  0.29203717717E+02  0.34208227926E+02 -0.24603796726E+01  0.46142318137E+02  0.10000003430E+02 0.  0.
         12    1    1    2    0    0 -0.29203717717E+02 -0.34208227926E+02  0.24603796726E+01  0.45045681863E+02  0.00000000000E+00 0. -1.
         11    1    3    3    0    0  0.85366004794E+01  0.16182030531E+02 -0.31473239039E+01  0.18564409710E+02  0.51100000000E-03 0. -1.
        -11    1    3    3    0    0  0.13694445215E+02  0.13457597392E+02  0.10999156115E+01  0.19231603467E+02  0.51100000000E-03 0.  1.
         12    1    3    3    0    0  0.69726720229E+01  0.45686000028E+01 -0.41297138013E+00  0.83463049600E+01  0.00000000000E+00 0. -1.
</event>
<event>
 7    1  0.2297343E-008  0.4614232E+02  0.7816164E-02  0.1320468E+00
        -11   -1    0    0    0    0  0.00000000000E+00  0.00000000000E+00  0.45593999997E+02  0.45594000000E+02  0.51100000000E-03 0.  1.
         11   -1    0    0    0    0 -0.00000000000E+00 -0.00000000000E+00 -0.45593999997E+02  0.45594000000E+02  0.51100000000E-03 0. -1.
    9900012    2    1    2    0    0 -0.24610228990E+02 -0.22084814033E+02  0.30589397202E+02  0.46142316489E+02  0.99999883959E+01 0.  0.
         12    1    1    2    0    0  0.24610228990E+02  0.22084814033E+02 -0.30589397202E+02  0.45045683511E+02  0.00000000000E+00 0. -1.
         11    1    3    3    0    0 -0.14634719593E+02 -0.97378352615E+01  0.19509800354E+02  0.26260859911E+02  0.51100000000E-03 0. -1.
        -11    1    3    3    0    0 -0.47764373644E+01 -0.25898358356E+01  0.32094640912E+01  0.63104883777E+01  0.51100000000E-03 0.  1.
        -12    1    3    3    0    0 -0.51990720325E+01 -0.97571429358E+01  0.78701327574E+01  0.13570968200E+02  0.00000000000E+00 0.  1.
</event>
<event>
 7    1  0.2297343E-008  0.4614232E+02  0.7816164E-02  0.1320468E+00
        -11   -1    0    0    0    0  0.00000000000E+00  0.00000000000E+00  0.45593999997E+02  0.45594000000E+02  0.51100000000E-03 0. -1.
         11   -1    0    0    0    0 -0.00000000000E+00 -0.00000000000E+00 -0.45593999997E+02  0.45594000000E+02  0.51100000000E-03 0.  1.
    9900012    2    1    2    0    0  0.78312318264E+00 -0.42555248300E+02  0.14749611342E+02  0.46142317915E+02  0.10000001404E+02 0.  0.
         12    1    1    2    0    0 -0.78312318264E+00  0.42555248300E+02 -0.14749611342E+02  0.45045682085E+02  0.00000000000E+00 0. -1.
         11    1    3    3    0    0  0.27242043030E+01 -0.45928170972E+01  0.18717401958E+01  0.56585041834E+01  0.51100000000E-03 0. -1.
        -11    1    3    3    0    0 -0.32847006128E+01 -0.14792773384E+02  0.44601480735E+01  0.15795832476E+02  0.51100000000E-03 0.  1.
         12    1    3    3    0    0  0.13436194925E+01 -0.23169657818E+02  0.84177230723E+01  0.24687981256E+02  0.00000000000E+00 0. -1.
</event>
<event>
 7    1  0.2297343E-008  0.4614232E+02  0.7816164E-02  0.1320468E+00
        -11   -1    0    0    0    0  0.00000000000E+00  0.00000000000E+00  0.45593999997E+02  0.45594000000E+02  0.51100000000E-03 0. -1.
         11   -1    0    0    0    0 -0.00000000000E+00 -0.00000000000E+00 -0.45593999997E+02  0.45594000000E+02  0.51100000000E-03 0.  1.
    9900012    2    1    2    0    0 -0.79830496675E+01  0.40930445332E+02 -0.17031825475E+02  0.46142317454E+02  0.99999971956E+01 0.  0.
         12    1    1    2    0    0  0.79830496675E+01 -0.40930445332E+02  0.17031825475E+02  0.45045682546E+02  0.00000000000E+00 0. -1.
         11    1    3    3    0    0 -0.18565136656E+01  0.13407049781E+02 -0.22506179461E+01  0.13720820246E+02  0.51100000000E-03 0. -1.
        -11    1    3    3    0    0 -0.71212026896E+01  0.26080399292E+02 -0.14387844729E+02  0.30625297242E+02  0.51100000000E-03 0.  1.
         12    1    3    3    0    0  0.99466668760E+00  0.14429962589E+01 -0.39336279997E+00  0.17961999652E+01  0.00000000000E+00 0. -1.
</event>
<event>
 7    1  0.2297343E-008  0.4614232E+02  0.7816164E-02  0.1320468E+00
        -11   -1    0    0    0    0  0.00000000000E+00  0.00000000000E+00  0.45593999997E+02  0.45594000000E+02  0.51100000000E-03 0.  1.
         11   -1    0    0    0    0 -0.00000000000E+00 -0.00000000000E+00 -0.45593999997E+02  0.45594000000E+02  0.51100000000E-03 0. -1.
    9900012    2    1    2    0    0 -0.18659781751E+02 -0.35033835302E+02  0.21296850618E+02  0.46142324101E+02  0.10000057815E+02 0.  0.
         12    1    1    2    0    0  0.18659781751E+02  0.35033835302E+02 -0.21296850618E+02  0.45045675899E+02  0.00000000000E+00 0. -1.
         11    1    3    3    0    0 -0.87969272238E+00 -0.31534597499E+01  0.43624021785E+01  0.54542387836E+01  0.51100000000E-03 0. -1.
        -11    1    3    3    0    0 -0.12421107872E+02 -0.20415264747E+02  0.14002274731E+02  0.27697123557E+02  0.51100000000E-03 0.  1.
         12    1    3    3    0    0 -0.53589811569E+01 -0.11465110805E+02  0.29321737082E+01  0.12990961761E+02  0.00000000000E+00 0. -1.
</event>
<event>
 7    1  0.2297343E-008  0.4614232E+02  0.7816164E-02  0.1320468E+00
        -11   -1    0    0    0    0  0.00000000000E+00  0.00000000000E+00  0.45593999997E+02  0.45594000000E+02  0.51100000000E-03 0.  1.
         11   -1    0    0    0    0 -0.00000000000E+00 -0.00000000000E+00 -0.45593999997E+02  0.45594000000E+02  0.51100000000E-03 0. -1.
    9900012    2    1    2    0    0 -0.23480880707E+02  0.90648537729E+01  0.37357598403E+02  0.46142317730E+02  0.99999997199E+01 0.  0.
         12    1    1    2    0    0  0.23480880707E+02 -0.90648537729E+01 -0.37357598403E+02  0.45045682270E+02  0.00000000000E+00 0. -1.
         11    1    3    3    0    0 -0.37999537349E+00 -0.29755168666E+00  0.35723946256E+01  0.36048491109E+01  0.51100000000E-03 0. -1.
        -11    1    3    3    0    0 -0.46792766133E+01  0.49873327869E+01  0.10419375137E+02  0.12463245823E+02  0.51100000000E-03 0.  1.
         12    1    3    3    0    0 -0.18421608720E+02  0.43750726726E+01  0.23365828640E+02  0.30074222796E+02  0.00000000000E+00 0. -1.
</event>
<event>
 7    1  0.2297343E-008  0.4614232E+02  0.7816164E-02  0.1320468E+00
        -11   -1    0    0    0    0  0.00000000000E+00  0.00000000000E+00  0.45593999997E+02  0.45594000000E+02  0.51100000000E-03 0. -1.
         11   -1    0    0    0    0 -0.00000000000E+00 -0.00000000000E+00 -0.45593999997E+02  0.45594000000E+02  0.51100000000E-03 0.  1.
    9900012    2    1    2    0    0 -0.20197301711E+02  0.35746062237E+02 -0.18531096338E+02  0.46142317705E+02  0.99999994924E+01 0.  0.
         12    1    1    2    0    0  0.20197301711E+02 -0.35746062237E+02  0.18531096338E+02  0.45045682295E+02  0.00000000000E+00 0. -1.
         11    1    3    3    0    0 -0.12729155193E+01  0.10995598781E+00 -0.13706945743E+01  0.18738217940E+01  0.51100000000E-03 0. -1.
        -11    1    3    3    0    0 -0.87085218077E+01  0.22646942931E+02 -0.10857510237E+02  0.26582097453E+02  0.51100000000E-03 0.  1.
        -12    1    3    3    0    0 -0.10215864384E+02  0.12989163319E+02 -0.63028915267E+01  0.17686398458E+02  0.00000000000E+00 0.  1.
</event>
<event>
 7    1  0.2297343E-008  0.4614232E+02  0.7816164E-02  0.1320468E+00
        -11   -1    0    0    0    0  0.00000000000E+00  0.00000000000E+00  0.45593999997E+02  0.45594000000E+02  0.51100000000E-03 0. -1.
         11   -1    0    0    0    0 -0.00000000000E+00 -0.00000000000E+00 -0.45593999997E+02  0.45594000000E+02  0.51100000000E-03 0.  1.
    9900012    2    1    2    0    0 -0.36075044854E+02  0.34410369162E+01 -0.26755628673E+02  0.46142320274E+02  0.10000022914E+02 0.  0.
         12    1    1    2    0    0  0.36075044854E+02 -0.34410369162E+01  0.26755628673E+02  0.45045679726E+02  0.00000000000E+00 0. -1.
         11    1    3    3    0    0 -0.15476289388E+02  0.13646304355E+01 -0.81931218655E+01  0.17564310280E+02  0.51100000000E-03 0. -1.
        -11    1    3    3    0    0 -0.61346781578E+01 -0.14039204665E+01 -0.86661662321E+01  0.10710168355E+02  0.51100000000E-03 0.  1.
        -12    1    3    3    0    0 -0.14464077309E+02  0.34803269471E+01 -0.98963405753E+01  0.17867841639E+02  0.00000000000E+00 0.  1.
</event>
<event>
 7    1  0.2297343E-008  0.4614232E+02  0.7816164E-02  0.1320468E+00
        -11   -1    0    0    0    0  0.00000000000E+00  0.00000000000E+00  0.45593999997E+02  0.45594000000E+02  0.51100000000E-03 0.  1.
         11   -1    0    0    0    0 -0.00000000000E+00 -0.00000000000E+00 -0.45593999997E+02  0.45594000000E+02  0.51100000000E-03 0. -1.
    9900012    2    1    2    0    0 -0.38163568581E+02 -0.14615309905E+02  0.18948568135E+02  0.46142317800E+02  0.10000000357E+02 0.  0.
         12    1    1    2    0    0  0.38163568581E+02  0.14615309905E+02 -0.18948568135E+02  0.45045682200E+02  0.00000000000E+00 0. -1.
         11    1    3    3    0    0 -0.42333409463E+00 -0.99405111517E+00 -0.22488449392E+00  0.11035953389E+01  0.51100000000E-03 0. -1.
        -11    1    3    3    0    0 -0.11100074562E+02 -0.75385287244E+01  0.58468875007E+01  0.14636501095E+02  0.51100000000E-03 0.  1.
        -12    1    3    3    0    0 -0.26640159925E+02 -0.60827300649E+01  0.13326565128E+02  0.30402221366E+02  0.00000000000E+00 0.  1.
</event>
<event>
 7    1  0.2297343E-008  0.4614232E+02  0.7816164E-02  0.1320468E+00
        -11   -1    0    0    0    0  0.00000000000E+00  0.00000000000E+00  0.45593999997E+02  0.45594000000E+02  0.51100000000E-03 0.  1.
         11   -1    0    0    0    0 -0.00000000000E+00 -0.00000000000E+00 -0.45593999997E+02  0.45594000000E+02  0.51100000000E-03 0. -1.
    9900012    2    1    2    0    0  0.20846928320E+02 -0.12591899354E+02  0.37894104530E+02  0.46142317545E+02  0.99999980257E+01 0.  0.
         12    1    1    2    0    0 -0.20846928320E+02  0.12591899354E+02 -0.37894104530E+02  0.45045682455E+02  0.00000000000E+00 0. -1.
         11    1    3    3    0    0  0.14523999627E+02 -0.65678536737E+01  0.16654633968E+02  0.23053418400E+02  0.51100000000E-03 0. -1.
        -11    1    3    3    0    0  0.31201347640E+01 -0.41549796400E+01  0.10271196080E+02  0.11510715266E+02  0.51100000000E-03 0.  1.
         12    1    3    3    0    0  0.32027939289E+01 -0.18690660398E+01  0.10968274482E+02  0.11578183879E+02  0.00000000000E+00 0. -1.
</event>
<event>
 7    1  0.2297343E-008  0.4614232E+02  0.7816164E-02  0.1320468E+00
        -11   -1    0    0    0    0  0.00000000000E+00  0.00000000000E+00  0.45593999997E+02  0.45594000000E+02  0.51100000000E-03 0.  1.
         11   -1    0    0    0    0 -0.00000000000E+00 -0.00000000000E+00 -0.45593999997E+02  0.45594000000E+02  0.51100000000E-03 0. -1.
    9900012    2    1    2    0    0 -0.21266976878E+02  0.16492662742E+02  0.36122309961E+02  0.46142317557E+02  0.99999981390E+01 0.  0.
         12    1    1    2    0    0  0.21266976878E+02 -0.16492662742E+02 -0.36122309961E+02  0.45045682443E+02  0.00000000000E+00 0. -1.
         11    1    3    3    0    0 -0.27805542873E+01  0.20080454361E+01  0.59290085158E+01  0.68495891015E+01  0.51100000000E-03 0. -1.
        -11    1    3    3    0    0 -0.81558749543E+00  0.48216432238E+01  0.44915846005E+01  0.66398613558E+01  0.51100000000E-03 0.  1.
         12    1    3    3    0    0 -0.17670835095E+02  0.96629740820E+01  0.25701716845E+02  0.32652867100E+02  0.00000000000E+00 0. -1.
</event>
<event>
 7    1  0.2297343E-008  0.4614232E+02  0.7816164E-02  0.1320468E+00
        -11   -1    0    0    0    0  0.00000000000E+00  0.00000000000E+00  0.45593999997E+02  0.45594000000E+02  0.51100000000E-03 0. -1.
         11   -1    0    0    0    0 -0.00000000000E+00 -0.00000000000E+00 -0.45593999997E+02  0.45594000000E+02  0.51100000000E-03 0.  1.
    9900012    2    1    2    0    0 -0.43850786210E+02 -0.77255292721E+01  0.68218909341E+01  0.46142318191E+02  0.10000003919E+02 0.  0.
         12    1    1    2    0    0  0.43850786210E+02  0.77255292721E+01 -0.68218909341E+01  0.45045681809E+02  0.00000000000E+00 0. -1.
         11    1    3    3    0    0 -0.11083423406E+02 -0.39790385081E+01  0.41979393525E+01  0.12501908531E+02  0.51100000000E-03 0. -1.
        -11    1    3    3    0    0 -0.18051515907E+02  0.54854764482E+00 -0.15621497440E+00  0.18060524202E+02  0.51100000000E-03 0.  1.
        -12    1    3    3    0    0 -0.14715846896E+02 -0.42950384088E+01  0.27801665560E+01  0.15579885458E+02  0.00000000000E+00 0.  1.
</event>
<event>
 7    1  0.2297343E-008  0.4614232E+02  0.7816164E-02  0.1320468E+00
        -11   -1    0    0    0    0  0.00000000000E+00  0.00000000000E+00  0.45593999997E+02  0.45594000000E+02  0.51100000000E-03 0.  1.
         11   -1    0    0    0    0 -0.00000000000E+00 -0.00000000000E+00 -0.45593999997E+02  0.45594000000E+02  0.51100000000E-03 0. -1.
    9900012    2    1    2    0    0  0.15004774967E+02  0.42419883591E+02  0.21268960160E+01  0.46142317828E+02  0.10000000606E+02 0.  0.
         12    1    1    2    0    0 -0.15004774967E+02 -0.42419883591E+02 -0.21268960160E+01  0.45045682172E+02  0.00000000000E+00 0. -1.
         11    1    3    3    0    0  0.46588027364E+01  0.39435182246E+01 -0.78277304131E+00  0.61537397426E+01  0.51100000000E-03 0. -1.
        -11    1    3    3    0    0  0.16953902387E+01  0.42105788881E+01  0.18553006874E+00  0.45428784160E+01  0.51100000000E-03 0.  1.
        -12    1    3    3    0    0  0.86505819921E+01  0.34265786479E+02  0.27241389885E+01  0.35445699669E+02  0.00000000000E+00 0.  1.
</event>
<event>
 7    1  0.2297343E-008  0.4614232E+02  0.7816164E-02  0.1320468E+00
        -11   -1    0    0    0    0  0.00000000000E+00  0.00000000000E+00  0.45593999997E+02  0.45594000000E+02  0.51100000000E-03 0.  1.
         11   -1    0    0    0    0 -0.00000000000E+00 -0.00000000000E+00 -0.45593999997E+02  0.45594000000E+02  0.51100000000E-03 0. -1.
    9900012    2    1    2    0    0 -0.83762668830E+01 -0.89331296464E+01  0.43349170015E+02  0.46142321037E+02  0.10000029876E+02 0.  0.
         12    1    1    2    0    0  0.83762668830E+01  0.89331296464E+01 -0.43349170015E+02  0.45045678963E+02  0.00000000000E+00 0. -1.
         11    1    3    3    0    0 -0.40946501178E+01  0.33709195288E+00  0.75609410828E+01  0.86050927299E+01  0.51100000000E-03 0. -1.
        -11    1    3    3    0    0 -0.51095445074E+01 -0.56832444203E+01  0.24370391517E+02  0.25540608747E+02  0.51100000000E-03 0.  1.
         12    1    3    3    0    0  0.82792774219E+00 -0.35869771789E+01  0.11417837416E+02  0.11996619560E+02  0.00000000000E+00 0. -1.
</event>
<event>
 7    1  0.2297343E-008  0.4614232E+02  0.7816164E-02  0.1320468E+00
        -11   -1    0    0    0    0  0.00000000000E+00  0.00000000000E+00  0.45593999997E+02  0.45594000000E+02  0.51100000000E-03 0. -1.
         11   -1    0    0    0    0 -0.00000000000E+00 -0.00000000000E+00 -0.45593999997E+02  0.45594000000E+02  0.51100000000E-03 0.  1.
    9900012    2    1    2    0    0 -0.39041101847E+02  0.20053215964E+02  0.10137772668E+02  0.46142317203E+02  0.99999949101E+01 0.  0.
         12    1    1    2    0    0  0.39041101847E+02 -0.20053215964E+02 -0.10137772668E+02  0.45045682797E+02  0.00000000000E+00 0. -1.
         11    1    3    3    0    0 -0.10739201950E+02  0.79186482361E+01  0.36161798810E+01  0.13824333821E+02  0.51100000000E-03 0. -1.
        -11    1    3    3    0    0 -0.16339761210E+02  0.68713004386E+01  0.30253465227E-01  0.17725785784E+02  0.51100000000E-03 0.  1.
        -12    1    3    3    0    0 -0.11962138688E+02  0.52632672897E+01  0.64913393221E+01  0.14592197598E+02  0.00000000000E+00 0.  1.
</event>
<event>
 7    1  0.2297343E-008  0.4614232E+02  0.7816164E-02  0.1320468E+00
        -11   -1    0    0    0    0  0.00000000000E+00  0.00000000000E+00  0.45593999997E+02  0.45594000000E+02  0.51100000000E-03 0.  1.
         11   -1    0    0    0    0 -0.00000000000E+00 -0.00000000000E+00 -0.45593999997E+02  0.45594000000E+02  0.51100000000E-03 0. -1.
    9900012    2    1    2    0    0 -0.23996977980E+02 -0.18362235578E+02  0.33407885839E+02  0.46142317812E+02  0.10000000461E+02 0.  0.
         12    1    1    2    0    0  0.23996977980E+02  0.18362235578E+02 -0.33407885839E+02  0.45045682188E+02  0.00000000000E+00 0. -1.
         11    1    3    3    0    0 -0.40947805162E+01 -0.19773248037E+01  0.20587158702E+01  0.49915280377E+01  0.51100000000E-03 0. -1.
        -11    1    3    3    0    0 -0.20315504281E+02 -0.15187359124E+02  0.29444494116E+02  0.38863270904E+02  0.51100000000E-03 0.  1.
        -12    1    3    3    0    0  0.41330681627E+00 -0.11975516495E+01  0.19046758525E+01  0.22875188700E+01  0.00000000000E+00 0.  1.
</event>
<event>
 7    1  0.2297343E-008  0.4614232E+02  0.7816164E-02  0.1320468E+00
        -11   -1    0    0    0    0  0.00000000000E+00  0.00000000000E+00  0.45593999997E+02  0.45594000000E+02  0.51100000000E-03 0.  1.
         11   -1    0    0    0    0 -0.00000000000E+00 -0.00000000000E+00 -0.45593999997E+02  0.45594000000E+02  0.51100000000E-03 0. -1.
    9900012    2    1    2    0    0  0.42146340792E+02  0.73105229728E+01  0.14119324724E+02  0.46142321861E+02  0.10000037388E+02 0.  0.
         12    1    1    2    0    0 -0.42146340792E+02 -0.73105229728E+01 -0.14119324724E+02  0.45045678139E+02  0.00000000000E+00 0. -1.
         11    1    3    3    0    0  0.33616400941E+01 -0.53323095044E+00  0.64518283404E+00  0.34642777775E+01  0.51100000000E-03 0. -1.
        -11    1    3    3    0    0  0.26602152427E+02  0.31663135206E+01  0.12583509332E+02  0.29598053356E+02  0.51100000000E-03 0.  1.
        -12    1    3    3    0    0  0.12182548271E+02  0.46774404026E+01  0.89063255820E+00  0.13079990728E+02  0.00000000000E+00 0.  1.
</event>
<event>
 7    1  0.2297343E-008  0.4614232E+02  0.7816164E-02  0.1320468E+00
        -11   -1    0    0    0    0  0.00000000000E+00  0.00000000000E+00  0.45593999997E+02  0.45594000000E+02  0.51100000000E-03 0.  1.
         11   -1    0    0    0    0 -0.00000000000E+00 -0.00000000000E+00 -0.45593999997E+02  0.45594000000E+02  0.51100000000E-03 0. -1.
    9900012    2    1    2    0    0  0.35830732193E+02  0.25667580848E+02 -0.92977101353E+01  0.46142317744E+02  0.99999998467E+01 0.  0.
         12    1    1    2    0    0 -0.35830732193E+02 -0.25667580848E+02  0.92977101353E+01  0.45045682256E+02  0.00000000000E+00 0. -1.
         11    1    3    3    0    0  0.12544719735E+02  0.92887431320E+01 -0.13013937316E+01  0.15663472415E+02  0.51100000000E-03 0.  1.
        -11    1    3    3    0    0  0.23800947164E+02  0.16386134635E+02 -0.78604401311E+01  0.29946235381E+02  0.51100000000E-03 0. -1.
         12    1    3    3    0    0 -0.51493470524E+00 -0.72969182678E-02 -0.13587627261E+00  0.53260994840E+00  0.00000000000E+00 0. -1.
</event>
<event>
 7    1  0.2297343E-008  0.4614232E+02  0.7816164E-02  0.1320468E+00
        -11   -1    0    0    0    0  0.00000000000E+00  0.00000000000E+00  0.45593999997E+02  0.45594000000E+02  0.51100000000E-03 0.  1.
         11   -1    0    0    0    0 -0.00000000000E+00 -0.00000000000E+00 -0.45593999997E+02  0.45594000000E+02  0.51100000000E-03 0. -1.
    9900012    2    1    2    0    0  0.87455162321E+01 -0.40187096381E+02  0.18374623361E+02  0.46142317040E+02  0.99999934213E+01 0.  0.
         12    1    1    2    0    0 -0.87455162321E+01  0.40187096381E+02 -0.18374623361E+02  0.45045682960E+02  0.00000000000E+00 0. -1.
         11    1    3    3    0    0  0.64595743299E+01 -0.13033675716E+02  0.56178221459E+01  0.15593675933E+02  0.51100000000E-03 0. -1.
        -11    1    3    3    0    0  0.19908463817E+01 -0.91434092822E+01  0.20008035013E+01  0.95691492584E+01  0.51100000000E-03 0.  1.
        -12    1    3    3    0    0  0.29509552052E+00 -0.18010011383E+02  0.10755997713E+02  0.20979491848E+02  0.00000000000E+00 0.  1.
</event>
<event>
 7    1  0.2297343E-008  0.4614232E+02  0.7816164E-02  0.1320468E+00
        -11   -1    0    0    0    0  0.00000000000E+00  0.00000000000E+00  0.45593999997E+02  0.45594000000E+02  0.51100000000E-03 0.  1.
         11   -1    0    0    0    0 -0.00000000000E+00 -0.00000000000E+00 -0.45593999997E+02  0.45594000000E+02  0.51100000000E-03 0. -1.
    9900012    2    1    2    0    0 -0.28997918459E+01 -0.44702027841E+02  0.47363727755E+01  0.46142319709E+02  0.10000017760E+02 0.  0.
         12    1    1    2    0    0  0.28997918459E+01  0.44702027841E+02 -0.47363727755E+01  0.45045680291E+02  0.00000000000E+00 0. -1.
         11    1    3    3    0    0  0.23738432304E+01 -0.23995760671E+02  0.47863925419E+01  0.24583352410E+02  0.51100000000E-03 0. -1.
        -11    1    3    3    0    0 -0.21540414852E+01 -0.89463342472E+01  0.13936820078E+01  0.93069404738E+01  0.51100000000E-03 0.  1.
         12    1    3    3    0    0 -0.31195935911E+01 -0.11759932922E+02 -0.14437017741E+01  0.12252026825E+02  0.00000000000E+00 0. -1.
</event>
<event>
 7    1  0.2297343E-008  0.4614232E+02  0.7816164E-02  0.1320468E+00
        -11   -1    0    0    0    0  0.00000000000E+00  0.00000000000E+00  0.45593999997E+02  0.45594000000E+02  0.51100000000E-03 0. -1.
         11   -1    0    0    0    0 -0.00000000000E+00 -0.00000000000E+00 -0.45593999997E+02  0.45594000000E+02  0.51100000000E-03 0.  1.
    9900012    2    1    2    0    0 -0.28449381103E+02 -0.14313466006E+02 -0.31857037055E+02  0.46142318696E+02  0.10000008523E+02 0.  0.
         12    1    1    2    0    0  0.28449381103E+02  0.14313466006E+02  0.31857037055E+02  0.45045681304E+02  0.00000000000E+00 0. -1.
         11    1    3    3    0    0 -0.25639562305E+01 -0.25479265481E+01 -0.64224780851E+01  0.73698050355E+01  0.51100000000E-03 0. -1.
        -11    1    3    3    0    0 -0.24070920182E+02 -0.12213514900E+02 -0.21840560628E+02  0.34721596067E+02  0.51100000000E-03 0.  1.
         12    1    3    3    0    0 -0.18145046900E+01  0.44797544197E+00 -0.35939983417E+01  0.40509175932E+01  0.00000000000E+00 0. -1.
</event>
<event>
 7    1  0.2297343E-008  0.4614232E+02  0.7816164E-02  0.1320468E+00
        -11   -1    0    0    0    0  0.00000000000E+00  0.00000000000E+00  0.45593999997E+02  0.45594000000E+02  0.51100000000E-03 0. -1.
         11   -1    0    0    0    0 -0.00000000000E+00 -0.00000000000E+00 -0.45593999997E+02  0.45594000000E+02  0.51100000000E-03 0.  1.
    9900012    2    1    2    0    0 -0.16017096493E+02 -0.30146116828E+02 -0.29390095759E+02  0.46142317981E+02  0.10000002004E+02 0.  0.
         12    1    1    2    0    0  0.16017096493E+02  0.30146116828E+02  0.29390095759E+02  0.45045682019E+02  0.00000000000E+00 0. -1.
         11    1    3    3    0    0 -0.10389468647E+01 -0.89309339180E+01 -0.10411342624E+02  0.13756345690E+02  0.51100000000E-03 0. -1.
        -11    1    3    3    0    0 -0.82549785927E+01 -0.96437832164E+01 -0.11055259641E+02  0.16833478318E+02  0.51100000000E-03 0.  1.
        -12    1    3    3    0    0 -0.67231710358E+01 -0.11571399693E+02 -0.79234934931E+01  0.15552493973E+02  0.00000000000E+00 0.  1.
</event>
<event>
 7    1  0.2297343E-008  0.4614232E+02  0.7816164E-02  0.1320468E+00
        -11   -1    0    0    0    0  0.00000000000E+00  0.00000000000E+00  0.45593999997E+02  0.45594000000E+02  0.51100000000E-03 0.  1.
         11   -1    0    0    0    0 -0.00000000000E+00 -0.00000000000E+00 -0.45593999997E+02  0.45594000000E+02  0.51100000000E-03 0. -1.
    9900012    2    1    2    0    0  0.63728919535E+01  0.55267932557E+01  0.44248776701E+02  0.46142318353E+02  0.10000005397E+02 0.  0.
         12    1    1    2    0    0 -0.63728919535E+01 -0.55267932557E+01 -0.44248776701E+02  0.45045681647E+02  0.00000000000E+00 0. -1.
         11    1    3    3    0    0  0.72285361529E+01  0.25810960065E+01  0.19814846609E+02  0.21249516181E+02  0.51100000000E-03 0. -1.
        -11    1    3    3    0    0  0.36150281040E+00 -0.10747757310E+00  0.18129205237E+00  0.41845284086E+00  0.51100000000E-03 0.  1.
        -12    1    3    3    0    0 -0.12171470098E+01  0.30531748223E+01  0.24252638039E+02  0.24474349332E+02  0.00000000000E+00 0.  1.
</event>
<event>
 7    1  0.2297343E-008  0.4614232E+02  0.7816164E-02  0.1320468E+00
        -11   -1    0    0    0    0  0.00000000000E+00  0.00000000000E+00  0.45593999997E+02  0.45594000000E+02  0.51100000000E-03 0. -1.
         11   -1    0    0    0    0 -0.00000000000E+00 -0.00000000000E+00 -0.45593999997E+02  0.45594000000E+02  0.51100000000E-03 0.  1.
    9900012    2    1    2    0    0  0.33854287980E+02 -0.10315945776E+02 -0.27867220085E+02  0.46142317552E+02  0.99999980942E+01 0.  0.
         12    1    1    2    0    0 -0.33854287980E+02  0.10315945776E+02  0.27867220085E+02  0.45045682448E+02  0.00000000000E+00 0. -1.
         11    1    3    3    0    0  0.74871858551E+01  0.56421121285E-01 -0.10439451353E+02  0.12846917147E+02  0.51100000000E-03 0. -1.
        -11    1    3    3    0    0  0.16345961809E+02 -0.57145813237E+01 -0.10881747856E+02  0.20451389778E+02  0.51100000000E-03 0.  1.
         12    1    3    3    0    0  0.10021140316E+02 -0.46577855735E+01 -0.65460208768E+01  0.12844010627E+02  0.00000000000E+00 0. -1.
</event>
<event>
 7    1  0.2297343E-008  0.4614232E+02  0.7816164E-02  0.1320468E+00
        -11   -1    0    0    0    0  0.00000000000E+00  0.00000000000E+00  0.45593999997E+02  0.45594000000E+02  0.51100000000E-03 0.  1.
         11   -1    0    0    0    0 -0.00000000000E+00 -0.00000000000E+00 -0.45593999997E+02  0.45594000000E+02  0.51100000000E-03 0. -1.
    9900012    2    1    2    0    0  0.38516268645E+02  0.12358926862E+02  0.19820885230E+02  0.46142317468E+02  0.99999973230E+01 0.  0.
         12    1    1    2    0    0 -0.38516268645E+02 -0.12358926862E+02 -0.19820885230E+02  0.45045682532E+02  0.00000000000E+00 0. -1.
         11    1    3    3    0    0  0.50587664972E+01  0.23799538177E+01  0.12339913746E+01  0.57252103561E+01  0.51100000000E-03 0. -1.
        -11    1    3    3    0    0  0.19983030162E+02  0.16602695647E+01  0.10614115125E+02  0.22687825582E+02  0.51100000000E-03 0.  1.
        -12    1    3    3    0    0  0.13474471986E+02  0.83187034791E+01  0.79727787306E+01  0.17729281530E+02  0.00000000000E+00 0.  1.
</event>
<event>
 7    1  0.2297343E-008  0.4614232E+02  0.7816164E-02  0.1320468E+00
        -11   -1    0    0    0    0  0.00000000000E+00  0.00000000000E+00  0.45593999997E+02  0.45594000000E+02  0.51100000000E-03 0.  1.
         11   -1    0    0    0    0 -0.00000000000E+00 -0.00000000000E+00 -0.45593999997E+02  0.45594000000E+02  0.51100000000E-03 0. -1.
    9900012    2    1    2    0    0 -0.27732760411E+02 -0.97362915943E+00  0.35483232311E+02  0.46142315091E+02  0.99999756500E+01 0.  0.
         12    1    1    2    0    0  0.27732760411E+02  0.97362915943E+00 -0.35483232311E+02  0.45045684909E+02  0.00000000000E+00 0. -1.
         11    1    3    3    0    0 -0.11693063506E+01 -0.71425279411E+00  0.35946856470E-01  0.13706665652E+01  0.51100000000E-03 0. -1.
        -11    1    3    3    0    0  0.18209351567E+00 -0.56339395482E+00  0.95748571845E+00  0.11257663874E+01  0.51100000000E-03 0.  1.
        -12    1    3    3    0    0 -0.26745547576E+02  0.30401758949E+00  0.34489799736E+02  0.43645882138E+02  0.00000000000E+00 0.  1.
</event>
<event>
 7    1  0.2297343E-008  0.4614232E+02  0.7816164E-02  0.1320468E+00
        -11   -1    0    0    0    0  0.00000000000E+00  0.00000000000E+00  0.45593999997E+02  0.45594000000E+02  0.51100000000E-03 0.  1.
         11   -1    0    0    0    0 -0.00000000000E+00 -0.00000000000E+00 -0.45593999997E+02  0.45594000000E+02  0.51100000000E-03 0. -1.
    9900012    2    1    2    0    0  0.74379989727E+01 -0.31464361718E+02  0.31365325024E+02  0.46142317622E+02  0.99999987347E+01 0.  0.
         12    1    1    2    0    0 -0.74379989727E+01  0.31464361718E+02 -0.31365325024E+02  0.45045682378E+02  0.00000000000E+00 0. -1.
         11    1    3    3    0    0  0.30165650489E+01 -0.57924829727E+01  0.73538787157E+01  0.98352456050E+01  0.51100000000E-03 0. -1.
        -11    1    3    3    0    0 -0.22669820519E+01 -0.46608430046E+01  0.46558797767E+01  0.69670569033E+01  0.51100000000E-03 0.  1.
        -12    1    3    3    0    0  0.66884159757E+01 -0.21011035740E+02  0.19355566531E+02  0.29340015114E+02  0.00000000000E+00 0.  1.
</event>
<event>
 7    1  0.2297343E-008  0.4614232E+02  0.7816164E-02  0.1320468E+00
        -11   -1    0    0    0    0  0.00000000000E+00  0.00000000000E+00  0.45593999997E+02  0.45594000000E+02  0.51100000000E-03 0.  1.
         11   -1    0    0    0    0 -0.00000000000E+00 -0.00000000000E+00 -0.45593999997E+02  0.45594000000E+02  0.51100000000E-03 0. -1.
    9900012    2    1    2    0    0  0.18457002334E+02 -0.27896920594E+02  0.30169759344E+02  0.46142317714E+02  0.99999995663E+01 0.  0.
         12    1    1    2    0    0 -0.18457002334E+02  0.27896920594E+02 -0.30169759344E+02  0.45045682286E+02  0.00000000000E+00 0. -1.
         11    1    3    3    0    0  0.22883970865E+01 -0.62203696432E+01  0.25174825949E+01  0.70899561776E+01  0.51100000000E-03 0. -1.
        -11    1    3    3    0    0  0.26926961040E+01 -0.99443567291E+00  0.24355009897E+01  0.37644627702E+01  0.51100000000E-03 0.  1.
        -12    1    3    3    0    0  0.13475909143E+02 -0.20682115278E+02  0.25216775759E+02  0.35287898766E+02  0.00000000000E+00 0.  1.
</event>
<event>
 7    1  0.2297343E-008  0.4614232E+02  0.7816164E-02  0.1320468E+00
        -11   -1    0    0    0    0  0.00000000000E+00  0.00000000000E+00  0.45593999997E+02  0.45594000000E+02  0.51100000000E-03 0. -1.
         11   -1    0    0    0    0 -0.00000000000E+00 -0.00000000000E+00 -0.45593999997E+02  0.45594000000E+02  0.51100000000E-03 0.  1.
    9900012    2    1    2    0    0 -0.21525654773E+02  0.28172609091E+02 -0.27786035198E+02  0.46142317982E+02  0.10000002017E+02 0.  0.
         12    1    1    2    0    0  0.21525654773E+02 -0.28172609091E+02  0.27786035198E+02  0.45045682018E+02  0.00000000000E+00 0. -1.
         11    1    3    3    0    0 -0.10036301518E+01  0.29682210737E+01  0.28331953209E-01  0.31334346626E+01  0.51100000000E-03 0. -1.
        -11    1    3    3    0    0 -0.63946948074E+01  0.97983086730E+01 -0.77476477830E+01  0.14032997576E+02  0.51100000000E-03 0.  1.
         12    1    3    3    0    0 -0.14127329813E+02  0.15406079344E+02 -0.20066719369E+02  0.28975885744E+02  0.00000000000E+00 0. -1.
</event>
<event>
 7    1  0.2297343E-008  0.4614232E+02  0.7816164E-02  0.1320468E+00
        -11   -1    0    0    0    0  0.00000000000E+00  0.00000000000E+00  0.45593999997E+02  0.45594000000E+02  0.51100000000E-03 0. -1.
         11   -1    0    0    0    0 -0.00000000000E+00 -0.00000000000E+00 -0.45593999997E+02  0.45594000000E+02  0.51100000000E-03 0.  1.
    9900012    2    1    2    0    0 -0.20027865882E+02 -0.32615026822E+02 -0.23754107810E+02  0.46142322913E+02  0.10000046974E+02 0.  0.
         12    1    1    2    0    0  0.20027865882E+02  0.32615026822E+02  0.23754107810E+02  0.45045677087E+02  0.00000000000E+00 0. -1.
         11    1    3    3    0    0 -0.56294148353E+01 -0.17984775443E+02 -0.11315137840E+02  0.21981237538E+02  0.51100000000E-03 0. -1.
        -11    1    3    3    0    0 -0.67353634646E+01 -0.66736749681E+01 -0.73584055951E+01  0.12002049481E+02  0.51100000000E-03 0.  1.
         12    1    3    3    0    0 -0.76630875823E+01 -0.79565764113E+01 -0.50805643749E+01  0.12159035893E+02  0.00000000000E+00 0. -1.
</event>
<event>
 7    1  0.2297343E-008  0.4614232E+02  0.7816164E-02  0.1320468E+00
        -11   -1    0    0    0    0  0.00000000000E+00  0.00000000000E+00  0.45593999997E+02  0.45594000000E+02  0.51100000000E-03 0.  1.
         11   -1    0    0    0    0 -0.00000000000E+00 -0.00000000000E+00 -0.45593999997E+02  0.45594000000E+02  0.51100000000E-03 0. -1.
    9900012    2    1    2    0    0 -0.85205187995E+01 -0.36859697309E+02  0.24451526588E+02  0.46142315647E+02  0.99999807212E+01 0.  0.
         12    1    1    2    0    0  0.85205187995E+01  0.36859697309E+02 -0.24451526588E+02  0.45045684353E+02  0.00000000000E+00 0. -1.
         11    1    3    3    0    0  0.18071598929E-01 -0.38752625404E-01 -0.93971175261E-01  0.10324336087E+00  0.51100000000E-03 0. -1.
        -11    1    3    3    0    0  0.11780428189E+01 -0.62037529701E+00  0.16398291513E+01  0.21122713602E+01  0.51100000000E-03 0.  1.
        -12    1    3    3    0    0 -0.97166332173E+01 -0.36200569387E+02  0.22905668612E+02  0.43926800926E+02  0.00000000000E+00 0.  1.
</event>
<event>
 7    1  0.2297343E-008  0.4614232E+02  0.7816164E-02  0.1320468E+00
        -11   -1    0    0    0    0  0.00000000000E+00  0.00000000000E+00  0.45593999997E+02  0.45594000000E+02  0.51100000000E-03 0.  1.
         11   -1    0    0    0    0 -0.00000000000E+00 -0.00000000000E+00 -0.45593999997E+02  0.45594000000E+02  0.51100000000E-03 0. -1.
    9900012    2    1    2    0    0  0.93967210781E+01  0.25930598129E+02  0.35614873406E+02  0.46142317698E+02  0.99999994224E+01 0.  0.
         12    1    1    2    0    0 -0.93967210781E+01 -0.25930598129E+02 -0.35614873406E+02  0.45045682302E+02  0.00000000000E+00 0. -1.
         11    1    3    3    0    0  0.10625925674E+01  0.25863768232E+01  0.38240743070E+00  0.28221771277E+01  0.51100000000E-03 0. -1.
        -11    1    3    3    0    0  0.18631283846E+01  0.35221605258E+01  0.87450636267E+01  0.96100468388E+01  0.51100000000E-03 0.  1.
        -12    1    3    3    0    0  0.64710001261E+01  0.19822060780E+02  0.26487402348E+02  0.33710093731E+02  0.00000000000E+00 0.  1.
</event>
<event>
 7    1  0.2297343E-008  0.4614232E+02  0.7816164E-02  0.1320468E+00
        -11   -1    0    0    0    0  0.00000000000E+00  0.00000000000E+00  0.45593999997E+02  0.45594000000E+02  0.51100000000E-03 0.  1.
         11   -1    0    0    0    0 -0.00000000000E+00 -0.00000000000E+00 -0.45593999997E+02  0.45594000000E+02  0.51100000000E-03 0. -1.
    9900012    2    1    2    0    0 -0.15053951522E+02 -0.32784242261E+02  0.26975645788E+02  0.46142318046E+02  0.10000002595E+02 0.  0.
         12    1    1    2    0    0  0.15053951522E+02  0.32784242261E+02 -0.26975645788E+02  0.45045681954E+02  0.00000000000E+00 0. -1.
         11    1    3    3    0    0 -0.54968986525E+01 -0.51253872830E+01  0.62692602941E+01  0.97871913486E+01  0.51100000000E-03 0.  1.
        -11    1    3    3    0    0 -0.20582853682E+01 -0.13481461687E+02  0.11651225618E+02  0.17937040072E+02  0.51100000000E-03 0. -1.
         12    1    3    3    0    0 -0.74987675009E+01 -0.14177393291E+02  0.90551598762E+01  0.18418086626E+02  0.00000000000E+00 0. -1.
</event>
<event>
 7    1  0.2297343E-008  0.4614232E+02  0.7816164E-02  0.1320468E+00
        -11   -1    0    0    0    0  0.00000000000E+00  0.00000000000E+00  0.45593999997E+02  0.45594000000E+02  0.51100000000E-03 0. -1.
         11   -1    0    0    0    0 -0.00000000000E+00 -0.00000000000E+00 -0.45593999997E+02  0.45594000000E+02  0.51100000000E-03 0.  1.
    9900012    2    1    2    0    0 -0.27911659357E+02  0.35272975683E+02  0.24228070828E+01  0.46142317235E+02  0.99999952042E+01 0.  0.
         12    1    1    2    0    0  0.27911659357E+02 -0.35272975683E+02 -0.24228070828E+01  0.45045682765E+02  0.00000000000E+00 0. -1.
         11    1    3    3    0    0 -0.21569385381E+01  0.44778390815E+01  0.21936771947E+01  0.54328304402E+01  0.51100000000E-03 0. -1.
        -11    1    3    3    0    0 -0.15278797928E+02  0.19225323092E+02  0.33741948044E+01  0.24787898357E+02  0.51100000000E-03 0.  1.
         12    1    3    3    0    0 -0.10475922891E+02  0.11569813509E+02 -0.31450649163E+01  0.15921588438E+02  0.00000000000E+00 0. -1.
</event>
<event>
 7    1  0.2297343E-008  0.4614231E+02  0.7816164E-02  0.1320468E+00
        -11   -1    0    0    0    0  0.00000000000E+00  0.00000000000E+00  0.45593999997E+02  0.45594000000E+02  0.51100000000E-03 0.  1.
         11   -1    0    0    0    0 -0.00000000000E+00 -0.00000000000E+00 -0.45593999997E+02  0.45594000000E+02  0.51100000000E-03 0. -1.
    9900012    2    1    2    0    0 -0.33564018956E+02  0.29362038040E+02  0.63593443454E+01  0.46142313116E+02  0.99999576395E+01 0.  0.
         12    1    1    2    0    0  0.33564018956E+02 -0.29362038040E+02 -0.63593443454E+01  0.45045686884E+02  0.00000000000E+00 0. -1.
         11    1    3    3    0    0  0.19456190994E+00  0.37547855643E+00  0.63452743963E+00  0.76253774720E+00  0.51100000000E-03 0. -1.
        -11    1    3    3    0    0 -0.16707254582E+02  0.18697106931E+02  0.39810679853E+01  0.25388246608E+02  0.51100000000E-03 0.  1.
        -12    1    3    3    0    0 -0.17051326285E+02  0.10289452553E+02  0.17437489204E+01  0.19991528761E+02  0.00000000000E+00 0.  1.
</event>
<event>
 7    1  0.2297343E-008  0.4614232E+02  0.7816164E-02  0.1320468E+00
        -11   -1    0    0    0    0  0.00000000000E+00  0.00000000000E+00  0.45593999997E+02  0.45594000000E+02  0.51100000000E-03 0. -1.
         11   -1    0    0    0    0 -0.00000000000E+00 -0.00000000000E+00 -0.45593999997E+02  0.45594000000E+02  0.51100000000E-03 0.  1.
    9900012    2    1    2    0    0  0.42468440447E+02  0.87610054806E+01  0.12197942703E+02  0.46142318107E+02  0.10000003150E+02 0.  0.
         12    1    1    2    0    0 -0.42468440447E+02 -0.87610054806E+01 -0.12197942703E+02  0.45045681893E+02  0.00000000000E+00 0. -1.
         11    1    3    3    0    0  0.28589105831E+01 -0.60819147153E+00  0.23329000668E+01  0.37397445863E+01  0.51100000000E-03 0. -1.
        -11    1    3    3    0    0  0.21567070326E+02  0.65154608537E+01  0.23558716204E+01  0.22652591109E+02  0.51100000000E-03 0.  1.
        -12    1    3    3    0    0  0.18042459538E+02  0.28537360984E+01  0.75091710161E+01  0.19749982411E+02  0.00000000000E+00 0.  1.
</event>
<event>
 7    1  0.2297343E-008  0.4614232E+02  0.7816164E-02  0.1320468E+00
        -11   -1    0    0    0    0  0.00000000000E+00  0.00000000000E+00  0.45593999997E+02  0.45594000000E+02  0.51100000000E-03 0. -1.
         11   -1    0    0    0    0 -0.00000000000E+00 -0.00000000000E+00 -0.45593999997E+02  0.45594000000E+02  0.51100000000E-03 0.  1.
    9900012    2    1    2    0    0 -0.14483652017E+02  0.33143089242E+02 -0.26849076832E+02  0.46142317998E+02  0.10000002164E+02 0.  0.
         12    1    1    2    0    0  0.14483652017E+02 -0.33143089242E+02  0.26849076832E+02  0.45045682002E+02  0.00000000000E+00 0. -1.
         11    1    3    3    0    0 -0.12590459068E+01  0.51589911935E+01 -0.10874874122E+01  0.54206102851E+01  0.51100000000E-03 0. -1.
        -11    1    3    3    0    0 -0.55467430129E+00  0.35642818109E+01 -0.10894801488E+01  0.37681209725E+01  0.51100000000E-03 0.  1.
        -12    1    3    3    0    0 -0.12669931809E+02  0.24419816238E+02 -0.24672109271E+02  0.36953586741E+02  0.00000000000E+00 0.  1.
</event>
<event>
 7    1  0.2297343E-008  0.4614232E+02  0.7816164E-02  0.1320468E+00
        -11   -1    0    0    0    0  0.00000000000E+00  0.00000000000E+00  0.45593999997E+02  0.45594000000E+02  0.51100000000E-03 0.  1.
         11   -1    0    0    0    0 -0.00000000000E+00 -0.00000000000E+00 -0.45593999997E+02  0.45594000000E+02  0.51100000000E-03 0. -1.
    9900012    2    1    2    0    0 -0.31289353039E+01  0.38468808765E+02  0.23226581462E+02  0.46142316851E+02  0.99999916991E+01 0.  0.
         12    1    1    2    0    0  0.31289353039E+01 -0.38468808765E+02 -0.23226581462E+02  0.45045683149E+02  0.00000000000E+00 0. -1.
         11    1    3    3    0    0  0.10012013068E+01  0.17240102037E+02  0.79865292104E+01  0.19026512329E+02  0.51100000000E-03 0. -1.
        -11    1    3    3    0    0 -0.41724996082E+01  0.15841022039E+02  0.84025456397E+01  0.18410608510E+02  0.51100000000E-03 0.  1.
        -12    1    3    3    0    0  0.42362997414E-01  0.53876846884E+01  0.68375066122E+01  0.87051960114E+01  0.00000000000E+00 0.  1.
</event>
<event>
 7    1  0.2297343E-008  0.4614232E+02  0.7816164E-02  0.1320468E+00
        -11   -1    0    0    0    0  0.00000000000E+00  0.00000000000E+00  0.45593999997E+02  0.45594000000E+02  0.51100000000E-03 0.  1.
         11   -1    0    0    0    0 -0.00000000000E+00 -0.00000000000E+00 -0.45593999997E+02  0.45594000000E+02  0.51100000000E-03 0. -1.
    9900012    2    1    2    0    0 -0.18333361736E+02 -0.36263830044E+02  0.19440568422E+02  0.46142320712E+02  0.10000026905E+02 0.  0.
         12    1    1    2    0    0  0.18333361736E+02  0.36263830044E+02 -0.19440568422E+02  0.45045679288E+02  0.00000000000E+00 0. -1.
         11    1    3    3    0    0 -0.45738888031E+01 -0.13534231887E+02  0.37900109026E+01  0.14780394936E+02  0.51100000000E-03 0. -1.
        -11    1    3    3    0    0 -0.16464533225E+00 -0.23950296145E-02  0.11643072493E+01  0.11758934703E+01  0.51100000000E-03 0.  1.
        -12    1    3    3    0    0 -0.13594827601E+02 -0.22727203127E+02  0.14486250270E+02  0.30186032306E+02  0.00000000000E+00 0.  1.
</event>
<event>
 7    1  0.2297343E-008  0.4614232E+02  0.7816164E-02  0.1320468E+00
        -11   -1    0    0    0    0  0.00000000000E+00  0.00000000000E+00  0.45593999997E+02  0.45594000000E+02  0.51100000000E-03 0. -1.
         11   -1    0    0    0    0 -0.00000000000E+00 -0.00000000000E+00 -0.45593999997E+02  0.45594000000E+02  0.51100000000E-03 0.  1.
    9900012    2    1    2    0    0  0.24689879073E+02  0.36368325284E+02 -0.98421611927E+01  0.46142319302E+02  0.10000014050E+02 0.  0.
         12    1    1    2    0    0 -0.24689879073E+02 -0.36368325284E+02  0.98421611927E+01  0.45045680698E+02  0.00000000000E+00 0. -1.
         11    1    3    3    0    0  0.69543810484E+01  0.12269282575E+02 -0.12171712725E+01  0.14155571936E+02  0.51100000000E-03 0. -1.
        -11    1    3    3    0    0  0.37338831433E+00  0.28125655900E+01  0.79620906184E+00  0.29468446112E+01  0.51100000000E-03 0.  1.
        -12    1    3    3    0    0  0.17362109710E+02  0.21286477119E+02 -0.94211989820E+01  0.29039902754E+02  0.00000000000E+00 0.  1.
</event>
<event>
 7    1  0.2297343E-008  0.4614232E+02  0.7816164E-02  0.1320468E+00
        -11   -1    0    0    0    0  0.00000000000E+00  0.00000000000E+00  0.45593999997E+02  0.45594000000E+02  0.51100000000E-03 0. -1.
         11   -1    0    0    0    0 -0.00000000000E+00 -0.00000000000E+00 -0.45593999997E+02  0.45594000000E+02  0.51100000000E-03 0.  1.
    9900012    2    1    2    0    0 -0.11293759779E+02  0.40807516174E+02 -0.15372416638E+02  0.46142316749E+02  0.99999907746E+01 0.  0.
         12    1    1    2    0    0  0.11293759779E+02 -0.40807516174E+02  0.15372416638E+02  0.45045683251E+02  0.00000000000E+00 0. -1.
         11    1    3    3    0    0 -0.10906121107E+00  0.34053449024E+01 -0.24765578782E+01  0.42120787549E+01  0.51100000000E-03 0.  1.
        -11    1    3    3    0    0  0.51391689439E+00  0.10854321316E+02 -0.29218641530E+01  0.11252452719E+02  0.51100000000E-03 0. -1.
        -12    1    3    3    0    0 -0.11698615462E+02  0.26547849955E+02 -0.99739946069E+01  0.30677785275E+02  0.00000000000E+00 0.  1.
</event>
<event>
 7    1  0.2297343E-008  0.4614232E+02  0.7816164E-02  0.1320468E+00
        -11   -1    0    0    0    0  0.00000000000E+00  0.00000000000E+00  0.45593999997E+02  0.45594000000E+02  0.51100000000E-03 0. -1.
         11   -1    0    0    0    0 -0.00000000000E+00 -0.00000000000E+00 -0.45593999997E+02  0.45594000000E+02  0.51100000000E-03 0.  1.
    9900012    2    1    2    0    0  0.11273927365E+02 -0.42698202837E+02  0.88811840579E+01  0.46142318808E+02  0.10000009550E+02 0.  0.
         12    1    1    2    0    0 -0.11273927365E+02  0.42698202837E+02 -0.88811840579E+01  0.45045681192E+02  0.00000000000E+00 0. -1.
         11    1    3    3    0    0 -0.24299448660E+00 -0.12141582363E+01  0.15403240167E+01  0.19763159871E+01  0.51100000000E-03 0. -1.
        -11    1    3    3    0    0  0.70548467796E+01 -0.16758388494E+02  0.53921787070E+01  0.18965496024E+02  0.51100000000E-03 0.  1.
        -12    1    3    3    0    0  0.44620750718E+01 -0.24725656107E+02  0.19486813342E+01  0.25200506797E+02  0.00000000000E+00 0.  1.
</event>
<event>
 7    1  0.2297343E-008  0.4614232E+02  0.7816164E-02  0.1320468E+00
        -11   -1    0    0    0    0  0.00000000000E+00  0.00000000000E+00  0.45593999997E+02  0.45594000000E+02  0.51100000000E-03 0.  1.
         11   -1    0    0    0    0 -0.00000000000E+00 -0.00000000000E+00 -0.45593999997E+02  0.45594000000E+02  0.51100000000E-03 0. -1.
    9900012    2    1    2    0    0 -0.22137762527E+02 -0.23458638994E+02  0.31444001359E+02  0.46142317692E+02  0.99999993695E+01 0.  0.
         12    1    1    2    0    0  0.22137762527E+02  0.23458638994E+02 -0.31444001359E+02  0.45045682308E+02  0.00000000000E+00 0. -1.
         11    1    3    3    0    0 -0.28579174479E+01 -0.18198148575E+01  0.61139990227E+01  0.69900216427E+01  0.51100000000E-03 0. -1.
        -11    1    3    3    0    0 -0.11597840518E+02 -0.10193031342E+02  0.93604567126E+01  0.18056188489E+02  0.51100000000E-03 0.  1.
        -12    1    3    3    0    0 -0.76820045604E+01 -0.11445792794E+02  0.15969545624E+02  0.21096107560E+02  0.00000000000E+00 0.  1.
</event>
<event>
 7    1  0.2297343E-008  0.4614232E+02  0.7816164E-02  0.1320468E+00
        -11   -1    0    0    0    0  0.00000000000E+00  0.00000000000E+00  0.45593999997E+02  0.45594000000E+02  0.51100000000E-03 0. -1.
         11   -1    0    0    0    0 -0.00000000000E+00 -0.00000000000E+00 -0.45593999997E+02  0.45594000000E+02  0.51100000000E-03 0.  1.
    9900012    2    1    2    0    0 -0.14269847708E+02  0.36667886072E+02 -0.21930598599E+02  0.46142316772E+02  0.99999909790E+01 0.  0.
         12    1    1    2    0    0  0.14269847708E+02 -0.36667886072E+02  0.21930598599E+02  0.45045683228E+02  0.00000000000E+00 0. -1.
         11    1    3    3    0    0 -0.18721513485E+01  0.83654370672E+01 -0.36102762768E+01  0.93015903508E+01  0.51100000000E-03 0.  1.
        -11    1    3    3    0    0 -0.85471100825E+01  0.21102096346E+02 -0.17336175637E+02  0.28616333569E+02  0.51100000000E-03 0. -1.
         12    1    3    3    0    0 -0.38505862772E+01  0.72003526585E+01 -0.98414668490E+00  0.82243928519E+01  0.00000000000E+00 0. -1.
</event>
<event>
 7    1  0.2297343E-008  0.4614232E+02  0.7816164E-02  0.1320468E+00
        -11   -1    0    0    0    0  0.00000000000E+00  0.00000000000E+00  0.45593999997E+02  0.45594000000E+02  0.51100000000E-03 0. -1.
         11   -1    0    0    0    0 -0.00000000000E+00 -0.00000000000E+00 -0.45593999997E+02  0.45594000000E+02  0.51100000000E-03 0.  1.
    9900012    2    1    2    0    0  0.17485823345E+02 -0.39085092537E+02 -0.13989816580E+02  0.46142318247E+02  0.10000004431E+02 0.  0.
         12    1    1    2    0    0 -0.17485823345E+02  0.39085092537E+02  0.13989816580E+02  0.45045681753E+02  0.00000000000E+00 0. -1.
         11    1    3    3    0    0  0.87879345636E+01 -0.14761796023E+02 -0.38253754473E+01  0.17600338443E+02  0.51100000000E-03 0. -1.
        -11    1    3    3    0    0  0.60046758371E+01 -0.22669128494E+02 -0.95567453668E+01  0.25323445675E+02  0.51100000000E-03 0.  1.
        -12    1    3    3    0    0  0.26932129440E+01 -0.16541680202E+01 -0.60769576577E+00  0.32185341297E+01  0.00000000000E+00 0.  1.
</event>
<event>
 7    1  0.2297343E-008  0.4614232E+02  0.7816164E-02  0.1320468E+00
        -11   -1    0    0    0    0  0.00000000000E+00  0.00000000000E+00  0.45593999997E+02  0.45594000000E+02  0.51100000000E-03 0. -1.
         11   -1    0    0    0    0 -0.00000000000E+00 -0.00000000000E+00 -0.45593999997E+02  0.45594000000E+02  0.51100000000E-03 0.  1.
    9900012    2    1    2    0    0  0.11812352262E+02  0.18714441452E+02  0.39234570204E+02  0.46142317810E+02  0.10000000450E+02 0.  0.
         12    1    1    2    0    0 -0.11812352262E+02 -0.18714441452E+02 -0.39234570204E+02  0.45045682190E+02  0.00000000000E+00 0. -1.
         11    1    3    3    0    0  0.91481421987E+01  0.10696130169E+02  0.25651405196E+02  0.29259020747E+02  0.51100000000E-03 0. -1.
        -11    1    3    3    0    0  0.41183042531E+01  0.43607611375E+01  0.70522732337E+01  0.92580357336E+01  0.51100000000E-03 0.  1.
         12    1    3    3    0    0 -0.14540941901E+01  0.36575501451E+01  0.65308917743E+01  0.76252613296E+01  0.00000000000E+00 0. -1.
</event>
<event>
 7    1  0.2297343E-008  0.4614232E+02  0.7816164E-02  0.1320468E+00
        -11   -1    0    0    0    0  0.00000000000E+00  0.00000000000E+00  0.45593999997E+02  0.45594000000E+02  0.51100000000E-03 0. -1.
         11   -1    0    0    0    0 -0.00000000000E+00 -0.00000000000E+00 -0.45593999997E+02  0.45594000000E+02  0.51100000000E-03 0.  1.
    9900012    2    1    2    0    0  0.52837529306E+01 -0.25617386272E+02 -0.36673490698E+02  0.46142318249E+02  0.10000004448E+02 0.  0.
         12    1    1    2    0    0 -0.52837529306E+01  0.25617386272E+02  0.36673490698E+02  0.45045681751E+02  0.00000000000E+00 0. -1.
         11    1    3    3    0    0  0.10521882683E+01 -0.15768833896E+01 -0.49748711197E+00  0.19598864926E+01  0.51100000000E-03 0. -1.
        -11    1    3    3    0    0  0.18080138061E+01 -0.17829601099E+02 -0.30730096742E+02  0.35573901042E+02  0.51100000000E-03 0.  1.
        -12    1    3    3    0    0  0.24235508562E+01 -0.62109017831E+01 -0.54459068439E+01  0.86085307146E+01  0.00000000000E+00 0.  1.
</event>
<event>
 7    1  0.2297343E-008  0.4614232E+02  0.7816164E-02  0.1320468E+00
        -11   -1    0    0    0    0  0.00000000000E+00  0.00000000000E+00  0.45593999997E+02  0.45594000000E+02  0.51100000000E-03 0. -1.
         11   -1    0    0    0    0 -0.00000000000E+00 -0.00000000000E+00 -0.45593999997E+02  0.45594000000E+02  0.51100000000E-03 0.  1.
    9900012    2    1    2    0    0 -0.26426652557E+02 -0.13159101541E+02 -0.34023279489E+02  0.46142318010E+02  0.10000002267E+02 0.  0.
         12    1    1    2    0    0  0.26426652557E+02  0.13159101541E+02  0.34023279489E+02  0.45045681990E+02  0.00000000000E+00 0. -1.
         11    1    3    3    0    0 -0.57964711639E+01 -0.55095360502E+01 -0.72500562884E+01  0.10794321743E+02  0.51100000000E-03 0. -1.
        -11    1    3    3    0    0 -0.19216445479E+02 -0.57690283811E+01 -0.20666626975E+02  0.28803870158E+02  0.51100000000E-03 0.  1.
         12    1    3    3    0    0 -0.14137359143E+01 -0.18805371097E+01 -0.61065962262E+01  0.65441261087E+01  0.00000000000E+00 0. -1.
</event>
<event>
 7    1  0.2297343E-008  0.4614232E+02  0.7816164E-02  0.1320468E+00
        -11   -1    0    0    0    0  0.00000000000E+00  0.00000000000E+00  0.45593999997E+02  0.45594000000E+02  0.51100000000E-03 0. -1.
         11   -1    0    0    0    0 -0.00000000000E+00 -0.00000000000E+00 -0.45593999997E+02  0.45594000000E+02  0.51100000000E-03 0.  1.
    9900012    2    1    2    0    0 -0.93921719039E+01 -0.11159644997E+01 -0.44041516771E+02  0.46142317973E+02  0.10000001930E+02 0.  0.
         12    1    1    2    0    0  0.93921719039E+01  0.11159644997E+01  0.44041516771E+02  0.45045682027E+02  0.00000000000E+00 0. -1.
         11    1    3    3    0    0  0.56664890591E+00 -0.27603574953E+01 -0.65152078724E+01  0.70984926827E+01  0.51100000000E-03 0. -1.
        -11    1    3    3    0    0 -0.86478377151E+01 -0.34197319603E-01 -0.29833230405E+02  0.31061357073E+02  0.51100000000E-03 0.  1.
         12    1    3    3    0    0 -0.13109830948E+01  0.16785903151E+01 -0.76930784936E+01  0.79824682166E+01  0.00000000000E+00 0. -1.
</event>
<event>
 7    1  0.2297343E-008  0.4614231E+02  0.7816164E-02  0.1320468E+00
        -11   -1    0    0    0    0  0.00000000000E+00  0.00000000000E+00  0.45593999997E+02  0.45594000000E+02  0.51100000000E-03 0.  1.
         11   -1    0    0    0    0 -0.00000000000E+00 -0.00000000000E+00 -0.45593999997E+02  0.45594000000E+02  0.51100000000E-03 0. -1.
    9900012    2    1    2    0    0 -0.73782661980E+01 -0.25237758874E+02  0.36574998200E+02  0.46142314542E+02  0.99999706462E+01 0.  0.
         12    1    1    2    0    0  0.73782661980E+01  0.25237758874E+02 -0.36574998200E+02  0.45045685458E+02  0.00000000000E+00 0. -1.
         11    1    3    3    0    0 -0.19932531511E+01 -0.71870945471E+01  0.12417671827E+02  0.14485370551E+02  0.51100000000E-03 0. -1.
        -11    1    3    3    0    0 -0.44232504328E+01 -0.65599155330E+01  0.14897884649E+02  0.16868449943E+02  0.51100000000E-03 0.  1.
         12    1    3    3    0    0 -0.96176261403E+00 -0.11490748794E+02  0.92594417239E+01  0.14788494048E+02  0.00000000000E+00 0. -1.
</event>
<event>
 7    1  0.2297343E-008  0.4614232E+02  0.7816164E-02  0.1320468E+00
        -11   -1    0    0    0    0  0.00000000000E+00  0.00000000000E+00  0.45593999997E+02  0.45594000000E+02  0.51100000000E-03 0.  1.
         11   -1    0    0    0    0 -0.00000000000E+00 -0.00000000000E+00 -0.45593999997E+02  0.45594000000E+02  0.51100000000E-03 0. -1.
    9900012    2    1    2    0    0 -0.21832432111E+01 -0.24334613374E+02  0.37844069882E+02  0.46142316697E+02  0.99999902991E+01 0.  0.
         12    1    1    2    0    0  0.21832432111E+01  0.24334613374E+02 -0.37844069882E+02  0.45045683303E+02  0.00000000000E+00 0. -1.
         11    1    3    3    0    0 -0.26933328377E-01 -0.74745405824E+01  0.91337024986E+01  0.11802288080E+02  0.51100000000E-03 0. -1.
        -11    1    3    3    0    0  0.24483152574E+01 -0.52160081198E+01  0.54898389975E+01  0.79586004287E+01  0.51100000000E-03 0.  1.
        -12    1    3    3    0    0 -0.46046251402E+01 -0.11644064672E+02  0.23220528386E+02  0.26381428189E+02  0.00000000000E+00 0.  1.
</event>
<event>
 7    1  0.2297343E-008  0.4614232E+02  0.7816164E-02  0.1320468E+00
        -11   -1    0    0    0    0  0.00000000000E+00  0.00000000000E+00  0.45593999997E+02  0.45594000000E+02  0.51100000000E-03 0.  1.
         11   -1    0    0    0    0 -0.00000000000E+00 -0.00000000000E+00 -0.45593999997E+02  0.45594000000E+02  0.51100000000E-03 0. -1.
    9900012    2    1    2    0    0 -0.57354373296E+01  0.14987026126E+02  0.42090467211E+02  0.46142316261E+02  0.99999863231E+01 0.  0.
         12    1    1    2    0    0  0.57354373296E+01 -0.14987026126E+02 -0.42090467211E+02  0.45045683739E+02  0.00000000000E+00 0. -1.
         11    1    3    3    0    0 -0.22056556269E+01  0.36513600231E+01  0.69597881670E+01  0.81630875503E+01  0.51100000000E-03 0. -1.
        -11    1    3    3    0    0 -0.43348115891E+01  0.12374880066E+02  0.32191717060E+02  0.34759673412E+02  0.51100000000E-03 0.  1.
         12    1    3    3    0    0  0.80502988634E+00 -0.10392139639E+01  0.29389619843E+01  0.32195552994E+01  0.00000000000E+00 0. -1.
</event>
<event>
 7    1  0.2297343E-008  0.4614232E+02  0.7816164E-02  0.1320468E+00
        -11   -1    0    0    0    0  0.00000000000E+00  0.00000000000E+00  0.45593999997E+02  0.45594000000E+02  0.51100000000E-03 0.  1.
         11   -1    0    0    0    0 -0.00000000000E+00 -0.00000000000E+00 -0.45593999997E+02  0.45594000000E+02  0.51100000000E-03 0. -1.
    9900012    2    1    2    0    0 -0.30659327479E+02 -0.19259832565E+02  0.26798840046E+02  0.46142319411E+02  0.10000015045E+02 0.  0.
         12    1    1    2    0    0  0.30659327479E+02  0.19259832565E+02 -0.26798840046E+02  0.45045680589E+02  0.00000000000E+00 0. -1.
         11    1    3    3    0    0 -0.55854999068E-01  0.42940656639E-01  0.11786633517E+01  0.11807672246E+01  0.51100000000E-03 0. -1.
        -11    1    3    3    0    0 -0.44883288697E+01 -0.58145197783E+01  0.71293811049E+01  0.10236298720E+02  0.51100000000E-03 0.  1.
        -12    1    3    3    0    0 -0.26115143610E+02 -0.13488253444E+02  0.18490795589E+02  0.34725253466E+02  0.00000000000E+00 0.  1.
</event>
<event>
 7    1  0.2297343E-008  0.4614232E+02  0.7816164E-02  0.1320468E+00
        -11   -1    0    0    0    0  0.00000000000E+00  0.00000000000E+00  0.45593999997E+02  0.45594000000E+02  0.51100000000E-03 0.  1.
         11   -1    0    0    0    0 -0.00000000000E+00 -0.00000000000E+00 -0.45593999997E+02  0.45594000000E+02  0.51100000000E-03 0. -1.
    9900012    2    1    2    0    0  0.19072394421E+02 -0.15892303648E+02  0.37587124323E+02  0.46142318086E+02  0.10000002966E+02 0.  0.
         12    1    1    2    0    0 -0.19072394421E+02  0.15892303648E+02 -0.37587124323E+02  0.45045681914E+02  0.00000000000E+00 0. -1.
         11    1    3    3    0    0  0.62358427127E+01 -0.16253226414E+01  0.11863962891E+02  0.13501148979E+02  0.51100000000E-03 0. -1.
        -11    1    3    3    0    0  0.19944338659E+01 -0.16266525250E+01  0.76220372300E+01  0.80448254599E+01  0.51100000000E-03 0.  1.
        -12    1    3    3    0    0  0.10842117842E+02 -0.12640328482E+02  0.18101124203E+02  0.24596343647E+02  0.00000000000E+00 0.  1.
</event>
<event>
 7    1  0.2297343E-008  0.4614232E+02  0.7816164E-02  0.1320468E+00
        -11   -1    0    0    0    0  0.00000000000E+00  0.00000000000E+00  0.45593999997E+02  0.45594000000E+02  0.51100000000E-03 0.  1.
         11   -1    0    0    0    0 -0.00000000000E+00 -0.00000000000E+00 -0.45593999997E+02  0.45594000000E+02  0.51100000000E-03 0. -1.
    9900012    2    1    2    0    0 -0.16045577461E+02 -0.54915387079E+01  0.41731228771E+02  0.46142323091E+02  0.10000048605E+02 0.  0.
         12    1    1    2    0    0  0.16045577461E+02  0.54915387079E+01 -0.41731228771E+02  0.45045676909E+02  0.00000000000E+00 0. -1.
         11    1    3    3    0    0 -0.19612540607E+01  0.92732304714E+00  0.18018720602E+01  0.28201398382E+01  0.51100000000E-03 0. -1.
        -11    1    3    3    0    0 -0.92825292440E+01 -0.72598922264E+01  0.25492741077E+02  0.28084715277E+02  0.51100000000E-03 0.  1.
        -12    1    3    3    0    0 -0.48017941565E+01  0.84103047141E+00  0.14436615634E+02  0.15237467976E+02  0.00000000000E+00 0.  1.
</event>
<event>
 7    1  0.2297343E-008  0.4614232E+02  0.7816164E-02  0.1320468E+00
        -11   -1    0    0    0    0  0.00000000000E+00  0.00000000000E+00  0.45593999997E+02  0.45594000000E+02  0.51100000000E-03 0.  1.
         11   -1    0    0    0    0 -0.00000000000E+00 -0.00000000000E+00 -0.45593999997E+02  0.45594000000E+02  0.51100000000E-03 0. -1.
    9900012    2    1    2    0    0 -0.27317810099E+02  0.47883032057E+01  0.35495395931E+02  0.46142315095E+02  0.99999756921E+01 0.  0.
         12    1    1    2    0    0  0.27317810099E+02 -0.47883032057E+01 -0.35495395931E+02  0.45045684905E+02  0.00000000000E+00 0. -1.
         11    1    3    3    0    0 -0.67600507569E+01  0.43582716470E+01  0.82036946869E+01  0.11488839139E+02  0.51100000000E-03 0. -1.
        -11    1    3    3    0    0 -0.96847048226E+01  0.27502512804E+01  0.15154761939E+02  0.18194070443E+02  0.51100000000E-03 0.  1.
         12    1    3    3    0    0 -0.10873054519E+02 -0.23202197217E+01  0.12136939306E+02  0.16459405513E+02  0.00000000000E+00 0. -1.
</event>
<event>
 7    1  0.2297343E-008  0.4614232E+02  0.7816164E-02  0.1320468E+00
        -11   -1    0    0    0    0  0.00000000000E+00  0.00000000000E+00  0.45593999997E+02  0.45594000000E+02  0.51100000000E-03 0. -1.
         11   -1    0    0    0    0 -0.00000000000E+00 -0.00000000000E+00 -0.45593999997E+02  0.45594000000E+02  0.51100000000E-03 0.  1.
    9900012    2    1    2    0    0  0.41320959596E+02 -0.47468634466E+01 -0.17296214496E+02  0.46142318182E+02  0.10000003840E+02 0.  0.
         12    1    1    2    0    0 -0.41320959596E+02  0.47468634466E+01  0.17296214496E+02  0.45045681818E+02  0.00000000000E+00 0. -1.
         11    1    3    3    0    0  0.77507283231E+01 -0.13952546506E+01 -0.39359668068E+01  0.88041104061E+01  0.51100000000E-03 0. -1.
        -11    1    3    3    0    0  0.24138220801E+02  0.34465592404E+00 -0.61737366065E+01  0.24917614555E+02  0.51100000000E-03 0.  1.
         12    1    3    3    0    0  0.94320104720E+01 -0.36962647201E+01 -0.71865110829E+01  0.12420593221E+02  0.00000000000E+00 0. -1.
</event>
<event>
 7    1  0.2297343E-008  0.4614232E+02  0.7816164E-02  0.1320468E+00
        -11   -1    0    0    0    0  0.00000000000E+00  0.00000000000E+00  0.45593999997E+02  0.45594000000E+02  0.51100000000E-03 0.  1.
         11   -1    0    0    0    0 -0.00000000000E+00 -0.00000000000E+00 -0.45593999997E+02  0.45594000000E+02  0.51100000000E-03 0. -1.
    9900012    2    1    2    0    0  0.10798821562E+02  0.42548838557E+02  0.10104217500E+02  0.46142318510E+02  0.10000006826E+02 0.  0.
         12    1    1    2    0    0 -0.10798821562E+02 -0.42548838557E+02 -0.10104217500E+02  0.45045681490E+02  0.00000000000E+00 0. -1.
         11    1    3    3    0    0  0.37071364998E+01  0.25923683257E+02  0.72975398872E+01  0.27185185364E+02  0.51100000000E-03 0.  1.
        -11    1    3    3    0    0  0.55601081886E+01  0.15975239719E+02  0.17955309613E+01  0.17010203375E+02  0.51100000000E-03 0. -1.
        -12    1    3    3    0    0  0.15315768733E+01  0.64991558079E+00  0.10111466519E+01  0.19469297708E+01  0.00000000000E+00 0.  1.
</event>
<event>
 7    1  0.2297343E-008  0.4614232E+02  0.7816164E-02  0.1320468E+00
        -11   -1    0    0    0    0  0.00000000000E+00  0.00000000000E+00  0.45593999997E+02  0.45594000000E+02  0.51100000000E-03 0. -1.
         11   -1    0    0    0    0 -0.00000000000E+00 -0.00000000000E+00 -0.45593999997E+02  0.45594000000E+02  0.51100000000E-03 0.  1.
    9900012    2    1    2    0    0 -0.32114676988E+02 -0.21064100989E+02 -0.23538578588E+02  0.46142317516E+02  0.99999977624E+01 0.  0.
         12    1    1    2    0    0  0.32114676988E+02  0.21064100989E+02  0.23538578588E+02  0.45045682484E+02  0.00000000000E+00 0. -1.
         11    1    3    3    0    0 -0.33494977683E+01 -0.22201181389E+01 -0.32947390663E+01  0.51964762702E+01  0.51100000000E-03 0.  1.
        -11    1    3    3    0    0 -0.20090504349E+02 -0.78480419459E+01 -0.12884882786E+02  0.25124496653E+02  0.51100000000E-03 0. -1.
         12    1    3    3    0    0 -0.86746748706E+01 -0.10995940905E+02 -0.73589567361E+01  0.15821344593E+02  0.00000000000E+00 0. -1.
</event>
<event>
 7    1  0.2297343E-008  0.4614232E+02  0.7816164E-02  0.1320468E+00
        -11   -1    0    0    0    0  0.00000000000E+00  0.00000000000E+00  0.45593999997E+02  0.45594000000E+02  0.51100000000E-03 0. -1.
         11   -1    0    0    0    0 -0.00000000000E+00 -0.00000000000E+00 -0.45593999997E+02  0.45594000000E+02  0.51100000000E-03 0.  1.
    9900012    2    1    2    0    0  0.22843702323E+02  0.25782681722E+02 -0.29026402187E+02  0.46142318337E+02  0.10000005251E+02 0.  0.
         12    1    1    2    0    0 -0.22843702323E+02 -0.25782681722E+02  0.29026402187E+02  0.45045681663E+02  0.00000000000E+00 0. -1.
         11    1    3    3    0    0  0.19252698482E+02  0.17139583157E+02 -0.18325041041E+02  0.31626552754E+02  0.51100000000E-03 0.  1.
        -11    1    3    3    0    0  0.15643763930E+01  0.12188603515E+01 -0.13228619338E+01  0.23838745798E+01  0.51100000000E-03 0. -1.
         12    1    3    3    0    0  0.20266274474E+01  0.74242382130E+01 -0.93784992115E+01  0.12131891003E+02  0.00000000000E+00 0. -1.
</event>
<event>
 7    1  0.2297343E-008  0.4614232E+02  0.7816164E-02  0.1320468E+00
        -11   -1    0    0    0    0  0.00000000000E+00  0.00000000000E+00  0.45593999997E+02  0.45594000000E+02  0.51100000000E-03 0.  1.
         11   -1    0    0    0    0 -0.00000000000E+00 -0.00000000000E+00 -0.45593999997E+02  0.45594000000E+02  0.51100000000E-03 0. -1.
    9900012    2    1    2    0    0  0.41497301009E+02 -0.17519695311E+02  0.38436212588E+00  0.46142318198E+02  0.10000003979E+02 0.  0.
         12    1    1    2    0    0 -0.41497301009E+02  0.17519695311E+02 -0.38436212588E+00  0.45045681802E+02  0.00000000000E+00 0. -1.
         11    1    3    3    0    0  0.17737001041E+02 -0.75341076006E+01 -0.20334656810E+01  0.19377795701E+02  0.51100000000E-03 0. -1.
        -11    1    3    3    0    0  0.96621512197E+01 -0.85716408074E+00 -0.52034928732E+00  0.97140444768E+01  0.51100000000E-03 0.  1.
         12    1    3    3    0    0  0.14098148748E+02 -0.91284236300E+01  0.29381770942E+01  0.17050478020E+02  0.00000000000E+00 0. -1.
</event>
<event>
 7    1  0.2297343E-008  0.4614231E+02  0.7816164E-02  0.1320468E+00
        -11   -1    0    0    0    0  0.00000000000E+00  0.00000000000E+00  0.45593999997E+02  0.45594000000E+02  0.51100000000E-03 0.  1.
         11   -1    0    0    0    0 -0.00000000000E+00 -0.00000000000E+00 -0.45593999997E+02  0.45594000000E+02  0.51100000000E-03 0. -1.
    9900012    2    1    2    0    0  0.14463854866E+02 -0.58597922216E+01  0.42256055929E+02  0.46142306253E+02  0.99998950584E+01 0.  0.
         12    1    1    2    0    0 -0.14463854866E+02  0.58597922216E+01 -0.42256055929E+02  0.45045693747E+02  0.00000000000E+00 0. -1.
         11    1    3    3    0    0  0.21456510291E+01 -0.17226922965E+01  0.16178632352E+02  0.16410960732E+02  0.51100000000E-03 0.  1.
        -11    1    3    3    0    0  0.12129909074E+02 -0.33931939169E+01  0.26081849865E+02  0.28963966437E+02  0.51100000000E-03 0. -1.
         12    1    3    3    0    0  0.18829476301E+00 -0.74390600816E+00 -0.44262884685E-02  0.76737908414E+00  0.00000000000E+00 0. -1.
</event>
<event>
 7    1  0.2297343E-008  0.4614232E+02  0.7816164E-02  0.1320468E+00
        -11   -1    0    0    0    0  0.00000000000E+00  0.00000000000E+00  0.45593999997E+02  0.45594000000E+02  0.51100000000E-03 0. -1.
         11   -1    0    0    0    0 -0.00000000000E+00 -0.00000000000E+00 -0.45593999997E+02  0.45594000000E+02  0.51100000000E-03 0.  1.
    9900012    2    1    2    0    0  0.30794922391E+02  0.31302968041E+02 -0.10045417380E+02  0.46142318036E+02  0.10000002506E+02 0.  0.
         12    1    1    2    0    0 -0.30794922391E+02 -0.31302968041E+02  0.10045417380E+02  0.45045681964E+02  0.00000000000E+00 0. -1.
         11    1    3    3    0    0  0.15507499039E+02  0.20572629866E+02 -0.37826413018E+01  0.26038894015E+02  0.51100000000E-03 0. -1.
        -11    1    3    3    0    0  0.82519966868E+01  0.34125829579E+01 -0.24497812183E+01  0.92597300199E+01  0.51100000000E-03 0.  1.
        -12    1    3    3    0    0  0.70354266652E+01  0.73177552172E+01 -0.38129948597E+01  0.10843694001E+02  0.00000000000E+00 0.  1.
</event>
<event>
 7    1  0.2297343E-008  0.4614231E+02  0.7816164E-02  0.1320468E+00
        -11   -1    0    0    0    0  0.00000000000E+00  0.00000000000E+00  0.45593999997E+02  0.45594000000E+02  0.51100000000E-03 0. -1.
         11   -1    0    0    0    0 -0.00000000000E+00 -0.00000000000E+00 -0.45593999997E+02  0.45594000000E+02  0.51100000000E-03 0.  1.
    9900012    2    1    2    0    0 -0.42556807158E+02 -0.14737495330E+02  0.91565986185E+00  0.46142311670E+02  0.99999444595E+01 0.  0.
         12    1    1    2    0    0  0.42556807158E+02  0.14737495330E+02 -0.91565986185E+00  0.45045688330E+02  0.00000000000E+00 0. -1.
         11    1    3    3    0    0 -0.23033823576E+02 -0.12039097755E+02  0.17075700117E+01  0.26046356730E+02  0.51100000000E-03 0. -1.
        -11    1    3    3    0    0 -0.12785937584E+01  0.27747885577E+00 -0.93803940065E+00  0.16098803349E+01  0.51100000000E-03 0.  1.
        -12    1    3    3    0    0 -0.18244389823E+02 -0.29758764313E+01  0.14612925081E+00  0.18486074605E+02  0.00000000000E+00 0.  1.
</event>
<event>
 7    1  0.2297343E-008  0.4614232E+02  0.7816164E-02  0.1320468E+00
        -11   -1    0    0    0    0  0.00000000000E+00  0.00000000000E+00  0.45593999997E+02  0.45594000000E+02  0.51100000000E-03 0.  1.
         11   -1    0    0    0    0 -0.00000000000E+00 -0.00000000000E+00 -0.45593999997E+02  0.45594000000E+02  0.51100000000E-03 0. -1.
    9900012    2    1    2    0    0 -0.43033206823E+02  0.13251266985E+02  0.12884805127E+01  0.46142321537E+02  0.10000034431E+02 0.  0.
         12    1    1    2    0    0  0.43033206823E+02 -0.13251266985E+02 -0.12884805127E+01  0.45045678463E+02  0.00000000000E+00 0. -1.
         11    1    3    3    0    0 -0.13937757705E+02  0.66576486376E+01 -0.22701816433E+01  0.15612145919E+02  0.51100000000E-03 0. -1.
        -11    1    3    3    0    0 -0.16846890109E+02  0.22589778413E+01 -0.21945146778E+00  0.16999083695E+02  0.51100000000E-03 0.  1.
        -12    1    3    3    0    0 -0.12248559008E+02  0.43346405060E+01  0.37781136238E+01  0.13531091924E+02  0.00000000000E+00 0.  1.
</event>
<event>
 7    1  0.2297343E-008  0.4614232E+02  0.7816164E-02  0.1320468E+00
        -11   -1    0    0    0    0  0.00000000000E+00  0.00000000000E+00  0.45593999997E+02  0.45594000000E+02  0.51100000000E-03 0. -1.
         11   -1    0    0    0    0 -0.00000000000E+00 -0.00000000000E+00 -0.45593999997E+02  0.45594000000E+02  0.51100000000E-03 0.  1.
    9900012    2    1    2    0    0  0.31732257221E+02  0.13980079522E+02 -0.28752986730E+02  0.46142322986E+02  0.10000047641E+02 0.  0.
         12    1    1    2    0    0 -0.31732257221E+02 -0.13980079522E+02  0.28752986730E+02  0.45045677014E+02  0.00000000000E+00 0. -1.
         11    1    3    3    0    0  0.16162690539E+02  0.10107993536E+02 -0.11014529467E+02  0.22016447452E+02  0.51100000000E-03 0. -1.
        -11    1    3    3    0    0  0.10413516154E+02  0.40199818761E+01 -0.12819392875E+02  0.16998188342E+02  0.51100000000E-03 0.  1.
         12    1    3    3    0    0  0.51560505289E+01 -0.14789588921E+00 -0.49190643873E+01  0.71276871913E+01  0.00000000000E+00 0. -1.
</event>
<event>
 7    1  0.2297343E-008  0.4614232E+02  0.7816164E-02  0.1320468E+00
        -11   -1    0    0    0    0  0.00000000000E+00  0.00000000000E+00  0.45593999997E+02  0.45594000000E+02  0.51100000000E-03 0. -1.
         11   -1    0    0    0    0 -0.00000000000E+00 -0.00000000000E+00 -0.45593999997E+02  0.45594000000E+02  0.51100000000E-03 0.  1.
    9900012    2    1    2    0    0  0.42767933732E+02 -0.12628863550E+02  0.63662633561E+01  0.46142315863E+02  0.99999826928E+01 0.  0.
         12    1    1    2    0    0 -0.42767933732E+02  0.12628863550E+02 -0.63662633561E+01  0.45045684137E+02  0.00000000000E+00 0. -1.
         11    1    3    3    0    0  0.10828866889E+02 -0.78100822980E+00 -0.10118660433E+01  0.10904045355E+02  0.51100000000E-03 0. -1.
        -11    1    3    3    0    0  0.26013316936E+02 -0.74106127677E+01  0.60613979085E+01  0.27719133906E+02  0.51100000000E-03 0.  1.
         12    1    3    3    0    0  0.59257499061E+01 -0.44372425529E+01  0.13167314908E+01  0.75191366022E+01  0.00000000000E+00 0. -1.
</event>
<event>
 7    1  0.2297343E-008  0.4614232E+02  0.7816164E-02  0.1320468E+00
        -11   -1    0    0    0    0  0.00000000000E+00  0.00000000000E+00  0.45593999997E+02  0.45594000000E+02  0.51100000000E-03 0.  1.
         11   -1    0    0    0    0 -0.00000000000E+00 -0.00000000000E+00 -0.45593999997E+02  0.45594000000E+02  0.51100000000E-03 0. -1.
    9900012    2    1    2    0    0  0.34209128033E+02 -0.24607382292E+01  0.29202634351E+02  0.46142317339E+02  0.99999961466E+01 0.  0.
         12    1    1    2    0    0 -0.34209128033E+02  0.24607382292E+01 -0.29202634351E+02  0.45045682661E+02  0.00000000000E+00 0. -1.
         11    1    3    3    0    0  0.11330736841E+01  0.14579825020E+01  0.10939794237E+01  0.21462432738E+01  0.51100000000E-03 0. -1.
        -11    1    3    3    0    0  0.66773591725E+01  0.14940154335E+01  0.67346993934E+01  0.96008012069E+01  0.51100000000E-03 0.  1.
        -12    1    3    3    0    0  0.26398695177E+02 -0.54127361647E+01  0.21373955533E+02  0.34395272858E+02  0.00000000000E+00 0.  1.
</event>
<event>
 7    1  0.2297343E-008  0.4614232E+02  0.7816164E-02  0.1320468E+00
        -11   -1    0    0    0    0  0.00000000000E+00  0.00000000000E+00  0.45593999997E+02  0.45594000000E+02  0.51100000000E-03 0.  1.
         11   -1    0    0    0    0 -0.00000000000E+00 -0.00000000000E+00 -0.45593999997E+02  0.45594000000E+02  0.51100000000E-03 0. -1.
    9900012    2    1    2    0    0 -0.44914363885E+02 -0.15994828395E+01  0.30422170556E+01  0.46142317486E+02  0.99999974906E+01 0.  0.
         12    1    1    2    0    0  0.44914363885E+02  0.15994828395E+01 -0.30422170556E+01  0.45045682514E+02  0.00000000000E+00 0. -1.
         11    1    3    3    0    0 -0.11889732739E+02  0.28909564698E+00  0.33854497990E+01  0.12365702225E+02  0.51100000000E-03 0. -1.
        -11    1    3    3    0    0 -0.16709320269E+02  0.90151122256E+00  0.26910891975E+01  0.16948630259E+02  0.51100000000E-03 0.  1.
         12    1    3    3    0    0 -0.16315310877E+02 -0.27900897090E+01 -0.30343219409E+01  0.16827985002E+02  0.00000000000E+00 0. -1.
</event>
<event>
 7    1  0.2297343E-008  0.4614232E+02  0.7816164E-02  0.1320468E+00
        -11   -1    0    0    0    0  0.00000000000E+00  0.00000000000E+00  0.45593999997E+02  0.45594000000E+02  0.51100000000E-03 0.  1.
         11   -1    0    0    0    0 -0.00000000000E+00 -0.00000000000E+00 -0.45593999997E+02  0.45594000000E+02  0.51100000000E-03 0. -1.
    9900012    2    1    2    0    0 -0.25650608734E+02 -0.17250258816E+02  0.32765655737E+02  0.46142319258E+02  0.10000013650E+02 0.  0.
         12    1    1    2    0    0  0.25650608734E+02  0.17250258816E+02 -0.32765655737E+02  0.45045680742E+02  0.00000000000E+00 0. -1.
         11    1    3    3    0    0 -0.86552282897E+01 -0.25119730791E+01  0.59338135060E+01  0.10790418365E+02  0.51100000000E-03 0. -1.
        -11    1    3    3    0    0 -0.12051874781E+02 -0.91339951118E+01  0.20971790040E+02  0.25855241831E+02  0.51100000000E-03 0.  1.
        -12    1    3    3    0    0 -0.49435056637E+01 -0.56042906255E+01  0.58600521908E+01  0.94966590621E+01  0.00000000000E+00 0.  1.
</event>
<event>
 7    1  0.2297343E-008  0.4614232E+02  0.7816164E-02  0.1320468E+00
        -11   -1    0    0    0    0  0.00000000000E+00  0.00000000000E+00  0.45593999997E+02  0.45594000000E+02  0.51100000000E-03 0.  1.
         11   -1    0    0    0    0 -0.00000000000E+00 -0.00000000000E+00 -0.45593999997E+02  0.45594000000E+02  0.51100000000E-03 0. -1.
    9900012    2    1    2    0    0  0.38709122976E+02 -0.22291486341E+02  0.58143614241E+01  0.46142319146E+02  0.10000012624E+02 0.  0.
         12    1    1    2    0    0 -0.38709122976E+02  0.22291486341E+02 -0.58143614241E+01  0.45045680854E+02  0.00000000000E+00 0. -1.
         11    1    3    3    0    0  0.12022198584E+02 -0.10556873524E+02  0.12007889695E+01  0.16044398767E+02  0.51100000000E-03 0.  1.
        -11    1    3    3    0    0  0.93240524798E+01 -0.45977835482E+01  0.44922794731E+01  0.11325111184E+02  0.51100000000E-03 0. -1.
         12    1    3    3    0    0  0.17362871913E+02 -0.71368292685E+01  0.12129298148E+00  0.18772809194E+02  0.00000000000E+00 0. -1.
</event>
<event>
 7    1  0.2297343E-008  0.4614232E+02  0.7816164E-02  0.1320468E+00
        -11   -1    0    0    0    0  0.00000000000E+00  0.00000000000E+00  0.45593999997E+02  0.45594000000E+02  0.51100000000E-03 0.  1.
         11   -1    0    0    0    0 -0.00000000000E+00 -0.00000000000E+00 -0.45593999997E+02  0.45594000000E+02  0.51100000000E-03 0. -1.
    9900012    2    1    2    0    0 -0.17044906693E+02  0.32158684948E+02  0.26540601150E+02  0.46142319062E+02  0.10000011866E+02 0.  0.
         12    1    1    2    0    0  0.17044906693E+02 -0.32158684948E+02 -0.26540601150E+02  0.45045680938E+02  0.00000000000E+00 0. -1.
         11    1    3    3    0    0 -0.35928342493E+01  0.11515688683E+02  0.52197268621E+01  0.13144013564E+02  0.51100000000E-03 0. -1.
        -11    1    3    3    0    0 -0.51602575252E+01  0.11942739890E+02  0.12914819165E+02  0.18331662449E+02  0.51100000000E-03 0.  1.
         12    1    3    3    0    0 -0.82918149185E+01  0.87002563746E+01  0.84060551223E+01  0.14666643050E+02  0.00000000000E+00 0. -1.
</event>
<event>
 7    1  0.2297343E-008  0.4614232E+02  0.7816164E-02  0.1320468E+00
        -11   -1    0    0    0    0  0.00000000000E+00  0.00000000000E+00  0.45593999997E+02  0.45594000000E+02  0.51100000000E-03 0.  1.
         11   -1    0    0    0    0 -0.00000000000E+00 -0.00000000000E+00 -0.45593999997E+02  0.45594000000E+02  0.51100000000E-03 0. -1.
    9900012    2    1    2    0    0 -0.27238840646E+01 -0.20545052079E+01  0.44916288394E+02  0.46142317642E+02  0.99999989110E+01 0.  0.
         12    1    1    2    0    0  0.27238840646E+01  0.20545052079E+01 -0.44916288394E+02  0.45045682358E+02  0.00000000000E+00 0. -1.
         11    1    3    3    0    0  0.21736120561E+01 -0.45663792712E+00  0.26822277880E+01  0.34824493872E+01  0.51100000000E-03 0. -1.
        -11    1    3    3    0    0 -0.26292277199E+01 -0.17146020822E+01  0.33066258002E+02  0.33214908057E+02  0.51100000000E-03 0.  1.
         12    1    3    3    0    0 -0.22682684009E+01  0.11673480134E+00  0.91678026035E+01  0.94449601973E+01  0.00000000000E+00 0. -1.
</event>
<event>
 7    1  0.2297343E-008  0.4614232E+02  0.7816164E-02  0.1320468E+00
        -11   -1    0    0    0    0  0.00000000000E+00  0.00000000000E+00  0.45593999997E+02  0.45594000000E+02  0.51100000000E-03 0. -1.
         11   -1    0    0    0    0 -0.00000000000E+00 -0.00000000000E+00 -0.45593999997E+02  0.45594000000E+02  0.51100000000E-03 0.  1.
    9900012    2    1    2    0    0  0.36681373252E+02  0.98486048364E+01 -0.24219730552E+02  0.46142317533E+02  0.99999979240E+01 0.  0.
         12    1    1    2    0    0 -0.36681373252E+02 -0.98486048364E+01  0.24219730552E+02  0.45045682467E+02  0.00000000000E+00 0. -1.
         11    1    3    3    0    0  0.41889431406E+01 -0.50885329641E+00 -0.32090608120E+00  0.42319212288E+01  0.51100000000E-03 0. -1.
        -11    1    3    3    0    0  0.80973610852E+01  0.22835982459E+01 -0.35451573062E+01  0.91296340606E+01  0.51100000000E-03 0.  1.
        -12    1    3    3    0    0  0.24395069026E+02  0.80738598869E+01 -0.20353667164E+02  0.32780762244E+02  0.00000000000E+00 0.  1.
</event>
<event>
 7    1  0.2297343E-008  0.4614232E+02  0.7816164E-02  0.1320468E+00
        -11   -1    0    0    0    0  0.00000000000E+00  0.00000000000E+00  0.45593999997E+02  0.45594000000E+02  0.51100000000E-03 0.  1.
         11   -1    0    0    0    0 -0.00000000000E+00 -0.00000000000E+00 -0.45593999997E+02  0.45594000000E+02  0.51100000000E-03 0. -1.
    9900012    2    1    2    0    0 -0.27262874482E+02 -0.10379891564E+01  0.35843714027E+02  0.46142316725E+02  0.99999905475E+01 0.  0.
         12    1    1    2    0    0  0.27262874482E+02  0.10379891564E+01 -0.35843714027E+02  0.45045683275E+02  0.00000000000E+00 0. -1.
         11    1    3    3    0    0 -0.20909532397E+01 -0.12341245007E+01  0.92181268973E+00  0.25970921489E+01  0.51100000000E-03 0. -1.
        -11    1    3    3    0    0 -0.15780904427E+02  0.14952621433E+01  0.26422280158E+02  0.30812491662E+02  0.51100000000E-03 0.  1.
        -12    1    3    3    0    0 -0.93910168144E+01 -0.12991267990E+01  0.84996211797E+01  0.12732732913E+02  0.00000000000E+00 0.  1.
</event>
<event>
 7    1  0.2297343E-008  0.4614232E+02  0.7816164E-02  0.1320468E+00
        -11   -1    0    0    0    0  0.00000000000E+00  0.00000000000E+00  0.45593999997E+02  0.45594000000E+02  0.51100000000E-03 0. -1.
         11   -1    0    0    0    0 -0.00000000000E+00 -0.00000000000E+00 -0.45593999997E+02  0.45594000000E+02  0.51100000000E-03 0.  1.
    9900012    2    1    2    0    0 -0.23640279576E+02  0.22347710327E+02 -0.31158153567E+02  0.46142317533E+02  0.99999979154E+01 0.  0.
         12    1    1    2    0    0  0.23640279576E+02 -0.22347710327E+02  0.31158153567E+02  0.45045682467E+02  0.00000000000E+00 0. -1.
         11    1    3    3    0    0  0.73984103323E-01  0.99108163744E+00 -0.15810596941E+00  0.10063370302E+01  0.51100000000E-03 0. -1.
        -11    1    3    3    0    0 -0.82150846747E+01  0.76194983989E+01 -0.61309887595E+01  0.12772368437E+02  0.51100000000E-03 0.  1.
        -12    1    3    3    0    0 -0.15499179005E+02  0.13737130290E+02 -0.24869058838E+02  0.32363612065E+02  0.00000000000E+00 0.  1.
</event>
<event>
 7    1  0.2297343E-008  0.4614232E+02  0.7816164E-02  0.1320468E+00
        -11   -1    0    0    0    0  0.00000000000E+00  0.00000000000E+00  0.45593999997E+02  0.45594000000E+02  0.51100000000E-03 0.  1.
         11   -1    0    0    0    0 -0.00000000000E+00 -0.00000000000E+00 -0.45593999997E+02  0.45594000000E+02  0.51100000000E-03 0. -1.
    9900012    2    1    2    0    0 -0.35059682011E+02 -0.10136822706E+01  0.28264901619E+02  0.46142317432E+02  0.99999970030E+01 0.  0.
         12    1    1    2    0    0  0.35059682011E+02  0.10136822706E+01 -0.28264901619E+02  0.45045682568E+02  0.00000000000E+00 0. -1.
         11    1    3    3    0    0 -0.24340803878E+02  0.18384351434E+01  0.17714419056E+02  0.30160491043E+02  0.51100000000E-03 0. -1.
        -11    1    3    3    0    0 -0.10718697346E+02 -0.28554316686E+01  0.86115471712E+01  0.14042888156E+02  0.51100000000E-03 0.  1.
         12    1    3    3    0    0 -0.18078576443E-03  0.33142545582E-02  0.19389353922E+01  0.19389382332E+01  0.00000000000E+00 0. -1.
</event>
<event>
 7    1  0.2297343E-008  0.4614232E+02  0.7816164E-02  0.1320468E+00
        -11   -1    0    0    0    0  0.00000000000E+00  0.00000000000E+00  0.45593999997E+02  0.45594000000E+02  0.51100000000E-03 0.  1.
         11   -1    0    0    0    0 -0.00000000000E+00 -0.00000000000E+00 -0.45593999997E+02  0.45594000000E+02  0.51100000000E-03 0. -1.
    9900012    2    1    2    0    0 -0.40545276488E+02  0.18553670697E+02  0.63996388470E+01  0.46142317419E+02  0.99999968815E+01 0.  0.
         12    1    1    2    0    0  0.40545276488E+02 -0.18553670697E+02 -0.63996388470E+01  0.45045682581E+02  0.00000000000E+00 0. -1.
         11    1    3    3    0    0 -0.16800299822E+01 -0.20582592658E+00  0.13083180831E+01  0.21392899572E+01  0.51100000000E-03 0. -1.
        -11    1    3    3    0    0 -0.12841492616E+02  0.97103811030E+01  0.29517605493E+01  0.16367905314E+02  0.51100000000E-03 0.  1.
        -12    1    3    3    0    0 -0.26023753889E+02  0.90491155203E+01  0.21395602146E+01  0.27635122148E+02  0.00000000000E+00 0.  1.
</event>
<event>
 7    1  0.2297343E-008  0.4614232E+02  0.7816164E-02  0.1320468E+00
        -11   -1    0    0    0    0  0.00000000000E+00  0.00000000000E+00  0.45593999997E+02  0.45594000000E+02  0.51100000000E-03 0.  1.
         11   -1    0    0    0    0 -0.00000000000E+00 -0.00000000000E+00 -0.45593999997E+02  0.45594000000E+02  0.51100000000E-03 0. -1.
    9900012    2    1    2    0    0 -0.82464551602E+00 -0.61173355057E+01  0.44620753044E+02  0.46142318341E+02  0.10000005290E+02 0.  0.
         12    1    1    2    0    0  0.82464551602E+00  0.61173355057E+01 -0.44620753044E+02  0.45045681659E+02  0.00000000000E+00 0. -1.
         11    1    3    3    0    0  0.12930590072E+01 -0.84523717485E+00  0.44817213643E+01  0.47404909162E+01  0.51100000000E-03 0. -1.
        -11    1    3    3    0    0  0.32932440678E+00  0.10197080532E+01  0.48320732007E+00  0.11754780534E+01  0.51100000000E-03 0.  1.
        -12    1    3    3    0    0 -0.24470289300E+01 -0.62918063840E+01  0.39655824359E+02  0.40226349372E+02  0.00000000000E+00 0.  1.
</event>
<event>
 7    1  0.2297343E-008  0.4614232E+02  0.7816164E-02  0.1320468E+00
        -11   -1    0    0    0    0  0.00000000000E+00  0.00000000000E+00  0.45593999997E+02  0.45594000000E+02  0.51100000000E-03 0.  1.
         11   -1    0    0    0    0 -0.00000000000E+00 -0.00000000000E+00 -0.45593999997E+02  0.45594000000E+02  0.51100000000E-03 0. -1.
    9900012    2    1    2    0    0 -0.20089420723E+02 -0.37082043077E+02 -0.15825636362E+02  0.46142317520E+02  0.99999978054E+01 0.  0.
         12    1    1    2    0    0  0.20089420723E+02  0.37082043077E+02  0.15825636362E+02  0.45045682480E+02  0.00000000000E+00 0. -1.
         11    1    3    3    0    0 -0.31299898981E+01 -0.24215126836E+01 -0.25092407967E+01  0.46858137048E+01  0.51100000000E-03 0. -1.
        -11    1    3    3    0    0 -0.95472211997E+01 -0.11624796972E+02 -0.57150979201E+01  0.16091851409E+02  0.51100000000E-03 0.  1.
         12    1    3    3    0    0 -0.74122096256E+01 -0.23035733422E+02 -0.76012976447E+01  0.25364652407E+02  0.00000000000E+00 0. -1.
</event>
<event>
 7    1  0.2297343E-008  0.4614232E+02  0.7816164E-02  0.1320468E+00
        -11   -1    0    0    0    0  0.00000000000E+00  0.00000000000E+00  0.45593999997E+02  0.45594000000E+02  0.51100000000E-03 0.  1.
         11   -1    0    0    0    0 -0.00000000000E+00 -0.00000000000E+00 -0.45593999997E+02  0.45594000000E+02  0.51100000000E-03 0. -1.
    9900012    2    1    2    0    0  0.15507405955E+01 -0.27349835401E+02  0.35758847177E+02  0.46142318251E+02  0.10000004463E+02 0.  0.
         12    1    1    2    0    0 -0.15507405955E+01  0.27349835401E+02 -0.35758847177E+02  0.45045681749E+02  0.00000000000E+00 0. -1.
         11    1    3    3    0    0 -0.12655444125E+01 -0.13086859440E+02  0.20806062948E+02  0.24612186987E+02  0.51100000000E-03 0. -1.
        -11    1    3    3    0    0 -0.11391693905E+01 -0.64426228470E+00  0.12188462075E+01  0.17883979228E+01  0.51100000000E-03 0.  1.
         12    1    3    3    0    0  0.39554543985E+01 -0.13618713676E+02  0.13733938022E+02  0.19741733340E+02  0.00000000000E+00 0. -1.
</event>
<event>
 7    1  0.2297343E-008  0.4614232E+02  0.7816164E-02  0.1320468E+00
        -11   -1    0    0    0    0  0.00000000000E+00  0.00000000000E+00  0.45593999997E+02  0.45594000000E+02  0.51100000000E-03 0.  1.
         11   -1    0    0    0    0 -0.00000000000E+00 -0.00000000000E+00 -0.45593999997E+02  0.45594000000E+02  0.51100000000E-03 0. -1.
    9900012    2    1    2    0    0 -0.20770936881E+02  0.30921603020E+02  0.25328563387E+02  0.46142317904E+02  0.10000001303E+02 0.  0.
         12    1    1    2    0    0  0.20770936881E+02 -0.30921603020E+02 -0.25328563387E+02  0.45045682096E+02  0.00000000000E+00 0. -1.
         11    1    3    3    0    0 -0.14690646988E+02  0.16899942299E+02  0.12704039863E+02  0.25745209025E+02  0.51100000000E-03 0. -1.
        -11    1    3    3    0    0 -0.12425629054E+01  0.74086850072E+01  0.40385609487E+01  0.85289243699E+01  0.51100000000E-03 0.  1.
        -12    1    3    3    0    0 -0.48377269876E+01  0.66129757135E+01  0.85859625751E+01  0.11868184509E+02  0.00000000000E+00 0.  1.
</event>
<event>
 7    1  0.2297343E-008  0.4614232E+02  0.7816164E-02  0.1320468E+00
        -11   -1    0    0    0    0  0.00000000000E+00  0.00000000000E+00  0.45593999997E+02  0.45594000000E+02  0.51100000000E-03 0.  1.
         11   -1    0    0    0    0 -0.00000000000E+00 -0.00000000000E+00 -0.45593999997E+02  0.45594000000E+02  0.51100000000E-03 0. -1.
    9900012    2    1    2    0    0 -0.26835859537E+02  0.25267084777E+02  0.25894488830E+02  0.46142317832E+02  0.10000000642E+02 0.  0.
         12    1    1    2    0    0  0.26835859537E+02 -0.25267084777E+02 -0.25894488830E+02  0.45045682168E+02  0.00000000000E+00 0. -1.
         11    1    3    3    0    0 -0.72191904134E+01  0.38142522332E+01  0.53217190989E+01  0.97460722731E+01  0.51100000000E-03 0. -1.
        -11    1    3    3    0    0 -0.15392267405E+02  0.13406954137E+02  0.10962955943E+02  0.23170125558E+02  0.51100000000E-03 0.  1.
        -12    1    3    3    0    0 -0.42244017189E+01  0.80458784066E+01  0.96098137886E+01  0.13226120000E+02  0.00000000000E+00 0.  1.
</event>
<event>
 7    1  0.2297343E-008  0.4614232E+02  0.7816164E-02  0.1320468E+00
        -11   -1    0    0    0    0  0.00000000000E+00  0.00000000000E+00  0.45593999997E+02  0.45594000000E+02  0.51100000000E-03 0. -1.
         11   -1    0    0    0    0 -0.00000000000E+00 -0.00000000000E+00 -0.45593999997E+02  0.45594000000E+02  0.51100000000E-03 0.  1.
    9900012    2    1    2    0    0  0.34405884302E+01 -0.17363475322E+02 -0.41422042133E+02  0.46142317649E+02  0.99999989806E+01 0.  0.
         12    1    1    2    0    0 -0.34405884302E+01  0.17363475322E+02  0.41422042133E+02  0.45045682351E+02  0.00000000000E+00 0. -1.
         11    1    3    3    0    0  0.21951785023E+01 -0.99631107614E+01 -0.13597228569E+02  0.16999029670E+02  0.51100000000E-03 0. -1.
        -11    1    3    3    0    0  0.17487220626E+01 -0.33434357443E+01 -0.19584563678E+02  0.19944716748E+02  0.51100000000E-03 0.  1.
         12    1    3    3    0    0 -0.50331213480E+00 -0.40569288159E+01 -0.82402498860E+01  0.91985712318E+01  0.00000000000E+00 0. -1.
</event>
<event>
 7    1  0.2297343E-008  0.4614232E+02  0.7816164E-02  0.1320468E+00
        -11   -1    0    0    0    0  0.00000000000E+00  0.00000000000E+00  0.45593999997E+02  0.45594000000E+02  0.51100000000E-03 0. -1.
         11   -1    0    0    0    0 -0.00000000000E+00 -0.00000000000E+00 -0.45593999997E+02  0.45594000000E+02  0.51100000000E-03 0.  1.
    9900012    2    1    2    0    0 -0.30285414161E+01  0.43184502513E+02 -0.12451518072E+02  0.46142316270E+02  0.99999864055E+01 0.  0.
         12    1    1    2    0    0  0.30285414161E+01 -0.43184502513E+02  0.12451518072E+02  0.45045683730E+02  0.00000000000E+00 0. -1.
         11    1    3    3    0    0 -0.32872560524E+01  0.26839795053E+02 -0.10957655245E+02  0.29176203653E+02  0.51100000000E-03 0. -1.
        -11    1    3    3    0    0  0.31169448681E+00  0.98158174291E+01 -0.29937645680E+01  0.10266939749E+02  0.51100000000E-03 0.  1.
         12    1    3    3    0    0 -0.52979850501E-01  0.65288900305E+01  0.14999017410E+01  0.66991728689E+01  0.00000000000E+00 0. -1.
</event>
<event>
 7    1  0.2297343E-008  0.4614232E+02  0.7816164E-02  0.1320468E+00
        -11   -1    0    0    0    0  0.00000000000E+00  0.00000000000E+00  0.45593999997E+02  0.45594000000E+02  0.51100000000E-03 0.  1.
         11   -1    0    0    0    0 -0.00000000000E+00 -0.00000000000E+00 -0.45593999997E+02  0.45594000000E+02  0.51100000000E-03 0. -1.
    9900012    2    1    2    0    0  0.43374118925E+02 -0.79776757323E+01  0.91736535464E+01  0.46142318498E+02  0.10000006718E+02 0.  0.
         12    1    1    2    0    0 -0.43374118925E+02  0.79776757323E+01 -0.91736535464E+01  0.45045681502E+02  0.00000000000E+00 0. -1.
         11    1    3    3    0    0  0.19537745126E+02 -0.29182093707E+01  0.30019028422E+01  0.19981262509E+02  0.51100000000E-03 0. -1.
        -11    1    3    3    0    0  0.19766354429E+02 -0.68507537076E+01  0.44202330135E+01  0.21381769196E+02  0.51100000000E-03 0.  1.
         12    1    3    3    0    0  0.40700193699E+01  0.17912873460E+01  0.17515176907E+01  0.47792867929E+01  0.00000000000E+00 0. -1.
</event>
<event>
 7    1  0.2297343E-008  0.4614232E+02  0.7816164E-02  0.1320468E+00
        -11   -1    0    0    0    0  0.00000000000E+00  0.00000000000E+00  0.45593999997E+02  0.45594000000E+02  0.51100000000E-03 0. -1.
         11   -1    0    0    0    0 -0.00000000000E+00 -0.00000000000E+00 -0.45593999997E+02  0.45594000000E+02  0.51100000000E-03 0.  1.
    9900012    2    1    2    0    0 -0.20869585435E+02 -0.34105808825E+02  0.20745300485E+02  0.46142320029E+02  0.10000020678E+02 0.  0.
         12    1    1    2    0    0  0.20869585435E+02  0.34105808825E+02 -0.20745300485E+02  0.45045679971E+02  0.00000000000E+00 0. -1.
         11    1    3    3    0    0  0.40375657057E+00 -0.39708897581E+01  0.10392359927E+01  0.41244389374E+01  0.51100000000E-03 0. -1.
        -11    1    3    3    0    0 -0.11495403976E+02 -0.19527730154E+02  0.11302898046E+02  0.25322560338E+02  0.51100000000E-03 0.  1.
         12    1    3    3    0    0 -0.97779380292E+01 -0.10607188913E+02  0.84031664464E+01  0.16695320754E+02  0.00000000000E+00 0. -1.
</event>
<event>
 7    1  0.2297343E-008  0.4614232E+02  0.7816164E-02  0.1320468E+00
        -11   -1    0    0    0    0  0.00000000000E+00  0.00000000000E+00  0.45593999997E+02  0.45594000000E+02  0.51100000000E-03 0. -1.
         11   -1    0    0    0    0 -0.00000000000E+00 -0.00000000000E+00 -0.45593999997E+02  0.45594000000E+02  0.51100000000E-03 0.  1.
    9900012    2    1    2    0    0 -0.34892538590E+02 -0.18483601980E+02 -0.21679036715E+02  0.46142318472E+02  0.10000006479E+02 0.  0.
         12    1    1    2    0    0  0.34892538590E+02  0.18483601980E+02  0.21679036715E+02  0.45045681528E+02  0.00000000000E+00 0. -1.
         11    1    3    3    0    0 -0.51103057852E+01 -0.57956290278E+01 -0.13958781433E+01  0.78519435236E+01  0.51100000000E-03 0. -1.
        -11    1    3    3    0    0 -0.15923428844E+02 -0.72403550805E+01 -0.12399218248E+02  0.21441057373E+02  0.51100000000E-03 0.  1.
         12    1    3    3    0    0 -0.13858803962E+02 -0.54476178721E+01 -0.78839403238E+01  0.16849317575E+02  0.00000000000E+00 0. -1.
</event>
<event>
 7    1  0.2297343E-008  0.4614232E+02  0.7816164E-02  0.1320468E+00
        -11   -1    0    0    0    0  0.00000000000E+00  0.00000000000E+00  0.45593999997E+02  0.45594000000E+02  0.51100000000E-03 0. -1.
         11   -1    0    0    0    0 -0.00000000000E+00 -0.00000000000E+00 -0.45593999997E+02  0.45594000000E+02  0.51100000000E-03 0.  1.
    9900012    2    1    2    0    0  0.44904975550E+02 -0.16320970037E+01 -0.31611383687E+01  0.46142319124E+02  0.10000012430E+02 0.  0.
         12    1    1    2    0    0 -0.44904975550E+02  0.16320970037E+01  0.31611383687E+01  0.45045680876E+02  0.00000000000E+00 0. -1.
         11    1    3    3    0    0  0.41205144347E+01  0.77992447861E+00  0.21288179679E+01  0.47030615136E+01  0.51100000000E-03 0. -1.
        -11    1    3    3    0    0  0.15516731429E+02 -0.10586734350E+01  0.16647019003E+00  0.15553695904E+02  0.51100000000E-03 0.  1.
        -12    1    3    3    0    0  0.25267729686E+02 -0.13533480473E+01 -0.54564265266E+01  0.25885561706E+02  0.00000000000E+00 0.  1.
</event>
<event>
 7    1  0.2297343E-008  0.4614232E+02  0.7816164E-02  0.1320468E+00
        -11   -1    0    0    0    0  0.00000000000E+00  0.00000000000E+00  0.45593999997E+02  0.45594000000E+02  0.51100000000E-03 0. -1.
         11   -1    0    0    0    0 -0.00000000000E+00 -0.00000000000E+00 -0.45593999997E+02  0.45594000000E+02  0.51100000000E-03 0.  1.
    9900012    2    1    2    0    0 -0.24505870384E+02  0.20367925503E+02 -0.31839023766E+02  0.46142317555E+02  0.99999981161E+01 0.  0.
         12    1    1    2    0    0  0.24505870384E+02 -0.20367925503E+02  0.31839023766E+02  0.45045682445E+02  0.00000000000E+00 0. -1.
         11    1    3    3    0    0 -0.42701649292E+01  0.16703589678E+01 -0.20242056103E+01  0.50121668186E+01  0.51100000000E-03 0. -1.
        -11    1    3    3    0    0 -0.16084892049E+02  0.13786314114E+02 -0.18545652294E+02  0.28155415614E+02  0.51100000000E-03 0.  1.
        -12    1    3    3    0    0 -0.41508134057E+01  0.49112524207E+01 -0.11269165862E+02  0.12974735122E+02  0.00000000000E+00 0.  1.
</event>
<event>
 7    1  0.2297343E-008  0.4614231E+02  0.7816164E-02  0.1320468E+00
        -11   -1    0    0    0    0  0.00000000000E+00  0.00000000000E+00  0.45593999997E+02  0.45594000000E+02  0.51100000000E-03 0. -1.
         11   -1    0    0    0    0 -0.00000000000E+00 -0.00000000000E+00 -0.45593999997E+02  0.45594000000E+02  0.51100000000E-03 0.  1.
    9900012    2    1    2    0    0 -0.10248647975E+02 -0.25954974760E+02 -0.35361253334E+02  0.46142314997E+02  0.99999747902E+01 0.  0.
         12    1    1    2    0    0  0.10248647975E+02  0.25954974760E+02  0.35361253334E+02  0.45045685003E+02  0.00000000000E+00 0. -1.
         11    1    3    3    0    0 -0.50016713929E+01 -0.44052076840E+01 -0.87172444009E+01  0.10973282174E+02  0.51100000000E-03 0. -1.
        -11    1    3    3    0    0 -0.43653571925E+01 -0.18024149580E+02 -0.18235783563E+02  0.26009039081E+02  0.51100000000E-03 0.  1.
        -12    1    3    3    0    0 -0.88161938947E+00 -0.35256174959E+01 -0.84082253701E+01  0.91599937418E+01  0.00000000000E+00 0.  1.
</event>
<event>
 7    1  0.2297343E-008  0.4614232E+02  0.7816164E-02  0.1320468E+00
        -11   -1    0    0    0    0  0.00000000000E+00  0.00000000000E+00  0.45593999997E+02  0.45594000000E+02  0.51100000000E-03 0. -1.
         11   -1    0    0    0    0 -0.00000000000E+00 -0.00000000000E+00 -0.45593999997E+02  0.45594000000E+02  0.51100000000E-03 0.  1.
    9900012    2    1    2    0    0 -0.18640248984E+02  0.39921282922E+02  0.93779364086E+01  0.46142318702E+02  0.10000008580E+02 0.  0.
         12    1    1    2    0    0  0.18640248984E+02 -0.39921282922E+02 -0.93779364086E+01  0.45045681298E+02  0.00000000000E+00 0. -1.
         11    1    3    3    0    0 -0.42343278235E+01  0.43264024474E+01  0.77837318485E+00  0.61035362971E+01  0.51100000000E-03 0. -1.
        -11    1    3    3    0    0 -0.38447014528E-01  0.73837142088E-01  0.96539946153E+00  0.96898218659E+00  0.51100000000E-03 0.  1.
        -12    1    3    3    0    0 -0.14367474146E+02  0.35521043332E+02  0.76341637622E+01  0.39069800218E+02  0.00000000000E+00 0.  1.
</event>
<event>
 7    1  0.2297343E-008  0.4614232E+02  0.7816164E-02  0.1320468E+00
        -11   -1    0    0    0    0  0.00000000000E+00  0.00000000000E+00  0.45593999997E+02  0.45594000000E+02  0.51100000000E-03 0. -1.
         11   -1    0    0    0    0 -0.00000000000E+00 -0.00000000000E+00 -0.45593999997E+02  0.45594000000E+02  0.51100000000E-03 0.  1.
    9900012    2    1    2    0    0 -0.14529935193E+02  0.19875085906E+02 -0.37722348363E+02  0.46142316273E+02  0.99999864264E+01 0.  0.
         12    1    1    2    0    0  0.14529935193E+02 -0.19875085906E+02  0.37722348363E+02  0.45045683727E+02  0.00000000000E+00 0. -1.
         11    1    3    3    0    0 -0.79854052369E+00  0.28378497199E+01 -0.10521214861E+02  0.10926436766E+02  0.51100000000E-03 0. -1.
        -11    1    3    3    0    0 -0.10020330066E+02  0.10883855789E+02 -0.21211897943E+02  0.25861360097E+02  0.51100000000E-03 0.  1.
         12    1    3    3    0    0 -0.37110646031E+01  0.61533803967E+01 -0.59892355594E+01  0.93545194094E+01  0.00000000000E+00 0. -1.
</event>
<event>
 7    1  0.2297343E-008  0.4614232E+02  0.7816164E-02  0.1320468E+00
        -11   -1    0    0    0    0  0.00000000000E+00  0.00000000000E+00  0.45593999997E+02  0.45594000000E+02  0.51100000000E-03 0. -1.
         11   -1    0    0    0    0 -0.00000000000E+00 -0.00000000000E+00 -0.45593999997E+02  0.45594000000E+02  0.51100000000E-03 0.  1.
    9900012    2    1    2    0    0 -0.31757397257E+02 -0.27036758410E+02 -0.17017489366E+02  0.46142317297E+02  0.99999957682E+01 0.  0.
         12    1    1    2    0    0  0.31757397257E+02  0.27036758410E+02  0.17017489366E+02  0.45045682703E+02  0.00000000000E+00 0. -1.
         11    1    3    3    0    0 -0.12791441108E+02 -0.15901779871E+02 -0.86687130518E+01  0.22172824694E+02  0.51100000000E-03 0.  1.
        -11    1    3    3    0    0 -0.35479940482E+01 -0.24384714107E+01 -0.36775090815E+01  0.56620206545E+01  0.51100000000E-03 0. -1.
        -12    1    3    3    0    0 -0.15417962101E+02 -0.86965071283E+01 -0.46712672324E+01  0.18307471948E+02  0.00000000000E+00 0.  1.
</event>
<event>
 7    1  0.2297343E-008  0.4614232E+02  0.7816164E-02  0.1320468E+00
        -11   -1    0    0    0    0  0.00000000000E+00  0.00000000000E+00  0.45593999997E+02  0.45594000000E+02  0.51100000000E-03 0.  1.
         11   -1    0    0    0    0 -0.00000000000E+00 -0.00000000000E+00 -0.45593999997E+02  0.45594000000E+02  0.51100000000E-03 0. -1.
    9900012    2    1    2    0    0 -0.81655224697E+01  0.43711751496E+02  0.71916996015E+01  0.46142317418E+02  0.99999968746E+01 0.  0.
         12    1    1    2    0    0  0.81655224697E+01 -0.43711751496E+02 -0.71916996015E+01  0.45045682582E+02  0.00000000000E+00 0. -1.
         11    1    3    3    0    0 -0.47645656352E+01  0.18967845824E+02  0.97622761085E+00  0.19581452487E+02  0.51100000000E-03 0. -1.
        -11    1    3    3    0    0 -0.38759347745E+01  0.81956610598E+01  0.62549239205E+00  0.90875173494E+01  0.51100000000E-03 0.  1.
        -12    1    3    3    0    0  0.47497793994E+00  0.16548244612E+02  0.55899795986E+01  0.17473347582E+02  0.00000000000E+00 0.  1.
</event>
<event>
 7    1  0.2297343E-008  0.4614232E+02  0.7816164E-02  0.1320468E+00
        -11   -1    0    0    0    0  0.00000000000E+00  0.00000000000E+00  0.45593999997E+02  0.45594000000E+02  0.51100000000E-03 0.  1.
         11   -1    0    0    0    0 -0.00000000000E+00 -0.00000000000E+00 -0.45593999997E+02  0.45594000000E+02  0.51100000000E-03 0. -1.
    9900012    2    1    2    0    0 -0.25246373824E+02  0.12465402789E+02  0.35161735659E+02  0.46142319713E+02  0.10000017801E+02 0.  0.
         12    1    1    2    0    0  0.25246373824E+02 -0.12465402789E+02 -0.35161735659E+02  0.45045680287E+02  0.00000000000E+00 0. -1.
         11    1    3    3    0    0 -0.53497362893E+01  0.66803674265E+01  0.96941710269E+01  0.12931509559E+02  0.51100000000E-03 0. -1.
        -11    1    3    3    0    0 -0.98644094399E+00  0.13908050895E+01  0.35046185196E+01  0.38974037207E+01  0.51100000000E-03 0.  1.
         12    1    3    3    0    0 -0.18910196591E+02  0.43942302730E+01  0.21962946112E+02  0.29313406433E+02  0.00000000000E+00 0. -1.
</event>
<event>
 7    1  0.2297343E-008  0.4614232E+02  0.7816164E-02  0.1320468E+00
        -11   -1    0    0    0    0  0.00000000000E+00  0.00000000000E+00  0.45593999997E+02  0.45594000000E+02  0.51100000000E-03 0. -1.
         11   -1    0    0    0    0 -0.00000000000E+00 -0.00000000000E+00 -0.45593999997E+02  0.45594000000E+02  0.51100000000E-03 0.  1.
    9900012    2    1    2    0    0  0.28783430365E+02 -0.34467107003E+02  0.35561509962E+01  0.46142317204E+02  0.99999949165E+01 0.  0.
         12    1    1    2    0    0 -0.28783430365E+02  0.34467107003E+02 -0.35561509962E+01  0.45045682796E+02  0.00000000000E+00 0. -1.
         11    1    3    3    0    0  0.95229843714E+01 -0.10431087197E+02 -0.17260724671E+01  0.14229340739E+02  0.51100000000E-03 0. -1.
        -11    1    3    3    0    0  0.87634957928E+01 -0.91436278807E+01 -0.83725264108E+00  0.12692745234E+02  0.51100000000E-03 0.  1.
         12    1    3    3    0    0  0.10496950200E+02 -0.14892391925E+02  0.61194761044E+01  0.19220231231E+02  0.00000000000E+00 0. -1.
</event>
<event>
 7    1  0.2297343E-008  0.4614232E+02  0.7816164E-02  0.1320468E+00
        -11   -1    0    0    0    0  0.00000000000E+00  0.00000000000E+00  0.45593999997E+02  0.45594000000E+02  0.51100000000E-03 0.  1.
         11   -1    0    0    0    0 -0.00000000000E+00 -0.00000000000E+00 -0.45593999997E+02  0.45594000000E+02  0.51100000000E-03 0. -1.
    9900012    2    1    2    0    0 -0.32923186806E+02 -0.30386051691E+02 -0.46760186750E+01  0.46142317438E+02  0.99999970512E+01 0.  0.
         12    1    1    2    0    0  0.32923186806E+02  0.30386051691E+02  0.46760186750E+01  0.45045682562E+02  0.00000000000E+00 0. -1.
         11    1    3    3    0    0 -0.11226303715E+02 -0.10646900917E+02 -0.31032079038E+01  0.15780250119E+02  0.51100000000E-03 0. -1.
        -11    1    3    3    0    0 -0.80047464412E+01 -0.43304943167E+01 -0.32901662710E+01  0.96775172936E+01  0.51100000000E-03 0.  1.
         12    1    3    3    0    0 -0.13692136650E+02 -0.15408656457E+02  0.17173554998E+01  0.20684550025E+02  0.00000000000E+00 0. -1.
</event>
<event>
 7    1  0.2297343E-008  0.4614233E+02  0.7816164E-02  0.1320468E+00
        -11   -1    0    0    0    0  0.00000000000E+00  0.00000000000E+00  0.45593999997E+02  0.45594000000E+02  0.51100000000E-03 0. -1.
         11   -1    0    0    0    0 -0.00000000000E+00 -0.00000000000E+00 -0.45593999997E+02  0.45594000000E+02  0.51100000000E-03 0.  1.
    9900012    2    1    2    0    0 -0.31609384328E+01 -0.43855661353E+02 -0.97878279768E+01  0.46142332717E+02  0.10000136380E+02 0.  0.
         12    1    1    2    0    0  0.31609384328E+01  0.43855661353E+02  0.97878279768E+01  0.45045667283E+02  0.00000000000E+00 0. -1.
         11    1    3    3    0    0  0.62565267887E+00 -0.27829394315E+02 -0.41856783313E+01  0.28149361140E+02  0.51100000000E-03 0. -1.
        -11    1    3    3    0    0 -0.11747745132E+01 -0.11470495580E+02 -0.22073808748E+01  0.11739884778E+02  0.51100000000E-03 0.  1.
         12    1    3    3    0    0 -0.26118165985E+01 -0.45557714579E+01 -0.33947687706E+01  0.62530867999E+01  0.00000000000E+00 0. -1.
</event>
<event>
 7    1  0.2297343E-008  0.4614232E+02  0.7816164E-02  0.1320468E+00
        -11   -1    0    0    0    0  0.00000000000E+00  0.00000000000E+00  0.45593999997E+02  0.45594000000E+02  0.51100000000E-03 0.  1.
         11   -1    0    0    0    0 -0.00000000000E+00 -0.00000000000E+00 -0.45593999997E+02  0.45594000000E+02  0.51100000000E-03 0. -1.
    9900012    2    1    2    0    0 -0.15114140437E+02 -0.27703999547E+02  0.32142879112E+02  0.46142317525E+02  0.99999978446E+01 0.  0.
         12    1    1    2    0    0  0.15114140437E+02  0.27703999547E+02 -0.32142879112E+02  0.45045682475E+02  0.00000000000E+00 0. -1.
         11    1    3    3    0    0 -0.54540414892E+01 -0.13959535509E+02  0.12659650189E+02  0.19618408278E+02  0.51100000000E-03 0. -1.
        -11    1    3    3    0    0 -0.93919773408E+01 -0.10723745056E+02  0.18459942835E+02  0.23323323866E+02  0.51100000000E-03 0.  1.
        -12    1    3    3    0    0 -0.26812160650E+00 -0.30207189817E+01  0.10232860879E+01  0.32005853808E+01  0.00000000000E+00 0.  1.
</event>
<event>
 7    1  0.2297343E-008  0.4614232E+02  0.7816164E-02  0.1320468E+00
        -11   -1    0    0    0    0  0.00000000000E+00  0.00000000000E+00  0.45593999997E+02  0.45594000000E+02  0.51100000000E-03 0.  1.
         11   -1    0    0    0    0 -0.00000000000E+00 -0.00000000000E+00 -0.45593999997E+02  0.45594000000E+02  0.51100000000E-03 0. -1.
    9900012    2    1    2    0    0 -0.85983231229E+01 -0.24008081479E+02  0.37132119566E+02  0.46142318295E+02  0.10000004868E+02 0.  0.
         12    1    1    2    0    0  0.85983231229E+01  0.24008081479E+02 -0.37132119566E+02  0.45045681705E+02  0.00000000000E+00 0. -1.
         11    1    3    3    0    0 -0.73759306976E+00  0.72892792502E+00  0.86391231767E+00  0.13497126399E+01  0.51100000000E-03 0. -1.
        -11    1    3    3    0    0 -0.23530295810E+01 -0.78856956493E+01  0.14956327020E+02  0.17070813169E+02  0.51100000000E-03 0.  1.
        -12    1    3    3    0    0 -0.55077004722E+01 -0.16851313754E+02  0.21311880229E+02  0.27721792486E+02  0.00000000000E+00 0.  1.
</event>
<event>
 7    1  0.2297343E-008  0.4614232E+02  0.7816164E-02  0.1320468E+00
        -11   -1    0    0    0    0  0.00000000000E+00  0.00000000000E+00  0.45593999997E+02  0.45594000000E+02  0.51100000000E-03 0. -1.
         11   -1    0    0    0    0 -0.00000000000E+00 -0.00000000000E+00 -0.45593999997E+02  0.45594000000E+02  0.51100000000E-03 0.  1.
    9900012    2    1    2    0    0  0.32773236422E+01 -0.31378194729E+02 -0.32152472988E+02  0.46142317921E+02  0.10000001455E+02 0.  0.
         12    1    1    2    0    0 -0.32773236422E+01  0.31378194729E+02  0.32152472988E+02  0.45045682079E+02  0.00000000000E+00 0. -1.
         11    1    3    3    0    0 -0.17491669178E+01 -0.79776179779E+01 -0.11348995346E+02  0.13982191142E+02  0.51100000000E-03 0. -1.
        -11    1    3    3    0    0  0.33211398767E+01 -0.21459237238E+02 -0.19805068397E+02  0.29389956914E+02  0.51100000000E-03 0.  1.
         12    1    3    3    0    0  0.17053506833E+01 -0.19413395130E+01 -0.99840924521E+00  0.27701698646E+01  0.00000000000E+00 0. -1.
</event>
<event>
 7    1  0.2297343E-008  0.4614232E+02  0.7816164E-02  0.1320468E+00
        -11   -1    0    0    0    0  0.00000000000E+00  0.00000000000E+00  0.45593999997E+02  0.45594000000E+02  0.51100000000E-03 0.  1.
         11   -1    0    0    0    0 -0.00000000000E+00 -0.00000000000E+00 -0.45593999997E+02  0.45594000000E+02  0.51100000000E-03 0. -1.
    9900012    2    1    2    0    0  0.30766921914E+02 -0.26483076503E+02  0.19523233984E+02  0.46142317740E+02  0.99999998082E+01 0.  0.
         12    1    1    2    0    0 -0.30766921914E+02  0.26483076503E+02 -0.19523233984E+02  0.45045682260E+02  0.00000000000E+00 0. -1.
         11    1    3    3    0    0  0.28860259841E+01 -0.34760581375E+01  0.16580848598E+01  0.48126262913E+01  0.51100000000E-03 0. -1.
        -11    1    3    3    0    0  0.12736707589E+02 -0.68260115608E+01  0.10893627143E+02  0.18096664517E+02  0.51100000000E-03 0.  1.
        -12    1    3    3    0    0  0.15144188340E+02 -0.16181006804E+02  0.69715219805E+01  0.23233026932E+02  0.00000000000E+00 0.  1.
</event>
<event>
 7    1  0.2297343E-008  0.4614232E+02  0.7816164E-02  0.1320468E+00
        -11   -1    0    0    0    0  0.00000000000E+00  0.00000000000E+00  0.45593999997E+02  0.45594000000E+02  0.51100000000E-03 0.  1.
         11   -1    0    0    0    0 -0.00000000000E+00 -0.00000000000E+00 -0.45593999997E+02  0.45594000000E+02  0.51100000000E-03 0. -1.
    9900012    2    1    2    0    0 -0.40216074496E+02 -0.11662343445E+00  0.20292043499E+02  0.46142320093E+02  0.10000021268E+02 0.  0.
         12    1    1    2    0    0  0.40216074496E+02  0.11662343445E+00 -0.20292043499E+02  0.45045679907E+02  0.00000000000E+00 0. -1.
         11    1    3    3    0    0 -0.13389618265E+02  0.15592566190E+00  0.58211996760E+01  0.14601114889E+02  0.51100000000E-03 0.  1.
        -11    1    3    3    0    0 -0.14996993104E+02 -0.27590800589E+01  0.11484841532E+02  0.19089890261E+02  0.51100000000E-03 0. -1.
         12    1    3    3    0    0 -0.11829463128E+02  0.24865309626E+01  0.29860022913E+01  0.12451314943E+02  0.00000000000E+00 0. -1.
</event>
<event>
 7    1  0.2297343E-008  0.4614232E+02  0.7816164E-02  0.1320468E+00
        -11   -1    0    0    0    0  0.00000000000E+00  0.00000000000E+00  0.45593999997E+02  0.45594000000E+02  0.51100000000E-03 0.  1.
         11   -1    0    0    0    0 -0.00000000000E+00 -0.00000000000E+00 -0.45593999997E+02  0.45594000000E+02  0.51100000000E-03 0. -1.
    9900012    2    1    2    0    0 -0.10450382948E+02  0.17708026627E+02  0.40079029627E+02  0.46142319556E+02  0.10000016369E+02 0.  0.
         12    1    1    2    0    0  0.10450382948E+02 -0.17708026627E+02 -0.40079029627E+02  0.45045680444E+02  0.00000000000E+00 0. -1.
         11    1    3    3    0    0 -0.53005969658E+01  0.46559464636E+01  0.81427131897E+01  0.10773947467E+02  0.51100000000E-03 0. -1.
        -11    1    3    3    0    0 -0.38804792877E+00  0.51976634535E+01  0.17483093329E+02  0.18243487583E+02  0.51100000000E-03 0.  1.
        -12    1    3    3    0    0 -0.47617380533E+01  0.78544167099E+01  0.14453223108E+02  0.17124884506E+02  0.00000000000E+00 0.  1.
</event>
<event>
 7    1  0.2297343E-008  0.4614232E+02  0.7816164E-02  0.1320468E+00
        -11   -1    0    0    0    0  0.00000000000E+00  0.00000000000E+00  0.45593999997E+02  0.45594000000E+02  0.51100000000E-03 0. -1.
         11   -1    0    0    0    0 -0.00000000000E+00 -0.00000000000E+00 -0.45593999997E+02  0.45594000000E+02  0.51100000000E-03 0.  1.
    9900012    2    1    2    0    0  0.36464366130E+02  0.42727063457E+01 -0.26099953681E+02  0.46142316534E+02  0.99999888066E+01 0.  0.
         12    1    1    2    0    0 -0.36464366130E+02 -0.42727063457E+01  0.26099953681E+02  0.45045683466E+02  0.00000000000E+00 0. -1.
         11    1    3    3    0    0  0.19310209054E+02 -0.92971864292E+00 -0.13082451941E+02  0.23343073908E+02  0.51100000000E-03 0. -1.
        -11    1    3    3    0    0  0.12917745868E+02  0.25075935199E+01 -0.68139707002E+01  0.14818447305E+02  0.51100000000E-03 0.  1.
         12    1    3    3    0    0  0.42364112085E+01  0.26948314688E+01 -0.62035310402E+01  0.79807953199E+01  0.00000000000E+00 0. -1.
</event>
<event>
 7    1  0.2297343E-008  0.4614232E+02  0.7816164E-02  0.1320468E+00
        -11   -1    0    0    0    0  0.00000000000E+00  0.00000000000E+00  0.45593999997E+02  0.45594000000E+02  0.51100000000E-03 0.  1.
         11   -1    0    0    0    0 -0.00000000000E+00 -0.00000000000E+00 -0.45593999997E+02  0.45594000000E+02  0.51100000000E-03 0. -1.
    9900012    2    1    2    0    0  0.32167092876E+02  0.29403810982E+02 -0.11393315468E+02  0.46142316503E+02  0.99999885263E+01 0.  0.
         12    1    1    2    0    0 -0.32167092876E+02 -0.29403810982E+02  0.11393315468E+02  0.45045683497E+02  0.00000000000E+00 0. -1.
         11    1    3    3    0    0  0.16947293795E+02  0.17762624151E+02 -0.11121891983E+02  0.26952143982E+02  0.51100000000E-03 0. -1.
        -11    1    3    3    0    0  0.10278658741E+02  0.78308594905E+01 -0.65788974300E+00  0.12938547255E+02  0.51100000000E-03 0.  1.
         12    1    3    3    0    0  0.49411403398E+01  0.38103273404E+01  0.38646625759E+00  0.62516252661E+01  0.00000000000E+00 0. -1.
</event>
<event>
 7    1  0.2297343E-008  0.4614232E+02  0.7816164E-02  0.1320468E+00
        -11   -1    0    0    0    0  0.00000000000E+00  0.00000000000E+00  0.45593999997E+02  0.45594000000E+02  0.51100000000E-03 0.  1.
         11   -1    0    0    0    0 -0.00000000000E+00 -0.00000000000E+00 -0.45593999997E+02  0.45594000000E+02  0.51100000000E-03 0. -1.
    9900012    2    1    2    0    0 -0.10770252523E+02  0.31781183907E+02  0.30051147494E+02  0.46142318125E+02  0.10000003315E+02 0.  0.
         12    1    1    2    0    0  0.10770252523E+02 -0.31781183907E+02 -0.30051147494E+02  0.45045681875E+02  0.00000000000E+00 0. -1.
         11    1    3    3    0    0 -0.22292108147E+01  0.35742874973E+01  0.69457012433E+01  0.81232800021E+01  0.51100000000E-03 0. -1.
        -11    1    3    3    0    0 -0.60967973523E+01  0.97428099966E+01  0.75369115745E+01  0.13744028555E+02  0.51100000000E-03 0.  1.
        -12    1    3    3    0    0 -0.24442443557E+01  0.18464086413E+02  0.15568534676E+02  0.24275009567E+02  0.00000000000E+00 0.  1.
</event>
<event>
 7    1  0.2297343E-008  0.4614232E+02  0.7816164E-02  0.1320468E+00
        -11   -1    0    0    0    0  0.00000000000E+00  0.00000000000E+00  0.45593999997E+02  0.45594000000E+02  0.51100000000E-03 0.  1.
         11   -1    0    0    0    0 -0.00000000000E+00 -0.00000000000E+00 -0.45593999997E+02  0.45594000000E+02  0.51100000000E-03 0. -1.
    9900012    2    1    2    0    0  0.11797472565E+02 -0.34748353636E+02  0.26124415893E+02  0.46142317132E+02  0.99999942631E+01 0.  0.
         12    1    1    2    0    0 -0.11797472565E+02  0.34748353636E+02 -0.26124415893E+02  0.45045682868E+02  0.00000000000E+00 0. -1.
         11    1    3    3    0    0  0.95339434788E+00 -0.39721241586E+01  0.15253506229E+01  0.43604387277E+01  0.51100000000E-03 0. -1.
        -11    1    3    3    0    0  0.36678656734E+01 -0.14040348174E+02  0.58526424435E+01  0.15647301341E+02  0.51100000000E-03 0.  1.
         12    1    3    3    0    0  0.71762125436E+01 -0.16735881303E+02  0.18746422826E+02  0.26134577063E+02  0.00000000000E+00 0. -1.
</event>
<event>
 7    1  0.2297343E-008  0.4614232E+02  0.7816164E-02  0.1320468E+00
        -11   -1    0    0    0    0  0.00000000000E+00  0.00000000000E+00  0.45593999997E+02  0.45594000000E+02  0.51100000000E-03 0.  1.
         11   -1    0    0    0    0 -0.00000000000E+00 -0.00000000000E+00 -0.45593999997E+02  0.45594000000E+02  0.51100000000E-03 0. -1.
    9900012    2    1    2    0    0 -0.33501031817E+02  0.18825359132E+02  0.23503196131E+02  0.46142317547E+02  0.99999980506E+01 0.  0.
         12    1    1    2    0    0  0.33501031817E+02 -0.18825359132E+02 -0.23503196131E+02  0.45045682453E+02  0.00000000000E+00 0. -1.
         11    1    3    3    0    0 -0.10889631923E+02  0.20932290689E+01  0.48192602358E+01  0.12090945407E+02  0.51100000000E-03 0. -1.
        -11    1    3    3    0    0 -0.86439497177E+01  0.86947579302E+01  0.67231516425E+01  0.13982755467E+02  0.51100000000E-03 0.  1.
         12    1    3    3    0    0 -0.13967450176E+02  0.80373721331E+01  0.11960784253E+02  0.20068616673E+02  0.00000000000E+00 0. -1.
</event>
<event>
 7    1  0.2297343E-008  0.4614232E+02  0.7816164E-02  0.1320468E+00
        -11   -1    0    0    0    0  0.00000000000E+00  0.00000000000E+00  0.45593999997E+02  0.45594000000E+02  0.51100000000E-03 0.  1.
         11   -1    0    0    0    0 -0.00000000000E+00 -0.00000000000E+00 -0.45593999997E+02  0.45594000000E+02  0.51100000000E-03 0. -1.
    9900012    2    1    2    0    0 -0.39838119622E+02  0.34439639569E+01  0.20740704072E+02  0.46142317986E+02  0.10000002048E+02 0.  0.
         12    1    1    2    0    0  0.39838119622E+02 -0.34439639569E+01 -0.20740704072E+02  0.45045682014E+02  0.00000000000E+00 0. -1.
         11    1    3    3    0    0 -0.10113910158E+01 -0.24984343886E+00  0.18784563266E+01  0.21480065091E+01  0.51100000000E-03 0. -1.
        -11    1    3    3    0    0 -0.26221615361E+02  0.91624762925E-01  0.15499919459E+02  0.30460285795E+02  0.51100000000E-03 0.  1.
         12    1    3    3    0    0 -0.12605113245E+02  0.36021826329E+01  0.33623282869E+01  0.13534025681E+02  0.00000000000E+00 0. -1.
</event>
<event>
 7    1  0.2297343E-008  0.4614232E+02  0.7816164E-02  0.1320468E+00
        -11   -1    0    0    0    0  0.00000000000E+00  0.00000000000E+00  0.45593999997E+02  0.45594000000E+02  0.51100000000E-03 0.  1.
         11   -1    0    0    0    0 -0.00000000000E+00 -0.00000000000E+00 -0.45593999997E+02  0.45594000000E+02  0.51100000000E-03 0. -1.
    9900012    2    1    2    0    0  0.33286034320E+02 -0.95415578053E+01  0.28811666965E+02  0.46142316972E+02  0.99999928087E+01 0.  0.
         12    1    1    2    0    0 -0.33286034320E+02  0.95415578053E+01 -0.28811666965E+02  0.45045683028E+02  0.00000000000E+00 0. -1.
         11    1    3    3    0    0  0.16713905604E+02 -0.64385875146E+01  0.12250633518E+02  0.21699955567E+02  0.51100000000E-03 0. -1.
        -11    1    3    3    0    0  0.66253666667E+01 -0.46614007949E+00  0.26776667774E+01  0.71611919171E+01  0.51100000000E-03 0.  1.
         12    1    3    3    0    0  0.99467620493E+01 -0.26368302113E+01  0.13883366669E+02  0.17281169489E+02  0.00000000000E+00 0. -1.
</event>
<event>
 7    1  0.2297343E-008  0.4614231E+02  0.7816164E-02  0.1320468E+00
        -11   -1    0    0    0    0  0.00000000000E+00  0.00000000000E+00  0.45593999997E+02  0.45594000000E+02  0.51100000000E-03 0.  1.
         11   -1    0    0    0    0 -0.00000000000E+00 -0.00000000000E+00 -0.45593999997E+02  0.45594000000E+02  0.51100000000E-03 0. -1.
    9900012    2    1    2    0    0 -0.22699190575E+02 -0.97863664021E+01  0.37657504844E+02  0.46142313290E+02  0.99999592292E+01 0.  0.
         12    1    1    2    0    0  0.22699190575E+02  0.97863664021E+01 -0.37657504844E+02  0.45045686710E+02  0.00000000000E+00 0. -1.
         11    1    3    3    0    0 -0.33844526636E+01 -0.15954000922E+00  0.11627845492E+02  0.12111431125E+02  0.51100000000E-03 0. -1.
        -11    1    3    3    0    0 -0.98465113994E+01 -0.58670632655E+01  0.16431087974E+02  0.20033893041E+02  0.51100000000E-03 0.  1.
        -12    1    3    3    0    0 -0.94682265116E+01 -0.37597631274E+01  0.95985713781E+01  0.13996989124E+02  0.00000000000E+00 0.  1.
</event>
<event>
 7    1  0.2297343E-008  0.4614232E+02  0.7816164E-02  0.1320468E+00
        -11   -1    0    0    0    0  0.00000000000E+00  0.00000000000E+00  0.45593999997E+02  0.45594000000E+02  0.51100000000E-03 0.  1.
         11   -1    0    0    0    0 -0.00000000000E+00 -0.00000000000E+00 -0.45593999997E+02  0.45594000000E+02  0.51100000000E-03 0. -1.
    9900012    2    1    2    0    0 -0.88890411463E+00  0.14571204205E+02  0.42614590802E+02  0.46142317723E+02  0.99999996561E+01 0.  0.
         12    1    1    2    0    0  0.88890411463E+00 -0.14571204205E+02 -0.42614590802E+02  0.45045682277E+02  0.00000000000E+00 0. -1.
         11    1    3    3    0    0 -0.43383178956E+00  0.56112321373E+01  0.93677489050E+01  0.10928351016E+02  0.51100000000E-03 0. -1.
        -11    1    3    3    0    0 -0.35216116903E+01  0.23350437292E+01  0.10269610224E+02  0.11104912090E+02  0.51100000000E-03 0.  1.
         12    1    3    3    0    0  0.30665393652E+01  0.66249283389E+01  0.22977231673E+02  0.24109054617E+02  0.00000000000E+00 0. -1.
</event>
<event>
 7    1  0.2297343E-008  0.4614232E+02  0.7816164E-02  0.1320468E+00
        -11   -1    0    0    0    0  0.00000000000E+00  0.00000000000E+00  0.45593999997E+02  0.45594000000E+02  0.51100000000E-03 0.  1.
         11   -1    0    0    0    0 -0.00000000000E+00 -0.00000000000E+00 -0.45593999997E+02  0.45594000000E+02  0.51100000000E-03 0. -1.
    9900012    2    1    2    0    0 -0.22409154826E+02 -0.20349222065E+02  0.33359442666E+02  0.46142317925E+02  0.10000001491E+02 0.  0.
         12    1    1    2    0    0  0.22409154826E+02  0.20349222065E+02 -0.33359442666E+02  0.45045682075E+02  0.00000000000E+00 0. -1.
         11    1    3    3    0    0 -0.53341798176E+01 -0.45524851572E+01  0.47368966015E+01  0.84626700933E+01  0.51100000000E-03 0. -1.
        -11    1    3    3    0    0 -0.13383161472E+02 -0.81485389340E+01  0.21450779413E+02  0.26563953686E+02  0.51100000000E-03 0.  1.
         12    1    3    3    0    0 -0.36918135360E+01 -0.76481979737E+01  0.71717666513E+01  0.11115694145E+02  0.00000000000E+00 0. -1.
</event>
<event>
 7    1  0.2297343E-008  0.4614232E+02  0.7816164E-02  0.1320468E+00
        -11   -1    0    0    0    0  0.00000000000E+00  0.00000000000E+00  0.45593999997E+02  0.45594000000E+02  0.51100000000E-03 0. -1.
         11   -1    0    0    0    0 -0.00000000000E+00 -0.00000000000E+00 -0.45593999997E+02  0.45594000000E+02  0.51100000000E-03 0.  1.
    9900012    2    1    2    0    0  0.12500176540E+02 -0.16128390646E+02 -0.40158860969E+02  0.46142317492E+02  0.99999975419E+01 0.  0.
         12    1    1    2    0    0 -0.12500176540E+02  0.16128390646E+02  0.40158860969E+02  0.45045682508E+02  0.00000000000E+00 0. -1.
         11    1    3    3    0    0  0.10194598800E+02 -0.10193700739E+02 -0.22643769573E+02  0.26843652512E+02  0.51100000000E-03 0. -1.
        -11    1    3    3    0    0  0.36245334458E+01 -0.47944142738E+01 -0.10787704005E+02  0.12349016515E+02  0.51100000000E-03 0.  1.
        -12    1    3    3    0    0 -0.13189557061E+01 -0.11402756332E+01 -0.67273873913E+01  0.69496484650E+01  0.00000000000E+00 0.  1.
</event>
<event>
 7    1  0.2297343E-008  0.4614232E+02  0.7816164E-02  0.1320468E+00
        -11   -1    0    0    0    0  0.00000000000E+00  0.00000000000E+00  0.45593999997E+02  0.45594000000E+02  0.51100000000E-03 0. -1.
         11   -1    0    0    0    0 -0.00000000000E+00 -0.00000000000E+00 -0.45593999997E+02  0.45594000000E+02  0.51100000000E-03 0.  1.
    9900012    2    1    2    0    0 -0.92644340966E+01 -0.42207439563E+02 -0.12720692309E+02  0.46142315340E+02  0.99999779268E+01 0.  0.
         12    1    1    2    0    0  0.92644340966E+01  0.42207439563E+02  0.12720692309E+02  0.45045684660E+02  0.00000000000E+00 0. -1.
         11    1    3    3    0    0  0.37964528198E+00 -0.83833349596E+01 -0.39521086023E+01  0.92759688578E+01  0.51100000000E-03 0. -1.
        -11    1    3    3    0    0 -0.63348488074E+01 -0.11629225140E+02 -0.17722543205E+01  0.13360766161E+02  0.51100000000E-03 0.  1.
         12    1    3    3    0    0 -0.33092305712E+01 -0.22194879464E+02 -0.69963293866E+01  0.23505580322E+02  0.00000000000E+00 0. -1.
</event>
<event>
 7    1  0.2297343E-008  0.4614232E+02  0.7816164E-02  0.1320468E+00
        -11   -1    0    0    0    0  0.00000000000E+00  0.00000000000E+00  0.45593999997E+02  0.45594000000E+02  0.51100000000E-03 0. -1.
         11   -1    0    0    0    0 -0.00000000000E+00 -0.00000000000E+00 -0.45593999997E+02  0.45594000000E+02  0.51100000000E-03 0.  1.
    9900012    2    1    2    0    0  0.32792482107E+02  0.24692190321E+02 -0.18548918200E+02  0.46142317499E+02  0.99999976119E+01 0.  0.
         12    1    1    2    0    0 -0.32792482107E+02 -0.24692190321E+02  0.18548918200E+02  0.45045682501E+02  0.00000000000E+00 0. -1.
         11    1    3    3    0    0  0.39893247419E+01  0.24308771248E+01 -0.31932856491E+01  0.56587055932E+01  0.51100000000E-03 0. -1.
        -11    1    3    3    0    0  0.19493768772E+02  0.19886129755E+02 -0.11172462196E+02  0.30004817769E+02  0.51100000000E-03 0.  1.
        -12    1    3    3    0    0  0.93093885926E+01  0.23751834415E+01 -0.41831703543E+01  0.10478794137E+02  0.00000000000E+00 0.  1.
</event>
<event>
 7    1  0.2297343E-008  0.4614232E+02  0.7816164E-02  0.1320468E+00
        -11   -1    0    0    0    0  0.00000000000E+00  0.00000000000E+00  0.45593999997E+02  0.45594000000E+02  0.51100000000E-03 0. -1.
         11   -1    0    0    0    0 -0.00000000000E+00 -0.00000000000E+00 -0.45593999997E+02  0.45594000000E+02  0.51100000000E-03 0.  1.
    9900012    2    1    2    0    0  0.19813457377E+02 -0.40307473412E+02  0.34420917954E+01  0.46142317610E+02  0.99999986188E+01 0.  0.
         12    1    1    2    0    0 -0.19813457377E+02  0.40307473412E+02 -0.34420917954E+01  0.45045682390E+02  0.00000000000E+00 0. -1.
         11    1    3    3    0    0  0.69996270188E+01 -0.21132082032E+02  0.45337179482E+01  0.22718148430E+02  0.51100000000E-03 0. -1.
        -11    1    3    3    0    0  0.85257912664E+01 -0.14540753451E+02  0.66913846870E+00  0.16869213799E+02  0.51100000000E-03 0.  1.
         12    1    3    3    0    0  0.42880390921E+01 -0.46346379287E+01 -0.17607646215E+01  0.65549553803E+01  0.00000000000E+00 0. -1.
</event>
<event>
 7    1  0.2297343E-008  0.4614232E+02  0.7816164E-02  0.1320468E+00
        -11   -1    0    0    0    0  0.00000000000E+00  0.00000000000E+00  0.45593999997E+02  0.45594000000E+02  0.51100000000E-03 0.  1.
         11   -1    0    0    0    0 -0.00000000000E+00 -0.00000000000E+00 -0.45593999997E+02  0.45594000000E+02  0.51100000000E-03 0. -1.
    9900012    2    1    2    0    0  0.24173536506E+01  0.35754673731E+02  0.27292364509E+02  0.46142318156E+02  0.10000003602E+02 0.  0.
         12    1    1    2    0    0 -0.24173536506E+01 -0.35754673731E+02 -0.27292364509E+02  0.45045681844E+02  0.00000000000E+00 0. -1.
         11    1    3    3    0    0  0.36675043941E+01  0.15419919230E+02  0.80550581457E+01  0.17779439236E+02  0.51100000000E-03 0. -1.
        -11    1    3    3    0    0  0.20562905092E+00  0.58231157703E+01  0.30582234753E+01  0.65805540546E+01  0.51100000000E-03 0.  1.
         12    1    3    3    0    0 -0.14557797944E+01  0.14511638731E+02  0.16179082888E+02  0.21782324866E+02  0.00000000000E+00 0. -1.
</event>
<event>
 7    1  0.2297343E-008  0.4614232E+02  0.7816164E-02  0.1320468E+00
        -11   -1    0    0    0    0  0.00000000000E+00  0.00000000000E+00  0.45593999997E+02  0.45594000000E+02  0.51100000000E-03 0.  1.
         11   -1    0    0    0    0 -0.00000000000E+00 -0.00000000000E+00 -0.45593999997E+02  0.45594000000E+02  0.51100000000E-03 0. -1.
    9900012    2    1    2    0    0  0.32370957292E+02  0.91567451759E+01  0.29956449388E+02  0.46142315210E+02  0.99999767412E+01 0.  0.
         12    1    1    2    0    0 -0.32370957292E+02 -0.91567451759E+01 -0.29956449388E+02  0.45045684790E+02  0.00000000000E+00 0. -1.
         11    1    3    3    0    0  0.22923552332E+01  0.12879984774E+01  0.40148544483E+00  0.26598916174E+01  0.51100000000E-03 0. -1.
        -11    1    3    3    0    0  0.40176393067E+01 -0.17924268434E+00  0.13394343421E+01  0.42388250915E+01  0.51100000000E-03 0.  1.
         12    1    3    3    0    0  0.26060962752E+02  0.80479893828E+01  0.28215529601E+02  0.39243598502E+02  0.00000000000E+00 0. -1.
</event>
<event>
 7    1  0.2297343E-008  0.4614232E+02  0.7816164E-02  0.1320468E+00
        -11   -1    0    0    0    0  0.00000000000E+00  0.00000000000E+00  0.45593999997E+02  0.45594000000E+02  0.51100000000E-03 0. -1.
         11   -1    0    0    0    0 -0.00000000000E+00 -0.00000000000E+00 -0.45593999997E+02  0.45594000000E+02  0.51100000000E-03 0.  1.
    9900012    2    1    2    0    0  0.19248761433E+02  0.40640387320E+02  0.26377582513E+01  0.46142315781E+02  0.99999819401E+01 0.  0.
         12    1    1    2    0    0 -0.19248761433E+02 -0.40640387320E+02 -0.26377582513E+01  0.45045684219E+02  0.00000000000E+00 0. -1.
         11    1    3    3    0    0  0.26740550626E+01  0.79606550945E+01  0.29066336745E+01  0.88865696188E+01  0.51100000000E-03 0. -1.
        -11    1    3    3    0    0  0.14871724984E+02  0.32196588786E+02 -0.51152170480E+00  0.35469003202E+02  0.51100000000E-03 0.  1.
         12    1    3    3    0    0  0.17029813866E+01  0.48314343948E+00  0.24264628159E+00  0.17867429597E+01  0.00000000000E+00 0. -1.
</event>
<event>
 7    1  0.2297343E-008  0.4614232E+02  0.7816164E-02  0.1320468E+00
        -11   -1    0    0    0    0  0.00000000000E+00  0.00000000000E+00  0.45593999997E+02  0.45594000000E+02  0.51100000000E-03 0.  1.
         11   -1    0    0    0    0 -0.00000000000E+00 -0.00000000000E+00 -0.45593999997E+02  0.45594000000E+02  0.51100000000E-03 0. -1.
    9900012    2    1    2    0    0 -0.57362866588E+01  0.63707365936E+01  0.44222417364E+02  0.46142317999E+02  0.10000002171E+02 0.  0.
         12    1    1    2    0    0  0.57362866588E+01 -0.63707365936E+01 -0.44222417364E+02  0.45045682001E+02  0.00000000000E+00 0. -1.
         11    1    3    3    0    0 -0.42881719619E+01 -0.29317325115E-01  0.10426725823E+02  0.11274124796E+02  0.51100000000E-03 0. -1.
        -11    1    3    3    0    0  0.76359738591E+00 -0.48898951223E+00  0.87935514802E+01  0.88401775778E+01  0.51100000000E-03 0.  1.
        -12    1    3    3    0    0 -0.22117120828E+01  0.68890434310E+01  0.25002140062E+02  0.26028015625E+02  0.00000000000E+00 0.  1.
</event>
<event>
 7    1  0.2297343E-008  0.4614232E+02  0.7816164E-02  0.1320468E+00
        -11   -1    0    0    0    0  0.00000000000E+00  0.00000000000E+00  0.45593999997E+02  0.45594000000E+02  0.51100000000E-03 0.  1.
         11   -1    0    0    0    0 -0.00000000000E+00 -0.00000000000E+00 -0.45593999997E+02  0.45594000000E+02  0.51100000000E-03 0. -1.
    9900012    2    1    2    0    0 -0.17768685833E+02 -0.51857866572E+01  0.41066956803E+02  0.46142317404E+02  0.99999967401E+01 0.  0.
         12    1    1    2    0    0  0.17768685833E+02  0.51857866572E+01 -0.41066956803E+02  0.45045682596E+02  0.00000000000E+00 0. -1.
         11    1    3    3    0    0 -0.36785808865E+01  0.29841131123E+00  0.66315508928E+01  0.75893658598E+01  0.51100000000E-03 0. -1.
        -11    1    3    3    0    0 -0.55152898342E+01 -0.28661716121E+01  0.24015599379E+02  0.24806901770E+02  0.51100000000E-03 0.  1.
        -12    1    3    3    0    0 -0.85748151123E+01 -0.26180263563E+01  0.10419806532E+02  0.13746049773E+02  0.00000000000E+00 0.  1.
</event>
<event>
 7    1  0.2297343E-008  0.4614232E+02  0.7816164E-02  0.1320468E+00
        -11   -1    0    0    0    0  0.00000000000E+00  0.00000000000E+00  0.45593999997E+02  0.45594000000E+02  0.51100000000E-03 0. -1.
         11   -1    0    0    0    0 -0.00000000000E+00 -0.00000000000E+00 -0.45593999997E+02  0.45594000000E+02  0.51100000000E-03 0.  1.
    9900012    2    1    2    0    0  0.33428851651E+02  0.25129782448E+02 -0.16736767458E+02  0.46142317926E+02  0.10000001499E+02 0.  0.
         12    1    1    2    0    0 -0.33428851651E+02 -0.25129782448E+02  0.16736767458E+02  0.45045682074E+02  0.00000000000E+00 0. -1.
         11    1    3    3    0    0  0.19733786401E+02  0.14466745665E+02 -0.55208581853E+01  0.25083638716E+02  0.51100000000E-03 0. -1.
        -11    1    3    3    0    0  0.13108799185E+02  0.10158151440E+02 -0.93486823679E+01  0.19037502962E+02  0.51100000000E-03 0.  1.
        -12    1    3    3    0    0  0.58626606522E+00  0.50488534262E+00 -0.18672269053E+01  0.20211762477E+01  0.00000000000E+00 0.  1.
</event>
<event>
 7    1  0.2297343E-008  0.4614232E+02  0.7816164E-02  0.1320468E+00
        -11   -1    0    0    0    0  0.00000000000E+00  0.00000000000E+00  0.45593999997E+02  0.45594000000E+02  0.51100000000E-03 0. -1.
         11   -1    0    0    0    0 -0.00000000000E+00 -0.00000000000E+00 -0.45593999997E+02  0.45594000000E+02  0.51100000000E-03 0.  1.
    9900012    2    1    2    0    0 -0.41600591184E+02  0.43124384010E+01  0.16730430179E+02  0.46142316458E+02  0.99999881149E+01 0.  0.
         12    1    1    2    0    0  0.41600591184E+02 -0.43124384010E+01 -0.16730430179E+02  0.45045683542E+02  0.00000000000E+00 0. -1.
         11    1    3    3    0    0 -0.13219337136E+02  0.14933285755E+01  0.39232846888E+01  0.13869861844E+02  0.51100000000E-03 0. -1.
        -11    1    3    3    0    0 -0.19923641936E+02  0.44009219371E+01  0.59029674270E+01  0.21240636681E+02  0.51100000000E-03 0.  1.
         12    1    3    3    0    0 -0.84576121116E+01 -0.15818121116E+01  0.69041780630E+01  0.11031817933E+02  0.00000000000E+00 0. -1.
</event>
<event>
 7    1  0.2297343E-008  0.4614232E+02  0.7816164E-02  0.1320468E+00
        -11   -1    0    0    0    0  0.00000000000E+00  0.00000000000E+00  0.45593999997E+02  0.45594000000E+02  0.51100000000E-03 0. -1.
         11   -1    0    0    0    0 -0.00000000000E+00 -0.00000000000E+00 -0.45593999997E+02  0.45594000000E+02  0.51100000000E-03 0.  1.
    9900012    2    1    2    0    0  0.23519682715E+02 -0.33915291702E+02 -0.18046910883E+02  0.46142317869E+02  0.10000000980E+02 0.  0.
         12    1    1    2    0    0 -0.23519682715E+02  0.33915291702E+02  0.18046910883E+02  0.45045682131E+02  0.00000000000E+00 0. -1.
         11    1    3    3    0    0  0.64156386106E+01 -0.58951346319E+01 -0.53218343039E+01  0.10209551985E+02  0.51100000000E-03 0. -1.
        -11    1    3    3    0    0  0.13743558020E+02 -0.16172041135E+02 -0.69644206993E+01  0.22336594581E+02  0.51100000000E-03 0.  1.
         12    1    3    3    0    0  0.33604860845E+01 -0.11848115936E+02 -0.57606558794E+01  0.13596171303E+02  0.00000000000E+00 0. -1.
</event>
<event>
 7    1  0.2297343E-008  0.4614232E+02  0.7816164E-02  0.1320468E+00
        -11   -1    0    0    0    0  0.00000000000E+00  0.00000000000E+00  0.45593999997E+02  0.45594000000E+02  0.51100000000E-03 0. -1.
         11   -1    0    0    0    0 -0.00000000000E+00 -0.00000000000E+00 -0.45593999997E+02  0.45594000000E+02  0.51100000000E-03 0.  1.
    9900012    2    1    2    0    0  0.11375332277E+02 -0.33479980340E+02 -0.27907099662E+02  0.46142317859E+02  0.10000000892E+02 0.  0.
         12    1    1    2    0    0 -0.11375332277E+02  0.33479980340E+02  0.27907099662E+02  0.45045682141E+02  0.00000000000E+00 0. -1.
         11    1    3    3    0    0  0.86567550760E+00 -0.88388583307E+01 -0.42764346361E+01  0.98571143918E+01  0.51100000000E-03 0.  1.
        -11    1    3    3    0    0  0.16427875040E+01 -0.11361573825E+02 -0.84647104770E+01  0.14263079411E+02  0.51100000000E-03 0. -1.
         12    1    3    3    0    0  0.88668692655E+01 -0.13279548184E+02 -0.15165954549E+02  0.22022124056E+02  0.00000000000E+00 0. -1.
</event>
<event>
 7    1  0.2297343E-008  0.4614232E+02  0.7816164E-02  0.1320468E+00
        -11   -1    0    0    0    0  0.00000000000E+00  0.00000000000E+00  0.45593999997E+02  0.45594000000E+02  0.51100000000E-03 0.  1.
         11   -1    0    0    0    0 -0.00000000000E+00 -0.00000000000E+00 -0.45593999997E+02  0.45594000000E+02  0.51100000000E-03 0. -1.
    9900012    2    1    2    0    0  0.84890226017E+01 -0.33623992083E+02  0.28748516987E+02  0.46142316774E+02  0.99999909944E+01 0.  0.
         12    1    1    2    0    0 -0.84890226017E+01  0.33623992083E+02 -0.28748516987E+02  0.45045683226E+02  0.00000000000E+00 0. -1.
         11    1    3    3    0    0  0.67520631970E+01 -0.29872866128E+02  0.27859356498E+02  0.41401959288E+02  0.51100000000E-03 0.  1.
        -11    1    3    3    0    0 -0.27646267004E+00 -0.18700137343E+01  0.20629676144E+00  0.19015629333E+01  0.51100000000E-03 0. -1.
         12    1    3    3    0    0  0.20134220747E+01 -0.18811122215E+01  0.68286372766E+00  0.28387945525E+01  0.00000000000E+00 0. -1.
</event>
<event>
 7    1  0.2297343E-008  0.4614232E+02  0.7816164E-02  0.1320468E+00
        -11   -1    0    0    0    0  0.00000000000E+00  0.00000000000E+00  0.45593999997E+02  0.45594000000E+02  0.51100000000E-03 0. -1.
         11   -1    0    0    0    0 -0.00000000000E+00 -0.00000000000E+00 -0.45593999997E+02  0.45594000000E+02  0.51100000000E-03 0.  1.
    9900012    2    1    2    0    0  0.42289931964E+02 -0.93848475752E+01 -0.12353128580E+02  0.46142317685E+02  0.99999993084E+01 0.  0.
         12    1    1    2    0    0 -0.42289931964E+02  0.93848475752E+01  0.12353128580E+02  0.45045682315E+02  0.00000000000E+00 0. -1.
         11    1    3    3    0    0  0.21702521374E+02 -0.95636895914E+00 -0.94704157035E+01  0.23698161309E+02  0.51100000000E-03 0. -1.
        -11    1    3    3    0    0  0.15459686585E+02 -0.61717820266E+01 -0.18669015221E+01  0.16750466389E+02  0.51100000000E-03 0.  1.
         12    1    3    3    0    0  0.51277240046E+01 -0.22566965895E+01 -0.10158113541E+01  0.56936899873E+01  0.00000000000E+00 0. -1.
</event>
<event>
 7    1  0.2297343E-008  0.4614232E+02  0.7816164E-02  0.1320468E+00
        -11   -1    0    0    0    0  0.00000000000E+00  0.00000000000E+00  0.45593999997E+02  0.45594000000E+02  0.51100000000E-03 0.  1.
         11   -1    0    0    0    0 -0.00000000000E+00 -0.00000000000E+00 -0.45593999997E+02  0.45594000000E+02  0.51100000000E-03 0. -1.
    9900012    2    1    2    0    0 -0.20928172540E+02  0.32072270169E+02  0.23716967289E+02  0.46142318108E+02  0.10000003167E+02 0.  0.
         12    1    1    2    0    0  0.20928172540E+02 -0.32072270169E+02 -0.23716967289E+02  0.45045681892E+02  0.00000000000E+00 0. -1.
         11    1    3    3    0    0 -0.51789381002E+01  0.82335607885E+01  0.35500472818E+01  0.10354504289E+02  0.51100000000E-03 0. -1.
        -11    1    3    3    0    0 -0.76112068326E+01  0.12710314590E+02  0.58955309844E+01  0.15944900510E+02  0.51100000000E-03 0.  1.
        -12    1    3    3    0    0 -0.81380276073E+01  0.11128394790E+02  0.14271389023E+02  0.19842913309E+02  0.00000000000E+00 0.  1.
</event>
<event>
 7    1  0.2297343E-008  0.4614232E+02  0.7816164E-02  0.1320468E+00
        -11   -1    0    0    0    0  0.00000000000E+00  0.00000000000E+00  0.45593999997E+02  0.45594000000E+02  0.51100000000E-03 0.  1.
         11   -1    0    0    0    0 -0.00000000000E+00 -0.00000000000E+00 -0.45593999997E+02  0.45594000000E+02  0.51100000000E-03 0. -1.
    9900012    2    1    2    0    0 -0.11942503481E+02  0.35630301576E+02  0.24838913895E+02  0.46142318484E+02  0.10000006588E+02 0.  0.
         12    1    1    2    0    0  0.11942503481E+02 -0.35630301576E+02 -0.24838913895E+02  0.45045681516E+02  0.00000000000E+00 0. -1.
         11    1    3    3    0    0 -0.66141290526E+01  0.15110880490E+02  0.60013354410E+01  0.17552818567E+02  0.51100000000E-03 0. -1.
        -11    1    3    3    0    0 -0.41479591983E+01  0.14874653244E+02  0.11483764263E+02  0.19244160583E+02  0.51100000000E-03 0.  1.
         12    1    3    3    0    0 -0.11804152299E+01  0.56447678429E+01  0.73538141906E+01  0.93453393339E+01  0.00000000000E+00 0. -1.
</event>
<event>
 7    1  0.2297343E-008  0.4614232E+02  0.7816164E-02  0.1320468E+00
        -11   -1    0    0    0    0  0.00000000000E+00  0.00000000000E+00  0.45593999997E+02  0.45594000000E+02  0.51100000000E-03 0. -1.
         11   -1    0    0    0    0 -0.00000000000E+00 -0.00000000000E+00 -0.45593999997E+02  0.45594000000E+02  0.51100000000E-03 0.  1.
    9900012    2    1    2    0    0 -0.13823281340E+02 -0.41257546743E+02 -0.11655267755E+02  0.46142317225E+02  0.99999951090E+01 0.  0.
         12    1    1    2    0    0  0.13823281340E+02  0.41257546743E+02  0.11655267755E+02  0.45045682775E+02  0.00000000000E+00 0. -1.
         11    1    3    3    0    0 -0.81048083828E+01 -0.30311658813E+02 -0.66045875187E+01  0.32064078896E+02  0.51100000000E-03 0.  1.
        -11    1    3    3    0    0 -0.20477159230E+00 -0.46939144054E-01 -0.12772189860E+01  0.12943814305E+01  0.51100000000E-03 0. -1.
        -12    1    3    3    0    0 -0.55137013652E+01 -0.10898948786E+02 -0.37734612504E+01  0.12783856898E+02  0.00000000000E+00 0.  1.
</event>
<event>
 7    1  0.2297343E-008  0.4614232E+02  0.7816164E-02  0.1320468E+00
        -11   -1    0    0    0    0  0.00000000000E+00  0.00000000000E+00  0.45593999997E+02  0.45594000000E+02  0.51100000000E-03 0. -1.
         11   -1    0    0    0    0 -0.00000000000E+00 -0.00000000000E+00 -0.45593999997E+02  0.45594000000E+02  0.51100000000E-03 0.  1.
    9900012    2    1    2    0    0  0.29841337137E+01  0.43938105507E+02 -0.94684395491E+01  0.46142317443E+02  0.99999970974E+01 0.  0.
         12    1    1    2    0    0 -0.29841337137E+01 -0.43938105507E+02  0.94684395491E+01  0.45045682557E+02  0.00000000000E+00 0. -1.
         11    1    3    3    0    0  0.34670761279E+01  0.92310199711E+01 -0.36002509601E+01  0.10497340321E+02  0.51100000000E-03 0. -1.
        -11    1    3    3    0    0 -0.28182023523E+00  0.25975312927E+02 -0.68254817957E+01  0.26858583476E+02  0.51100000000E-03 0.  1.
         12    1    3    3    0    0 -0.20112217904E+00  0.87317726086E+01  0.95729320669E+00  0.87863936460E+01  0.00000000000E+00 0. -1.
</event>
<event>
 7    1  0.2297343E-008  0.4614232E+02  0.7816164E-02  0.1320468E+00
        -11   -1    0    0    0    0  0.00000000000E+00  0.00000000000E+00  0.45593999997E+02  0.45594000000E+02  0.51100000000E-03 0.  1.
         11   -1    0    0    0    0 -0.00000000000E+00 -0.00000000000E+00 -0.45593999997E+02  0.45594000000E+02  0.51100000000E-03 0. -1.
    9900012    2    1    2    0    0 -0.28398752418E+02  0.11457811412E+02  0.33035471467E+02  0.46142323667E+02  0.10000053857E+02 0.  0.
         12    1    1    2    0    0  0.28398752418E+02 -0.11457811412E+02 -0.33035471467E+02  0.45045676333E+02  0.00000000000E+00 0. -1.
         11    1    3    3    0    0 -0.95241665521E+00  0.15568610712E+01  0.12078241139E+00  0.18290714945E+01  0.51100000000E-03 0. -1.
        -11    1    3    3    0    0 -0.25459364491E+02  0.10004133904E+02  0.32070674658E+02  0.42151988194E+02  0.51100000000E-03 0.  1.
        -12    1    3    3    0    0 -0.19869712716E+01 -0.10318356240E+00  0.84401439696E+00  0.21612639783E+01  0.00000000000E+00 0.  1.
</event>
<event>
 7    1  0.2297343E-008  0.4614232E+02  0.7816164E-02  0.1320468E+00
        -11   -1    0    0    0    0  0.00000000000E+00  0.00000000000E+00  0.45593999997E+02  0.45594000000E+02  0.51100000000E-03 0. -1.
         11   -1    0    0    0    0 -0.00000000000E+00 -0.00000000000E+00 -0.45593999997E+02  0.45594000000E+02  0.51100000000E-03 0.  1.
    9900012    2    1    2    0    0  0.27014020590E+02  0.20813819058E+02 -0.29430275574E+02  0.46142317714E+02  0.99999995701E+01 0.  0.
         12    1    1    2    0    0 -0.27014020590E+02 -0.20813819058E+02  0.29430275574E+02  0.45045682286E+02  0.00000000000E+00 0. -1.
         11    1    3    3    0    0  0.54653822031E+01  0.74621338579E+01 -0.75855977260E+01  0.11962237979E+02  0.51100000000E-03 0. -1.
        -11    1    3    3    0    0  0.11180475289E+02  0.71666443750E+01 -0.68923395006E+01  0.14962224545E+02  0.51100000000E-03 0.  1.
        -12    1    3    3    0    0  0.10368163098E+02  0.61850408254E+01 -0.14952338348E+02  0.19217855190E+02  0.00000000000E+00 0.  1.
</event>
<event>
 7    1  0.2297343E-008  0.4614232E+02  0.7816164E-02  0.1320468E+00
        -11   -1    0    0    0    0  0.00000000000E+00  0.00000000000E+00  0.45593999997E+02  0.45594000000E+02  0.51100000000E-03 0. -1.
         11   -1    0    0    0    0 -0.00000000000E+00 -0.00000000000E+00 -0.45593999997E+02  0.45594000000E+02  0.51100000000E-03 0.  1.
    9900012    2    1    2    0    0 -0.41782208402E+02 -0.78892929457E+01 -0.14870091687E+02  0.46142317533E+02  0.99999979171E+01 0.  0.
         12    1    1    2    0    0  0.41782208402E+02  0.78892929457E+01  0.14870091687E+02  0.45045682467E+02  0.00000000000E+00 0. -1.
         11    1    3    3    0    0 -0.24766356528E+02 -0.70716694457E+01 -0.62609972401E+01  0.26506244757E+02  0.51100000000E-03 0. -1.
        -11    1    3    3    0    0 -0.12842686893E+02  0.12998734962E+01 -0.55876760078E+01  0.14065788323E+02  0.51100000000E-03 0.  1.
         12    1    3    3    0    0 -0.41731649814E+01 -0.21174969961E+01 -0.30214184391E+01  0.55702844518E+01  0.00000000000E+00 0. -1.
</event>
<event>
 7    1  0.2297343E-008  0.4614233E+02  0.7816164E-02  0.1320468E+00
        -11   -1    0    0    0    0  0.00000000000E+00  0.00000000000E+00  0.45593999997E+02  0.45594000000E+02  0.51100000000E-03 0.  1.
         11   -1    0    0    0    0 -0.00000000000E+00 -0.00000000000E+00 -0.45593999997E+02  0.45594000000E+02  0.51100000000E-03 0. -1.
    9900012    2    1    2    0    0  0.10867818302E+02 -0.35779751356E+02  0.25115978561E+02  0.46142329167E+02  0.10000104007E+02 0.  0.
         12    1    1    2    0    0 -0.10867818302E+02  0.35779751356E+02 -0.25115978561E+02  0.45045670833E+02  0.00000000000E+00 0. -1.
         11    1    3    3    0    0  0.23291995601E+01 -0.43200623790E+01  0.60502955291E+01  0.77906473286E+01  0.51100000000E-03 0. -1.
        -11    1    3    3    0    0  0.59744865034E+01 -0.15560183619E+02  0.13016588285E+02  0.21148176614E+02  0.51100000000E-03 0.  1.
         12    1    3    3    0    0  0.25641322386E+01 -0.15899505357E+02  0.60490947467E+01  0.17203505224E+02  0.00000000000E+00 0. -1.
</event>
<event>
 7    1  0.2297343E-008  0.4614232E+02  0.7816164E-02  0.1320468E+00
        -11   -1    0    0    0    0  0.00000000000E+00  0.00000000000E+00  0.45593999997E+02  0.45594000000E+02  0.51100000000E-03 0.  1.
         11   -1    0    0    0    0 -0.00000000000E+00 -0.00000000000E+00 -0.45593999997E+02  0.45594000000E+02  0.51100000000E-03 0. -1.
    9900012    2    1    2    0    0  0.95429496164E+01  0.23489216441E+02  0.37233080484E+02  0.46142318090E+02  0.10000002998E+02 0.  0.
         12    1    1    2    0    0 -0.95429496164E+01 -0.23489216441E+02 -0.37233080484E+02  0.45045681910E+02  0.00000000000E+00 0. -1.
         11    1    3    3    0    0  0.51772142972E-01  0.24223405818E+01  0.26365927879E+01  0.35807870698E+01  0.51100000000E-03 0.  1.
        -11    1    3    3    0    0  0.22978787681E+00  0.88488940291E+01  0.83694264967E+01  0.12182078154E+02  0.51100000000E-03 0. -1.
        -12    1    3    3    0    0  0.92613895966E+01  0.12217981830E+02  0.26227061200E+02  0.30379452866E+02  0.00000000000E+00 0.  1.
</event>
<event>
 7    1  0.2297343E-008  0.4614232E+02  0.7816164E-02  0.1320468E+00
        -11   -1    0    0    0    0  0.00000000000E+00  0.00000000000E+00  0.45593999997E+02  0.45594000000E+02  0.51100000000E-03 0.  1.
         11   -1    0    0    0    0 -0.00000000000E+00 -0.00000000000E+00 -0.45593999997E+02  0.45594000000E+02  0.51100000000E-03 0. -1.
    9900012    2    1    2    0    0 -0.14807785851E+02 -0.33845615751E+02  0.25774351564E+02  0.46142318454E+02  0.10000006320E+02 0.  0.
         12    1    1    2    0    0  0.14807785851E+02  0.33845615751E+02 -0.25774351564E+02  0.45045681546E+02  0.00000000000E+00 0. -1.
         11    1    3    3    0    0 -0.28291560448E+01 -0.12848896449E+02  0.58397648540E+01  0.14394482196E+02  0.51100000000E-03 0.  1.
        -11    1    3    3    0    0 -0.86938439276E+01 -0.10432609548E+02  0.12131897354E+02  0.18210030146E+02  0.51100000000E-03 0. -1.
         12    1    3    3    0    0 -0.32847858786E+01 -0.10564109754E+02  0.78026893556E+01  0.13537806112E+02  0.00000000000E+00 0. -1.
</event>
<event>
 7    1  0.2297343E-008  0.4614232E+02  0.7816164E-02  0.1320468E+00
        -11   -1    0    0    0    0  0.00000000000E+00  0.00000000000E+00  0.45593999997E+02  0.45594000000E+02  0.51100000000E-03 0. -1.
         11   -1    0    0    0    0 -0.00000000000E+00 -0.00000000000E+00 -0.45593999997E+02  0.45594000000E+02  0.51100000000E-03 0.  1.
    9900012    2    1    2    0    0 -0.19768061043E+02 -0.39925143671E+02 -0.66573395614E+01  0.46142317581E+02  0.99999983616E+01 0.  0.
         12    1    1    2    0    0  0.19768061043E+02  0.39925143671E+02  0.66573395614E+01  0.45045682419E+02  0.00000000000E+00 0. -1.
         11    1    3    3    0    0 -0.72156817361E+01 -0.85117170307E+01 -0.69822934527E+00  0.11180470214E+02  0.51100000000E-03 0.  1.
        -11    1    3    3    0    0 -0.21058219617E+01 -0.20303157676E+01 -0.19610679372E+01  0.35217120788E+01  0.51100000000E-03 0. -1.
         12    1    3    3    0    0 -0.10446557345E+02 -0.29383110872E+02 -0.39980422789E+01  0.31440135289E+02  0.00000000000E+00 0. -1.
</event>
<event>
 7    1  0.2297343E-008  0.4614232E+02  0.7816164E-02  0.1320468E+00
        -11   -1    0    0    0    0  0.00000000000E+00  0.00000000000E+00  0.45593999997E+02  0.45594000000E+02  0.51100000000E-03 0.  1.
         11   -1    0    0    0    0 -0.00000000000E+00 -0.00000000000E+00 -0.45593999997E+02  0.45594000000E+02  0.51100000000E-03 0. -1.
    9900012    2    1    2    0    0 -0.21012970618E+02  0.78968489792E+01  0.39053915486E+02  0.46142317934E+02  0.10000001581E+02 0.  0.
         12    1    1    2    0    0  0.21012970618E+02 -0.78968489792E+01 -0.39053915486E+02  0.45045682066E+02  0.00000000000E+00 0. -1.
         11    1    3    3    0    0 -0.17227860115E+01 -0.55388717214E+00  0.14690157231E+01  0.23308346352E+01  0.51100000000E-03 0. -1.
        -11    1    3    3    0    0 -0.80012727406E+01 -0.62782639672E+00  0.13505570574E+02  0.15710345899E+02  0.51100000000E-03 0.  1.
         12    1    3    3    0    0 -0.11288911866E+02  0.90785625480E+01  0.24079329188E+02  0.28101137400E+02  0.00000000000E+00 0. -1.
</event>
<event>
 7    1  0.2297343E-008  0.4614232E+02  0.7816164E-02  0.1320468E+00
        -11   -1    0    0    0    0  0.00000000000E+00  0.00000000000E+00  0.45593999997E+02  0.45594000000E+02  0.51100000000E-03 0.  1.
         11   -1    0    0    0    0 -0.00000000000E+00 -0.00000000000E+00 -0.45593999997E+02  0.45594000000E+02  0.51100000000E-03 0. -1.
    9900012    2    1    2    0    0  0.92557714047E+01 -0.21875580967E+02  0.38274052116E+02  0.46142318605E+02  0.10000007698E+02 0.  0.
         12    1    1    2    0    0 -0.92557714047E+01  0.21875580967E+02 -0.38274052116E+02  0.45045681395E+02  0.00000000000E+00 0. -1.
         11    1    3    3    0    0 -0.16770878553E+01 -0.37989432754E+01  0.50461237412E+01  0.65351326503E+01  0.51100000000E-03 0. -1.
        -11    1    3    3    0    0  0.84096526607E+01 -0.11058445927E+02  0.18929151769E+02  0.23480295381E+02  0.51100000000E-03 0.  1.
        -12    1    3    3    0    0  0.25232065993E+01 -0.70181917646E+01  0.14298776605E+02  0.16126890574E+02  0.00000000000E+00 0.  1.
</event>
<event>
 7    1  0.2297343E-008  0.4614232E+02  0.7816164E-02  0.1320468E+00
        -11   -1    0    0    0    0  0.00000000000E+00  0.00000000000E+00  0.45593999997E+02  0.45594000000E+02  0.51100000000E-03 0.  1.
         11   -1    0    0    0    0 -0.00000000000E+00 -0.00000000000E+00 -0.45593999997E+02  0.45594000000E+02  0.51100000000E-03 0. -1.
    9900012    2    1    2    0    0 -0.22138761371E+02  0.29784695411E+02  0.25531561927E+02  0.46142317741E+02  0.99999998178E+01 0.  0.
         12    1    1    2    0    0  0.22138761371E+02 -0.29784695411E+02 -0.25531561927E+02  0.45045682259E+02  0.00000000000E+00 0. -1.
         11    1    3    3    0    0 -0.11959386480E+02  0.20883322710E+02  0.14246675306E+02  0.27966191194E+02  0.51100000000E-03 0. -1.
        -11    1    3    3    0    0 -0.10188970697E+02  0.87809084121E+01  0.96921675447E+01  0.16578829524E+02  0.51100000000E-03 0.  1.
        -12    1    3    3    0    0  0.95958061252E-02  0.12046428886E+00  0.15927190763E+01  0.15972970232E+01  0.00000000000E+00 0.  1.
</event>
<event>
 7    1  0.2297343E-008  0.4614232E+02  0.7816164E-02  0.1320468E+00
        -11   -1    0    0    0    0  0.00000000000E+00  0.00000000000E+00  0.45593999997E+02  0.45594000000E+02  0.51100000000E-03 0.  1.
         11   -1    0    0    0    0 -0.00000000000E+00 -0.00000000000E+00 -0.45593999997E+02  0.45594000000E+02  0.51100000000E-03 0. -1.
    9900012    2    1    2    0    0 -0.41470928347E+02  0.17355107991E+02  0.28417835035E+01  0.46142318688E+02  0.10000008454E+02 0.  0.
         12    1    1    2    0    0  0.41470928347E+02 -0.17355107991E+02 -0.28417835035E+01  0.45045681312E+02  0.00000000000E+00 0. -1.
         11    1    3    3    0    0 -0.15265409638E+02  0.51146583983E+01  0.34854025159E+01  0.16472416122E+02  0.51100000000E-03 0. -1.
        -11    1    3    3    0    0 -0.20264436466E+02  0.84789746808E+01 -0.31777921767E+01  0.22195467111E+02  0.51100000000E-03 0.  1.
         12    1    3    3    0    0 -0.59410822439E+01  0.37614749116E+01  0.25341731643E+01  0.74744354547E+01  0.00000000000E+00 0. -1.
</event>
<event>
 7    1  0.2297343E-008  0.4614232E+02  0.7816164E-02  0.1320468E+00
        -11   -1    0    0    0    0  0.00000000000E+00  0.00000000000E+00  0.45593999997E+02  0.45594000000E+02  0.51100000000E-03 0. -1.
         11   -1    0    0    0    0 -0.00000000000E+00 -0.00000000000E+00 -0.45593999997E+02  0.45594000000E+02  0.51100000000E-03 0.  1.
    9900012    2    1    2    0    0 -0.42282010797E+02 -0.45205191369E+01 -0.14863037999E+02  0.46142318421E+02  0.10000006022E+02 0.  0.
         12    1    1    2    0    0  0.42282010797E+02  0.45205191369E+01  0.14863037999E+02  0.45045681579E+02  0.00000000000E+00 0. -1.
         11    1    3    3    0    0 -0.15429458155E+01 -0.11543794472E+01 -0.25772915934E+01  0.32180282653E+01  0.51100000000E-03 0. -1.
        -11    1    3    3    0    0 -0.21408103317E+02 -0.10862863158E+01 -0.86894134851E+01  0.23129911642E+02  0.51100000000E-03 0.  1.
         12    1    3    3    0    0 -0.19330961664E+02 -0.22798533739E+01 -0.35963329201E+01  0.19794378514E+02  0.00000000000E+00 0. -1.
</event>
<event>
 7    1  0.2297343E-008  0.4614232E+02  0.7816164E-02  0.1320468E+00
        -11   -1    0    0    0    0  0.00000000000E+00  0.00000000000E+00  0.45593999997E+02  0.45594000000E+02  0.51100000000E-03 0.  1.
         11   -1    0    0    0    0 -0.00000000000E+00 -0.00000000000E+00 -0.45593999997E+02  0.45594000000E+02  0.51100000000E-03 0. -1.
    9900012    2    1    2    0    0  0.57202093395E+00 -0.61725377499E+01  0.44617105317E+02  0.46142317443E+02  0.99999970960E+01 0.  0.
         12    1    1    2    0    0 -0.57202093395E+00  0.61725377499E+01 -0.44617105317E+02  0.45045682557E+02  0.00000000000E+00 0. -1.
         11    1    3    3    0    0  0.16001456139E+01  0.20804720739E+00  0.34217860193E+01  0.37831692335E+01  0.51100000000E-03 0. -1.
        -11    1    3    3    0    0 -0.24793385589E+01  0.45373310134E+00  0.16617637844E+02  0.16807703032E+02  0.51100000000E-03 0.  1.
        -12    1    3    3    0    0  0.14512138789E+01 -0.68343180586E+01  0.24577681453E+02  0.25551445177E+02  0.00000000000E+00 0.  1.
</event>
<event>
 7    1  0.2297343E-008  0.4614232E+02  0.7816164E-02  0.1320468E+00
        -11   -1    0    0    0    0  0.00000000000E+00  0.00000000000E+00  0.45593999997E+02  0.45594000000E+02  0.51100000000E-03 0.  1.
         11   -1    0    0    0    0 -0.00000000000E+00 -0.00000000000E+00 -0.45593999997E+02  0.45594000000E+02  0.51100000000E-03 0. -1.
    9900012    2    1    2    0    0  0.16395257030E+02  0.41722547443E+02  0.44201977156E+01  0.46142316899E+02  0.99999921393E+01 0.  0.
         12    1    1    2    0    0 -0.16395257030E+02 -0.41722547443E+02 -0.44201977156E+01  0.45045683101E+02  0.00000000000E+00 0. -1.
         11    1    3    3    0    0  0.47591575556E+01  0.48780592683E+01 -0.65649358816E-01  0.68153762159E+01  0.51100000000E-03 0.  1.
        -11    1    3    3    0    0  0.58330335483E+00  0.22511444824E+01  0.17452003963E+01  0.29075107856E+01  0.51100000000E-03 0. -1.
        -12    1    3    3    0    0  0.11052796120E+02  0.34593343692E+02  0.27406466782E+01  0.36419429898E+02  0.00000000000E+00 0.  1.
</event>
<event>
 7    1  0.2297343E-008  0.4614232E+02  0.7816164E-02  0.1320468E+00
        -11   -1    0    0    0    0  0.00000000000E+00  0.00000000000E+00  0.45593999997E+02  0.45594000000E+02  0.51100000000E-03 0.  1.
         11   -1    0    0    0    0 -0.00000000000E+00 -0.00000000000E+00 -0.45593999997E+02  0.45594000000E+02  0.51100000000E-03 0. -1.
    9900012    2    1    2    0    0  0.40247718631E+02 -0.18647791129E+02  0.78418479562E+01  0.46142317095E+02  0.99999939227E+01 0.  0.
         12    1    1    2    0    0 -0.40247718631E+02  0.18647791129E+02 -0.78418479562E+01  0.45045682905E+02  0.00000000000E+00 0. -1.
         11    1    3    3    0    0 -0.11232397204E+00 -0.22824811291E+00 -0.36533432130E+00  0.44517783321E+00  0.51100000000E-03 0. -1.
        -11    1    3    3    0    0  0.84025742484E+01 -0.59664155388E+01  0.43389530647E+01  0.11181586754E+02  0.51100000000E-03 0.  1.
        -12    1    3    3    0    0  0.31957468355E+02 -0.12453127478E+02  0.38682292128E+01  0.34515552507E+02  0.00000000000E+00 0.  1.
</event>
<event>
 7    1  0.2297343E-008  0.4614232E+02  0.7816164E-02  0.1320468E+00
        -11   -1    0    0    0    0  0.00000000000E+00  0.00000000000E+00  0.45593999997E+02  0.45594000000E+02  0.51100000000E-03 0.  1.
         11   -1    0    0    0    0 -0.00000000000E+00 -0.00000000000E+00 -0.45593999997E+02  0.45594000000E+02  0.51100000000E-03 0. -1.
    9900012    2    1    2    0    0 -0.27890145298E+01 -0.54177616190E+01  0.44631632605E+02  0.46142319052E+02  0.10000011776E+02 0.  0.
         12    1    1    2    0    0  0.27890145298E+01  0.54177616190E+01 -0.44631632605E+02  0.45045680948E+02  0.00000000000E+00 0. -1.
         11    1    3    3    0    0  0.13533651671E+00  0.16025521216E+01  0.14100118234E+02  0.14191540570E+02  0.51100000000E-03 0. -1.
        -11    1    3    3    0    0  0.15382204628E+01 -0.21210545451E+01  0.61541502946E+01  0.66886890109E+01  0.51100000000E-03 0.  1.
         12    1    3    3    0    0 -0.44625715093E+01 -0.48992591955E+01  0.24377364077E+02  0.25262089472E+02  0.00000000000E+00 0. -1.
</event>
<event>
 7    1  0.2297343E-008  0.4614232E+02  0.7816164E-02  0.1320468E+00
        -11   -1    0    0    0    0  0.00000000000E+00  0.00000000000E+00  0.45593999997E+02  0.45594000000E+02  0.51100000000E-03 0.  1.
         11   -1    0    0    0    0 -0.00000000000E+00 -0.00000000000E+00 -0.45593999997E+02  0.45594000000E+02  0.51100000000E-03 0. -1.
    9900012    2    1    2    0    0 -0.18580937836E+02  0.40981868007E+02 -0.20853579417E+01  0.46142317922E+02  0.10000001463E+02 0.  0.
         12    1    1    2    0    0  0.18580937836E+02 -0.40981868007E+02  0.20853579417E+01  0.45045682078E+02  0.00000000000E+00 0. -1.
         11    1    3    3    0    0 -0.12081927654E+02  0.25257890719E+02 -0.55198561179E+01  0.28537743976E+02  0.51100000000E-03 0. -1.
        -11    1    3    3    0    0 -0.19274906504E+01  0.30582619807E+01  0.18058782814E+01  0.40409631498E+01  0.51100000000E-03 0.  1.
         12    1    3    3    0    0 -0.45715195314E+01  0.12665715307E+02  0.16286198947E+01  0.13563610796E+02  0.00000000000E+00 0. -1.
</event>
<event>
 7    1  0.2297343E-008  0.4614232E+02  0.7816164E-02  0.1320468E+00
        -11   -1    0    0    0    0  0.00000000000E+00  0.00000000000E+00  0.45593999997E+02  0.45594000000E+02  0.51100000000E-03 0. -1.
         11   -1    0    0    0    0 -0.00000000000E+00 -0.00000000000E+00 -0.45593999997E+02  0.45594000000E+02  0.51100000000E-03 0.  1.
    9900012    2    1    2    0    0 -0.26430192181E+02 -0.34930938325E+02 -0.10506569120E+02  0.46142317569E+02  0.99999982467E+01 0.  0.
         12    1    1    2    0    0  0.26430192181E+02  0.34930938325E+02  0.10506569120E+02  0.45045682431E+02  0.00000000000E+00 0. -1.
         11    1    3    3    0    0  0.31612701979E-01 -0.61886413371E-01  0.49598072801E+00  0.50082575289E+00  0.51100000000E-03 0. -1.
        -11    1    3    3    0    0 -0.26055159732E+02 -0.32327103363E+02 -0.92811731960E+01  0.42544719257E+02  0.51100000000E-03 0.  1.
        -12    1    3    3    0    0 -0.40664515112E+00 -0.25419485494E+01 -0.17213766517E+01  0.30967725592E+01  0.00000000000E+00 0.  1.
</event>
<event>
 7    1  0.2297343E-008  0.4614232E+02  0.7816164E-02  0.1320468E+00
        -11   -1    0    0    0    0  0.00000000000E+00  0.00000000000E+00  0.45593999997E+02  0.45594000000E+02  0.51100000000E-03 0.  1.
         11   -1    0    0    0    0 -0.00000000000E+00 -0.00000000000E+00 -0.45593999997E+02  0.45594000000E+02  0.51100000000E-03 0. -1.
    9900012    2    1    2    0    0 -0.28786528679E+02 -0.96357761261E+01  0.33280641753E+02  0.46142317294E+02  0.99999957400E+01 0.  0.
         12    1    1    2    0    0  0.28786528679E+02  0.96357761261E+01 -0.33280641753E+02  0.45045682706E+02  0.00000000000E+00 0. -1.
         11    1    3    3    0    0 -0.98252181324E+01 -0.36455474924E+01  0.97853895289E+01  0.14338018565E+02  0.51100000000E-03 0. -1.
        -11    1    3    3    0    0 -0.18506590555E+02 -0.42356300651E+01  0.18574128261E+02  0.26559983000E+02  0.51100000000E-03 0.  1.
         12    1    3    3    0    0 -0.45471999132E+00 -0.17545985686E+01  0.49211239631E+01  0.52443157292E+01  0.00000000000E+00 0. -1.
</event>
<event>
 7    1  0.2297343E-008  0.4614232E+02  0.7816164E-02  0.1320468E+00
        -11   -1    0    0    0    0  0.00000000000E+00  0.00000000000E+00  0.45593999997E+02  0.45594000000E+02  0.51100000000E-03 0.  1.
         11   -1    0    0    0    0 -0.00000000000E+00 -0.00000000000E+00 -0.45593999997E+02  0.45594000000E+02  0.51100000000E-03 0. -1.
    9900012    2    1    2    0    0  0.14253778766E+02 -0.14354526279E+02  0.40247866440E+02  0.46142318889E+02  0.10000010284E+02 0.  0.
         12    1    1    2    0    0 -0.14253778766E+02  0.14354526279E+02 -0.40247866440E+02  0.45045681111E+02  0.00000000000E+00 0. -1.
         11    1    3    3    0    0  0.23022026817E+01 -0.66716547787E+01  0.17348015686E+02  0.18728714937E+02  0.51100000000E-03 0. -1.
        -11    1    3    3    0    0  0.89253600238E+00 -0.20535782522E+01  0.63142235905E+01  0.66994943067E+01  0.51100000000E-03 0.  1.
         12    1    3    3    0    0  0.11059040082E+02 -0.56292932482E+01  0.16585627163E+02  0.20714109646E+02  0.00000000000E+00 0. -1.
</event>
<event>
 7    1  0.2297343E-008  0.4614232E+02  0.7816164E-02  0.1320468E+00
        -11   -1    0    0    0    0  0.00000000000E+00  0.00000000000E+00  0.45593999997E+02  0.45594000000E+02  0.51100000000E-03 0. -1.
         11   -1    0    0    0    0 -0.00000000000E+00 -0.00000000000E+00 -0.45593999997E+02  0.45594000000E+02  0.51100000000E-03 0.  1.
    9900012    2    1    2    0    0  0.28582301789E+02  0.33674966082E+02 -0.88409366639E+01  0.46142317884E+02  0.10000001124E+02 0.  0.
         12    1    1    2    0    0 -0.28582301789E+02 -0.33674966082E+02  0.88409366639E+01  0.45045682116E+02  0.00000000000E+00 0. -1.
         11    1    3    3    0    0  0.14604633244E+01  0.14333415291E+01 -0.26113667360E+01  0.33176283022E+01  0.51100000000E-03 0. -1.
        -11    1    3    3    0    0  0.14015392839E+02  0.19084151286E+02 -0.50876848086E+01  0.24218187457E+02  0.51100000000E-03 0.  1.
         12    1    3    3    0    0  0.13106445626E+02  0.13157473267E+02 -0.11418851194E+01  0.18606502126E+02  0.00000000000E+00 0. -1.
</event>
<event>
 7    1  0.2297343E-008  0.4614232E+02  0.7816164E-02  0.1320468E+00
        -11   -1    0    0    0    0  0.00000000000E+00  0.00000000000E+00  0.45593999997E+02  0.45594000000E+02  0.51100000000E-03 0.  1.
         11   -1    0    0    0    0 -0.00000000000E+00 -0.00000000000E+00 -0.45593999997E+02  0.45594000000E+02  0.51100000000E-03 0. -1.
    9900012    2    1    2    0    0  0.21221095153E+02 -0.10221378122E+02  0.38396640789E+02  0.46142317920E+02  0.10000001444E+02 0.  0.
         12    1    1    2    0    0 -0.21221095153E+02  0.10221378122E+02 -0.38396640789E+02  0.45045682080E+02  0.00000000000E+00 0. -1.
         11    1    3    3    0    0  0.56348406448E+01 -0.17801571441E+01  0.14809247649E+02  0.15944723414E+02  0.51100000000E-03 0. -1.
        -11    1    3    3    0    0  0.38586370500E+01 -0.19835963050E+01  0.19578575301E+01  0.47599307300E+01  0.51100000000E-03 0.  1.
        -12    1    3    3    0    0  0.11727617458E+02 -0.64576246733E+01  0.21629535610E+02  0.25437663775E+02  0.00000000000E+00 0.  1.
</event>
<event>
 7    1  0.2297343E-008  0.4614232E+02  0.7816164E-02  0.1320468E+00
        -11   -1    0    0    0    0  0.00000000000E+00  0.00000000000E+00  0.45593999997E+02  0.45594000000E+02  0.51100000000E-03 0. -1.
         11   -1    0    0    0    0 -0.00000000000E+00 -0.00000000000E+00 -0.45593999997E+02  0.45594000000E+02  0.51100000000E-03 0.  1.
    9900012    2    1    2    0    0 -0.43592745586E+01  0.27525598903E+02 -0.35389995805E+02  0.46142315714E+02  0.99999813357E+01 0.  0.
         12    1    1    2    0    0  0.43592745586E+01 -0.27525598903E+02  0.35389995805E+02  0.45045684286E+02  0.00000000000E+00 0. -1.
         11    1    3    3    0    0 -0.37807912136E-01 -0.48968373406E+00 -0.22076837544E+00  0.53847797943E+00  0.51100000000E-03 0. -1.
        -11    1    3    3    0    0  0.71698254646E+00  0.13394611764E+02 -0.18683892562E+02  0.23000381080E+02  0.51100000000E-03 0.  1.
        -12    1    3    3    0    0 -0.50384491929E+01  0.14620670873E+02 -0.16485334868E+02  0.22603456655E+02  0.00000000000E+00 0.  1.
</event>
<event>
 7    1  0.2297343E-008  0.4614232E+02  0.7816164E-02  0.1320468E+00
        -11   -1    0    0    0    0  0.00000000000E+00  0.00000000000E+00  0.45593999997E+02  0.45594000000E+02  0.51100000000E-03 0.  1.
         11   -1    0    0    0    0 -0.00000000000E+00 -0.00000000000E+00 -0.45593999997E+02  0.45594000000E+02  0.51100000000E-03 0. -1.
    9900012    2    1    2    0    0  0.18386568187E+02  0.27105145954E+02  0.30925048835E+02  0.46142317939E+02  0.10000001619E+02 0.  0.
         12    1    1    2    0    0 -0.18386568187E+02 -0.27105145954E+02 -0.30925048835E+02  0.45045682061E+02  0.00000000000E+00 0. -1.
         11    1    3    3    0    0  0.70444926159E+01  0.73341849941E+01  0.71675707063E+01  0.12441431422E+02  0.51100000000E-03 0.  1.
        -11    1    3    3    0    0  0.72890941691E+00  0.80775810334E+01  0.79527107780E+01  0.11358883452E+02  0.51100000000E-03 0. -1.
         12    1    3    3    0    0  0.10613166154E+02  0.11693379927E+02  0.15804767351E+02  0.22342003065E+02  0.00000000000E+00 0. -1.
</event>
<event>
 7    1  0.2297343E-008  0.4614232E+02  0.7816164E-02  0.1320468E+00
        -11   -1    0    0    0    0  0.00000000000E+00  0.00000000000E+00  0.45593999997E+02  0.45594000000E+02  0.51100000000E-03 0.  1.
         11   -1    0    0    0    0 -0.00000000000E+00 -0.00000000000E+00 -0.45593999997E+02  0.45594000000E+02  0.51100000000E-03 0. -1.
    9900012    2    1    2    0    0  0.19805839846E+02 -0.25852991898E+02  0.31120168900E+02  0.46142318804E+02  0.10000009506E+02 0.  0.
         12    1    1    2    0    0 -0.19805839846E+02  0.25852991898E+02 -0.31120168900E+02  0.45045681196E+02  0.00000000000E+00 0. -1.
         11    1    3    3    0    0  0.77825012410E+00 -0.43664031118E+00  0.36582249292E+01  0.37654930501E+01  0.51100000000E-03 0. -1.
        -11    1    3    3    0    0  0.10148435494E+01 -0.15748955667E+01  0.38894627249E+01  0.43171893664E+01  0.51100000000E-03 0.  1.
        -12    1    3    3    0    0  0.18012746172E+02 -0.23841456020E+02  0.23572481246E+02  0.38059636387E+02  0.00000000000E+00 0.  1.
</event>
<event>
 7    1  0.2297343E-008  0.4614232E+02  0.7816164E-02  0.1320468E+00
        -11   -1    0    0    0    0  0.00000000000E+00  0.00000000000E+00  0.45593999997E+02  0.45594000000E+02  0.51100000000E-03 0.  1.
         11   -1    0    0    0    0 -0.00000000000E+00 -0.00000000000E+00 -0.45593999997E+02  0.45594000000E+02  0.51100000000E-03 0. -1.
    9900012    2    1    2    0    0  0.11251815314E+02 -0.17887909846E+02  0.39781060982E+02  0.46142317861E+02  0.10000000908E+02 0.  0.
         12    1    1    2    0    0 -0.11251815314E+02  0.17887909846E+02 -0.39781060982E+02  0.45045682139E+02  0.00000000000E+00 0. -1.
         11    1    3    3    0    0 -0.10525964776E+01 -0.17713965581E+00  0.95550436868E+00  0.14325943815E+01  0.51100000000E-03 0. -1.
        -11    1    3    3    0    0  0.71150586348E+00 -0.43740418302E+01  0.92599459595E+01  0.10265723645E+02  0.51100000000E-03 0.  1.
        -12    1    3    3    0    0  0.11592905929E+02 -0.13336728360E+02  0.29565610654E+02  0.34443999834E+02  0.00000000000E+00 0.  1.
</event>
<event>
 7    1  0.2297343E-008  0.4614232E+02  0.7816164E-02  0.1320468E+00
        -11   -1    0    0    0    0  0.00000000000E+00  0.00000000000E+00  0.45593999997E+02  0.45594000000E+02  0.51100000000E-03 0.  1.
         11   -1    0    0    0    0 -0.00000000000E+00 -0.00000000000E+00 -0.45593999997E+02  0.45594000000E+02  0.51100000000E-03 0. -1.
    9900012    2    1    2    0    0  0.10550308369E+02 -0.43370962401E+02 -0.60633403973E+01  0.46142317820E+02  0.10000000541E+02 0.  0.
         12    1    1    2    0    0 -0.10550308369E+02  0.43370962401E+02  0.60633403973E+01  0.45045682180E+02  0.00000000000E+00 0. -1.
         11    1    3    3    0    0  0.11995530997E+01 -0.88986520080E+01  0.10303711269E+01  0.90380639586E+01  0.51100000000E-03 0. -1.
        -11    1    3    3    0    0  0.44126898980E+01 -0.11895482234E+02  0.72143947006E+00  0.12708060627E+02  0.51100000000E-03 0.  1.
        -12    1    3    3    0    0  0.49380653717E+01 -0.22576828158E+02 -0.78151509943E+01  0.24396193235E+02  0.00000000000E+00 0.  1.
</event>
<event>
 7    1  0.2297343E-008  0.4614231E+02  0.7816164E-02  0.1320468E+00
        -11   -1    0    0    0    0  0.00000000000E+00  0.00000000000E+00  0.45593999997E+02  0.45594000000E+02  0.51100000000E-03 0. -1.
         11   -1    0    0    0    0 -0.00000000000E+00 -0.00000000000E+00 -0.45593999997E+02  0.45594000000E+02  0.51100000000E-03 0.  1.
    9900012    2    1    2    0    0 -0.26840029841E+02  0.29786685605E+02 -0.20529984949E+02  0.46142310714E+02  0.99999357428E+01 0.  0.
         12    1    1    2    0    0  0.26840029841E+02 -0.29786685605E+02  0.20529984949E+02  0.45045689286E+02  0.00000000000E+00 0. -1.
         11    1    3    3    0    0 -0.55734447392E+01  0.12301262999E+02 -0.58486984601E+01  0.14717052408E+02  0.51100000000E-03 0.  1.
        -11    1    3    3    0    0 -0.71122237576E+01  0.42537964886E+01 -0.57723231186E+01  0.10099417102E+02  0.51100000000E-03 0. -1.
        -12    1    3    3    0    0 -0.14154361344E+02  0.13231626117E+02 -0.89089633707E+01  0.21325841205E+02  0.00000000000E+00 0.  1.
</event>
<event>
 7    1  0.2297343E-008  0.4614232E+02  0.7816164E-02  0.1320468E+00
        -11   -1    0    0    0    0  0.00000000000E+00  0.00000000000E+00  0.45593999997E+02  0.45594000000E+02  0.51100000000E-03 0. -1.
         11   -1    0    0    0    0 -0.00000000000E+00 -0.00000000000E+00 -0.45593999997E+02  0.45594000000E+02  0.51100000000E-03 0.  1.
    9900012    2    1    2    0    0 -0.39489400380E+02 -0.16735774662E+02  0.13770069584E+02  0.46142315276E+02  0.99999773393E+01 0.  0.
         12    1    1    2    0    0  0.39489400380E+02  0.16735774662E+02 -0.13770069584E+02  0.45045684724E+02  0.00000000000E+00 0. -1.
         11    1    3    3    0    0 -0.74640003248E+01 -0.18813690023E+01  0.32963298377E+01  0.83735679869E+01  0.51100000000E-03 0. -1.
        -11    1    3    3    0    0 -0.28095502602E+02 -0.10912012179E+02  0.62505130539E+01  0.30781458542E+02  0.51100000000E-03 0.  1.
        -12    1    3    3    0    0 -0.39298974533E+01 -0.39423934804E+01  0.42232266921E+01  0.69872887475E+01  0.00000000000E+00 0.  1.
</event>
<event>
 7    1  0.2297343E-008  0.4614232E+02  0.7816164E-02  0.1320468E+00
        -11   -1    0    0    0    0  0.00000000000E+00  0.00000000000E+00  0.45593999997E+02  0.45594000000E+02  0.51100000000E-03 0. -1.
         11   -1    0    0    0    0 -0.00000000000E+00 -0.00000000000E+00 -0.45593999997E+02  0.45594000000E+02  0.51100000000E-03 0.  1.
    9900012    2    1    2    0    0 -0.74793243934E+01 -0.21421112587E+02 -0.38914124418E+02  0.46142318331E+02  0.10000005196E+02 0.  0.
         12    1    1    2    0    0  0.74793243934E+01  0.21421112587E+02  0.38914124418E+02  0.45045681669E+02  0.00000000000E+00 0. -1.
         11    1    3    3    0    0  0.19677408290E+01 -0.33418853883E+01 -0.44629731394E+01  0.59125570968E+01  0.51100000000E-03 0. -1.
        -11    1    3    3    0    0 -0.49445381419E+01 -0.12747782954E+02 -0.24807951231E+02  0.28326469462E+02  0.51100000000E-03 0.  1.
        -12    1    3    3    0    0 -0.45025270806E+01 -0.53314442446E+01 -0.96432000476E+01  0.11903291772E+02  0.00000000000E+00 0.  1.
</event>
<event>
 7    1  0.2297343E-008  0.4614232E+02  0.7816164E-02  0.1320468E+00
        -11   -1    0    0    0    0  0.00000000000E+00  0.00000000000E+00  0.45593999997E+02  0.45594000000E+02  0.51100000000E-03 0.  1.
         11   -1    0    0    0    0 -0.00000000000E+00 -0.00000000000E+00 -0.45593999997E+02  0.45594000000E+02  0.51100000000E-03 0. -1.
    9900012    2    1    2    0    0  0.35418271357E+02 -0.25278846951E+02  0.11646434673E+02  0.46142317746E+02  0.99999998639E+01 0.  0.
         12    1    1    2    0    0 -0.35418271357E+02  0.25278846951E+02 -0.11646434673E+02  0.45045682254E+02  0.00000000000E+00 0. -1.
         11    1    3    3    0    0  0.16584829232E+02 -0.14178036923E+02  0.27575893030E+01  0.21992671294E+02  0.51100000000E-03 0. -1.
        -11    1    3    3    0    0  0.10894732520E+02 -0.91386101330E+01  0.48120955069E+01  0.15012183561E+02  0.51100000000E-03 0.  1.
         12    1    3    3    0    0  0.79387096058E+01 -0.19621998950E+01  0.40767498634E+01  0.91374628909E+01  0.00000000000E+00 0. -1.
</event>
<event>
 7    1  0.2297343E-008  0.4614232E+02  0.7816164E-02  0.1320468E+00
        -11   -1    0    0    0    0  0.00000000000E+00  0.00000000000E+00  0.45593999997E+02  0.45594000000E+02  0.51100000000E-03 0.  1.
         11   -1    0    0    0    0 -0.00000000000E+00 -0.00000000000E+00 -0.45593999997E+02  0.45594000000E+02  0.51100000000E-03 0. -1.
    9900012    2    1    2    0    0  0.13119995612E+02 -0.32766916747E+02  0.27987647853E+02  0.46142317074E+02  0.99999937348E+01 0.  0.
         12    1    1    2    0    0 -0.13119995612E+02  0.32766916747E+02 -0.27987647853E+02  0.45045682926E+02  0.00000000000E+00 0. -1.
         11    1    3    3    0    0  0.68676242808E+01 -0.19970441827E+02  0.16811926439E+02  0.26993030228E+02  0.51100000000E-03 0. -1.
        -11    1    3    3    0    0  0.15603212883E+01 -0.91066458163E+01  0.86879540017E+01  0.12682513376E+02  0.51100000000E-03 0.  1.
         12    1    3    3    0    0  0.46920500424E+01 -0.36898291041E+01  0.24877674116E+01  0.64667734700E+01  0.00000000000E+00 0. -1.
</event>
<event>
 7    1  0.2297343E-008  0.4614232E+02  0.7816164E-02  0.1320468E+00
        -11   -1    0    0    0    0  0.00000000000E+00  0.00000000000E+00  0.45593999997E+02  0.45594000000E+02  0.51100000000E-03 0.  1.
         11   -1    0    0    0    0 -0.00000000000E+00 -0.00000000000E+00 -0.45593999997E+02  0.45594000000E+02  0.51100000000E-03 0. -1.
    9900012    2    1    2    0    0 -0.42334617668E+02  0.26708575253E+01  0.15157840990E+02  0.46142317893E+02  0.10000001201E+02 0.  0.
         12    1    1    2    0    0  0.42334617668E+02 -0.26708575253E+01 -0.15157840990E+02  0.45045682107E+02  0.00000000000E+00 0. -1.
         11    1    3    3    0    0 -0.23537948490E+02  0.22919397369E+01  0.83914563872E+01  0.25093914549E+02  0.51100000000E-03 0.  1.
        -11    1    3    3    0    0 -0.12208737595E+02  0.20964510691E+01  0.70148200495E+01  0.14235732553E+02  0.51100000000E-03 0. -1.
        -12    1    3    3    0    0 -0.65879315838E+01 -0.17175332807E+01 -0.24843544657E+00  0.68126707901E+01  0.00000000000E+00 0.  1.
</event>
<event>
 7    1  0.2297343E-008  0.4614232E+02  0.7816164E-02  0.1320468E+00
        -11   -1    0    0    0    0  0.00000000000E+00  0.00000000000E+00  0.45593999997E+02  0.45594000000E+02  0.51100000000E-03 0.  1.
         11   -1    0    0    0    0 -0.00000000000E+00 -0.00000000000E+00 -0.45593999997E+02  0.45594000000E+02  0.51100000000E-03 0. -1.
    9900012    2    1    2    0    0  0.42138985385E+02 -0.12618532813E+02  0.97052577887E+01  0.46142317761E+02  0.99999999964E+01 0.  0.
         12    1    1    2    0    0 -0.42138985385E+02  0.12618532813E+02 -0.97052577887E+01  0.45045682239E+02  0.00000000000E+00 0. -1.
         11    1    3    3    0    0  0.20105982895E+01 -0.53098038325E+00  0.24172042952E+01  0.31886239218E+01  0.51100000000E-03 0. -1.
        -11    1    3    3    0    0  0.89526289355E+01 -0.22536825589E+01  0.41233340943E+01  0.10110911643E+02  0.51100000000E-03 0.  1.
        -12    1    3    3    0    0  0.31175758160E+02 -0.98338698708E+01  0.31647193993E+01  0.32842782196E+02  0.00000000000E+00 0.  1.
</event>
<event>
 7    1  0.2297343E-008  0.4614231E+02  0.7816164E-02  0.1320468E+00
        -11   -1    0    0    0    0  0.00000000000E+00  0.00000000000E+00  0.45593999997E+02  0.45594000000E+02  0.51100000000E-03 0. -1.
         11   -1    0    0    0    0 -0.00000000000E+00 -0.00000000000E+00 -0.45593999997E+02  0.45594000000E+02  0.51100000000E-03 0.  1.
    9900012    2    1    2    0    0 -0.71971414668E+01  0.42426344261E+02  0.13316184373E+02  0.46142308765E+02  0.99999179633E+01 0.  0.
         12    1    1    2    0    0  0.71971414668E+01 -0.42426344261E+02 -0.13316184373E+02  0.45045691235E+02  0.00000000000E+00 0. -1.
         11    1    3    3    0    0 -0.68283910807E+00  0.50920485359E+01  0.35968082011E+01  0.62715434334E+01  0.51100000000E-03 0. -1.
        -11    1    3    3    0    0 -0.34197673933E+01  0.43520043215E+01  0.16376127106E+01  0.57720469757E+01  0.51100000000E-03 0.  1.
        -12    1    3    3    0    0 -0.30945349654E+01  0.32982291403E+02  0.80817634611E+01  0.34098718356E+02  0.00000000000E+00 0.  1.
</event>
<event>
 7    1  0.2297343E-008  0.4614232E+02  0.7816164E-02  0.1320468E+00
        -11   -1    0    0    0    0  0.00000000000E+00  0.00000000000E+00  0.45593999997E+02  0.45594000000E+02  0.51100000000E-03 0.  1.
         11   -1    0    0    0    0 -0.00000000000E+00 -0.00000000000E+00 -0.45593999997E+02  0.45594000000E+02  0.51100000000E-03 0. -1.
    9900012    2    1    2    0    0  0.29149851989E+02  0.15577033599E+00  0.34342035798E+02  0.46142316987E+02  0.99999929381E+01 0.  0.
         12    1    1    2    0    0 -0.29149851989E+02 -0.15577033599E+00 -0.34342035798E+02  0.45045683013E+02  0.00000000000E+00 0. -1.
         11    1    3    3    0    0  0.39065466605E+01  0.74557234098E+00  0.66339438565E+01  0.77347395740E+01  0.51100000000E-03 0.  1.
        -11    1    3    3    0    0  0.16268819077E+02  0.76971227969E+00  0.11872334201E+02  0.20154881562E+02  0.51100000000E-03 0. -1.
        -12    1    3    3    0    0  0.89744862507E+01 -0.13595142847E+01  0.15835757741E+02  0.18252695850E+02  0.00000000000E+00 0.  1.
</event>
<event>
 7    1  0.2297343E-008  0.4614232E+02  0.7816164E-02  0.1320468E+00
        -11   -1    0    0    0    0  0.00000000000E+00  0.00000000000E+00  0.45593999997E+02  0.45594000000E+02  0.51100000000E-03 0. -1.
         11   -1    0    0    0    0 -0.00000000000E+00 -0.00000000000E+00 -0.45593999997E+02  0.45594000000E+02  0.51100000000E-03 0.  1.
    9900012    2    1    2    0    0 -0.61945067473E+01  0.21774120009E+02 -0.38943923635E+02  0.46142318696E+02  0.10000008528E+02 0.  0.
         12    1    1    2    0    0  0.61945067473E+01 -0.21774120009E+02  0.38943923635E+02  0.45045681304E+02  0.00000000000E+00 0. -1.
         11    1    3    3    0    0 -0.22504610108E+01  0.50277314966E+01 -0.95470610823E+01  0.11022206419E+02  0.51100000000E-03 0. -1.
        -11    1    3    3    0    0 -0.10924903760E+01  0.12865920766E+02 -0.26556805998E+02  0.29529466596E+02  0.51100000000E-03 0.  1.
        -12    1    3    3    0    0 -0.28515553604E+01  0.38804677464E+01 -0.28400565554E+01  0.55906456820E+01  0.00000000000E+00 0.  1.
</event>
<event>
 7    1  0.2297343E-008  0.4614232E+02  0.7816164E-02  0.1320468E+00
        -11   -1    0    0    0    0  0.00000000000E+00  0.00000000000E+00  0.45593999997E+02  0.45594000000E+02  0.51100000000E-03 0.  1.
         11   -1    0    0    0    0 -0.00000000000E+00 -0.00000000000E+00 -0.45593999997E+02  0.45594000000E+02  0.51100000000E-03 0. -1.
    9900012    2    1    2    0    0  0.60098864461E+01  0.41752896507E+02  0.15801591647E+02  0.46142318737E+02  0.10000008901E+02 0.  0.
         12    1    1    2    0    0 -0.60098864461E+01 -0.41752896507E+02 -0.15801591647E+02  0.45045681263E+02  0.00000000000E+00 0. -1.
         11    1    3    3    0    0  0.41276719033E-01  0.27171624311E+02  0.12414565922E+02  0.29873404874E+02  0.51100000000E-03 0. -1.
        -11    1    3    3    0    0  0.31296085501E+01  0.10288398574E+02  0.19960167485E+01  0.10937535281E+02  0.51100000000E-03 0.  1.
         12    1    3    3    0    0  0.28390011769E+01  0.42928736222E+01  0.13910089768E+01  0.53313785827E+01  0.00000000000E+00 0. -1.
</event>
<event>
 7    1  0.2297343E-008  0.4614232E+02  0.7816164E-02  0.1320468E+00
        -11   -1    0    0    0    0  0.00000000000E+00  0.00000000000E+00  0.45593999997E+02  0.45594000000E+02  0.51100000000E-03 0.  1.
         11   -1    0    0    0    0 -0.00000000000E+00 -0.00000000000E+00 -0.45593999997E+02  0.45594000000E+02  0.51100000000E-03 0. -1.
    9900012    2    1    2    0    0 -0.13926678099E+02 -0.43101864364E+00  0.42836611666E+02  0.46142318310E+02  0.10000005004E+02 0.  0.
         12    1    1    2    0    0  0.13926678099E+02  0.43101864364E+00 -0.42836611666E+02  0.45045681690E+02  0.00000000000E+00 0. -1.
         11    1    3    3    0    0 -0.29585597162E+01 -0.14305330863E+01  0.57718410147E+01  0.66418107068E+01  0.51100000000E-03 0. -1.
        -11    1    3    3    0    0 -0.10281593866E+02  0.24655377683E+01  0.22662866838E+02  0.25007910398E+02  0.51100000000E-03 0.  1.
         12    1    3    3    0    0 -0.68652451702E+00 -0.14660233257E+01  0.14401903813E+02  0.14492597204E+02  0.00000000000E+00 0. -1.
</event>
<event>
 7    1  0.2297343E-008  0.4614233E+02  0.7816164E-02  0.1320468E+00
        -11   -1    0    0    0    0  0.00000000000E+00  0.00000000000E+00  0.45593999997E+02  0.45594000000E+02  0.51100000000E-03 0. -1.
         11   -1    0    0    0    0 -0.00000000000E+00 -0.00000000000E+00 -0.45593999997E+02  0.45594000000E+02  0.51100000000E-03 0.  1.
    9900012    2    1    2    0    0 -0.43928891332E+02 -0.48244768417E+01 -0.87229334741E+01  0.46142327190E+02  0.10000085984E+02 0.  0.
         12    1    1    2    0    0  0.43928891332E+02  0.48244768417E+01  0.87229334741E+01  0.45045672810E+02  0.00000000000E+00 0. -1.
         11    1    3    3    0    0 -0.98064316671E+01  0.87934122187E+00  0.31748316311E+00  0.98508953322E+01  0.51100000000E-03 0. -1.
        -11    1    3    3    0    0 -0.23786197104E+01 -0.90477241774E+00 -0.24190963681E+01  0.35111924405E+01  0.51100000000E-03 0.  1.
        -12    1    3    3    0    0 -0.31743839955E+02 -0.47990456459E+01 -0.66213202691E+01  0.32780239418E+02  0.00000000000E+00 0.  1.
</event>
<event>
 7    1  0.2297343E-008  0.4614232E+02  0.7816164E-02  0.1320468E+00
        -11   -1    0    0    0    0  0.00000000000E+00  0.00000000000E+00  0.45593999997E+02  0.45594000000E+02  0.51100000000E-03 0.  1.
         11   -1    0    0    0    0 -0.00000000000E+00 -0.00000000000E+00 -0.45593999997E+02  0.45594000000E+02  0.51100000000E-03 0. -1.
    9900012    2    1    2    0    0 -0.31968144866E+02  0.31209928824E+01  0.31581809137E+02  0.46142317064E+02  0.99999936466E+01 0.  0.
         12    1    1    2    0    0  0.31968144866E+02 -0.31209928824E+01 -0.31581809137E+02  0.45045682936E+02  0.00000000000E+00 0. -1.
         11    1    3    3    0    0 -0.14828659666E+02 -0.22354250704E+01  0.10338596449E+02  0.18214632841E+02  0.51100000000E-03 0. -1.
        -11    1    3    3    0    0 -0.12362848749E+02  0.38144016697E+01  0.16944418081E+02  0.21319075816E+02  0.51100000000E-03 0.  1.
         12    1    3    3    0    0 -0.47766364511E+01  0.15420162831E+01  0.42987946072E+01  0.66086084071E+01  0.00000000000E+00 0. -1.
</event>
<event>
 7    1  0.2297343E-008  0.4614232E+02  0.7816164E-02  0.1320468E+00
        -11   -1    0    0    0    0  0.00000000000E+00  0.00000000000E+00  0.45593999997E+02  0.45594000000E+02  0.51100000000E-03 0.  1.
         11   -1    0    0    0    0 -0.00000000000E+00 -0.00000000000E+00 -0.45593999997E+02  0.45594000000E+02  0.51100000000E-03 0. -1.
    9900012    2    1    2    0    0 -0.28448484213E+02  0.15708246231E+02  0.31193719253E+02  0.46142319025E+02  0.10000011525E+02 0.  0.
         12    1    1    2    0    0  0.28448484213E+02 -0.15708246231E+02 -0.31193719253E+02  0.45045680975E+02  0.00000000000E+00 0. -1.
         11    1    3    3    0    0 -0.17432153314E+01  0.33175498359E+01  0.22564082223E+01  0.43745073931E+01  0.51100000000E-03 0. -1.
        -11    1    3    3    0    0 -0.25041814123E+02  0.12071412671E+02  0.28861339584E+02  0.40072289444E+02  0.51100000000E-03 0.  1.
        -12    1    3    3    0    0 -0.16634547581E+01  0.31928372388E+00  0.75971447105E-01  0.16955221878E+01  0.00000000000E+00 0.  1.
</event>
<event>
 7    1  0.2297343E-008  0.4614232E+02  0.7816164E-02  0.1320468E+00
        -11   -1    0    0    0    0  0.00000000000E+00  0.00000000000E+00  0.45593999997E+02  0.45594000000E+02  0.51100000000E-03 0.  1.
         11   -1    0    0    0    0 -0.00000000000E+00 -0.00000000000E+00 -0.45593999997E+02  0.45594000000E+02  0.51100000000E-03 0. -1.
    9900012    2    1    2    0    0  0.19530447490E+02  0.22750017348E+02  0.33617130481E+02  0.46142321736E+02  0.10000036245E+02 0.  0.
         12    1    1    2    0    0 -0.19530447490E+02 -0.22750017348E+02 -0.33617130481E+02  0.45045678264E+02  0.00000000000E+00 0. -1.
         11    1    3    3    0    0  0.44644296455E+01  0.62683521778E+01  0.11406451548E+02  0.13759742304E+02  0.51100000000E-03 0. -1.
        -11    1    3    3    0    0  0.79951973789E+01  0.13902279404E+02  0.14962365646E+02  0.21933283834E+02  0.51100000000E-03 0.  1.
         12    1    3    3    0    0  0.70708204659E+01  0.25793857660E+01  0.72483132865E+01  0.10449295598E+02  0.00000000000E+00 0. -1.
</event>
<event>
 7    1  0.2297343E-008  0.4614232E+02  0.7816164E-02  0.1320468E+00
        -11   -1    0    0    0    0  0.00000000000E+00  0.00000000000E+00  0.45593999997E+02  0.45594000000E+02  0.51100000000E-03 0.  1.
         11   -1    0    0    0    0 -0.00000000000E+00 -0.00000000000E+00 -0.45593999997E+02  0.45594000000E+02  0.51100000000E-03 0. -1.
    9900012    2    1    2    0    0 -0.44003652277E+02 -0.96317123936E+01  0.14852884078E+00  0.46142319207E+02  0.10000013182E+02 0.  0.
         12    1    1    2    0    0  0.44003652277E+02  0.96317123936E+01 -0.14852884078E+00  0.45045680793E+02  0.00000000000E+00 0. -1.
         11    1    3    3    0    0 -0.22067910632E+02 -0.94547578787E+01  0.19188609422E+01  0.24084583322E+02  0.51100000000E-03 0.  1.
        -11    1    3    3    0    0 -0.18895681697E+01 -0.20452808318E+00 -0.53042910096E+00  0.19732346279E+01  0.51100000000E-03 0. -1.
        -12    1    3    3    0    0 -0.20046173475E+02  0.27573568340E-01 -0.12399030004E+01  0.20084501257E+02  0.00000000000E+00 0.  1.
</event>
<event>
 7    1  0.2297343E-008  0.4614232E+02  0.7816164E-02  0.1320468E+00
        -11   -1    0    0    0    0  0.00000000000E+00  0.00000000000E+00  0.45593999997E+02  0.45594000000E+02  0.51100000000E-03 0.  1.
         11   -1    0    0    0    0 -0.00000000000E+00 -0.00000000000E+00 -0.45593999997E+02  0.45594000000E+02  0.51100000000E-03 0. -1.
    9900012    2    1    2    0    0  0.79577808745E+01  0.47304272444E+01  0.44084126977E+02  0.46142317968E+02  0.10000001890E+02 0.  0.
         12    1    1    2    0    0 -0.79577808745E+01 -0.47304272444E+01 -0.44084126977E+02  0.45045682032E+02  0.00000000000E+00 0. -1.
         11    1    3    3    0    0  0.35094324701E+01  0.27702110479E+01  0.53029865918E+01  0.69362707968E+01  0.51100000000E-03 0. -1.
        -11    1    3    3    0    0  0.17447631861E+01  0.15595687669E+01  0.89827163707E+01  0.92825452852E+01  0.51100000000E-03 0.  1.
         12    1    3    3    0    0  0.27035852182E+01  0.40064742957E+00  0.29798424015E+02  0.29923501886E+02  0.00000000000E+00 0. -1.
</event>
<event>
 7    1  0.2297343E-008  0.4614232E+02  0.7816164E-02  0.1320468E+00
        -11   -1    0    0    0    0  0.00000000000E+00  0.00000000000E+00  0.45593999997E+02  0.45594000000E+02  0.51100000000E-03 0. -1.
         11   -1    0    0    0    0 -0.00000000000E+00 -0.00000000000E+00 -0.45593999997E+02  0.45594000000E+02  0.51100000000E-03 0.  1.
    9900012    2    1    2    0    0 -0.31903538143E+02 -0.30722944009E+02  0.82084425534E+01  0.46142316924E+02  0.99999923656E+01 0.  0.
         12    1    1    2    0    0  0.31903538143E+02  0.30722944009E+02 -0.82084425534E+01  0.45045683076E+02  0.00000000000E+00 0. -1.
         11    1    3    3    0    0 -0.11636021655E+02 -0.85193913006E+01 -0.10472795532E+01  0.14459385285E+02  0.51100000000E-03 0. -1.
        -11    1    3    3    0    0 -0.35035071627E+01 -0.54680239474E+01  0.85763188488E+00  0.65505252492E+01  0.51100000000E-03 0.  1.
        -12    1    3    3    0    0 -0.16764009325E+02 -0.16735528761E+02  0.83980902217E+01  0.25132406390E+02  0.00000000000E+00 0.  1.
</event>
<event>
 7    1  0.2297343E-008  0.4614232E+02  0.7816164E-02  0.1320468E+00
        -11   -1    0    0    0    0  0.00000000000E+00  0.00000000000E+00  0.45593999997E+02  0.45594000000E+02  0.51100000000E-03 0.  1.
         11   -1    0    0    0    0 -0.00000000000E+00 -0.00000000000E+00 -0.45593999997E+02  0.45594000000E+02  0.51100000000E-03 0. -1.
    9900012    2    1    2    0    0  0.40400009030E+02  0.10278291011E+02  0.17067789786E+02  0.46142318255E+02  0.10000004502E+02 0.  0.
         12    1    1    2    0    0 -0.40400009030E+02 -0.10278291011E+02 -0.17067789786E+02  0.45045681745E+02  0.00000000000E+00 0. -1.
         11    1    3    3    0    0  0.13648722980E+01  0.17028857226E+01  0.11199924205E+01  0.24529735949E+01  0.51100000000E-03 0. -1.
        -11    1    3    3    0    0  0.28777920376E+02  0.89896369438E+01  0.96968938103E+01  0.31670365066E+02  0.51100000000E-03 0.  1.
         12    1    3    3    0    0  0.10257216355E+02 -0.41423165553E+00  0.62509035555E+01  0.12018979594E+02  0.00000000000E+00 0. -1.
</event>
<event>
 7    1  0.2297343E-008  0.4614232E+02  0.7816164E-02  0.1320468E+00
        -11   -1    0    0    0    0  0.00000000000E+00  0.00000000000E+00  0.45593999997E+02  0.45594000000E+02  0.51100000000E-03 0. -1.
         11   -1    0    0    0    0 -0.00000000000E+00 -0.00000000000E+00 -0.45593999997E+02  0.45594000000E+02  0.51100000000E-03 0.  1.
    9900012    2    1    2    0    0 -0.39826472167E+02  0.13318999524E+02 -0.16296311814E+02  0.46142318605E+02  0.10000007694E+02 0.  0.
         12    1    1    2    0    0  0.39826472167E+02 -0.13318999524E+02  0.16296311814E+02  0.45045681395E+02  0.00000000000E+00 0. -1.
         11    1    3    3    0    0 -0.11039079841E+02  0.50578160294E+01 -0.30297220883E+01  0.12514871270E+02  0.51100000000E-03 0. -1.
        -11    1    3    3    0    0 -0.15809894743E+02  0.58868758245E+01 -0.35428955779E+01  0.17238334841E+02  0.51100000000E-03 0.  1.
         12    1    3    3    0    0 -0.12977497584E+02  0.23743076703E+01 -0.97236941477E+01  0.16389112494E+02  0.00000000000E+00 0. -1.
</event>
<event>
 7    1  0.2297343E-008  0.4614232E+02  0.7816164E-02  0.1320468E+00
        -11   -1    0    0    0    0  0.00000000000E+00  0.00000000000E+00  0.45593999997E+02  0.45594000000E+02  0.51100000000E-03 0.  1.
         11   -1    0    0    0    0 -0.00000000000E+00 -0.00000000000E+00 -0.45593999997E+02  0.45594000000E+02  0.51100000000E-03 0. -1.
    9900012    2    1    2    0    0  0.12312128886E+02  0.18568957155E+02  0.39149952929E+02  0.46142317611E+02  0.99999986287E+01 0.  0.
         12    1    1    2    0    0 -0.12312128886E+02 -0.18568957155E+02 -0.39149952929E+02  0.45045682389E+02  0.00000000000E+00 0. -1.
         11    1    3    3    0    0 -0.56998281779E+00  0.57139892322E+00  0.13882117517E+00  0.81893145124E+00  0.51100000000E-03 0. -1.
        -11    1    3    3    0    0  0.47065149442E+01  0.34863918774E+01  0.14981729593E+02  0.16085970070E+02  0.51100000000E-03 0.  1.
        -12    1    3    3    0    0  0.81755967600E+01  0.14511166355E+02  0.24029402161E+02  0.29237416089E+02  0.00000000000E+00 0.  1.
</event>
<event>
 7    1  0.2297343E-008  0.4614232E+02  0.7816164E-02  0.1320468E+00
        -11   -1    0    0    0    0  0.00000000000E+00  0.00000000000E+00  0.45593999997E+02  0.45594000000E+02  0.51100000000E-03 0. -1.
         11   -1    0    0    0    0 -0.00000000000E+00 -0.00000000000E+00 -0.45593999997E+02  0.45594000000E+02  0.51100000000E-03 0.  1.
    9900012    2    1    2    0    0 -0.13406850980E+01 -0.19977326174E+02 -0.40351239755E+02  0.46142317106E+02  0.99999940252E+01 0.  0.
         12    1    1    2    0    0  0.13406850980E+01  0.19977326174E+02  0.40351239755E+02  0.45045682894E+02  0.00000000000E+00 0. -1.
         11    1    3    3    0    0  0.69468427847E-01 -0.78874091465E+00  0.51261596223E-01  0.79345201826E+00  0.51100000000E-03 0. -1.
        -11    1    3    3    0    0 -0.24074433278E+00 -0.95539719624E+01 -0.28089192439E+02  0.29670508426E+02  0.51100000000E-03 0.  1.
        -12    1    3    3    0    0 -0.11694091931E+01 -0.96346132971E+01 -0.12313308912E+02  0.15678356662E+02  0.00000000000E+00 0.  1.
</event>
<event>
 7    1  0.2297343E-008  0.4614232E+02  0.7816164E-02  0.1320468E+00
        -11   -1    0    0    0    0  0.00000000000E+00  0.00000000000E+00  0.45593999997E+02  0.45594000000E+02  0.51100000000E-03 0. -1.
         11   -1    0    0    0    0 -0.00000000000E+00 -0.00000000000E+00 -0.45593999997E+02  0.45594000000E+02  0.51100000000E-03 0.  1.
    9900012    2    1    2    0    0  0.31764192765E+02  0.29525640811E+02  0.12181372433E+02  0.46142320500E+02  0.10000024972E+02 0.  0.
         12    1    1    2    0    0 -0.31764192765E+02 -0.29525640811E+02 -0.12181372433E+02  0.45045679500E+02  0.00000000000E+00 0. -1.
         11    1    3    3    0    0  0.15479816268E+02  0.17215565174E+02  0.78157689916E+01  0.24435356374E+02  0.51100000000E-03 0. -1.
        -11    1    3    3    0    0  0.16734199543E+02  0.12258770051E+02  0.40023622595E+01  0.21126518441E+02  0.51100000000E-03 0.  1.
         12    1    3    3    0    0 -0.44982304638E+00  0.51305585898E-01  0.36324118180E+00  0.58044568424E+00  0.00000000000E+00 0. -1.
</event>
<event>
 7    1  0.2297343E-008  0.4614232E+02  0.7816164E-02  0.1320468E+00
        -11   -1    0    0    0    0  0.00000000000E+00  0.00000000000E+00  0.45593999997E+02  0.45594000000E+02  0.51100000000E-03 0.  1.
         11   -1    0    0    0    0 -0.00000000000E+00 -0.00000000000E+00 -0.45593999997E+02  0.45594000000E+02  0.51100000000E-03 0. -1.
    9900012    2    1    2    0    0  0.17675075331E+02 -0.22321174400E+02  0.34906595011E+02  0.46142317745E+02  0.99999998518E+01 0.  0.
         12    1    1    2    0    0 -0.17675075331E+02  0.22321174400E+02 -0.34906595011E+02  0.45045682255E+02  0.00000000000E+00 0. -1.
         11    1    3    3    0    0  0.27191671620E+01  0.11922418342E-01  0.62716496938E+01  0.68357590904E+01  0.51100000000E-03 0. -1.
        -11    1    3    3    0    0  0.23851821789E+01 -0.47092287186E+01  0.55658981615E+01  0.76710593634E+01  0.51100000000E-03 0.  1.
         12    1    3    3    0    0  0.12570725990E+02 -0.17623868099E+02  0.23069047156E+02  0.31635499291E+02  0.00000000000E+00 0. -1.
</event>
<event>
 7    1  0.2297343E-008  0.4614231E+02  0.7816164E-02  0.1320468E+00
        -11   -1    0    0    0    0  0.00000000000E+00  0.00000000000E+00  0.45593999997E+02  0.45594000000E+02  0.51100000000E-03 0.  1.
         11   -1    0    0    0    0 -0.00000000000E+00 -0.00000000000E+00 -0.45593999997E+02  0.45594000000E+02  0.51100000000E-03 0. -1.
    9900012    2    1    2    0    0 -0.44372483639E+02  0.53992426970E+01  0.55718181233E+01  0.46142308939E+02  0.99999195533E+01 0.  0.
         12    1    1    2    0    0  0.44372483639E+02 -0.53992426970E+01 -0.55718181233E+01  0.45045691061E+02  0.00000000000E+00 0. -1.
         11    1    3    3    0    0 -0.29815433955E+02  0.49999743456E+01 -0.80022531639E+00  0.30242357814E+02  0.51100000000E-03 0. -1.
        -11    1    3    3    0    0 -0.77478507772E+01  0.29771433565E-01  0.34251936035E+01  0.84712472214E+01  0.51100000000E-03 0.  1.
         12    1    3    3    0    0 -0.68091989069E+01  0.36949691787E+00  0.29468498362E+01  0.74287039033E+01  0.00000000000E+00 0. -1.
</event>
<event>
 7    1  0.2297343E-008  0.4614232E+02  0.7816164E-02  0.1320468E+00
        -11   -1    0    0    0    0  0.00000000000E+00  0.00000000000E+00  0.45593999997E+02  0.45594000000E+02  0.51100000000E-03 0. -1.
         11   -1    0    0    0    0 -0.00000000000E+00 -0.00000000000E+00 -0.45593999997E+02  0.45594000000E+02  0.51100000000E-03 0.  1.
    9900012    2    1    2    0    0 -0.22387005919E+02  0.32974085805E+02 -0.20991548765E+02  0.46142317763E+02  0.10000000013E+02 0.  0.
         12    1    1    2    0    0  0.22387005919E+02 -0.32974085805E+02  0.20991548765E+02  0.45045682237E+02  0.00000000000E+00 0. -1.
         11    1    3    3    0    0 -0.17407862635E+02  0.24545459724E+02 -0.14257484524E+02  0.33298485548E+02  0.51100000000E-03 0. -1.
        -11    1    3    3    0    0 -0.54978218079E+01  0.52284250330E+01 -0.38654171590E+01  0.85149235481E+01  0.51100000000E-03 0.  1.
         12    1    3    3    0    0  0.51867852430E+00  0.32002010479E+01 -0.28686470820E+01  0.43289086661E+01  0.00000000000E+00 0. -1.
</event>
<event>
 7    1  0.2297343E-008  0.4614232E+02  0.7816164E-02  0.1320468E+00
        -11   -1    0    0    0    0  0.00000000000E+00  0.00000000000E+00  0.45593999997E+02  0.45594000000E+02  0.51100000000E-03 0. -1.
         11   -1    0    0    0    0 -0.00000000000E+00 -0.00000000000E+00 -0.45593999997E+02  0.45594000000E+02  0.51100000000E-03 0.  1.
    9900012    2    1    2    0    0  0.38041140665E+02 -0.46757820519E+01 -0.23666899462E+02  0.46142318176E+02  0.10000003782E+02 0.  0.
         12    1    1    2    0    0 -0.38041140665E+02  0.46757820519E+01  0.23666899462E+02  0.45045681824E+02  0.00000000000E+00 0. -1.
         11    1    3    3    0    0  0.15942588091E+02 -0.25845153252E+01 -0.92339994497E+01  0.18604101177E+02  0.51100000000E-03 0. -1.
        -11    1    3    3    0    0  0.19754740576E+02  0.24453341238E+00 -0.10415962196E+02  0.22333872046E+02  0.51100000000E-03 0.  1.
         12    1    3    3    0    0  0.23438119971E+01 -0.23358001391E+01 -0.40169378166E+01  0.52043449530E+01  0.00000000000E+00 0. -1.
</event>
<event>
 7    1  0.2297343E-008  0.4614232E+02  0.7816164E-02  0.1320468E+00
        -11   -1    0    0    0    0  0.00000000000E+00  0.00000000000E+00  0.45593999997E+02  0.45594000000E+02  0.51100000000E-03 0.  1.
         11   -1    0    0    0    0 -0.00000000000E+00 -0.00000000000E+00 -0.45593999997E+02  0.45594000000E+02  0.51100000000E-03 0. -1.
    9900012    2    1    2    0    0 -0.44542138606E+02 -0.64664503694E+01  0.18155885776E+01  0.46142318144E+02  0.10000003493E+02 0.  0.
         12    1    1    2    0    0  0.44542138606E+02  0.64664503694E+01 -0.18155885776E+01  0.45045681856E+02  0.00000000000E+00 0. -1.
         11    1    3    3    0    0 -0.19205833305E+02 -0.28056598645E+01  0.42856197667E+01  0.19877180314E+02  0.51100000000E-03 0. -1.
        -11    1    3    3    0    0 -0.19010988975E+02 -0.23344807218E+01  0.48230537818E+00  0.19159857014E+02  0.51100000000E-03 0.  1.
         12    1    3    3    0    0 -0.63253163263E+01 -0.13263097831E+01 -0.29523365672E+01  0.71052808160E+01  0.00000000000E+00 0. -1.
</event>
<event>
 7    1  0.2297343E-008  0.4614232E+02  0.7816164E-02  0.1320468E+00
        -11   -1    0    0    0    0  0.00000000000E+00  0.00000000000E+00  0.45593999997E+02  0.45594000000E+02  0.51100000000E-03 0. -1.
         11   -1    0    0    0    0 -0.00000000000E+00 -0.00000000000E+00 -0.45593999997E+02  0.45594000000E+02  0.51100000000E-03 0.  1.
    9900012    2    1    2    0    0  0.23252077803E+02  0.21272543436E+01 -0.38521800551E+02  0.46142318177E+02  0.10000003791E+02 0.  0.
         12    1    1    2    0    0 -0.23252077803E+02 -0.21272543436E+01  0.38521800551E+02  0.45045681823E+02  0.00000000000E+00 0. -1.
         11    1    3    3    0    0  0.17712733824E+01 -0.19289157069E+01 -0.14246602057E+01  0.29812383605E+01  0.51100000000E-03 0. -1.
        -11    1    3    3    0    0  0.11268351137E+02  0.34552263470E+01 -0.21221425042E+02  0.24274744232E+02  0.51100000000E-03 0.  1.
         12    1    3    3    0    0  0.10212453284E+02  0.60094370346E+00 -0.15875715303E+02  0.18886335584E+02  0.00000000000E+00 0. -1.
</event>
<event>
 7    1  0.2297343E-008  0.4614232E+02  0.7816164E-02  0.1320468E+00
        -11   -1    0    0    0    0  0.00000000000E+00  0.00000000000E+00  0.45593999997E+02  0.45594000000E+02  0.51100000000E-03 0.  1.
         11   -1    0    0    0    0 -0.00000000000E+00 -0.00000000000E+00 -0.45593999997E+02  0.45594000000E+02  0.51100000000E-03 0. -1.
    9900012    2    1    2    0    0 -0.24967205400E+02  0.30929655543E+02  0.21192179928E+02  0.46142318435E+02  0.10000006150E+02 0.  0.
         12    1    1    2    0    0  0.24967205400E+02 -0.30929655543E+02 -0.21192179928E+02  0.45045681565E+02  0.00000000000E+00 0. -1.
         11    1    3    3    0    0 -0.13511900722E+02  0.11832179805E+02  0.54372311855E+01  0.18765271735E+02  0.51100000000E-03 0. -1.
        -11    1    3    3    0    0 -0.30072578591E+01  0.62692369718E+01  0.38847353572E+01  0.79648038956E+01  0.51100000000E-03 0.  1.
         12    1    3    3    0    0 -0.84480468188E+01  0.12828238766E+02  0.11870213385E+02  0.19412242805E+02  0.00000000000E+00 0. -1.
</event>
<event>
 7    1  0.2297343E-008  0.4614232E+02  0.7816164E-02  0.1320468E+00
        -11   -1    0    0    0    0  0.00000000000E+00  0.00000000000E+00  0.45593999997E+02  0.45594000000E+02  0.51100000000E-03 0.  1.
         11   -1    0    0    0    0 -0.00000000000E+00 -0.00000000000E+00 -0.45593999997E+02  0.45594000000E+02  0.51100000000E-03 0. -1.
    9900012    2    1    2    0    0 -0.40016541898E+02 -0.83770583886E+01  0.18910704894E+02  0.46142317717E+02  0.99999996012E+01 0.  0.
         12    1    1    2    0    0  0.40016541898E+02  0.83770583886E+01 -0.18910704894E+02  0.45045682283E+02  0.00000000000E+00 0. -1.
         11    1    3    3    0    0 -0.12835598607E+01  0.30225698530E+00  0.11509066652E+01  0.17502775821E+01  0.51100000000E-03 0. -1.
        -11    1    3    3    0    0 -0.30894193122E+02 -0.34241238877E+01  0.11899830141E+02  0.33283355460E+02  0.51100000000E-03 0.  1.
         12    1    3    3    0    0 -0.78387889154E+01 -0.52551914862E+01  0.58599680884E+01  0.11108684675E+02  0.00000000000E+00 0. -1.
</event>
<event>
 7    1  0.2297343E-008  0.4614232E+02  0.7816164E-02  0.1320468E+00
        -11   -1    0    0    0    0  0.00000000000E+00  0.00000000000E+00  0.45593999997E+02  0.45594000000E+02  0.51100000000E-03 0.  1.
         11   -1    0    0    0    0 -0.00000000000E+00 -0.00000000000E+00 -0.45593999997E+02  0.45594000000E+02  0.51100000000E-03 0. -1.
    9900012    2    1    2    0    0  0.51684558370E+01 -0.20032130908E+02  0.40013926246E+02  0.46142317654E+02  0.99999990200E+01 0.  0.
         12    1    1    2    0    0 -0.51684558370E+01  0.20032130908E+02 -0.40013926246E+02  0.45045682346E+02  0.00000000000E+00 0. -1.
         11    1    3    3    0    0  0.36475520413E+01 -0.87684831884E+01  0.13571996199E+02  0.16564721984E+02  0.51100000000E-03 0.  1.
        -11    1    3    3    0    0 -0.11617586249E+01 -0.47574094832E+01  0.17645067719E+02  0.18312046395E+02  0.51100000000E-03 0. -1.
         12    1    3    3    0    0  0.26826624207E+01 -0.65062382366E+01  0.87968623275E+01  0.11265549275E+02  0.00000000000E+00 0. -1.
</event>
<event>
 7    1  0.2297343E-008  0.4614232E+02  0.7816164E-02  0.1320468E+00
        -11   -1    0    0    0    0  0.00000000000E+00  0.00000000000E+00  0.45593999997E+02  0.45594000000E+02  0.51100000000E-03 0.  1.
         11   -1    0    0    0    0 -0.00000000000E+00 -0.00000000000E+00 -0.45593999997E+02  0.45594000000E+02  0.51100000000E-03 0. -1.
    9900012    2    1    2    0    0  0.41190535349E+02  0.13879804094E+02  0.11823887584E+02  0.46142317836E+02  0.10000000686E+02 0.  0.
         12    1    1    2    0    0 -0.41190535349E+02 -0.13879804094E+02 -0.11823887584E+02  0.45045682164E+02  0.00000000000E+00 0. -1.
         11    1    3    3    0    0  0.55696206907E+01  0.40995268489E+00  0.14526120469E+01  0.57705127903E+01  0.51100000000E-03 0.  1.
        -11    1    3    3    0    0  0.33538715413E+01 -0.31154403848E+00 -0.95680305931E+00  0.35015691281E+01  0.51100000000E-03 0. -1.
         12    1    3    3    0    0  0.32267043116E+02  0.13781395448E+02  0.11328078596E+02  0.36870235918E+02  0.00000000000E+00 0. -1.
</event>
<event>
 7    1  0.2297343E-008  0.4614232E+02  0.7816164E-02  0.1320468E+00
        -11   -1    0    0    0    0  0.00000000000E+00  0.00000000000E+00  0.45593999997E+02  0.45594000000E+02  0.51100000000E-03 0. -1.
         11   -1    0    0    0    0 -0.00000000000E+00 -0.00000000000E+00 -0.45593999997E+02  0.45594000000E+02  0.51100000000E-03 0.  1.
    9900012    2    1    2    0    0  0.36069192983E+02  0.21018680063E+02  0.16921636346E+02  0.46142319068E+02  0.10000011917E+02 0.  0.
         12    1    1    2    0    0 -0.36069192983E+02 -0.21018680063E+02 -0.16921636346E+02  0.45045680932E+02  0.00000000000E+00 0. -1.
         11    1    3    3    0    0  0.18643859261E+01  0.58876930926E+00  0.36630733386E+01  0.41521910753E+01  0.51100000000E-03 0. -1.
        -11    1    3    3    0    0  0.13925284829E+02  0.82986024855E+01  0.53046059691E+01  0.17056353817E+02  0.51100000000E-03 0.  1.
         12    1    3    3    0    0  0.20279522227E+02  0.12131308268E+02  0.79539570385E+01  0.24933774175E+02  0.00000000000E+00 0. -1.
</event>
<event>
 7    1  0.2297343E-008  0.4614232E+02  0.7816164E-02  0.1320468E+00
        -11   -1    0    0    0    0  0.00000000000E+00  0.00000000000E+00  0.45593999997E+02  0.45594000000E+02  0.51100000000E-03 0.  1.
         11   -1    0    0    0    0 -0.00000000000E+00 -0.00000000000E+00 -0.45593999997E+02  0.45594000000E+02  0.51100000000E-03 0. -1.
    9900012    2    1    2    0    0 -0.38428918243E+02 -0.12497726461E+02  0.19903230803E+02  0.46142317405E+02  0.99999967553E+01 0.  0.
         12    1    1    2    0    0  0.38428918243E+02  0.12497726461E+02 -0.19903230803E+02  0.45045682595E+02  0.00000000000E+00 0. -1.
         11    1    3    3    0    0 -0.33807865011E+01  0.17207804925E+00  0.12462918108E+01  0.36072942436E+01  0.51100000000E-03 0. -1.
        -11    1    3    3    0    0 -0.25320793846E+02 -0.85297774636E+01  0.17408774739E+02  0.31889890918E+02  0.51100000000E-03 0.  1.
        -12    1    3    3    0    0 -0.97273378957E+01 -0.41400270467E+01  0.12481642534E+01  0.10645132244E+02  0.00000000000E+00 0.  1.
</event>
<event>
 7    1  0.2297343E-008  0.4614232E+02  0.7816164E-02  0.1320468E+00
        -11   -1    0    0    0    0  0.00000000000E+00  0.00000000000E+00  0.45593999997E+02  0.45594000000E+02  0.51100000000E-03 0.  1.
         11   -1    0    0    0    0 -0.00000000000E+00 -0.00000000000E+00 -0.45593999997E+02  0.45594000000E+02  0.51100000000E-03 0. -1.
    9900012    2    1    2    0    0  0.58138738688E+00 -0.18071759968E+02  0.41257568496E+02  0.46142317878E+02  0.10000001067E+02 0.  0.
         12    1    1    2    0    0 -0.58138738688E+00  0.18071759968E+02 -0.41257568496E+02  0.45045682122E+02  0.00000000000E+00 0. -1.
         11    1    3    3    0    0  0.28795692841E+01 -0.10193037619E+02  0.20938730390E+02  0.23465301315E+02  0.51100000000E-03 0.  1.
        -11    1    3    3    0    0 -0.29656006374E+00 -0.13711906919E+01  0.17508247840E+00  0.14137771820E+01  0.51100000000E-03 0. -1.
        -12    1    3    3    0    0 -0.20016218335E+01 -0.65075316571E+01  0.20143755627E+02  0.21263239382E+02  0.00000000000E+00 0.  1.
</event>
<event>
 7    1  0.2297343E-008  0.4614232E+02  0.7816164E-02  0.1320468E+00
        -11   -1    0    0    0    0  0.00000000000E+00  0.00000000000E+00  0.45593999997E+02  0.45594000000E+02  0.51100000000E-03 0.  1.
         11   -1    0    0    0    0 -0.00000000000E+00 -0.00000000000E+00 -0.45593999997E+02  0.45594000000E+02  0.51100000000E-03 0. -1.
    9900012    2    1    2    0    0  0.37922562552E+02  0.24007701898E+02 -0.38240073679E+01  0.46142317263E+02  0.99999954576E+01 0.  0.
         12    1    1    2    0    0 -0.37922562552E+02 -0.24007701898E+02  0.38240073679E+01  0.45045682737E+02  0.00000000000E+00 0. -1.
         11    1    3    3    0    0  0.16170185843E+02  0.13449753031E+02  0.13829922982E+01  0.21078032041E+02  0.51100000000E-03 0. -1.
        -11    1    3    3    0    0  0.18119457398E+02  0.72660008378E+01 -0.32752099087E+01  0.19794860565E+02  0.51100000000E-03 0.  1.
        -12    1    3    3    0    0  0.36329193106E+01  0.32919480294E+01 -0.19317897575E+01  0.52694246567E+01  0.00000000000E+00 0.  1.
</event>
<event>
 7    1  0.2297343E-008  0.4614231E+02  0.7816164E-02  0.1320468E+00
        -11   -1    0    0    0    0  0.00000000000E+00  0.00000000000E+00  0.45593999997E+02  0.45594000000E+02  0.51100000000E-03 0.  1.
         11   -1    0    0    0    0 -0.00000000000E+00 -0.00000000000E+00 -0.45593999997E+02  0.45594000000E+02  0.51100000000E-03 0. -1.
    9900012    2    1    2    0    0  0.42877676833E+02  0.12996366913E+02  0.46598124359E+01  0.46142305694E+02  0.99998899649E+01 0.  0.
         12    1    1    2    0    0 -0.42877676833E+02 -0.12996366913E+02 -0.46598124359E+01  0.45045694306E+02  0.00000000000E+00 0. -1.
         11    1    3    3    0    0 -0.11680264454E+00  0.61657331373E+00  0.11695780572E+00  0.63834543815E+00  0.51100000000E-03 0. -1.
        -11    1    3    3    0    0  0.34972217072E+02  0.10631981532E+02  0.63419051778E+01  0.37098716417E+02  0.51100000000E-03 0.  1.
         12    1    3    3    0    0  0.80222624050E+01  0.17478120679E+01 -0.17990505477E+01  0.84052438390E+01  0.00000000000E+00 0. -1.
</event>
<event>
 7    1  0.2297343E-008  0.4614232E+02  0.7816164E-02  0.1320468E+00
        -11   -1    0    0    0    0  0.00000000000E+00  0.00000000000E+00  0.45593999997E+02  0.45594000000E+02  0.51100000000E-03 0.  1.
         11   -1    0    0    0    0 -0.00000000000E+00 -0.00000000000E+00 -0.45593999997E+02  0.45594000000E+02  0.51100000000E-03 0. -1.
    9900012    2    1    2    0    0 -0.10273930553E+02 -0.31503052926E+02  0.30514219852E+02  0.46142316457E+02  0.99999881075E+01 0.  0.
         12    1    1    2    0    0  0.10273930553E+02  0.31503052926E+02 -0.30514219852E+02  0.45045683543E+02  0.00000000000E+00 0. -1.
         11    1    3    3    0    0  0.86708744582E+00 -0.30908167972E+01  0.40757848715E+01  0.51881607235E+01  0.51100000000E-03 0. -1.
        -11    1    3    3    0    0  0.26842471724E+00 -0.67957774571E+01  0.49917693276E+01  0.84363738867E+01  0.51100000000E-03 0.  1.
         12    1    3    3    0    0 -0.11409442716E+02 -0.21616458672E+02  0.21446665653E+02  0.32517781847E+02  0.00000000000E+00 0. -1.
</event>
<event>
 7    1  0.2297343E-008  0.4614232E+02  0.7816164E-02  0.1320468E+00
        -11   -1    0    0    0    0  0.00000000000E+00  0.00000000000E+00  0.45593999997E+02  0.45594000000E+02  0.51100000000E-03 0.  1.
         11   -1    0    0    0    0 -0.00000000000E+00 -0.00000000000E+00 -0.45593999997E+02  0.45594000000E+02  0.51100000000E-03 0. -1.
    9900012    2    1    2    0    0  0.68888239168E+01 -0.24110365885E+02  0.37421223163E+02  0.46142316732E+02  0.99999906196E+01 0.  0.
         12    1    1    2    0    0 -0.68888239168E+01  0.24110365885E+02 -0.37421223163E+02  0.45045683268E+02  0.00000000000E+00 0. -1.
         11    1    3    3    0    0  0.42020157950E+01 -0.55520854137E+01  0.79514492360E+01  0.10569206895E+02  0.51100000000E-03 0. -1.
        -11    1    3    3    0    0  0.46425714783E+01 -0.13873328349E+02  0.19419465025E+02  0.24313336495E+02  0.51100000000E-03 0.  1.
         12    1    3    3    0    0 -0.19557633565E+01 -0.46849521225E+01  0.10050308902E+02  0.11259773342E+02  0.00000000000E+00 0. -1.
</event>
<event>
 7    1  0.2297343E-008  0.4614232E+02  0.7816164E-02  0.1320468E+00
        -11   -1    0    0    0    0  0.00000000000E+00  0.00000000000E+00  0.45593999997E+02  0.45594000000E+02  0.51100000000E-03 0.  1.
         11   -1    0    0    0    0 -0.00000000000E+00 -0.00000000000E+00 -0.45593999997E+02  0.45594000000E+02  0.51100000000E-03 0. -1.
    9900012    2    1    2    0    0  0.29781092770E+02  0.26500476761E+01  0.33692382078E+02  0.46142324854E+02  0.10000064679E+02 0.  0.
         12    1    1    2    0    0 -0.29781092770E+02 -0.26500476761E+01 -0.33692382078E+02  0.45045675146E+02  0.00000000000E+00 0. -1.
         11    1    3    3    0    0  0.77490493607E+01  0.32666206904E+01  0.57857865544E+01  0.10207541479E+02  0.51100000000E-03 0. -1.
        -11    1    3    3    0    0  0.38558482010E+01 -0.21000016702E+01  0.49634191498E+01  0.66266961815E+01  0.51100000000E-03 0.  1.
        -12    1    3    3    0    0  0.18176195208E+02  0.14834286558E+01  0.22943176374E+02  0.29308087194E+02  0.00000000000E+00 0.  1.
</event>
<event>
 7    1  0.2297343E-008  0.4614232E+02  0.7816164E-02  0.1320468E+00
        -11   -1    0    0    0    0  0.00000000000E+00  0.00000000000E+00  0.45593999997E+02  0.45594000000E+02  0.51100000000E-03 0.  1.
         11   -1    0    0    0    0 -0.00000000000E+00 -0.00000000000E+00 -0.45593999997E+02  0.45594000000E+02  0.51100000000E-03 0. -1.
    9900012    2    1    2    0    0 -0.12174152734E+02 -0.12184194288E+01  0.43352264583E+02  0.46142318907E+02  0.10000010446E+02 0.  0.
         12    1    1    2    0    0  0.12174152734E+02  0.12184194288E+01 -0.43352264583E+02  0.45045681093E+02  0.00000000000E+00 0. -1.
         11    1    3    3    0    0 -0.58736693036E+01  0.20864576959E+01  0.15150143323E+02  0.16382311795E+02  0.51100000000E-03 0.  1.
        -11    1    3    3    0    0  0.76740352411E+00  0.91489903309E+00  0.50096435185E+01  0.51499977527E+01  0.51100000000E-03 0. -1.
         12    1    3    3    0    0 -0.70678869543E+01 -0.42197761578E+01  0.23192477742E+02  0.24610009359E+02  0.00000000000E+00 0. -1.
</event>
<event>
 7    1  0.2297343E-008  0.4614232E+02  0.7816164E-02  0.1320468E+00
        -11   -1    0    0    0    0  0.00000000000E+00  0.00000000000E+00  0.45593999997E+02  0.45594000000E+02  0.51100000000E-03 0. -1.
         11   -1    0    0    0    0 -0.00000000000E+00 -0.00000000000E+00 -0.45593999997E+02  0.45594000000E+02  0.51100000000E-03 0.  1.
    9900012    2    1    2    0    0  0.29551037648E+02 -0.21058977945E+02 -0.26690243798E+02  0.46142317719E+02  0.99999996155E+01 0.  0.
         12    1    1    2    0    0 -0.29551037648E+02  0.21058977945E+02  0.26690243798E+02  0.45045682281E+02  0.00000000000E+00 0. -1.
         11    1    3    3    0    0  0.12278151764E+01 -0.24451258628E+01 -0.90923533589E+00  0.28832065048E+01  0.51100000000E-03 0. -1.
        -11    1    3    3    0    0  0.10921099354E+02 -0.11695088949E+02 -0.12368912437E+02  0.20224626369E+02  0.51100000000E-03 0.  1.
        -12    1    3    3    0    0  0.17402123118E+02 -0.69187631329E+01 -0.13412096025E+02  0.23034484845E+02  0.00000000000E+00 0.  1.
</event>
<event>
 7    1  0.2297343E-008  0.4614232E+02  0.7816164E-02  0.1320468E+00
        -11   -1    0    0    0    0  0.00000000000E+00  0.00000000000E+00  0.45593999997E+02  0.45594000000E+02  0.51100000000E-03 0.  1.
         11   -1    0    0    0    0 -0.00000000000E+00 -0.00000000000E+00 -0.45593999997E+02  0.45594000000E+02  0.51100000000E-03 0. -1.
    9900012    2    1    2    0    0  0.38375346528E+02  0.22193402452E+02  0.79936935556E+01  0.46142317963E+02  0.10000001841E+02 0.  0.
         12    1    1    2    0    0 -0.38375346528E+02 -0.22193402452E+02 -0.79936935556E+01  0.45045682037E+02  0.00000000000E+00 0. -1.
         11    1    3    3    0    0  0.33103654742E+02  0.15695403118E+02  0.67120047832E+01  0.37245786940E+02  0.51100000000E-03 0. -1.
        -11    1    3    3    0    0  0.15341518518E+01  0.25750770249E+01  0.17279492650E+01  0.34598341741E+01  0.51100000000E-03 0.  1.
        -12    1    3    3    0    0  0.37375399344E+01  0.39229223090E+01 -0.44626049257E+00  0.54366968493E+01  0.00000000000E+00 0.  1.
</event>
<event>
 7    1  0.2297343E-008  0.4614232E+02  0.7816164E-02  0.1320468E+00
        -11   -1    0    0    0    0  0.00000000000E+00  0.00000000000E+00  0.45593999997E+02  0.45594000000E+02  0.51100000000E-03 0.  1.
         11   -1    0    0    0    0 -0.00000000000E+00 -0.00000000000E+00 -0.45593999997E+02  0.45594000000E+02  0.51100000000E-03 0. -1.
    9900012    2    1    2    0    0 -0.40235011077E+02  0.55617892913E+01  0.19476237247E+02  0.46142318367E+02  0.10000005523E+02 0.  0.
         12    1    1    2    0    0  0.40235011077E+02 -0.55617892913E+01 -0.19476237247E+02  0.45045681633E+02  0.00000000000E+00 0. -1.
         11    1    3    3    0    0 -0.30490303816E+02  0.43717353406E+01  0.18165857071E+02  0.35759880594E+02  0.51100000000E-03 0. -1.
        -11    1    3    3    0    0 -0.68900499026E+01  0.19246065445E+01 -0.69747437613E-02  0.71538064637E+01  0.51100000000E-03 0.  1.
         12    1    3    3    0    0 -0.28546573584E+01 -0.73455259382E+00  0.13173549196E+01  0.32286313093E+01  0.00000000000E+00 0. -1.
</event>
<event>
 7    1  0.2297343E-008  0.4614232E+02  0.7816164E-02  0.1320468E+00
        -11   -1    0    0    0    0  0.00000000000E+00  0.00000000000E+00  0.45593999997E+02  0.45594000000E+02  0.51100000000E-03 0.  1.
         11   -1    0    0    0    0 -0.00000000000E+00 -0.00000000000E+00 -0.45593999997E+02  0.45594000000E+02  0.51100000000E-03 0. -1.
    9900012    2    1    2    0    0 -0.26578490506E+02 -0.34248051392E+02  0.12237988611E+02  0.46142317110E+02  0.99999940668E+01 0.  0.
         12    1    1    2    0    0  0.26578490506E+02  0.34248051392E+02 -0.12237988611E+02  0.45045682890E+02  0.00000000000E+00 0. -1.
         11    1    3    3    0    0 -0.16989713699E+02 -0.18332881750E+02  0.62627152094E+01  0.25767547941E+02  0.51100000000E-03 0. -1.
        -11    1    3    3    0    0 -0.68574810046E+01 -0.10696373748E+02  0.68260518224E+01  0.14423329742E+02  0.51100000000E-03 0.  1.
         12    1    3    3    0    0 -0.27312958023E+01 -0.52187958938E+01 -0.85077842085E+00  0.59514394277E+01  0.00000000000E+00 0. -1.
</event>
<event>
 7    1  0.2297343E-008  0.4614232E+02  0.7816164E-02  0.1320468E+00
        -11   -1    0    0    0    0  0.00000000000E+00  0.00000000000E+00  0.45593999997E+02  0.45594000000E+02  0.51100000000E-03 0. -1.
         11   -1    0    0    0    0 -0.00000000000E+00 -0.00000000000E+00 -0.45593999997E+02  0.45594000000E+02  0.51100000000E-03 0.  1.
    9900012    2    1    2    0    0 -0.31052508896E+02 -0.15419999441E+01 -0.32595665514E+02  0.46142317822E+02  0.10000000554E+02 0.  0.
         12    1    1    2    0    0  0.31052508896E+02  0.15419999441E+01  0.32595665514E+02  0.45045682178E+02  0.00000000000E+00 0. -1.
         11    1    3    3    0    0 -0.22243476696E+02 -0.31321554009E+01 -0.21918525442E+02  0.31384779923E+02  0.51100000000E-03 0.  1.
        -11    1    3    3    0    0 -0.61215882020E+01  0.32671852970E+01 -0.64377694811E+01  0.94653694082E+01  0.51100000000E-03 0. -1.
         12    1    3    3    0    0 -0.26874439979E+01 -0.16770298402E+01 -0.42393705912E+01  0.52921684909E+01  0.00000000000E+00 0. -1.
</event>
<event>
 7    1  0.2297343E-008  0.4614232E+02  0.7816164E-02  0.1320468E+00
        -11   -1    0    0    0    0  0.00000000000E+00  0.00000000000E+00  0.45593999997E+02  0.45594000000E+02  0.51100000000E-03 0.  1.
         11   -1    0    0    0    0 -0.00000000000E+00 -0.00000000000E+00 -0.45593999997E+02  0.45594000000E+02  0.51100000000E-03 0. -1.
    9900012    2    1    2    0    0 -0.23997601335E+02 -0.22692288399E+02  0.30631498770E+02  0.46142317194E+02  0.99999948247E+01 0.  0.
         12    1    1    2    0    0  0.23997601335E+02  0.22692288399E+02 -0.30631498770E+02  0.45045682806E+02  0.00000000000E+00 0. -1.
         11    1    3    3    0    0 -0.72497651442E+01 -0.64249877977E+01  0.65379392063E+01  0.11686924838E+02  0.51100000000E-03 0. -1.
        -11    1    3    3    0    0 -0.14578559470E+02 -0.15786142728E+02  0.18210259006E+02  0.28166473541E+02  0.51100000000E-03 0.  1.
         12    1    3    3    0    0 -0.21692767207E+01 -0.48115787290E+00  0.58833005583E+01  0.62889188140E+01  0.00000000000E+00 0. -1.
</event>
<event>
 7    1  0.2297343E-008  0.4614231E+02  0.7816164E-02  0.1320468E+00
        -11   -1    0    0    0    0  0.00000000000E+00  0.00000000000E+00  0.45593999997E+02  0.45594000000E+02  0.51100000000E-03 0.  1.
         11   -1    0    0    0    0 -0.00000000000E+00 -0.00000000000E+00 -0.45593999997E+02  0.45594000000E+02  0.51100000000E-03 0. -1.
    9900012    2    1    2    0    0  0.29826083176E+01 -0.38117708426E+02  0.23817181813E+02  0.46142314329E+02  0.99999687074E+01 0.  0.
         12    1    1    2    0    0 -0.29826083176E+01  0.38117708426E+02 -0.23817181813E+02  0.45045685671E+02  0.00000000000E+00 0. -1.
         11    1    3    3    0    0 -0.10536047949E+01 -0.11678392277E+02  0.10526125823E+02  0.15757355563E+02  0.51100000000E-03 0. -1.
        -11    1    3    3    0    0  0.82044246835E-01 -0.17663911561E+02  0.93290331390E+01  0.19976269984E+02  0.51100000000E-03 0.  1.
         12    1    3    3    0    0  0.39541688657E+01 -0.87754045876E+01  0.39620228507E+01  0.10408688782E+02  0.00000000000E+00 0. -1.
</event>
<event>
 7    1  0.2297343E-008  0.4614232E+02  0.7816164E-02  0.1320468E+00
        -11   -1    0    0    0    0  0.00000000000E+00  0.00000000000E+00  0.45593999997E+02  0.45594000000E+02  0.51100000000E-03 0.  1.
         11   -1    0    0    0    0 -0.00000000000E+00 -0.00000000000E+00 -0.45593999997E+02  0.45594000000E+02  0.51100000000E-03 0. -1.
    9900012    2    1    2    0    0  0.20196361526E+01 -0.23667180333E+02  0.38274002693E+02  0.46142316108E+02  0.99999849300E+01 0.  0.
         12    1    1    2    0    0 -0.20196361526E+01  0.23667180333E+02 -0.38274002693E+02  0.45045683892E+02  0.00000000000E+00 0. -1.
         11    1    3    3    0    0 -0.41353122817E+00 -0.98734745908E+01  0.98772136894E+01  0.13971966902E+02  0.51100000000E-03 0. -1.
        -11    1    3    3    0    0  0.26402090222E+00 -0.12585633213E+02  0.22720044376E+02  0.25974377512E+02  0.51100000000E-03 0.  1.
         12    1    3    3    0    0  0.21691464785E+01 -0.12080725293E+01  0.56767446272E+01  0.61959716948E+01  0.00000000000E+00 0. -1.
</event>
<event>
 7    1  0.2297343E-008  0.4614232E+02  0.7816164E-02  0.1320468E+00
        -11   -1    0    0    0    0  0.00000000000E+00  0.00000000000E+00  0.45593999997E+02  0.45594000000E+02  0.51100000000E-03 0.  1.
         11   -1    0    0    0    0 -0.00000000000E+00 -0.00000000000E+00 -0.45593999997E+02  0.45594000000E+02  0.51100000000E-03 0. -1.
    9900012    2    1    2    0    0 -0.29362436425E+01  0.19648543341E+02  0.40428043392E+02  0.46142317914E+02  0.10000001390E+02 0.  0.
         12    1    1    2    0    0  0.29362436425E+01 -0.19648543341E+02 -0.40428043392E+02  0.45045682086E+02  0.00000000000E+00 0. -1.
         11    1    3    3    0    0 -0.21152281530E+01  0.39404116814E+01  0.61576908797E+01  0.76104002253E+01  0.51100000000E-03 0. -1.
        -11    1    3    3    0    0 -0.10676247101E+01  0.16192153232E+02  0.28981595397E+02  0.33215335627E+02  0.51100000000E-03 0.  1.
        -12    1    3    3    0    0  0.24660922060E+00 -0.48402157246E+00  0.52887571155E+01  0.53165820615E+01  0.00000000000E+00 0.  1.
</event>
<event>
 7    1  0.2297343E-008  0.4614232E+02  0.7816164E-02  0.1320468E+00
        -11   -1    0    0    0    0  0.00000000000E+00  0.00000000000E+00  0.45593999997E+02  0.45594000000E+02  0.51100000000E-03 0.  1.
         11   -1    0    0    0    0 -0.00000000000E+00 -0.00000000000E+00 -0.45593999997E+02  0.45594000000E+02  0.51100000000E-03 0. -1.
    9900012    2    1    2    0    0  0.28061100761E+01 -0.43432639626E+02  0.11612280148E+02  0.46142317756E+02  0.99999999521E+01 0.  0.
         12    1    1    2    0    0 -0.28061100761E+01  0.43432639626E+02 -0.11612280148E+02  0.45045682244E+02  0.00000000000E+00 0. -1.
         11    1    3    3    0    0  0.12459771100E+01 -0.28513309855E+01  0.63531086372E+00  0.31758727150E+01  0.51100000000E-03 0. -1.
        -11    1    3    3    0    0 -0.87347214015E+00 -0.14315948750E+02 -0.13598260554E+00  0.14343215599E+02  0.51100000000E-03 0.  1.
         12    1    3    3    0    0  0.24336051063E+01 -0.26265359890E+02  0.11112951890E+02  0.28623229442E+02  0.00000000000E+00 0. -1.
</event>
<event>
 7    1  0.2297343E-008  0.4614232E+02  0.7816164E-02  0.1320468E+00
        -11   -1    0    0    0    0  0.00000000000E+00  0.00000000000E+00  0.45593999997E+02  0.45594000000E+02  0.51100000000E-03 0. -1.
         11   -1    0    0    0    0 -0.00000000000E+00 -0.00000000000E+00 -0.45593999997E+02  0.45594000000E+02  0.51100000000E-03 0.  1.
    9900012    2    1    2    0    0 -0.26638172447E+02  0.23827433014E+02  0.27418511720E+02  0.46142316741E+02  0.99999906942E+01 0.  0.
         12    1    1    2    0    0  0.26638172447E+02 -0.23827433014E+02 -0.27418511720E+02  0.45045683259E+02  0.00000000000E+00 0. -1.
         11    1    3    3    0    0 -0.14705470605E+02  0.12920566032E+02  0.18405780725E+02  0.26869400005E+02  0.51100000000E-03 0.  1.
        -11    1    3    3    0    0 -0.43455893882E+01  0.70534512142E+01  0.60643858041E+01  0.10267039330E+02  0.51100000000E-03 0. -1.
         12    1    3    3    0    0 -0.75871124544E+01  0.38534157675E+01  0.29483451914E+01  0.90058774054E+01  0.00000000000E+00 0. -1.
</event>
<event>
 7    1  0.2297343E-008  0.4614232E+02  0.7816164E-02  0.1320468E+00
        -11   -1    0    0    0    0  0.00000000000E+00  0.00000000000E+00  0.45593999997E+02  0.45594000000E+02  0.51100000000E-03 0.  1.
         11   -1    0    0    0    0 -0.00000000000E+00 -0.00000000000E+00 -0.45593999997E+02  0.45594000000E+02  0.51100000000E-03 0. -1.
    9900012    2    1    2    0    0  0.13472964429E+02 -0.45424647375E+01  0.42742938067E+02  0.46142317510E+02  0.99999977105E+01 0.  0.
         12    1    1    2    0    0 -0.13472964429E+02  0.45424647375E+01 -0.42742938067E+02  0.45045682490E+02  0.00000000000E+00 0. -1.
         11    1    3    3    0    0  0.28888070947E+01 -0.18586542706E+01  0.14687144371E+02  0.15083501323E+02  0.51100000000E-03 0. -1.
        -11    1    3    3    0    0  0.83342102454E+01  0.15943582419E+01  0.18266944515E+02  0.20141556564E+02  0.51100000000E-03 0.  1.
        -12    1    3    3    0    0  0.22499470889E+01 -0.42781687087E+01  0.97888491804E+01  0.10917259623E+02  0.00000000000E+00 0.  1.
</event>
<event>
 7    1  0.2297343E-008  0.4614232E+02  0.7816164E-02  0.1320468E+00
        -11   -1    0    0    0    0  0.00000000000E+00  0.00000000000E+00  0.45593999997E+02  0.45594000000E+02  0.51100000000E-03 0.  1.
         11   -1    0    0    0    0 -0.00000000000E+00 -0.00000000000E+00 -0.45593999997E+02  0.45594000000E+02  0.51100000000E-03 0. -1.
    9900012    2    1    2    0    0  0.47761239934E+01 -0.92865849563E+01  0.43818506361E+02  0.46142317407E+02  0.99999967748E+01 0.  0.
         12    1    1    2    0    0 -0.47761239934E+01  0.92865849563E+01 -0.43818506361E+02  0.45045682593E+02  0.00000000000E+00 0. -1.
         11    1    3    3    0    0  0.25261221847E+01 -0.52221237398E+01  0.78397319297E+01  0.97526030697E+01  0.51100000000E-03 0. -1.
        -11    1    3    3    0    0  0.13315743241E+01 -0.49746535547E-01  0.92698663184E+01  0.93651474479E+01  0.51100000000E-03 0.  1.
         12    1    3    3    0    0  0.91842748454E+00 -0.40147146810E+01  0.26708908113E+02  0.27024566890E+02  0.00000000000E+00 0. -1.
</event>
<event>
 7    1  0.2297343E-008  0.4614232E+02  0.7816164E-02  0.1320468E+00
        -11   -1    0    0    0    0  0.00000000000E+00  0.00000000000E+00  0.45593999997E+02  0.45594000000E+02  0.51100000000E-03 0.  1.
         11   -1    0    0    0    0 -0.00000000000E+00 -0.00000000000E+00 -0.45593999997E+02  0.45594000000E+02  0.51100000000E-03 0. -1.
    9900012    2    1    2    0    0 -0.32722694764E+02  0.30692484088E+02  0.40386122287E+01  0.46142315181E+02  0.99999764699E+01 0.  0.
         12    1    1    2    0    0  0.32722694764E+02 -0.30692484088E+02 -0.40386122287E+01  0.45045684819E+02  0.00000000000E+00 0. -1.
         11    1    3    3    0    0 -0.22079420190E+01  0.58930931922E+01 -0.10259645280E+01  0.63762182212E+01  0.51100000000E-03 0. -1.
        -11    1    3    3    0    0 -0.13670109520E+02  0.12043851639E+02  0.97654932762E+00  0.18244996723E+02  0.51100000000E-03 0.  1.
         12    1    3    3    0    0 -0.16844643225E+02  0.12755539258E+02  0.40880274291E+01  0.21521100237E+02  0.00000000000E+00 0. -1.
</event>
<event>
 7    1  0.2297343E-008  0.4614232E+02  0.7816164E-02  0.1320468E+00
        -11   -1    0    0    0    0  0.00000000000E+00  0.00000000000E+00  0.45593999997E+02  0.45594000000E+02  0.51100000000E-03 0.  1.
         11   -1    0    0    0    0 -0.00000000000E+00 -0.00000000000E+00 -0.45593999997E+02  0.45594000000E+02  0.51100000000E-03 0. -1.
    9900012    2    1    2    0    0  0.41177478439E+02 -0.17536958820E+02 -0.50974315573E+01  0.46142318035E+02  0.10000002495E+02 0.  0.
         12    1    1    2    0    0 -0.41177478439E+02  0.17536958820E+02  0.50974315573E+01  0.45045681965E+02  0.00000000000E+00 0. -1.
         11    1    3    3    0    0  0.11832898829E+01 -0.16125516125E+00 -0.14972650049E+01  0.19151973606E+01  0.51100000000E-03 0. -1.
        -11    1    3    3    0    0  0.74155350852E+01 -0.61235721630E+00 -0.49136571756E+00  0.74569821301E+01  0.51100000000E-03 0.  1.
        -12    1    3    3    0    0  0.32578653471E+02 -0.16763346443E+02 -0.31088008349E+01  0.36770138544E+02  0.00000000000E+00 0.  1.
</event>
<event>
 7    1  0.2297343E-008  0.4614232E+02  0.7816164E-02  0.1320468E+00
        -11   -1    0    0    0    0  0.00000000000E+00  0.00000000000E+00  0.45593999997E+02  0.45594000000E+02  0.51100000000E-03 0. -1.
         11   -1    0    0    0    0 -0.00000000000E+00 -0.00000000000E+00 -0.45593999997E+02  0.45594000000E+02  0.51100000000E-03 0.  1.
    9900012    2    1    2    0    0 -0.37872846037E+02  0.16225708555E+02 -0.18206795520E+02  0.46142317763E+02  0.10000000020E+02 0.  0.
         12    1    1    2    0    0  0.37872846037E+02 -0.16225708555E+02  0.18206795520E+02  0.45045682237E+02  0.00000000000E+00 0. -1.
         11    1    3    3    0    0 -0.13796682485E+02  0.10660541872E+02 -0.95820113312E+01  0.19894987861E+02  0.51100000000E-03 0. -1.
        -11    1    3    3    0    0 -0.62449343121E+01  0.11764910977E+01 -0.31018453845E+01  0.70714058656E+01  0.51100000000E-03 0.  1.
         12    1    3    3    0    0 -0.17831229240E+02  0.43886755857E+01 -0.55229388039E+01  0.19175924036E+02  0.00000000000E+00 0. -1.
</event>
<event>
 7    1  0.2297343E-008  0.4614232E+02  0.7816164E-02  0.1320468E+00
        -11   -1    0    0    0    0  0.00000000000E+00  0.00000000000E+00  0.45593999997E+02  0.45594000000E+02  0.51100000000E-03 0.  1.
         11   -1    0    0    0    0 -0.00000000000E+00 -0.00000000000E+00 -0.45593999997E+02  0.45594000000E+02  0.51100000000E-03 0. -1.
    9900012    2    1    2    0    0 -0.50166811592E+01  0.11210975060E+02  0.43338901731E+02  0.46142318133E+02  0.10000003388E+02 0.  0.
         12    1    1    2    0    0  0.50166811592E+01 -0.11210975060E+02 -0.43338901731E+02  0.45045681867E+02  0.00000000000E+00 0. -1.
         11    1    3    3    0    0 -0.35077096134E+01  0.26720675799E+00  0.57831082829E+01  0.67690300528E+01  0.51100000000E-03 0. -1.
        -11    1    3    3    0    0  0.38715183510E+00  0.50543371433E+01  0.23090005920E+02  0.23639893911E+02  0.51100000000E-03 0.  1.
        -12    1    3    3    0    0 -0.18961233809E+01  0.58894311584E+01  0.14465787529E+02  0.15733394169E+02  0.00000000000E+00 0.  1.
</event>
<event>
 7    1  0.2297343E-008  0.4614232E+02  0.7816164E-02  0.1320468E+00
        -11   -1    0    0    0    0  0.00000000000E+00  0.00000000000E+00  0.45593999997E+02  0.45594000000E+02  0.51100000000E-03 0.  1.
         11   -1    0    0    0    0 -0.00000000000E+00 -0.00000000000E+00 -0.45593999997E+02  0.45594000000E+02  0.51100000000E-03 0. -1.
    9900012    2    1    2    0    0 -0.69399699688E+01 -0.33202591877E+02  0.29640145484E+02  0.46142317468E+02  0.99999973248E+01 0.  0.
         12    1    1    2    0    0  0.69399699688E+01  0.33202591877E+02 -0.29640145484E+02  0.45045682532E+02  0.00000000000E+00 0. -1.
         11    1    3    3    0    0  0.13512266849E+01 -0.78160370644E+01  0.83712556583E+01  0.11532309851E+02  0.51100000000E-03 0. -1.
        -11    1    3    3    0    0 -0.20684498086E+01 -0.15358780760E+02  0.12385721753E+02  0.19838768476E+02  0.51100000000E-03 0.  1.
         12    1    3    3    0    0 -0.62227468450E+01 -0.10027774052E+02  0.88831680726E+01  0.14771239141E+02  0.00000000000E+00 0. -1.
</event>
<event>
 7    1  0.2297343E-008  0.4614232E+02  0.7816164E-02  0.1320468E+00
        -11   -1    0    0    0    0  0.00000000000E+00  0.00000000000E+00  0.45593999997E+02  0.45594000000E+02  0.51100000000E-03 0.  1.
         11   -1    0    0    0    0 -0.00000000000E+00 -0.00000000000E+00 -0.45593999997E+02  0.45594000000E+02  0.51100000000E-03 0. -1.
    9900012    2    1    2    0    0  0.44686057862E+02 -0.51137339710E+01  0.24737483785E+01  0.46142317927E+02  0.10000001510E+02 0.  0.
         12    1    1    2    0    0 -0.44686057862E+02  0.51137339710E+01 -0.24737483785E+01  0.45045682073E+02  0.00000000000E+00 0. -1.
         11    1    3    3    0    0  0.19769608424E+02 -0.41179745343E+01  0.42293016607E+01  0.20632065440E+02  0.51100000000E-03 0. -1.
        -11    1    3    3    0    0  0.18325719731E+02 -0.15015446298E+01  0.84608220358E+00  0.18406588367E+02  0.51100000000E-03 0.  1.
         12    1    3    3    0    0  0.65907297069E+01  0.50578519314E+00 -0.26016354859E+01  0.71036641202E+01  0.00000000000E+00 0. -1.
</event>
<event>
 7    1  0.2297343E-008  0.4614232E+02  0.7816164E-02  0.1320468E+00
        -11   -1    0    0    0    0  0.00000000000E+00  0.00000000000E+00  0.45593999997E+02  0.45594000000E+02  0.51100000000E-03 0. -1.
         11   -1    0    0    0    0 -0.00000000000E+00 -0.00000000000E+00 -0.45593999997E+02  0.45594000000E+02  0.51100000000E-03 0.  1.
    9900012    2    1    2    0    0 -0.90052994926E+01 -0.30241376351E+02 -0.32147741136E+02  0.46142317380E+02  0.99999965262E+01 0.  0.
         12    1    1    2    0    0  0.90052994926E+01  0.30241376351E+02  0.32147741136E+02  0.45045682620E+02  0.00000000000E+00 0. -1.
         11    1    3    3    0    0 -0.28492047893E+00 -0.39191487382E+01 -0.13056113871E+01  0.41407158640E+01  0.51100000000E-03 0. -1.
        -11    1    3    3    0    0 -0.30507170609E+01 -0.76576344092E+01 -0.13921116197E+02  0.16178495472E+02  0.51100000000E-03 0.  1.
         12    1    3    3    0    0 -0.56696619527E+01 -0.18664593204E+02 -0.16921013552E+02  0.25823106044E+02  0.00000000000E+00 0. -1.
</event>
<event>
 7    1  0.2297343E-008  0.4614232E+02  0.7816164E-02  0.1320468E+00
        -11   -1    0    0    0    0  0.00000000000E+00  0.00000000000E+00  0.45593999997E+02  0.45594000000E+02  0.51100000000E-03 0. -1.
         11   -1    0    0    0    0 -0.00000000000E+00 -0.00000000000E+00 -0.45593999997E+02  0.45594000000E+02  0.51100000000E-03 0.  1.
    9900012    2    1    2    0    0  0.41768910946E+02  0.13873041646E+02  0.95922032523E+01  0.46142316862E+02  0.99999918011E+01 0.  0.
         12    1    1    2    0    0 -0.41768910946E+02 -0.13873041646E+02 -0.95922032523E+01  0.45045683138E+02  0.00000000000E+00 0. -1.
         11    1    3    3    0    0  0.55258744309E+01  0.52280035465E+00  0.15927295193E+01  0.57745472567E+01  0.51100000000E-03 0. -1.
        -11    1    3    3    0    0  0.31292188733E+02  0.14458436675E+02  0.65102025780E+01  0.35080339290E+02  0.51100000000E-03 0.  1.
        -12    1    3    3    0    0  0.49508477820E+01 -0.11081953840E+01  0.14892711550E+01  0.52874303157E+01  0.00000000000E+00 0.  1.
</event>
<event>
 7    1  0.2297343E-008  0.4614232E+02  0.7816164E-02  0.1320468E+00
        -11   -1    0    0    0    0  0.00000000000E+00  0.00000000000E+00  0.45593999997E+02  0.45594000000E+02  0.51100000000E-03 0.  1.
         11   -1    0    0    0    0 -0.00000000000E+00 -0.00000000000E+00 -0.45593999997E+02  0.45594000000E+02  0.51100000000E-03 0. -1.
    9900012    2    1    2    0    0  0.93679237043E+01  0.14414224193E+02  0.41636350435E+02  0.46142317286E+02  0.99999956692E+01 0.  0.
         12    1    1    2    0    0 -0.93679237043E+01 -0.14414224193E+02 -0.41636350435E+02  0.45045682714E+02  0.00000000000E+00 0. -1.
         11    1    3    3    0    0 -0.20317108330E+00  0.23806108309E+01  0.47381922177E+01  0.53065103571E+01  0.51100000000E-03 0. -1.
        -11    1    3    3    0    0  0.11054292728E+01  0.76280492503E+01  0.19921599891E+02  0.21360694083E+02  0.51100000000E-03 0.  1.
         12    1    3    3    0    0  0.84656655147E+01  0.44055641116E+01  0.16976558326E+02  0.19475112846E+02  0.00000000000E+00 0. -1.
</event>
<event>
 7    1  0.2297343E-008  0.4614232E+02  0.7816164E-02  0.1320468E+00
        -11   -1    0    0    0    0  0.00000000000E+00  0.00000000000E+00  0.45593999997E+02  0.45594000000E+02  0.51100000000E-03 0.  1.
         11   -1    0    0    0    0 -0.00000000000E+00 -0.00000000000E+00 -0.45593999997E+02  0.45594000000E+02  0.51100000000E-03 0. -1.
    9900012    2    1    2    0    0  0.28390101603E+02 -0.23032355508E+02  0.26317796947E+02  0.46142315352E+02  0.99999780298E+01 0.  0.
         12    1    1    2    0    0 -0.28390101603E+02  0.23032355508E+02 -0.26317796947E+02  0.45045684648E+02  0.00000000000E+00 0. -1.
         11    1    3    3    0    0  0.25717018835E+01 -0.43620727189E+01  0.55204894959E+01  0.74911369977E+01  0.51100000000E-03 0.  1.
        -11    1    3    3    0    0  0.94579876042E+01 -0.32038719279E+01  0.51667425811E+01  0.11243378230E+02  0.51100000000E-03 0. -1.
         12    1    3    3    0    0  0.16360412116E+02 -0.15466410861E+02  0.15630564870E+02  0.27407800125E+02  0.00000000000E+00 0. -1.
</event>
<event>
 7    1  0.2297343E-008  0.4614232E+02  0.7816164E-02  0.1320468E+00
        -11   -1    0    0    0    0  0.00000000000E+00  0.00000000000E+00  0.45593999997E+02  0.45594000000E+02  0.51100000000E-03 0.  1.
         11   -1    0    0    0    0 -0.00000000000E+00 -0.00000000000E+00 -0.45593999997E+02  0.45594000000E+02  0.51100000000E-03 0. -1.
    9900012    2    1    2    0    0  0.22789337694E+01  0.23996320416E+02  0.38053860292E+02  0.46142320787E+02  0.10000027594E+02 0.  0.
         12    1    1    2    0    0 -0.22789337694E+01 -0.23996320416E+02 -0.38053860292E+02  0.45045679213E+02  0.00000000000E+00 0. -1.
         11    1    3    3    0    0  0.38126823652E+00 -0.17494392653E+00  0.17895162276E+00  0.45606445819E+00  0.51100000000E-03 0. -1.
        -11    1    3    3    0    0  0.38205668380E+01  0.16443279864E+02  0.20376460546E+02  0.26460882984E+02  0.51100000000E-03 0.  1.
        -12    1    3    3    0    0 -0.19229013051E+01  0.77279844780E+01  0.17498448123E+02  0.19225373345E+02  0.00000000000E+00 0.  1.
</event>
<event>
 7    1  0.2297343E-008  0.4614232E+02  0.7816164E-02  0.1320468E+00
        -11   -1    0    0    0    0  0.00000000000E+00  0.00000000000E+00  0.45593999997E+02  0.45594000000E+02  0.51100000000E-03 0.  1.
         11   -1    0    0    0    0 -0.00000000000E+00 -0.00000000000E+00 -0.45593999997E+02  0.45594000000E+02  0.51100000000E-03 0. -1.
    9900012    2    1    2    0    0  0.31446473317E+01 -0.29455286649E+02  0.33935391426E+02  0.46142317524E+02  0.99999978410E+01 0.  0.
         12    1    1    2    0    0 -0.31446473317E+01  0.29455286649E+02 -0.33935391426E+02  0.45045682476E+02  0.00000000000E+00 0. -1.
         11    1    3    3    0    0 -0.20674825100E+00 -0.88605723914E+01  0.12706929141E+02  0.15492531633E+02  0.51100000000E-03 0. -1.
        -11    1    3    3    0    0  0.34475179531E+01 -0.14388145575E+02  0.18940397768E+02  0.24034200236E+02  0.51100000000E-03 0.  1.
        -12    1    3    3    0    0 -0.96122370357E-01 -0.62065686828E+01  0.22880645174E+01  0.66155856551E+01  0.00000000000E+00 0.  1.
</event>
<event>
 7    1  0.2297343E-008  0.4614232E+02  0.7816164E-02  0.1320468E+00
        -11   -1    0    0    0    0  0.00000000000E+00  0.00000000000E+00  0.45593999997E+02  0.45594000000E+02  0.51100000000E-03 0.  1.
         11   -1    0    0    0    0 -0.00000000000E+00 -0.00000000000E+00 -0.45593999997E+02  0.45594000000E+02  0.51100000000E-03 0. -1.
    9900012    2    1    2    0    0  0.98409670709E+01  0.43251492409E+02  0.78471187155E+01  0.46142317625E+02  0.99999987577E+01 0.  0.
         12    1    1    2    0    0 -0.98409670709E+01 -0.43251492409E+02 -0.78471187155E+01  0.45045682375E+02  0.00000000000E+00 0. -1.
         11    1    3    3    0    0  0.86882591452E+00  0.66022087849E+01  0.31933674321E+01  0.73852295243E+01  0.51100000000E-03 0. -1.
        -11    1    3    3    0    0  0.48955044691E+01  0.13636421036E+02  0.51613442912E+01  0.15380423201E+02  0.51100000000E-03 0.  1.
        -12    1    3    3    0    0  0.40766366872E+01  0.23012862588E+02 -0.50759300773E+00  0.23376664899E+02  0.00000000000E+00 0.  1.
</event>
<event>
 7    1  0.2297343E-008  0.4614232E+02  0.7816164E-02  0.1320468E+00
        -11   -1    0    0    0    0  0.00000000000E+00  0.00000000000E+00  0.45593999997E+02  0.45594000000E+02  0.51100000000E-03 0.  1.
         11   -1    0    0    0    0 -0.00000000000E+00 -0.00000000000E+00 -0.45593999997E+02  0.45594000000E+02  0.51100000000E-03 0. -1.
    9900012    2    1    2    0    0  0.90162645508E+01  0.31240947315E+02  0.31174086780E+02  0.46142317608E+02  0.99999986055E+01 0.  0.
         12    1    1    2    0    0 -0.90162645508E+01 -0.31240947315E+02 -0.31174086780E+02  0.45045682392E+02  0.00000000000E+00 0. -1.
         11    1    3    3    0    0 -0.81414087145E+00  0.49163768749E+00  0.10739056391E+01  0.14345056839E+01  0.51100000000E-03 0. -1.
        -11    1    3    3    0    0  0.84591374875E+01  0.17597038680E+02  0.14899617746E+02  0.24560362102E+02  0.51100000000E-03 0.  1.
        -12    1    3    3    0    0  0.13712679347E+01  0.13152270947E+02  0.15200563395E+02  0.20147449822E+02  0.00000000000E+00 0.  1.
</event>
<event>
 7    1  0.2297343E-008  0.4614232E+02  0.7816164E-02  0.1320468E+00
        -11   -1    0    0    0    0  0.00000000000E+00  0.00000000000E+00  0.45593999997E+02  0.45594000000E+02  0.51100000000E-03 0.  1.
         11   -1    0    0    0    0 -0.00000000000E+00 -0.00000000000E+00 -0.45593999997E+02  0.45594000000E+02  0.51100000000E-03 0. -1.
    9900012    2    1    2    0    0 -0.21664384807E+02 -0.28010035040E+02 -0.27842521006E+02  0.46142316433E+02  0.99999878930E+01 0.  0.
         12    1    1    2    0    0  0.21664384807E+02  0.28010035040E+02  0.27842521006E+02  0.45045683567E+02  0.00000000000E+00 0. -1.
         11    1    3    3    0    0  0.47800822993E+00 -0.28141039131E+01 -0.26649723494E+01  0.39050929037E+01  0.51100000000E-03 0. -1.
        -11    1    3    3    0    0 -0.20318379696E+02 -0.24034477083E+02 -0.22021532042E+02  0.38411463339E+02  0.51100000000E-03 0.  1.
        -12    1    3    3    0    0 -0.18240133409E+01 -0.11614540439E+01 -0.31560166143E+01  0.38257601903E+01  0.00000000000E+00 0.  1.
</event>
<event>
 7    1  0.2297343E-008  0.4614232E+02  0.7816164E-02  0.1320468E+00
        -11   -1    0    0    0    0  0.00000000000E+00  0.00000000000E+00  0.45593999997E+02  0.45594000000E+02  0.51100000000E-03 0.  1.
         11   -1    0    0    0    0 -0.00000000000E+00 -0.00000000000E+00 -0.45593999997E+02  0.45594000000E+02  0.51100000000E-03 0. -1.
    9900012    2    1    2    0    0  0.21706305628E+02  0.21318598687E+02  0.33218475776E+02  0.46142317777E+02  0.10000000146E+02 0.  0.
         12    1    1    2    0    0 -0.21706305628E+02 -0.21318598687E+02 -0.33218475776E+02  0.45045682223E+02  0.00000000000E+00 0. -1.
         11    1    3    3    0    0  0.38957426590E+01  0.43904269272E+01  0.40359210038E+01  0.71232940469E+01  0.51100000000E-03 0. -1.
        -11    1    3    3    0    0  0.10273652315E+02  0.12596821003E+02  0.13679483949E+02  0.21245143272E+02  0.51100000000E-03 0.  1.
         12    1    3    3    0    0  0.75369106540E+01  0.43313507574E+01  0.15503070823E+02  0.17773880458E+02  0.00000000000E+00 0. -1.
</event>
<event>
 7    1  0.2297343E-008  0.4614232E+02  0.7816164E-02  0.1320468E+00
        -11   -1    0    0    0    0  0.00000000000E+00  0.00000000000E+00  0.45593999997E+02  0.45594000000E+02  0.51100000000E-03 0.  1.
         11   -1    0    0    0    0 -0.00000000000E+00 -0.00000000000E+00 -0.45593999997E+02  0.45594000000E+02  0.51100000000E-03 0. -1.
    9900012    2    1    2    0    0  0.10166815730E+02  0.12939710217E+01  0.43864278112E+02  0.46142318771E+02  0.10000009210E+02 0.  0.
         12    1    1    2    0    0 -0.10166815730E+02 -0.12939710217E+01 -0.43864278112E+02  0.45045681229E+02  0.00000000000E+00 0. -1.
         11    1    3    3    0    0  0.27700932239E+01 -0.13801529644E+01  0.49758220363E+01  0.58597818963E+01  0.51100000000E-03 0.  1.
        -11    1    3    3    0    0  0.98404842789E+00 -0.11204603274E+00  0.25664620350E+00  0.10231193268E+01  0.51100000000E-03 0. -1.
        -12    1    3    3    0    0  0.64126740784E+01  0.27861700189E+01  0.38631809872E+02  0.39259417548E+02  0.00000000000E+00 0.  1.
</event>
<event>
 7    1  0.2297343E-008  0.4614232E+02  0.7816164E-02  0.1320468E+00
        -11   -1    0    0    0    0  0.00000000000E+00  0.00000000000E+00  0.45593999997E+02  0.45594000000E+02  0.51100000000E-03 0.  1.
         11   -1    0    0    0    0 -0.00000000000E+00 -0.00000000000E+00 -0.45593999997E+02  0.45594000000E+02  0.51100000000E-03 0. -1.
    9900012    2    1    2    0    0 -0.15613098549E+02  0.11972751671E+02  0.40521572628E+02  0.46142317886E+02  0.10000001140E+02 0.  0.
         12    1    1    2    0    0  0.15613098549E+02 -0.11972751671E+02 -0.40521572628E+02  0.45045682114E+02  0.00000000000E+00 0. -1.
         11    1    3    3    0    0 -0.78442023533E+00  0.11276232360E+01  0.61813575186E+01  0.63321426312E+01  0.51100000000E-03 0. -1.
        -11    1    3    3    0    0 -0.91945097943E+01  0.16291764094E+01  0.15886402818E+02  0.18427452914E+02  0.51100000000E-03 0.  1.
         12    1    3    3    0    0 -0.56341685196E+01  0.92159520254E+01  0.18453812291E+02  0.21382722341E+02  0.00000000000E+00 0. -1.
</event>
<event>
 7    1  0.2297343E-008  0.4614232E+02  0.7816164E-02  0.1320468E+00
        -11   -1    0    0    0    0  0.00000000000E+00  0.00000000000E+00  0.45593999997E+02  0.45594000000E+02  0.51100000000E-03 0. -1.
         11   -1    0    0    0    0 -0.00000000000E+00 -0.00000000000E+00 -0.45593999997E+02  0.45594000000E+02  0.51100000000E-03 0.  1.
    9900012    2    1    2    0    0 -0.77266563582E+01  0.13764210413E+02 -0.42189558338E+02  0.46142317193E+02  0.99999948222E+01 0.  0.
         12    1    1    2    0    0  0.77266563582E+01 -0.13764210413E+02  0.42189558338E+02  0.45045682807E+02  0.00000000000E+00 0. -1.
         11    1    3    3    0    0 -0.24924890180E+01 -0.39740182901E+00 -0.39893125109E+01  0.47207037918E+01  0.51100000000E-03 0. -1.
        -11    1    3    3    0    0 -0.28057750955E+01  0.65416125004E+01 -0.11275957468E+02  0.13334627294E+02  0.51100000000E-03 0.  1.
        -12    1    3    3    0    0 -0.24283922446E+01  0.76199997414E+01 -0.26924288359E+02  0.28086986107E+02  0.00000000000E+00 0.  1.
</event>
<event>
 7    1  0.2297343E-008  0.4614232E+02  0.7816164E-02  0.1320468E+00
        -11   -1    0    0    0    0  0.00000000000E+00  0.00000000000E+00  0.45593999997E+02  0.45594000000E+02  0.51100000000E-03 0.  1.
         11   -1    0    0    0    0 -0.00000000000E+00 -0.00000000000E+00 -0.45593999997E+02  0.45594000000E+02  0.51100000000E-03 0. -1.
    9900012    2    1    2    0    0  0.21320144769E+01  0.44309414892E+02  0.78258393115E+01  0.46142317690E+02  0.99999993522E+01 0.  0.
         12    1    1    2    0    0 -0.21320144769E+01 -0.44309414892E+02 -0.78258393115E+01  0.45045682310E+02  0.00000000000E+00 0. -1.
         11    1    3    3    0    0  0.24037881136E+01  0.14017096811E+02  0.78370045318E+00  0.14243292701E+02  0.51100000000E-03 0. -1.
        -11    1    3    3    0    0  0.31439039556E+01  0.20308747445E+02  0.50281208334E+01  0.21156827604E+02  0.51100000000E-03 0.  1.
         12    1    3    3    0    0 -0.34156775923E+01  0.99835706359E+01  0.20140180250E+01  0.10742197385E+02  0.00000000000E+00 0. -1.
</event>
<event>
 7    1  0.2297343E-008  0.4614232E+02  0.7816164E-02  0.1320468E+00
        -11   -1    0    0    0    0  0.00000000000E+00  0.00000000000E+00  0.45593999997E+02  0.45594000000E+02  0.51100000000E-03 0.  1.
         11   -1    0    0    0    0 -0.00000000000E+00 -0.00000000000E+00 -0.45593999997E+02  0.45594000000E+02  0.51100000000E-03 0. -1.
    9900012    2    1    2    0    0 -0.41244158281E+02 -0.31414947259E+01  0.17837150055E+02  0.46142317593E+02  0.99999984658E+01 0.  0.
         12    1    1    2    0    0  0.41244158281E+02  0.31414947259E+01 -0.17837150055E+02  0.45045682407E+02  0.00000000000E+00 0. -1.
         11    1    3    3    0    0 -0.30146434592E+02 -0.60962460365E+01  0.14017802384E+02  0.33800451451E+02  0.51100000000E-03 0.  1.
        -11    1    3    3    0    0 -0.52893019597E+01  0.30822334121E+00  0.11408404076E+01  0.54197079207E+01  0.51100000000E-03 0. -1.
        -12    1    3    3    0    0 -0.58084217299E+01  0.26465279693E+01  0.26785072630E+01  0.69221582214E+01  0.00000000000E+00 0.  1.
</event>
<event>
 7    1  0.2297343E-008  0.4614232E+02  0.7816164E-02  0.1320468E+00
        -11   -1    0    0    0    0  0.00000000000E+00  0.00000000000E+00  0.45593999997E+02  0.45594000000E+02  0.51100000000E-03 0.  1.
         11   -1    0    0    0    0 -0.00000000000E+00 -0.00000000000E+00 -0.45593999997E+02  0.45594000000E+02  0.51100000000E-03 0. -1.
    9900012    2    1    2    0    0 -0.12355508619E+02 -0.18327905620E+02  0.39249747006E+02  0.46142319212E+02  0.10000013230E+02 0.  0.
         12    1    1    2    0    0  0.12355508619E+02  0.18327905620E+02 -0.39249747006E+02  0.45045680788E+02  0.00000000000E+00 0. -1.
         11    1    3    3    0    0 -0.45153242570E+01 -0.98303873404E+01  0.12647157179E+02  0.16642573520E+02  0.51100000000E-03 0.  1.
        -11    1    3    3    0    0 -0.34370534782E+01 -0.46275076299E+00  0.56185635695E+01  0.66027063940E+01  0.51100000000E-03 0. -1.
         12    1    3    3    0    0 -0.44031308834E+01 -0.80347675167E+01  0.20984026258E+02  0.22897039298E+02  0.00000000000E+00 0. -1.
</event>
<event>
 7    1  0.2297343E-008  0.4614232E+02  0.7816164E-02  0.1320468E+00
        -11   -1    0    0    0    0  0.00000000000E+00  0.00000000000E+00  0.45593999997E+02  0.45594000000E+02  0.51100000000E-03 0.  1.
         11   -1    0    0    0    0 -0.00000000000E+00 -0.00000000000E+00 -0.45593999997E+02  0.45594000000E+02  0.51100000000E-03 0. -1.
    9900012    2    1    2    0    0  0.16364680216E+02 -0.40381079561E+02  0.11431493935E+02  0.46142318756E+02  0.10000009074E+02 0.  0.
         12    1    1    2    0    0 -0.16364680216E+02  0.40381079561E+02 -0.11431493935E+02  0.45045681244E+02  0.00000000000E+00 0. -1.
         11    1    3    3    0    0  0.14027638486E+01 -0.85593449747E+01  0.39225819137E+01  0.95192847390E+01  0.51100000000E-03 0. -1.
        -11    1    3    3    0    0  0.12878978939E+02 -0.30251399005E+02  0.55114297029E+01  0.33337532870E+02  0.51100000000E-03 0.  1.
        -12    1    3    3    0    0  0.20829374289E+01 -0.15703355822E+01  0.19974823189E+01  0.32855011471E+01  0.00000000000E+00 0.  1.
</event>
<event>
 7    1  0.2297343E-008  0.4614232E+02  0.7816164E-02  0.1320468E+00
        -11   -1    0    0    0    0  0.00000000000E+00  0.00000000000E+00  0.45593999997E+02  0.45594000000E+02  0.51100000000E-03 0. -1.
         11   -1    0    0    0    0 -0.00000000000E+00 -0.00000000000E+00 -0.45593999997E+02  0.45594000000E+02  0.51100000000E-03 0.  1.
    9900012    2    1    2    0    0  0.34909142948E+02  0.27656140142E+02 -0.67530169748E+01  0.46142316664E+02  0.99999899981E+01 0.  0.
         12    1    1    2    0    0 -0.34909142948E+02 -0.27656140142E+02  0.67530169748E+01  0.45045683336E+02  0.00000000000E+00 0. -1.
         11    1    3    3    0    0  0.10793531133E+02  0.77523871558E+01  0.10250574054E+01  0.13328561959E+02  0.51100000000E-03 0. -1.
        -11    1    3    3    0    0  0.86570841236E+01  0.83958132779E+01 -0.75811311834E-01  0.12059872874E+02  0.51100000000E-03 0.  1.
        -12    1    3    3    0    0  0.15458527691E+02  0.11507939708E+02 -0.77022630684E+01  0.20753881832E+02  0.00000000000E+00 0.  1.
</event>
<event>
 7    1  0.2297343E-008  0.4614232E+02  0.7816164E-02  0.1320468E+00
        -11   -1    0    0    0    0  0.00000000000E+00  0.00000000000E+00  0.45593999997E+02  0.45594000000E+02  0.51100000000E-03 0.  1.
         11   -1    0    0    0    0 -0.00000000000E+00 -0.00000000000E+00 -0.45593999997E+02  0.45594000000E+02  0.51100000000E-03 0. -1.
    9900012    2    1    2    0    0 -0.14155071961E+02  0.99166841435E+01  0.41598158283E+02  0.46142318085E+02  0.10000002953E+02 0.  0.
         12    1    1    2    0    0  0.14155071961E+02 -0.99166841435E+01 -0.41598158283E+02  0.45045681915E+02  0.00000000000E+00 0. -1.
         11    1    3    3    0    0 -0.30501340236E+01  0.31156510580E+01  0.15681557719E+02  0.16276420117E+02  0.51100000000E-03 0. -1.
        -11    1    3    3    0    0  0.29508460494E+00  0.25770617825E+01  0.59246472382E+01  0.64675936416E+01  0.51100000000E-03 0.  1.
        -12    1    3    3    0    0 -0.11400022543E+02  0.42239713031E+01  0.19991953326E+02  0.23398304326E+02  0.00000000000E+00 0.  1.
</event>
<event>
 7    1  0.2297343E-008  0.4614232E+02  0.7816164E-02  0.1320468E+00
        -11   -1    0    0    0    0  0.00000000000E+00  0.00000000000E+00  0.45593999997E+02  0.45594000000E+02  0.51100000000E-03 0.  1.
         11   -1    0    0    0    0 -0.00000000000E+00 -0.00000000000E+00 -0.45593999997E+02  0.45594000000E+02  0.51100000000E-03 0. -1.
    9900012    2    1    2    0    0 -0.11370935745E+02  0.23006741512E+02  0.37020334327E+02  0.46142317761E+02  0.99999999972E+01 0.  0.
         12    1    1    2    0    0  0.11370935745E+02 -0.23006741512E+02 -0.37020334327E+02  0.45045682239E+02  0.00000000000E+00 0. -1.
         11    1    3    3    0    0  0.93642622400E+00  0.18719140338E+01  0.29860645025E+01  0.36465789032E+01  0.51100000000E-03 0. -1.
        -11    1    3    3    0    0 -0.15605697108E+00  0.55328142961E+01  0.57240240318E+01  0.79624643918E+01  0.51100000000E-03 0.  1.
        -12    1    3    3    0    0 -0.12151304998E+02  0.15602013182E+02  0.28310245793E+02  0.34533274466E+02  0.00000000000E+00 0.  1.
</event>
<event>
 7    1  0.2297343E-008  0.4614232E+02  0.7816164E-02  0.1320468E+00
        -11   -1    0    0    0    0  0.00000000000E+00  0.00000000000E+00  0.45593999997E+02  0.45594000000E+02  0.51100000000E-03 0. -1.
         11   -1    0    0    0    0 -0.00000000000E+00 -0.00000000000E+00 -0.45593999997E+02  0.45594000000E+02  0.51100000000E-03 0.  1.
    9900012    2    1    2    0    0  0.37306649670E+02 -0.24327750096E+02 -0.67444709444E+01  0.46142318491E+02  0.10000006656E+02 0.  0.
         12    1    1    2    0    0 -0.37306649670E+02  0.24327750096E+02  0.67444709444E+01  0.45045681509E+02  0.00000000000E+00 0. -1.
         11    1    3    3    0    0  0.42702221484E+01 -0.51008895807E+01 -0.75244995312E+00  0.66947780325E+01  0.51100000000E-03 0. -1.
        -11    1    3    3    0    0  0.23004320732E+02 -0.16315475917E+02 -0.20310458949E+01  0.28275761253E+02  0.51100000000E-03 0.  1.
         12    1    3    3    0    0  0.10032106789E+02 -0.29113845980E+01 -0.39609750964E+01  0.11171779205E+02  0.00000000000E+00 0. -1.
</event>
<event>
 7    1  0.2297343E-008  0.4614231E+02  0.7816164E-02  0.1320468E+00
        -11   -1    0    0    0    0  0.00000000000E+00  0.00000000000E+00  0.45593999997E+02  0.45594000000E+02  0.51100000000E-03 0. -1.
         11   -1    0    0    0    0 -0.00000000000E+00 -0.00000000000E+00 -0.45593999997E+02  0.45594000000E+02  0.51100000000E-03 0.  1.
    9900012    2    1    2    0    0  0.20525406086E+02  0.35451886358E+02 -0.18734605019E+02  0.46142312453E+02  0.99999515961E+01 0.  0.
         12    1    1    2    0    0 -0.20525406086E+02 -0.35451886358E+02  0.18734605019E+02  0.45045687547E+02  0.00000000000E+00 0. -1.
         11    1    3    3    0    0  0.12502150076E+01  0.94656271791E+01 -0.46086812429E+01  0.10601937489E+02  0.51100000000E-03 0. -1.
        -11    1    3    3    0    0  0.65053375104E+00  0.10680401961E+01 -0.15341246328E+01  0.19792530591E+01  0.51100000000E-03 0.  1.
        -12    1    3    3    0    0  0.18624657327E+02  0.24918218983E+02 -0.12591799143E+02  0.33561121905E+02  0.00000000000E+00 0.  1.
</event>
<event>
 7    1  0.2297343E-008  0.4614231E+02  0.7816164E-02  0.1320468E+00
        -11   -1    0    0    0    0  0.00000000000E+00  0.00000000000E+00  0.45593999997E+02  0.45594000000E+02  0.51100000000E-03 0. -1.
         11   -1    0    0    0    0 -0.00000000000E+00 -0.00000000000E+00 -0.45593999997E+02  0.45594000000E+02  0.51100000000E-03 0.  1.
    9900012    2    1    2    0    0 -0.35862958203E+01 -0.44700971007E+02  0.42515320927E+01  0.46142313727E+02  0.99999632161E+01 0.  0.
         12    1    1    2    0    0  0.35862958203E+01  0.44700971007E+02 -0.42515320927E+01  0.45045686273E+02  0.00000000000E+00 0. -1.
         11    1    3    3    0    0  0.97651212265E+00 -0.21494859929E+00  0.56856035620E+00  0.11502347438E+01  0.51100000000E-03 0. -1.
        -11    1    3    3    0    0 -0.21084129286E+01 -0.14615547221E+02  0.26528398195E+01  0.15003239151E+02  0.51100000000E-03 0.  1.
         12    1    3    3    0    0 -0.24543950144E+01 -0.29870475187E+02  0.10301319170E+01  0.29988839833E+02  0.00000000000E+00 0. -1.
</event>
<event>
 7    1  0.2297343E-008  0.4614232E+02  0.7816164E-02  0.1320468E+00
        -11   -1    0    0    0    0  0.00000000000E+00  0.00000000000E+00  0.45593999997E+02  0.45594000000E+02  0.51100000000E-03 0.  1.
         11   -1    0    0    0    0 -0.00000000000E+00 -0.00000000000E+00 -0.45593999997E+02  0.45594000000E+02  0.51100000000E-03 0. -1.
    9900012    2    1    2    0    0  0.18364075295E+01 -0.41143126604E+02  0.18247857492E+02  0.46142316939E+02  0.99999925065E+01 0.  0.
         12    1    1    2    0    0 -0.18364075295E+01  0.41143126604E+02 -0.18247857492E+02  0.45045683061E+02  0.00000000000E+00 0. -1.
         11    1    3    3    0    0 -0.58873437521E+00 -0.63944986320E+01  0.15337835068E+01  0.66021748709E+01  0.51100000000E-03 0. -1.
        -11    1    3    3    0    0 -0.15189698664E+01 -0.16156996530E+01  0.22940309480E+01  0.31906634224E+01  0.51100000000E-03 0.  1.
        -12    1    3    3    0    0  0.39441117710E+01 -0.33132928319E+02  0.14420043038E+02  0.36349478646E+02  0.00000000000E+00 0.  1.
</event>
<event>
 7    1  0.2297343E-008  0.4614232E+02  0.7816164E-02  0.1320468E+00
        -11   -1    0    0    0    0  0.00000000000E+00  0.00000000000E+00  0.45593999997E+02  0.45594000000E+02  0.51100000000E-03 0. -1.
         11   -1    0    0    0    0 -0.00000000000E+00 -0.00000000000E+00 -0.45593999997E+02  0.45594000000E+02  0.51100000000E-03 0.  1.
    9900012    2    1    2    0    0  0.25592119382E+01 -0.36114536918E+02 -0.26801197209E+02  0.46142317472E+02  0.99999973630E+01 0.  0.
         12    1    1    2    0    0 -0.25592119382E+01  0.36114536918E+02  0.26801197209E+02  0.45045682528E+02  0.00000000000E+00 0. -1.
         11    1    3    3    0    0  0.32100715371E+01 -0.36207864809E+01 -0.51034000775E+01  0.70327339368E+01  0.51100000000E-03 0. -1.
        -11    1    3    3    0    0 -0.11042500912E+01 -0.16967059581E+02 -0.11101256564E+02  0.20306116730E+02  0.51100000000E-03 0.  1.
         12    1    3    3    0    0  0.45339049235E+00 -0.15526690857E+02 -0.10596540568E+02  0.18803466806E+02  0.00000000000E+00 0. -1.
</event>
<event>
 7    1  0.2297343E-008  0.4614232E+02  0.7816164E-02  0.1320468E+00
        -11   -1    0    0    0    0  0.00000000000E+00  0.00000000000E+00  0.45593999997E+02  0.45594000000E+02  0.51100000000E-03 0.  1.
         11   -1    0    0    0    0 -0.00000000000E+00 -0.00000000000E+00 -0.45593999997E+02  0.45594000000E+02  0.51100000000E-03 0. -1.
    9900012    2    1    2    0    0 -0.92546872996E-01 -0.15139061516E+02  0.42425392929E+02  0.46142315260E+02  0.99999771952E+01 0.  0.
         12    1    1    2    0    0  0.92546872996E-01  0.15139061516E+02 -0.42425392929E+02  0.45045684740E+02  0.00000000000E+00 0. -1.
         11    1    3    3    0    0 -0.19343129472E+01 -0.46679196805E+01  0.67322319021E+01  0.84174810582E+01  0.51100000000E-03 0. -1.
        -11    1    3    3    0    0  0.34586089940E+00 -0.78295974609E+01  0.16193865092E+02  0.17990649878E+02  0.51100000000E-03 0.  1.
        -12    1    3    3    0    0  0.14959051748E+01 -0.26415443746E+01  0.19499295935E+02  0.19734184324E+02  0.00000000000E+00 0.  1.
</event>
<event>
 7    1  0.2297343E-008  0.4614232E+02  0.7816164E-02  0.1320468E+00
        -11   -1    0    0    0    0  0.00000000000E+00  0.00000000000E+00  0.45593999997E+02  0.45594000000E+02  0.51100000000E-03 0.  1.
         11   -1    0    0    0    0 -0.00000000000E+00 -0.00000000000E+00 -0.45593999997E+02  0.45594000000E+02  0.51100000000E-03 0. -1.
    9900012    2    1    2    0    0 -0.37155661985E+02 -0.11525204658E+02  0.22709907354E+02  0.46142318165E+02  0.10000003685E+02 0.  0.
         12    1    1    2    0    0  0.37155661985E+02  0.11525204658E+02 -0.22709907354E+02  0.45045681835E+02  0.00000000000E+00 0. -1.
         11    1    3    3    0    0 -0.14824716522E+02 -0.70726319272E+01  0.73038207789E+01  0.17976099147E+02  0.51100000000E-03 0.  1.
        -11    1    3    3    0    0 -0.32011060179E+01 -0.28461271842E+01  0.38490613648E+01  0.57587145560E+01  0.51100000000E-03 0. -1.
        -12    1    3    3    0    0 -0.19129839445E+02 -0.16064455469E+01  0.11557025210E+02  0.22407504462E+02  0.00000000000E+00 0.  1.
</event>
<event>
 7    1  0.2297343E-008  0.4614232E+02  0.7816164E-02  0.1320468E+00
        -11   -1    0    0    0    0  0.00000000000E+00  0.00000000000E+00  0.45593999997E+02  0.45594000000E+02  0.51100000000E-03 0.  1.
         11   -1    0    0    0    0 -0.00000000000E+00 -0.00000000000E+00 -0.45593999997E+02  0.45594000000E+02  0.51100000000E-03 0. -1.
    9900012    2    1    2    0    0 -0.42197521369E+02  0.11880357431E+02  0.10360486325E+02  0.46142318972E+02  0.10000011041E+02 0.  0.
         12    1    1    2    0    0  0.42197521369E+02 -0.11880357431E+02 -0.10360486325E+02  0.45045681028E+02  0.00000000000E+00 0. -1.
         11    1    3    3    0    0 -0.44221440341E+00  0.11943630465E+00 -0.10756437674E+01  0.11691143592E+01  0.51100000000E-03 0. -1.
        -11    1    3    3    0    0 -0.13409469830E+01  0.79447514810E-01  0.86140654360E+00  0.15957669671E+01  0.51100000000E-03 0.  1.
        -12    1    3    3    0    0 -0.40414359983E+02  0.11681473612E+02  0.10574723548E+02  0.43377437646E+02  0.00000000000E+00 0.  1.
</event>
<event>
 7    1  0.2297343E-008  0.4614232E+02  0.7816164E-02  0.1320468E+00
        -11   -1    0    0    0    0  0.00000000000E+00  0.00000000000E+00  0.45593999997E+02  0.45594000000E+02  0.51100000000E-03 0.  1.
         11   -1    0    0    0    0 -0.00000000000E+00 -0.00000000000E+00 -0.45593999997E+02  0.45594000000E+02  0.51100000000E-03 0. -1.
    9900012    2    1    2    0    0 -0.32920354295E+02 -0.12636630024E+02  0.28029971079E+02  0.46142318476E+02  0.10000006518E+02 0.  0.
         12    1    1    2    0    0  0.32920354295E+02  0.12636630024E+02 -0.28029971079E+02  0.45045681524E+02  0.00000000000E+00 0. -1.
         11    1    3    3    0    0 -0.77410979685E+01 -0.63003094103E+01  0.11256763716E+02  0.15044375229E+02  0.51100000000E-03 0. -1.
        -11    1    3    3    0    0 -0.12473926249E+02 -0.47315403378E+01  0.94083698966E+01  0.16324942095E+02  0.51100000000E-03 0.  1.
         12    1    3    3    0    0 -0.12705330077E+02 -0.16047802763E+01  0.73648374664E+01  0.14773001151E+02  0.00000000000E+00 0. -1.
</event>
<event>
 7    1  0.2297343E-008  0.4614232E+02  0.7816164E-02  0.1320468E+00
        -11   -1    0    0    0    0  0.00000000000E+00  0.00000000000E+00  0.45593999997E+02  0.45594000000E+02  0.51100000000E-03 0.  1.
         11   -1    0    0    0    0 -0.00000000000E+00 -0.00000000000E+00 -0.45593999997E+02  0.45594000000E+02  0.51100000000E-03 0. -1.
    9900012    2    1    2    0    0  0.40499874620E+02  0.65999170114E+01  0.18582648440E+02  0.46142316835E+02  0.99999915524E+01 0.  0.
         12    1    1    2    0    0 -0.40499874620E+02 -0.65999170114E+01 -0.18582648440E+02  0.45045683165E+02  0.00000000000E+00 0. -1.
         11    1    3    3    0    0  0.17251353852E+02  0.34973514910E+01  0.42657390281E+01  0.18111797451E+02  0.51100000000E-03 0. -1.
        -11    1    3    3    0    0  0.55847745600E+01  0.47152604471E+00  0.86182402494E+00  0.56705189011E+01  0.51100000000E-03 0.  1.
        -12    1    3    3    0    0  0.17663746207E+02  0.26310394756E+01  0.13455085387E+02  0.22360000483E+02  0.00000000000E+00 0.  1.
</event>
<event>
 7    1  0.2297343E-008  0.4614232E+02  0.7816164E-02  0.1320468E+00
        -11   -1    0    0    0    0  0.00000000000E+00  0.00000000000E+00  0.45593999997E+02  0.45594000000E+02  0.51100000000E-03 0. -1.
         11   -1    0    0    0    0 -0.00000000000E+00 -0.00000000000E+00 -0.45593999997E+02  0.45594000000E+02  0.51100000000E-03 0.  1.
    9900012    2    1    2    0    0 -0.43955749042E+02  0.16200850412E+00 -0.98478075878E+01  0.46142318355E+02  0.10000005415E+02 0.  0.
         12    1    1    2    0    0  0.43955749042E+02 -0.16200850412E+00  0.98478075878E+01  0.45045681645E+02  0.00000000000E+00 0. -1.
         11    1    3    3    0    0 -0.14198654698E+02  0.36675252257E+01 -0.28469854695E+01  0.14938469233E+02  0.51100000000E-03 0. -1.
        -11    1    3    3    0    0 -0.12106215738E+02 -0.15228891917E+01 -0.25556461231E+00  0.12204301066E+02  0.51100000000E-03 0.  1.
         12    1    3    3    0    0 -0.17650878606E+02 -0.19826275298E+01 -0.67452575060E+01  0.18999548056E+02  0.00000000000E+00 0. -1.
</event>
<event>
 7    1  0.2297343E-008  0.4614232E+02  0.7816164E-02  0.1320468E+00
        -11   -1    0    0    0    0  0.00000000000E+00  0.00000000000E+00  0.45593999997E+02  0.45594000000E+02  0.51100000000E-03 0.  1.
         11   -1    0    0    0    0 -0.00000000000E+00 -0.00000000000E+00 -0.45593999997E+02  0.45594000000E+02  0.51100000000E-03 0. -1.
    9900012    2    1    2    0    0  0.36037285796E+02  0.19124932486E+02  0.19096194984E+02  0.46142315712E+02  0.99999813136E+01 0.  0.
         12    1    1    2    0    0 -0.36037285796E+02 -0.19124932486E+02 -0.19096194984E+02  0.45045684288E+02  0.00000000000E+00 0. -1.
         11    1    3    3    0    0  0.47858615277E+01  0.65732623517E+01  0.35812852765E+01  0.88846976875E+01  0.51100000000E-03 0. -1.
        -11    1    3    3    0    0  0.16753635913E+02  0.52365485859E+01  0.93510968333E+01  0.19888407922E+02  0.51100000000E-03 0.  1.
         12    1    3    3    0    0  0.14497788355E+02  0.73151215482E+01  0.61638128742E+01  0.17369210103E+02  0.00000000000E+00 0. -1.
</event>
<event>
 7    1  0.2297343E-008  0.4614231E+02  0.7816164E-02  0.1320468E+00
        -11   -1    0    0    0    0  0.00000000000E+00  0.00000000000E+00  0.45593999997E+02  0.45594000000E+02  0.51100000000E-03 0.  1.
         11   -1    0    0    0    0 -0.00000000000E+00 -0.00000000000E+00 -0.45593999997E+02  0.45594000000E+02  0.51100000000E-03 0. -1.
    9900012    2    1    2    0    0  0.12738372675E+02  0.38611233697E+02 -0.19391241914E+02  0.46142314646E+02  0.99999715978E+01 0.  0.
         12    1    1    2    0    0 -0.12738372675E+02 -0.38611233697E+02  0.19391241914E+02  0.45045685354E+02  0.00000000000E+00 0. -1.
         11    1    3    3    0    0  0.63148642070E+01  0.11930459226E+02 -0.10282051119E+02  0.16968616407E+02  0.51100000000E-03 0. -1.
        -11    1    3    3    0    0  0.59607341764E+01  0.22221020525E+02 -0.89530872302E+01  0.24687281672E+02  0.51100000000E-03 0.  1.
        -12    1    3    3    0    0  0.46277429134E+00  0.44597539452E+01 -0.15610356496E+00  0.44864165678E+01  0.00000000000E+00 0.  1.
</event>
<event>
 7    1  0.2297343E-008  0.4614232E+02  0.7816164E-02  0.1320468E+00
        -11   -1    0    0    0    0  0.00000000000E+00  0.00000000000E+00  0.45593999997E+02  0.45594000000E+02  0.51100000000E-03 0.  1.
         11   -1    0    0    0    0 -0.00000000000E+00 -0.00000000000E+00 -0.45593999997E+02  0.45594000000E+02  0.51100000000E-03 0. -1.
    9900012    2    1    2    0    0  0.10023266839E+02 -0.74844059894E+01  0.43273909779E+02  0.46142317869E+02  0.10000000981E+02 0.  0.
         12    1    1    2    0    0 -0.10023266839E+02  0.74844059894E+01 -0.43273909779E+02  0.45045682131E+02  0.00000000000E+00 0. -1.
         11    1    3    3    0    0  0.23747915986E+01 -0.13202900529E+01  0.12064194346E+02  0.12366389385E+02  0.51100000000E-03 0. -1.
        -11    1    3    3    0    0 -0.32679357028E+00 -0.42043174990E+01  0.15314504170E+02  0.15884493001E+02  0.51100000000E-03 0.  1.
         12    1    3    3    0    0  0.79752688104E+01 -0.19597984375E+01  0.15895211264E+02  0.17891435483E+02  0.00000000000E+00 0. -1.
</event>
<event>
 7    1  0.2297343E-008  0.4614232E+02  0.7816164E-02  0.1320468E+00
        -11   -1    0    0    0    0  0.00000000000E+00  0.00000000000E+00  0.45593999997E+02  0.45594000000E+02  0.51100000000E-03 0.  1.
         11   -1    0    0    0    0 -0.00000000000E+00 -0.00000000000E+00 -0.45593999997E+02  0.45594000000E+02  0.51100000000E-03 0. -1.
    9900012    2    1    2    0    0  0.42409071850E+02  0.63079056763E+01  0.13812836709E+02  0.46142317552E+02  0.99999980966E+01 0.  0.
         12    1    1    2    0    0 -0.42409071850E+02 -0.63079056763E+01 -0.13812836709E+02  0.45045682448E+02  0.00000000000E+00 0. -1.
         11    1    3    3    0    0  0.10934242801E+02  0.51579493955E+00  0.54016586328E+00  0.10959721232E+02  0.51100000000E-03 0. -1.
        -11    1    3    3    0    0  0.28066342852E+02  0.67607929078E+01  0.12897944916E+02  0.31619375471E+02  0.51100000000E-03 0.  1.
        -12    1    3    3    0    0  0.34084861971E+01 -0.96868217104E+00  0.37472592956E+00  0.35632208501E+01  0.00000000000E+00 0.  1.
</event>
<event>
 7    1  0.2297343E-008  0.4614232E+02  0.7816164E-02  0.1320468E+00
        -11   -1    0    0    0    0  0.00000000000E+00  0.00000000000E+00  0.45593999997E+02  0.45594000000E+02  0.51100000000E-03 0.  1.
         11   -1    0    0    0    0 -0.00000000000E+00 -0.00000000000E+00 -0.45593999997E+02  0.45594000000E+02  0.51100000000E-03 0. -1.
    9900012    2    1    2    0    0  0.34356196937E+02  0.10886865967E+02  0.27022979358E+02  0.46142317277E+02  0.99999955876E+01 0.  0.
         12    1    1    2    0    0 -0.34356196937E+02 -0.10886865967E+02 -0.27022979358E+02  0.45045682723E+02  0.00000000000E+00 0. -1.
         11    1    3    3    0    0  0.70029810474E+01  0.47470265474E+01  0.33024166465E+01  0.90819579695E+01  0.51100000000E-03 0. -1.
        -11    1    3    3    0    0  0.22357397368E+01  0.12049111895E+01  0.40382195132E+01  0.47704884701E+01  0.51100000000E-03 0.  1.
        -12    1    3    3    0    0  0.25117476153E+02  0.49349282304E+01  0.19682343199E+02  0.32289870838E+02  0.00000000000E+00 0.  1.
</event>
<event>
 7    1  0.2297343E-008  0.4614232E+02  0.7816164E-02  0.1320468E+00
        -11   -1    0    0    0    0  0.00000000000E+00  0.00000000000E+00  0.45593999997E+02  0.45594000000E+02  0.51100000000E-03 0. -1.
         11   -1    0    0    0    0 -0.00000000000E+00 -0.00000000000E+00 -0.45593999997E+02  0.45594000000E+02  0.51100000000E-03 0.  1.
    9900012    2    1    2    0    0  0.11946813406E+02 -0.30144112116E+02 -0.31268509075E+02  0.46142317570E+02  0.99999982551E+01 0.  0.
         12    1    1    2    0    0 -0.11946813406E+02  0.30144112116E+02  0.31268509075E+02  0.45045682430E+02  0.00000000000E+00 0. -1.
         11    1    3    3    0    0  0.59174366304E+01 -0.15785661531E+02 -0.13481213197E+02  0.21585788746E+02  0.51100000000E-03 0. -1.
        -11    1    3    3    0    0  0.21650766348E+01 -0.20045050641E+00 -0.15531757860E+01  0.26720951561E+01  0.51100000000E-03 0.  1.
        -12    1    3    3    0    0  0.38643001412E+01 -0.14158000079E+02 -0.16234120092E+02  0.21884433668E+02  0.00000000000E+00 0.  1.
</event>
<event>
 7    1  0.2297343E-008  0.4614232E+02  0.7816164E-02  0.1320468E+00
        -11   -1    0    0    0    0  0.00000000000E+00  0.00000000000E+00  0.45593999997E+02  0.45594000000E+02  0.51100000000E-03 0.  1.
         11   -1    0    0    0    0 -0.00000000000E+00 -0.00000000000E+00 -0.45593999997E+02  0.45594000000E+02  0.51100000000E-03 0. -1.
    9900012    2    1    2    0    0  0.41543156819E+02  0.15527400852E+02  0.78853906068E+01  0.46142318290E+02  0.10000004824E+02 0.  0.
         12    1    1    2    0    0 -0.41543156819E+02 -0.15527400852E+02 -0.78853906068E+01  0.45045681710E+02  0.00000000000E+00 0. -1.
         11    1    3    3    0    0  0.24424043779E+01  0.74375674014E+00  0.11928934497E+01  0.28180681818E+01  0.51100000000E-03 0.  1.
        -11    1    3    3    0    0  0.26486620691E+02  0.52969412815E+01  0.46709203250E+01  0.27411971099E+02  0.51100000000E-03 0. -1.
         12    1    3    3    0    0  0.12614131750E+02  0.94867028299E+01  0.20215768321E+01  0.15912279009E+02  0.00000000000E+00 0. -1.
</event>
<event>
 7    1  0.2297343E-008  0.4614232E+02  0.7816164E-02  0.1320468E+00
        -11   -1    0    0    0    0  0.00000000000E+00  0.00000000000E+00  0.45593999997E+02  0.45594000000E+02  0.51100000000E-03 0.  1.
         11   -1    0    0    0    0 -0.00000000000E+00 -0.00000000000E+00 -0.45593999997E+02  0.45594000000E+02  0.51100000000E-03 0. -1.
    9900012    2    1    2    0    0 -0.14105211307E+02 -0.22650407234E+02  0.36292081279E+02  0.46142322101E+02  0.10000039570E+02 0.  0.
         12    1    1    2    0    0  0.14105211307E+02  0.22650407234E+02 -0.36292081279E+02  0.45045677899E+02  0.00000000000E+00 0. -1.
         11    1    3    3    0    0 -0.92832747918E+01 -0.70811923790E+01  0.13702156963E+02  0.18001988281E+02  0.51100000000E-03 0. -1.
        -11    1    3    3    0    0 -0.45036422386E+01 -0.85090978954E+01  0.14410857986E+02  0.17330907898E+02  0.51100000000E-03 0.  1.
        -12    1    3    3    0    0 -0.31829427614E+00 -0.70601169596E+01  0.81790663297E+01  0.10809425922E+02  0.00000000000E+00 0.  1.
</event>
<event>
 7    1  0.2297343E-008  0.4614232E+02  0.7816164E-02  0.1320468E+00
        -11   -1    0    0    0    0  0.00000000000E+00  0.00000000000E+00  0.45593999997E+02  0.45594000000E+02  0.51100000000E-03 0.  1.
         11   -1    0    0    0    0 -0.00000000000E+00 -0.00000000000E+00 -0.45593999997E+02  0.45594000000E+02  0.51100000000E-03 0. -1.
    9900012    2    1    2    0    0  0.52806397492E+01 -0.39169561997E+02  0.21609575192E+02  0.46142317819E+02  0.10000000525E+02 0.  0.
         12    1    1    2    0    0 -0.52806397492E+01  0.39169561997E+02 -0.21609575192E+02  0.45045682181E+02  0.00000000000E+00 0. -1.
         11    1    3    3    0    0 -0.52929303270E+00 -0.92128272429E+01  0.22315796066E+01  0.94940130990E+01  0.51100000000E-03 0. -1.
        -11    1    3    3    0    0  0.25783192022E+01 -0.13759663501E+02  0.12462203145E+02  0.18742533902E+02  0.51100000000E-03 0.  1.
         12    1    3    3    0    0  0.32316135798E+01 -0.16197071253E+02  0.69157924403E+01  0.17905770818E+02  0.00000000000E+00 0. -1.
</event>
<event>
 7    1  0.2297343E-008  0.4614232E+02  0.7816164E-02  0.1320468E+00
        -11   -1    0    0    0    0  0.00000000000E+00  0.00000000000E+00  0.45593999997E+02  0.45594000000E+02  0.51100000000E-03 0.  1.
         11   -1    0    0    0    0 -0.00000000000E+00 -0.00000000000E+00 -0.45593999997E+02  0.45594000000E+02  0.51100000000E-03 0. -1.
    9900012    2    1    2    0    0  0.28642514892E+02  0.59758987580E+01  0.34249211401E+02  0.46142317555E+02  0.99999981245E+01 0.  0.
         12    1    1    2    0    0 -0.28642514892E+02 -0.59758987580E+01 -0.34249211401E+02  0.45045682445E+02  0.00000000000E+00 0. -1.
         11    1    3    3    0    0  0.18675568787E+02  0.35798844903E+01  0.16746796667E+02  0.25338659029E+02  0.51100000000E-03 0. -1.
        -11    1    3    3    0    0  0.55491972527E+01  0.22055503941E+01  0.59318440478E+01  0.84169363048E+01  0.51100000000E-03 0.  1.
         12    1    3    3    0    0  0.44177488519E+01  0.19046387358E+00  0.11570570686E+02  0.12386722222E+02  0.00000000000E+00 0. -1.
</event>
<event>
 7    1  0.2297343E-008  0.4614232E+02  0.7816164E-02  0.1320468E+00
        -11   -1    0    0    0    0  0.00000000000E+00  0.00000000000E+00  0.45593999997E+02  0.45594000000E+02  0.51100000000E-03 0. -1.
         11   -1    0    0    0    0 -0.00000000000E+00 -0.00000000000E+00 -0.45593999997E+02  0.45594000000E+02  0.51100000000E-03 0.  1.
    9900012    2    1    2    0    0  0.43590963455E+02  0.10448991249E+02  0.44452315971E+01  0.46142316555E+02  0.99999890005E+01 0.  0.
         12    1    1    2    0    0 -0.43590963455E+02 -0.10448991249E+02 -0.44452315971E+01  0.45045683445E+02  0.00000000000E+00 0. -1.
         11    1    3    3    0    0  0.88521311842E+00 -0.15645825399E+00  0.84928314983E+00  0.12366744034E+01  0.51100000000E-03 0. -1.
        -11    1    3    3    0    0  0.16710674211E+02  0.76455402881E+01  0.36848713834E+01  0.18742443711E+02  0.51100000000E-03 0.  1.
        -12    1    3    3    0    0  0.25995076126E+02  0.29599092150E+01 -0.88922936060E-01  0.26163198441E+02  0.00000000000E+00 0.  1.
</event>
<event>
 7    1  0.2297343E-008  0.4614232E+02  0.7816164E-02  0.1320468E+00
        -11   -1    0    0    0    0  0.00000000000E+00  0.00000000000E+00  0.45593999997E+02  0.45594000000E+02  0.51100000000E-03 0. -1.
         11   -1    0    0    0    0 -0.00000000000E+00 -0.00000000000E+00 -0.45593999997E+02  0.45594000000E+02  0.51100000000E-03 0.  1.
    9900012    2    1    2    0    0  0.49650747236E+01  0.27641771824E+02 -0.35219227735E+02  0.46142317423E+02  0.99999969170E+01 0.  0.
         12    1    1    2    0    0 -0.49650747236E+01 -0.27641771824E+02  0.35219227735E+02  0.45045682577E+02  0.00000000000E+00 0. -1.
         11    1    3    3    0    0 -0.26593217466E+01  0.64201254370E+01 -0.79862883838E+01  0.10586349946E+02  0.51100000000E-03 0. -1.
        -11    1    3    3    0    0  0.34066622533E+01  0.11973171534E+02 -0.17555807920E+02  0.21521351637E+02  0.51100000000E-03 0.  1.
        -12    1    3    3    0    0  0.42177342168E+01  0.92484748533E+01 -0.96771314305E+01  0.14034615839E+02  0.00000000000E+00 0.  1.
</event>
<event>
 7    1  0.2297343E-008  0.4614232E+02  0.7816164E-02  0.1320468E+00
        -11   -1    0    0    0    0  0.00000000000E+00  0.00000000000E+00  0.45593999997E+02  0.45594000000E+02  0.51100000000E-03 0. -1.
         11   -1    0    0    0    0 -0.00000000000E+00 -0.00000000000E+00 -0.45593999997E+02  0.45594000000E+02  0.51100000000E-03 0.  1.
    9900012    2    1    2    0    0  0.43996344775E+02 -0.80425258561E+01 -0.53621780750E+01  0.46142317306E+02  0.99999958467E+01 0.  0.
         12    1    1    2    0    0 -0.43996344775E+02  0.80425258561E+01  0.53621780750E+01  0.45045682694E+02  0.00000000000E+00 0. -1.
         11    1    3    3    0    0  0.10345767720E+01 -0.84740077704E+00 -0.16982432655E+01  0.21615891432E+01  0.51100000000E-03 0. -1.
        -11    1    3    3    0    0  0.17976997782E+02 -0.79521536068E+00 -0.24517390522E+01  0.18160832617E+02  0.51100000000E-03 0.  1.
        -12    1    3    3    0    0  0.24984770221E+02 -0.63999097184E+01 -0.12121957572E+01  0.25819895545E+02  0.00000000000E+00 0.  1.
</event>
<event>
 7    1  0.2297343E-008  0.4614232E+02  0.7816164E-02  0.1320468E+00
        -11   -1    0    0    0    0  0.00000000000E+00  0.00000000000E+00  0.45593999997E+02  0.45594000000E+02  0.51100000000E-03 0.  1.
         11   -1    0    0    0    0 -0.00000000000E+00 -0.00000000000E+00 -0.45593999997E+02  0.45594000000E+02  0.51100000000E-03 0. -1.
    9900012    2    1    2    0    0  0.76077949556E+01  0.22661386905E+02  0.38179792311E+02  0.46142317171E+02  0.99999946228E+01 0.  0.
         12    1    1    2    0    0 -0.76077949556E+01 -0.22661386905E+02 -0.38179792311E+02  0.45045682829E+02  0.00000000000E+00 0. -1.
         11    1    3    3    0    0  0.44414676299E+01  0.10063811889E+02  0.11110958793E+02  0.15635227853E+02  0.51100000000E-03 0.  1.
        -11    1    3    3    0    0  0.72001839493E+00  0.58362507265E+01  0.67430931674E+01  0.89470416763E+01  0.51100000000E-03 0. -1.
         12    1    3    3    0    0  0.24463089308E+01  0.67613242899E+01  0.20325740351E+02  0.21560047642E+02  0.00000000000E+00 0. -1.
</event>
<event>
 7    1  0.2297343E-008  0.4614232E+02  0.7816164E-02  0.1320468E+00
        -11   -1    0    0    0    0  0.00000000000E+00  0.00000000000E+00  0.45593999997E+02  0.45594000000E+02  0.51100000000E-03 0. -1.
         11   -1    0    0    0    0 -0.00000000000E+00 -0.00000000000E+00 -0.45593999997E+02  0.45594000000E+02  0.51100000000E-03 0.  1.
    9900012    2    1    2    0    0 -0.31919086831E+02  0.28260493017E+02 -0.14547506006E+02  0.46142317624E+02  0.99999987535E+01 0.  0.
         12    1    1    2    0    0  0.31919086831E+02 -0.28260493017E+02  0.14547506006E+02  0.45045682376E+02  0.00000000000E+00 0. -1.
         11    1    3    3    0    0 -0.14135165427E+02  0.99219052840E+01 -0.50660842241E+01  0.17997564161E+02  0.51100000000E-03 0. -1.
        -11    1    3    3    0    0 -0.66091452869E+01  0.10667508638E+02 -0.21407212725E+01  0.12730248615E+02  0.51100000000E-03 0.  1.
         12    1    3    3    0    0 -0.11174776117E+02  0.76710790948E+01 -0.73407005098E+01  0.15414504848E+02  0.00000000000E+00 0. -1.
</event>
<event>
 7    1  0.2297343E-008  0.4614232E+02  0.7816164E-02  0.1320468E+00
        -11   -1    0    0    0    0  0.00000000000E+00  0.00000000000E+00  0.45593999997E+02  0.45594000000E+02  0.51100000000E-03 0.  1.
         11   -1    0    0    0    0 -0.00000000000E+00 -0.00000000000E+00 -0.45593999997E+02  0.45594000000E+02  0.51100000000E-03 0. -1.
    9900012    2    1    2    0    0  0.15959371206E+02  0.32581178948E+02  0.26699788981E+02  0.46142317825E+02  0.10000000586E+02 0.  0.
         12    1    1    2    0    0 -0.15959371206E+02 -0.32581178948E+02 -0.26699788981E+02  0.45045682175E+02  0.00000000000E+00 0. -1.
         11    1    3    3    0    0  0.41432953399E+01  0.87796000611E+01  0.29008707308E+01  0.10132291190E+02  0.51100000000E-03 0. -1.
        -11    1    3    3    0    0  0.71428434610E+01  0.15442146554E+02  0.12033456228E+02  0.20839485885E+02  0.51100000000E-03 0.  1.
         12    1    3    3    0    0  0.46732324056E+01  0.83594323322E+01  0.11765462023E+02  0.15170540750E+02  0.00000000000E+00 0. -1.
</event>
<event>
 7    1  0.2297343E-008  0.4614232E+02  0.7816164E-02  0.1320468E+00
        -11   -1    0    0    0    0  0.00000000000E+00  0.00000000000E+00  0.45593999997E+02  0.45594000000E+02  0.51100000000E-03 0.  1.
         11   -1    0    0    0    0 -0.00000000000E+00 -0.00000000000E+00 -0.45593999997E+02  0.45594000000E+02  0.51100000000E-03 0. -1.
    9900012    2    1    2    0    0  0.14701759660E+02  0.21846649660E+02  0.36547168830E+02  0.46142318876E+02  0.10000010165E+02 0.  0.
         12    1    1    2    0    0 -0.14701759660E+02 -0.21846649660E+02 -0.36547168830E+02  0.45045681124E+02  0.00000000000E+00 0. -1.
         11    1    3    3    0    0  0.89601045550E-01  0.96839125100E+00  0.61370579480E+01  0.62136374597E+01  0.51100000000E-03 0. -1.
        -11    1    3    3    0    0  0.50482066356E+00  0.18677853474E+01  0.41153423899E+01  0.45474728425E+01  0.51100000000E-03 0.  1.
        -12    1    3    3    0    0  0.14107337951E+02  0.19010473061E+02  0.26294768492E+02  0.35381208574E+02  0.00000000000E+00 0.  1.
</event>
<event>
 7    1  0.2297343E-008  0.4614232E+02  0.7816164E-02  0.1320468E+00
        -11   -1    0    0    0    0  0.00000000000E+00  0.00000000000E+00  0.45593999997E+02  0.45594000000E+02  0.51100000000E-03 0. -1.
         11   -1    0    0    0    0 -0.00000000000E+00 -0.00000000000E+00 -0.45593999997E+02  0.45594000000E+02  0.51100000000E-03 0.  1.
    9900012    2    1    2    0    0 -0.28592690443E+02  0.29772027771E+02 -0.18033242896E+02  0.46142318368E+02  0.10000005531E+02 0.  0.
         12    1    1    2    0    0  0.28592690443E+02 -0.29772027771E+02  0.18033242896E+02  0.45045681632E+02  0.00000000000E+00 0. -1.
         11    1    3    3    0    0 -0.12781149164E+02  0.11791955838E+02 -0.86628388452E+01  0.19428143853E+02  0.51100000000E-03 0. -1.
        -11    1    3    3    0    0 -0.12566965895E+02  0.90090379493E+01 -0.62359200144E+01  0.16672675109E+02  0.51100000000E-03 0.  1.
         12    1    3    3    0    0 -0.32445753835E+01  0.89710339835E+01 -0.31344840368E+01  0.10041499406E+02  0.00000000000E+00 0. -1.
</event>
<event>
 7    1  0.2297343E-008  0.4614232E+02  0.7816164E-02  0.1320468E+00
        -11   -1    0    0    0    0  0.00000000000E+00  0.00000000000E+00  0.45593999997E+02  0.45594000000E+02  0.51100000000E-03 0. -1.
         11   -1    0    0    0    0 -0.00000000000E+00 -0.00000000000E+00 -0.45593999997E+02  0.45594000000E+02  0.51100000000E-03 0.  1.
    9900012    2    1    2    0    0 -0.32939345931E+02  0.30711297701E+02 -0.96386364904E+00  0.46142319298E+02  0.10000014012E+02 0.  0.
         12    1    1    2    0    0  0.32939345931E+02 -0.30711297701E+02  0.96386364904E+00  0.45045680702E+02  0.00000000000E+00 0. -1.
         11    1    3    3    0    0 -0.65548777210E+01  0.10048209033E+02 -0.14490570382E+01  0.12084398755E+02  0.51100000000E-03 0. -1.
        -11    1    3    3    0    0 -0.22345828959E+00  0.12164367098E+01 -0.73369982726E+00  0.14380429666E+01  0.51100000000E-03 0.  1.
         12    1    3    3    0    0 -0.26161009920E+02  0.19446651958E+02  0.12188932164E+01  0.32619877576E+02  0.00000000000E+00 0. -1.
</event>
<event>
 7    1  0.2297343E-008  0.4614232E+02  0.7816164E-02  0.1320468E+00
        -11   -1    0    0    0    0  0.00000000000E+00  0.00000000000E+00  0.45593999997E+02  0.45594000000E+02  0.51100000000E-03 0.  1.
         11   -1    0    0    0    0 -0.00000000000E+00 -0.00000000000E+00 -0.45593999997E+02  0.45594000000E+02  0.51100000000E-03 0. -1.
    9900012    2    1    2    0    0 -0.41727501162E+02 -0.14216495261E+02  0.92639348138E+01  0.46142316756E+02  0.99999908325E+01 0.  0.
         12    1    1    2    0    0  0.41727501162E+02  0.14216495261E+02 -0.92639348138E+01  0.45045683244E+02  0.00000000000E+00 0. -1.
         11    1    3    3    0    0 -0.34107560622E+01 -0.16088458266E+01  0.12560661414E+01  0.39748388926E+01  0.51100000000E-03 0. -1.
        -11    1    3    3    0    0 -0.38370042547E+02 -0.11215749694E+02  0.74341658653E+01  0.40661038214E+02  0.51100000000E-03 0.  1.
         12    1    3    3    0    0  0.53297447494E-01 -0.13918997408E+01  0.57370280711E+00  0.15064396494E+01  0.00000000000E+00 0. -1.
</event>
<event>
 7    1  0.2297343E-008  0.4614232E+02  0.7816164E-02  0.1320468E+00
        -11   -1    0    0    0    0  0.00000000000E+00  0.00000000000E+00  0.45593999997E+02  0.45594000000E+02  0.51100000000E-03 0. -1.
         11   -1    0    0    0    0 -0.00000000000E+00 -0.00000000000E+00 -0.45593999997E+02  0.45594000000E+02  0.51100000000E-03 0.  1.
    9900012    2    1    2    0    0 -0.59103211177E+01 -0.44404018213E+02  0.47396568542E+01  0.46142322335E+02  0.10000041708E+02 0.  0.
         12    1    1    2    0    0  0.59103211177E+01  0.44404018213E+02 -0.47396568542E+01  0.45045677665E+02  0.00000000000E+00 0. -1.
         11    1    3    3    0    0 -0.64596990187E+00 -0.11480175222E+02  0.47131112150E+01  0.12426790327E+02  0.51100000000E-03 0. -1.
        -11    1    3    3    0    0 -0.18915614845E+01 -0.19988735451E+02  0.21020266749E+01  0.20187770213E+02  0.51100000000E-03 0.  1.
         12    1    3    3    0    0 -0.33727897313E+01 -0.12935107541E+02 -0.20754810356E+01  0.13527761795E+02  0.00000000000E+00 0. -1.
</event>
<event>
 7    1  0.2297343E-008  0.4614232E+02  0.7816164E-02  0.1320468E+00
        -11   -1    0    0    0    0  0.00000000000E+00  0.00000000000E+00  0.45593999997E+02  0.45594000000E+02  0.51100000000E-03 0.  1.
         11   -1    0    0    0    0 -0.00000000000E+00 -0.00000000000E+00 -0.45593999997E+02  0.45594000000E+02  0.51100000000E-03 0. -1.
    9900012    2    1    2    0    0  0.30276301676E+01 -0.39258715546E+02  0.21879217614E+02  0.46142318141E+02  0.10000003461E+02 0.  0.
         12    1    1    2    0    0 -0.30276301676E+01  0.39258715546E+02 -0.21879217614E+02  0.45045681859E+02  0.00000000000E+00 0. -1.
         11    1    3    3    0    0  0.21026733317E+01 -0.90624932719E+01  0.54591149856E+01  0.10786656392E+02  0.51100000000E-03 0. -1.
        -11    1    3    3    0    0  0.24917384452E+01 -0.56081994008E+01  0.60712997162E+01  0.86325744424E+01  0.51100000000E-03 0.  1.
         12    1    3    3    0    0 -0.15667816093E+01 -0.24588022873E+02  0.10348802913E+02  0.26723087306E+02  0.00000000000E+00 0. -1.
</event>
<event>
 7    1  0.2297343E-008  0.4614232E+02  0.7816164E-02  0.1320468E+00
        -11   -1    0    0    0    0  0.00000000000E+00  0.00000000000E+00  0.45593999997E+02  0.45594000000E+02  0.51100000000E-03 0.  1.
         11   -1    0    0    0    0 -0.00000000000E+00 -0.00000000000E+00 -0.45593999997E+02  0.45594000000E+02  0.51100000000E-03 0. -1.
    9900012    2    1    2    0    0 -0.32598743750E+02  0.30056879345E+02  0.79384551371E+01  0.46142321406E+02  0.10000033237E+02 0.  0.
         12    1    1    2    0    0  0.32598743750E+02 -0.30056879345E+02 -0.79384551371E+01  0.45045678594E+02  0.00000000000E+00 0. -1.
         11    1    3    3    0    0 -0.94172213916E+01  0.67867640541E+01  0.21974542531E+01  0.11814103035E+02  0.51100000000E-03 0.  1.
        -11    1    3    3    0    0 -0.19173595691E+02  0.22828938322E+02  0.50319060708E+01  0.30234207045E+02  0.51100000000E-03 0. -1.
         12    1    3    3    0    0 -0.40079266670E+01  0.44117696856E+00  0.70909481322E+00  0.40940113263E+01  0.00000000000E+00 0. -1.
</event>
<event>
 7    1  0.2297343E-008  0.4614232E+02  0.7816164E-02  0.1320468E+00
        -11   -1    0    0    0    0  0.00000000000E+00  0.00000000000E+00  0.45593999997E+02  0.45594000000E+02  0.51100000000E-03 0.  1.
         11   -1    0    0    0    0 -0.00000000000E+00 -0.00000000000E+00 -0.45593999997E+02  0.45594000000E+02  0.51100000000E-03 0. -1.
    9900012    2    1    2    0    0  0.67784198216E+01 -0.12228269663E+02  0.42820975456E+02  0.46142317707E+02  0.99999995066E+01 0.  0.
         12    1    1    2    0    0 -0.67784198216E+01  0.12228269663E+02 -0.42820975456E+02  0.45045682293E+02  0.00000000000E+00 0. -1.
         11    1    3    3    0    0 -0.10265691342E+01 -0.19595988508E+01  0.56627580987E+01  0.60795313462E+01  0.51100000000E-03 0. -1.
        -11    1    3    3    0    0  0.75853690637E+01 -0.56475082214E+01  0.17764050998E+02  0.20124454801E+02  0.51100000000E-03 0.  1.
        -12    1    3    3    0    0  0.21961989214E+00 -0.46211625912E+01  0.19394166360E+02  0.19938331559E+02  0.00000000000E+00 0.  1.
</event>
<event>
 7    1  0.2297343E-008  0.4614232E+02  0.7816164E-02  0.1320468E+00
        -11   -1    0    0    0    0  0.00000000000E+00  0.00000000000E+00  0.45593999997E+02  0.45594000000E+02  0.51100000000E-03 0.  1.
         11   -1    0    0    0    0 -0.00000000000E+00 -0.00000000000E+00 -0.45593999997E+02  0.45594000000E+02  0.51100000000E-03 0. -1.
    9900012    2    1    2    0    0  0.31562077406E+02 -0.33570912381E+01  0.31963711215E+02  0.46142316229E+02  0.99999860259E+01 0.  0.
         12    1    1    2    0    0 -0.31562077406E+02  0.33570912381E+01 -0.31963711215E+02  0.45045683771E+02  0.00000000000E+00 0. -1.
         11    1    3    3    0    0  0.10482777471E+02 -0.19379684113E+01  0.60508376358E+01  0.12257935447E+02  0.51100000000E-03 0. -1.
        -11    1    3    3    0    0  0.56094985763E+01 -0.24163742648E+01  0.96196144766E+01  0.11394837507E+02  0.51100000000E-03 0.  1.
         12    1    3    3    0    0  0.15469801358E+02  0.99725143803E+00  0.16293259103E+02  0.22489543274E+02  0.00000000000E+00 0. -1.
</event>
<event>
 7    1  0.2297343E-008  0.4614232E+02  0.7816164E-02  0.1320468E+00
        -11   -1    0    0    0    0  0.00000000000E+00  0.00000000000E+00  0.45593999997E+02  0.45594000000E+02  0.51100000000E-03 0.  1.
         11   -1    0    0    0    0 -0.00000000000E+00 -0.00000000000E+00 -0.45593999997E+02  0.45594000000E+02  0.51100000000E-03 0. -1.
    9900012    2    1    2    0    0 -0.43591367066E+02  0.10007588965E+02  0.53623083318E+01  0.46142317962E+02  0.10000001835E+02 0.  0.
         12    1    1    2    0    0  0.43591367066E+02 -0.10007588965E+02 -0.53623083318E+01  0.45045682038E+02  0.00000000000E+00 0. -1.
         11    1    3    3    0    0 -0.12585361165E+02  0.65443476592E+01 -0.51885684896E+00  0.14194682618E+02  0.51100000000E-03 0.  1.
        -11    1    3    3    0    0 -0.55765272127E+01  0.11187429864E+01 -0.21892797251E+00  0.56918513106E+01  0.51100000000E-03 0. -1.
        -12    1    3    3    0    0 -0.25429478689E+02  0.23444983192E+01  0.61000931533E+01  0.26255784034E+02  0.00000000000E+00 0.  1.
</event>
<event>
 7    1  0.2297343E-008  0.4614232E+02  0.7816164E-02  0.1320468E+00
        -11   -1    0    0    0    0  0.00000000000E+00  0.00000000000E+00  0.45593999997E+02  0.45594000000E+02  0.51100000000E-03 0.  1.
         11   -1    0    0    0    0 -0.00000000000E+00 -0.00000000000E+00 -0.45593999997E+02  0.45594000000E+02  0.51100000000E-03 0. -1.
    9900012    2    1    2    0    0  0.17840384339E+01 -0.39757231104E+02  0.21101973061E+02  0.46142317796E+02  0.10000000319E+02 0.  0.
         12    1    1    2    0    0 -0.17840384339E+01  0.39757231104E+02 -0.21101973061E+02  0.45045682204E+02  0.00000000000E+00 0. -1.
         11    1    3    3    0    0  0.32357377036E+01 -0.14913185386E+02  0.82026829862E+01  0.17325042721E+02  0.51100000000E-03 0. -1.
        -11    1    3    3    0    0 -0.23494181989E+00 -0.22144579597E+02  0.13294727775E+02  0.25829970772E+02  0.51100000000E-03 0.  1.
         12    1    3    3    0    0 -0.12167574498E+01 -0.26994661205E+01 -0.39543770043E+00  0.29873043036E+01  0.00000000000E+00 0. -1.
</event>
<event>
 7    1  0.2297343E-008  0.4614232E+02  0.7816164E-02  0.1320468E+00
        -11   -1    0    0    0    0  0.00000000000E+00  0.00000000000E+00  0.45593999997E+02  0.45594000000E+02  0.51100000000E-03 0.  1.
         11   -1    0    0    0    0 -0.00000000000E+00 -0.00000000000E+00 -0.45593999997E+02  0.45594000000E+02  0.51100000000E-03 0. -1.
    9900012    2    1    2    0    0 -0.35111424427E+02 -0.11403194939E+00  0.28218581964E+02  0.46142317669E+02  0.99999991628E+01 0.  0.
         12    1    1    2    0    0  0.35111424427E+02  0.11403194939E+00 -0.28218581964E+02  0.45045682331E+02  0.00000000000E+00 0. -1.
         11    1    3    3    0    0 -0.22047732311E+02  0.48338603619E+00  0.19015521424E+02  0.29119172677E+02  0.51100000000E-03 0.  1.
        -11    1    3    3    0    0 -0.52905552990E+01 -0.13401105384E+01  0.70644214836E+01  0.89270332578E+01  0.51100000000E-03 0. -1.
         12    1    3    3    0    0 -0.77731368167E+01  0.74269255283E+00  0.21386390568E+01  0.80961117343E+01  0.00000000000E+00 0. -1.
</event>
<event>
 7    1  0.2297343E-008  0.4614232E+02  0.7816164E-02  0.1320468E+00
        -11   -1    0    0    0    0  0.00000000000E+00  0.00000000000E+00  0.45593999997E+02  0.45594000000E+02  0.51100000000E-03 0.  1.
         11   -1    0    0    0    0 -0.00000000000E+00 -0.00000000000E+00 -0.45593999997E+02  0.45594000000E+02  0.51100000000E-03 0. -1.
    9900012    2    1    2    0    0 -0.52283839666E+01  0.16223598271E+02  0.41696190559E+02  0.46142318222E+02  0.10000004198E+02 0.  0.
         12    1    1    2    0    0  0.52283839666E+01 -0.16223598271E+02 -0.41696190559E+02  0.45045681778E+02  0.00000000000E+00 0. -1.
         11    1    3    3    0    0 -0.34092574970E+01  0.80054948173E+01  0.28057656418E+02  0.29375892631E+02  0.51100000000E-03 0. -1.
        -11    1    3    3    0    0 -0.20093123744E+01  0.59185835341E+01  0.12915506307E+02  0.14348423979E+02  0.51100000000E-03 0.  1.
         12    1    3    3    0    0  0.19018590485E+00  0.22995199201E+01  0.72302783373E+00  0.24180016107E+01  0.00000000000E+00 0. -1.
</event>
<event>
 7    1  0.2297343E-008  0.4614233E+02  0.7816164E-02  0.1320468E+00
        -11   -1    0    0    0    0  0.00000000000E+00  0.00000000000E+00  0.45593999997E+02  0.45594000000E+02  0.51100000000E-03 0.  1.
         11   -1    0    0    0    0 -0.00000000000E+00 -0.00000000000E+00 -0.45593999997E+02  0.45594000000E+02  0.51100000000E-03 0. -1.
    9900012    2    1    2    0    0 -0.30193841971E+02  0.28140909027E+02 -0.18042560044E+02  0.46142325105E+02  0.10000066963E+02 0.  0.
         12    1    1    2    0    0  0.30193841971E+02 -0.28140909027E+02  0.18042560044E+02  0.45045674895E+02  0.00000000000E+00 0. -1.
         11    1    3    3    0    0 -0.16182892828E+00  0.17602140265E+00 -0.65687758085E+00  0.69904259782E+00  0.51100000000E-03 0. -1.
        -11    1    3    3    0    0 -0.26438865569E+02  0.20513852182E+02 -0.15858266093E+02  0.37031288766E+02  0.51100000000E-03 0.  1.
         12    1    3    3    0    0 -0.35931474739E+01  0.74510354417E+01 -0.15274163703E+01  0.84119937405E+01  0.00000000000E+00 0. -1.
</event>
<event>
 7    1  0.2297343E-008  0.4614232E+02  0.7816164E-02  0.1320468E+00
        -11   -1    0    0    0    0  0.00000000000E+00  0.00000000000E+00  0.45593999997E+02  0.45594000000E+02  0.51100000000E-03 0.  1.
         11   -1    0    0    0    0 -0.00000000000E+00 -0.00000000000E+00 -0.45593999997E+02  0.45594000000E+02  0.51100000000E-03 0. -1.
    9900012    2    1    2    0    0 -0.25416445569E+02  0.93848082193E+01  0.35986707736E+02  0.46142318028E+02  0.10000002434E+02 0.  0.
         12    1    1    2    0    0  0.25416445569E+02 -0.93848082193E+01 -0.35986707736E+02  0.45045681972E+02  0.00000000000E+00 0. -1.
         11    1    3    3    0    0 -0.66903848493E+01  0.54316495134E+01  0.12011981517E+02  0.14783496410E+02  0.51100000000E-03 0. -1.
        -11    1    3    3    0    0 -0.13115754617E+02  0.32773652751E+01  0.20993413475E+02  0.24969732716E+02  0.51100000000E-03 0.  1.
        -12    1    3    3    0    0 -0.56103061025E+01  0.67579343086E+00  0.29813127433E+01  0.63890889021E+01  0.00000000000E+00 0.  1.
</event>
<event>
 7    1  0.2297343E-008  0.4614232E+02  0.7816164E-02  0.1320468E+00
        -11   -1    0    0    0    0  0.00000000000E+00  0.00000000000E+00  0.45593999997E+02  0.45594000000E+02  0.51100000000E-03 0.  1.
         11   -1    0    0    0    0 -0.00000000000E+00 -0.00000000000E+00 -0.45593999997E+02  0.45594000000E+02  0.51100000000E-03 0. -1.
    9900012    2    1    2    0    0  0.34749461442E+01  0.21683823144E+01  0.44859072178E+02  0.46142317751E+02  0.99999999086E+01 0.  0.
         12    1    1    2    0    0 -0.34749461442E+01 -0.21683823144E+01 -0.44859072178E+02  0.45045682249E+02  0.00000000000E+00 0. -1.
         11    1    3    3    0    0  0.60931066529E+00 -0.21446141002E+01  0.28480869442E+01  0.36169363595E+01  0.51100000000E-03 0. -1.
        -11    1    3    3    0    0 -0.11481598118E-01  0.24159204243E+01  0.27705631340E+02  0.27810767906E+02  0.51100000000E-03 0.  1.
        -12    1    3    3    0    0  0.28771170770E+01  0.18970759903E+01  0.14305353894E+02  0.14714613485E+02  0.00000000000E+00 0.  1.
</event>
<event>
 7    1  0.2297343E-008  0.4614232E+02  0.7816164E-02  0.1320468E+00
        -11   -1    0    0    0    0  0.00000000000E+00  0.00000000000E+00  0.45593999997E+02  0.45594000000E+02  0.51100000000E-03 0. -1.
         11   -1    0    0    0    0 -0.00000000000E+00 -0.00000000000E+00 -0.45593999997E+02  0.45594000000E+02  0.51100000000E-03 0.  1.
    9900012    2    1    2    0    0  0.30998333271E+02  0.12926372981E+02 -0.30018756773E+02  0.46142317163E+02  0.99999945452E+01 0.  0.
         12    1    1    2    0    0 -0.30998333271E+02 -0.12926372981E+02  0.30018756773E+02  0.45045682837E+02  0.00000000000E+00 0. -1.
         11    1    3    3    0    0  0.15629729182E+02  0.59117529757E+01 -0.19608958277E+02  0.25763316994E+02  0.51100000000E-03 0. -1.
        -11    1    3    3    0    0  0.15392064554E+02  0.71222582873E+01 -0.10710442053E+02  0.20058808130E+02  0.51100000000E-03 0.  1.
         12    1    3    3    0    0 -0.23460464922E-01 -0.10763828229E+00  0.30064355743E+00  0.32019203902E+00  0.00000000000E+00 0. -1.
</event>
<event>
 7    1  0.2297343E-008  0.4614232E+02  0.7816164E-02  0.1320468E+00
        -11   -1    0    0    0    0  0.00000000000E+00  0.00000000000E+00  0.45593999997E+02  0.45594000000E+02  0.51100000000E-03 0.  1.
         11   -1    0    0    0    0 -0.00000000000E+00 -0.00000000000E+00 -0.45593999997E+02  0.45594000000E+02  0.51100000000E-03 0. -1.
    9900012    2    1    2    0    0  0.36623442499E+02 -0.21657552609E+02  0.14791457777E+02  0.46142319312E+02  0.10000014142E+02 0.  0.
         12    1    1    2    0    0 -0.36623442499E+02  0.21657552609E+02 -0.14791457777E+02  0.45045680688E+02  0.00000000000E+00 0. -1.
         11    1    3    3    0    0  0.11515463594E+02 -0.10779597236E+02  0.77925919149E+01  0.17593467747E+02  0.51100000000E-03 0.  1.
        -11    1    3    3    0    0  0.14566390633E+02 -0.79082343668E+01  0.27481371893E+01  0.16800957269E+02  0.51100000000E-03 0. -1.
        -12    1    3    3    0    0  0.10541588271E+02 -0.29697210064E+01  0.42507286732E+01  0.11747894296E+02  0.00000000000E+00 0.  1.
</event>
<event>
 7    1  0.2297343E-008  0.4614232E+02  0.7816164E-02  0.1320468E+00
        -11   -1    0    0    0    0  0.00000000000E+00  0.00000000000E+00  0.45593999997E+02  0.45594000000E+02  0.51100000000E-03 0.  1.
         11   -1    0    0    0    0 -0.00000000000E+00 -0.00000000000E+00 -0.45593999997E+02  0.45594000000E+02  0.51100000000E-03 0. -1.
    9900012    2    1    2    0    0 -0.15427537427E+02 -0.34071211559E+02  0.25104922738E+02  0.46142317478E+02  0.99999974227E+01 0.  0.
         12    1    1    2    0    0  0.15427537427E+02  0.34071211559E+02 -0.25104922738E+02  0.45045682522E+02  0.00000000000E+00 0. -1.
         11    1    3    3    0    0 -0.76830639695E+01 -0.13855150885E+02  0.15925107936E+02  0.22463386678E+02  0.51100000000E-03 0.  1.
        -11    1    3    3    0    0 -0.19342579055E+00 -0.32231878360E+01  0.15001332181E+01  0.35604428511E+01  0.51100000000E-03 0. -1.
        -12    1    3    3    0    0 -0.75510476668E+01 -0.16992872838E+02  0.76796815841E+01  0.20118487950E+02  0.00000000000E+00 0.  1.
</event>
<event>
 7    1  0.2297343E-008  0.4614232E+02  0.7816164E-02  0.1320468E+00
        -11   -1    0    0    0    0  0.00000000000E+00  0.00000000000E+00  0.45593999997E+02  0.45594000000E+02  0.51100000000E-03 0. -1.
         11   -1    0    0    0    0 -0.00000000000E+00 -0.00000000000E+00 -0.45593999997E+02  0.45594000000E+02  0.51100000000E-03 0.  1.
    9900012    2    1    2    0    0 -0.14475495734E+02 -0.42655443567E+02  0.29456750084E+00  0.46142316382E+02  0.99999874226E+01 0.  0.
         12    1    1    2    0    0  0.14475495734E+02  0.42655443567E+02 -0.29456750084E+00  0.45045683618E+02  0.00000000000E+00 0. -1.
         11    1    3    3    0    0 -0.46168539689E+01 -0.18105762945E+02 -0.32110367777E+01  0.18959028188E+02  0.51100000000E-03 0.  1.
        -11    1    3    3    0    0 -0.26452635270E+01 -0.40918746072E+01 -0.11287572170E+01  0.50014947810E+01  0.51100000000E-03 0. -1.
        -12    1    3    3    0    0 -0.72133782380E+01 -0.20457806015E+02  0.46343614955E+01  0.22181793413E+02  0.00000000000E+00 0.  1.
</event>
<event>
 7    1  0.2297343E-008  0.4614232E+02  0.7816164E-02  0.1320468E+00
        -11   -1    0    0    0    0  0.00000000000E+00  0.00000000000E+00  0.45593999997E+02  0.45594000000E+02  0.51100000000E-03 0.  1.
         11   -1    0    0    0    0 -0.00000000000E+00 -0.00000000000E+00 -0.45593999997E+02  0.45594000000E+02  0.51100000000E-03 0. -1.
    9900012    2    1    2    0    0 -0.30182057457E+01 -0.44700114765E+02 -0.46801526942E+01  0.46142315910E+02  0.99999831189E+01 0.  0.
         12    1    1    2    0    0  0.30182057457E+01  0.44700114765E+02  0.46801526942E+01  0.45045684090E+02  0.00000000000E+00 0. -1.
         11    1    3    3    0    0 -0.59445132989E+00 -0.44474728358E+01 -0.18695269317E+01  0.48609174256E+01  0.51100000000E-03 0. -1.
        -11    1    3    3    0    0  0.18627935044E+01 -0.23016192704E+02 -0.41819221307E+01  0.23467074790E+02  0.51100000000E-03 0.  1.
         12    1    3    3    0    0 -0.42865479202E+01 -0.17236449225E+02  0.13712963682E+01  0.17814323694E+02  0.00000000000E+00 0. -1.
</event>
<event>
 7    1  0.2297343E-008  0.4614232E+02  0.7816164E-02  0.1320468E+00
        -11   -1    0    0    0    0  0.00000000000E+00  0.00000000000E+00  0.45593999997E+02  0.45594000000E+02  0.51100000000E-03 0.  1.
         11   -1    0    0    0    0 -0.00000000000E+00 -0.00000000000E+00 -0.45593999997E+02  0.45594000000E+02  0.51100000000E-03 0. -1.
    9900012    2    1    2    0    0 -0.42644723992E+02  0.99918677969E+01  0.10521580367E+02  0.46142316967E+02  0.99999927611E+01 0.  0.
         12    1    1    2    0    0  0.42644723992E+02 -0.99918677969E+01 -0.10521580367E+02  0.45045683033E+02  0.00000000000E+00 0. -1.
         11    1    3    3    0    0 -0.26252650367E+02  0.76688129323E+01  0.10260322060E+02  0.29211069000E+02  0.51100000000E-03 0.  1.
        -11    1    3    3    0    0  0.25601570738E-01  0.13440543151E+00 -0.33056288830E+00  0.35776017761E+00  0.51100000000E-03 0. -1.
        -12    1    3    3    0    0 -0.16417675196E+02  0.21886494332E+01  0.59182119520E+00  0.16573487789E+02  0.00000000000E+00 0.  1.
</event>
<event>
 7    1  0.2297343E-008  0.4614232E+02  0.7816164E-02  0.1320468E+00
        -11   -1    0    0    0    0  0.00000000000E+00  0.00000000000E+00  0.45593999997E+02  0.45594000000E+02  0.51100000000E-03 0.  1.
         11   -1    0    0    0    0 -0.00000000000E+00 -0.00000000000E+00 -0.45593999997E+02  0.45594000000E+02  0.51100000000E-03 0. -1.
    9900012    2    1    2    0    0  0.15720606607E+02  0.33949948291E+02  0.25087385748E+02  0.46142318912E+02  0.10000010496E+02 0.  0.
         12    1    1    2    0    0 -0.15720606607E+02 -0.33949948291E+02 -0.25087385748E+02  0.45045681088E+02  0.00000000000E+00 0. -1.
         11    1    3    3    0    0  0.48280412692E+00  0.45757260035E+01  0.65819529557E+00  0.46479661780E+01  0.51100000000E-03 0. -1.
        -11    1    3    3    0    0  0.10866691561E+01  0.55328138582E+01  0.26093609410E+01  0.62130221170E+01  0.51100000000E-03 0.  1.
        -12    1    3    3    0    0  0.14151133324E+02  0.23841408429E+02  0.21819829511E+02  0.35281330617E+02  0.00000000000E+00 0.  1.
</event>
<event>
 7    1  0.2297343E-008  0.4614232E+02  0.7816164E-02  0.1320468E+00
        -11   -1    0    0    0    0  0.00000000000E+00  0.00000000000E+00  0.45593999997E+02  0.45594000000E+02  0.51100000000E-03 0.  1.
         11   -1    0    0    0    0 -0.00000000000E+00 -0.00000000000E+00 -0.45593999997E+02  0.45594000000E+02  0.51100000000E-03 0. -1.
    9900012    2    1    2    0    0  0.38903701061E+02 -0.15523485206E+02  0.16572163515E+02  0.46142321486E+02  0.10000033967E+02 0.  0.
         12    1    1    2    0    0 -0.38903701061E+02  0.15523485206E+02 -0.16572163515E+02  0.45045678514E+02  0.00000000000E+00 0. -1.
         11    1    3    3    0    0  0.42993803102E+01 -0.27917980049E+01  0.18961130030E+01  0.54657160494E+01  0.51100000000E-03 0. -1.
        -11    1    3    3    0    0  0.13972246808E+02 -0.67785000839E+01  0.10644761265E+02  0.18827710612E+02  0.51100000000E-03 0.  1.
        -12    1    3    3    0    0  0.20632073943E+02 -0.59531871177E+01  0.40312892471E+01  0.21848894824E+02  0.00000000000E+00 0.  1.
</event>
<event>
 7    1  0.2297343E-008  0.4614232E+02  0.7816164E-02  0.1320468E+00
        -11   -1    0    0    0    0  0.00000000000E+00  0.00000000000E+00  0.45593999997E+02  0.45594000000E+02  0.51100000000E-03 0.  1.
         11   -1    0    0    0    0 -0.00000000000E+00 -0.00000000000E+00 -0.45593999997E+02  0.45594000000E+02  0.51100000000E-03 0. -1.
    9900012    2    1    2    0    0 -0.11216389550E+02  0.22762335053E+02  0.37218036451E+02  0.46142317311E+02  0.99999958989E+01 0.  0.
         12    1    1    2    0    0  0.11216389550E+02 -0.22762335053E+02 -0.37218036451E+02  0.45045682689E+02  0.00000000000E+00 0. -1.
         11    1    3    3    0    0 -0.44001943252E+00  0.51371062313E+01  0.94232530855E+01  0.10741563038E+02  0.51100000000E-03 0. -1.
        -11    1    3    3    0    0 -0.83663804131E+01  0.96661980965E+01  0.21329686951E+02  0.24867393360E+02  0.51100000000E-03 0.  1.
         12    1    3    3    0    0 -0.24099897042E+01  0.79590307256E+01  0.64650964147E+01  0.10533360913E+02  0.00000000000E+00 0. -1.
</event>
<event>
 7    1  0.2297343E-008  0.4614232E+02  0.7816164E-02  0.1320468E+00
        -11   -1    0    0    0    0  0.00000000000E+00  0.00000000000E+00  0.45593999997E+02  0.45594000000E+02  0.51100000000E-03 0.  1.
         11   -1    0    0    0    0 -0.00000000000E+00 -0.00000000000E+00 -0.45593999997E+02  0.45594000000E+02  0.51100000000E-03 0. -1.
    9900012    2    1    2    0    0 -0.12204816042E+02  0.29201046088E+02  0.32053938223E+02  0.46142316712E+02  0.99999904341E+01 0.  0.
         12    1    1    2    0    0  0.12204816042E+02 -0.29201046088E+02 -0.32053938223E+02  0.45045683288E+02  0.00000000000E+00 0. -1.
         11    1    3    3    0    0  0.13896803236E+01  0.32471329310E+01  0.16189769173E+01  0.38853790282E+01  0.51100000000E-03 0. -1.
        -11    1    3    3    0    0 -0.79083586135E+01  0.14127397700E+02  0.17063628173E+02  0.23522179075E+02  0.51100000000E-03 0.  1.
         12    1    3    3    0    0 -0.56861377524E+01  0.11826515457E+02  0.13371333133E+02  0.18734758609E+02  0.00000000000E+00 0. -1.
</event>
<event>
 7    1  0.2297343E-008  0.4614232E+02  0.7816164E-02  0.1320468E+00
        -11   -1    0    0    0    0  0.00000000000E+00  0.00000000000E+00  0.45593999997E+02  0.45594000000E+02  0.51100000000E-03 0.  1.
         11   -1    0    0    0    0 -0.00000000000E+00 -0.00000000000E+00 -0.45593999997E+02  0.45594000000E+02  0.51100000000E-03 0. -1.
    9900012    2    1    2    0    0  0.73937365090E+01 -0.35555606900E+02  0.26650420140E+02  0.46142318573E+02  0.10000007403E+02 0.  0.
         12    1    1    2    0    0 -0.73937365090E+01  0.35555606900E+02 -0.26650420140E+02  0.45045681427E+02  0.00000000000E+00 0. -1.
         11    1    3    3    0    0  0.75943420979E+01 -0.28780790349E+02  0.20009663474E+02  0.35866342964E+02  0.51100000000E-03 0.  1.
        -11    1    3    3    0    0 -0.17008024815E+00 -0.31659512793E+01  0.58156583587E+00  0.32234133889E+01  0.51100000000E-03 0. -1.
         12    1    3    3    0    0 -0.30525340792E-01 -0.36088652713E+01  0.60591908308E+01  0.70525622200E+01  0.00000000000E+00 0. -1.
</event>
<event>
 7    1  0.2297343E-008  0.4614232E+02  0.7816164E-02  0.1320468E+00
        -11   -1    0    0    0    0  0.00000000000E+00  0.00000000000E+00  0.45593999997E+02  0.45594000000E+02  0.51100000000E-03 0.  1.
         11   -1    0    0    0    0 -0.00000000000E+00 -0.00000000000E+00 -0.45593999997E+02  0.45594000000E+02  0.51100000000E-03 0. -1.
    9900012    2    1    2    0    0  0.92062069768E+00 -0.23714370142E+02  0.38287001746E+02  0.46142318782E+02  0.10000009309E+02 0.  0.
         12    1    1    2    0    0 -0.92062069768E+00  0.23714370142E+02 -0.38287001746E+02  0.45045681218E+02  0.00000000000E+00 0. -1.
         11    1    3    3    0    0 -0.71740020463E+00 -0.63991091516E+01  0.61921129138E+01  0.89333937328E+01  0.51100000000E-03 0. -1.
        -11    1    3    3    0    0 -0.50604851926E+00  0.15133427382E-01  0.46636254878E+01  0.46910251626E+01  0.51100000000E-03 0.  1.
        -12    1    3    3    0    0  0.21440694216E+01 -0.17330394417E+02  0.27431263345E+02  0.32517899887E+02  0.00000000000E+00 0.  1.
</event>
<event>
 7    1  0.2297343E-008  0.4614232E+02  0.7816164E-02  0.1320468E+00
        -11   -1    0    0    0    0  0.00000000000E+00  0.00000000000E+00  0.45593999997E+02  0.45594000000E+02  0.51100000000E-03 0.  1.
         11   -1    0    0    0    0 -0.00000000000E+00 -0.00000000000E+00 -0.45593999997E+02  0.45594000000E+02  0.51100000000E-03 0. -1.
    9900012    2    1    2    0    0  0.35401971684E+02 -0.26176728082E+02  0.95180303908E+01  0.46142316581E+02  0.99999892350E+01 0.  0.
         12    1    1    2    0    0 -0.35401971684E+02  0.26176728082E+02 -0.95180303908E+01  0.45045683419E+02  0.00000000000E+00 0. -1.
         11    1    3    3    0    0  0.52245131015E+01 -0.46883480599E+01  0.49141382021E+01  0.85688330133E+01  0.51100000000E-03 0. -1.
        -11    1    3    3    0    0  0.10259321816E+02 -0.55442171322E+01  0.80074047277E-01  0.11661836898E+02  0.51100000000E-03 0.  1.
         12    1    3    3    0    0  0.19918136767E+02 -0.15944162890E+02  0.45238181414E+01  0.25911646669E+02  0.00000000000E+00 0. -1.
</event>
<event>
 7    1  0.2297343E-008  0.4614232E+02  0.7816164E-02  0.1320468E+00
        -11   -1    0    0    0    0  0.00000000000E+00  0.00000000000E+00  0.45593999997E+02  0.45594000000E+02  0.51100000000E-03 0. -1.
         11   -1    0    0    0    0 -0.00000000000E+00 -0.00000000000E+00 -0.45593999997E+02  0.45594000000E+02  0.51100000000E-03 0.  1.
    9900012    2    1    2    0    0  0.51619978402E+00 -0.43267509786E+02 -0.12520764167E+02  0.46142318735E+02  0.10000008884E+02 0.  0.
         12    1    1    2    0    0 -0.51619978402E+00  0.43267509786E+02  0.12520764167E+02  0.45045681265E+02  0.00000000000E+00 0. -1.
         11    1    3    3    0    0 -0.82010630165E+00 -0.95432183780E+00 -0.34697702185E+00  0.13052577642E+01  0.51100000000E-03 0. -1.
        -11    1    3    3    0    0  0.31936097205E+01 -0.86404853139E+01 -0.79837612111E+00  0.92463254430E+01  0.51100000000E-03 0.  1.
        -12    1    3    3    0    0 -0.18573036348E+01 -0.33672702634E+02 -0.11375411024E+02  0.35590735528E+02  0.00000000000E+00 0.  1.
</event>
<event>
 7    1  0.2297343E-008  0.4614232E+02  0.7816164E-02  0.1320468E+00
        -11   -1    0    0    0    0  0.00000000000E+00  0.00000000000E+00  0.45593999997E+02  0.45594000000E+02  0.51100000000E-03 0. -1.
         11   -1    0    0    0    0 -0.00000000000E+00 -0.00000000000E+00 -0.45593999997E+02  0.45594000000E+02  0.51100000000E-03 0.  1.
    9900012    2    1    2    0    0 -0.31931695655E+02  0.31665839563E+02 -0.25990225580E+01  0.46142317622E+02  0.99999987298E+01 0.  0.
         12    1    1    2    0    0  0.31931695655E+02 -0.31665839563E+02  0.25990225580E+01  0.45045682378E+02  0.00000000000E+00 0. -1.
         11    1    3    3    0    0 -0.10334575624E+02  0.12052780806E+02  0.26694706147E+01  0.16099660000E+02  0.51100000000E-03 0. -1.
        -11    1    3    3    0    0 -0.17227131270E+02  0.15002365434E+02 -0.20901838448E+01  0.22939352414E+02  0.51100000000E-03 0.  1.
         12    1    3    3    0    0 -0.43699887608E+01  0.46106933234E+01 -0.31783093279E+01  0.71033052078E+01  0.00000000000E+00 0. -1.
</event>
<event>
 7    1  0.2297343E-008  0.4614232E+02  0.7816164E-02  0.1320468E+00
        -11   -1    0    0    0    0  0.00000000000E+00  0.00000000000E+00  0.45593999997E+02  0.45594000000E+02  0.51100000000E-03 0.  1.
         11   -1    0    0    0    0 -0.00000000000E+00 -0.00000000000E+00 -0.45593999997E+02  0.45594000000E+02  0.51100000000E-03 0. -1.
    9900012    2    1    2    0    0  0.17656736442E+02 -0.33599134021E+02 -0.24258014401E+02  0.46142318615E+02  0.10000007785E+02 0.  0.
         12    1    1    2    0    0 -0.17656736442E+02  0.33599134021E+02  0.24258014401E+02  0.45045681385E+02  0.00000000000E+00 0. -1.
         11    1    3    3    0    0  0.11986540597E+02 -0.25349714885E+02 -0.19739883822E+02  0.34292101333E+02  0.51100000000E-03 0. -1.
        -11    1    3    3    0    0  0.20743012978E+01 -0.57230393543E+01 -0.42947445753E+01  0.74498816470E+01  0.51100000000E-03 0.  1.
         12    1    3    3    0    0  0.35958945470E+01 -0.25263797822E+01 -0.22338600375E+00  0.44003356354E+01  0.00000000000E+00 0. -1.
</event>
<event>
 7    1  0.2297343E-008  0.4614232E+02  0.7816164E-02  0.1320468E+00
        -11   -1    0    0    0    0  0.00000000000E+00  0.00000000000E+00  0.45593999997E+02  0.45594000000E+02  0.51100000000E-03 0.  1.
         11   -1    0    0    0    0 -0.00000000000E+00 -0.00000000000E+00 -0.45593999997E+02  0.45594000000E+02  0.51100000000E-03 0. -1.
    9900012    2    1    2    0    0 -0.25801480460E+02 -0.11132193644E+02  0.35206126540E+02  0.46142317907E+02  0.10000001328E+02 0.  0.
         12    1    1    2    0    0  0.25801480460E+02  0.11132193644E+02 -0.35206126540E+02  0.45045682093E+02  0.00000000000E+00 0. -1.
         11    1    3    3    0    0 -0.87368239518E+00 -0.67660000892E+00 -0.39529183666E+00  0.11736116892E+01  0.51100000000E-03 0. -1.
        -11    1    3    3    0    0 -0.52907086929E+01 -0.31502061825E+01  0.52726477818E+01  0.81065536671E+01  0.51100000000E-03 0.  1.
        -12    1    3    3    0    0 -0.19637089372E+02 -0.73053874528E+01  0.30328770595E+02  0.36862152551E+02  0.00000000000E+00 0.  1.
</event>
<event>
 7    1  0.2297343E-008  0.4614232E+02  0.7816164E-02  0.1320468E+00
        -11   -1    0    0    0    0  0.00000000000E+00  0.00000000000E+00  0.45593999997E+02  0.45594000000E+02  0.51100000000E-03 0. -1.
         11   -1    0    0    0    0 -0.00000000000E+00 -0.00000000000E+00 -0.45593999997E+02  0.45594000000E+02  0.51100000000E-03 0.  1.
    9900012    2    1    2    0    0 -0.41945143758E+02 -0.11749865631E+02 -0.11474267525E+02  0.46142320491E+02  0.10000024892E+02 0.  0.
         12    1    1    2    0    0  0.41945143758E+02  0.11749865631E+02  0.11474267525E+02  0.45045679509E+02  0.00000000000E+00 0. -1.
         11    1    3    3    0    0 -0.13812834494E+02 -0.93180343318E+00 -0.28609143233E+01  0.14136742391E+02  0.51100000000E-03 0. -1.
        -11    1    3    3    0    0 -0.18960522329E+02 -0.46234201695E+01 -0.73982893839E+01  0.20871322601E+02  0.51100000000E-03 0.  1.
        -12    1    3    3    0    0 -0.91717869343E+01 -0.61946420280E+01 -0.12150638181E+01  0.11134255498E+02  0.00000000000E+00 0.  1.
</event>
<event>
 7    1  0.2297343E-008  0.4614232E+02  0.7816164E-02  0.1320468E+00
        -11   -1    0    0    0    0  0.00000000000E+00  0.00000000000E+00  0.45593999997E+02  0.45594000000E+02  0.51100000000E-03 0.  1.
         11   -1    0    0    0    0 -0.00000000000E+00 -0.00000000000E+00 -0.45593999997E+02  0.45594000000E+02  0.51100000000E-03 0. -1.
    9900012    2    1    2    0    0  0.18283494750E+02  0.27608849729E+02  0.30538152740E+02  0.46142317228E+02  0.99999951391E+01 0.  0.
         12    1    1    2    0    0 -0.18283494750E+02 -0.27608849729E+02 -0.30538152740E+02  0.45045682772E+02  0.00000000000E+00 0. -1.
         11    1    3    3    0    0  0.14019193459E+01  0.25301168352E+01  0.55273657169E+00  0.29448916841E+01  0.51100000000E-03 0. -1.
        -11    1    3    3    0    0  0.59369494989E+01  0.83996918362E+01  0.56686799566E+01  0.11744621110E+02  0.51100000000E-03 0.  1.
         12    1    3    3    0    0  0.10944625905E+02  0.16679041057E+02  0.24316736212E+02  0.31452804434E+02  0.00000000000E+00 0. -1.
</event>
<event>
 7    1  0.2297343E-008  0.4614232E+02  0.7816164E-02  0.1320468E+00
        -11   -1    0    0    0    0  0.00000000000E+00  0.00000000000E+00  0.45593999997E+02  0.45594000000E+02  0.51100000000E-03 0.  1.
         11   -1    0    0    0    0 -0.00000000000E+00 -0.00000000000E+00 -0.45593999997E+02  0.45594000000E+02  0.51100000000E-03 0. -1.
    9900012    2    1    2    0    0 -0.13215799541E+01  0.36004196343E+02  0.27038209442E+02  0.46142317658E+02  0.99999990594E+01 0.  0.
         12    1    1    2    0    0  0.13215799541E+01 -0.36004196343E+02 -0.27038209442E+02  0.45045682342E+02  0.00000000000E+00 0. -1.
         11    1    3    3    0    0 -0.45963547755E+01  0.27421801261E+02  0.17478699898E+02  0.32841842397E+02  0.51100000000E-03 0. -1.
        -11    1    3    3    0    0  0.70787040926E+00  0.20733596407E+01  0.29571517975E+01  0.36803053855E+01  0.51100000000E-03 0.  1.
         12    1    3    3    0    0  0.25669044121E+01  0.65090354406E+01  0.66023577459E+01  0.96201698755E+01  0.00000000000E+00 0. -1.
</event>
<event>
 7    1  0.2297343E-008  0.4614232E+02  0.7816164E-02  0.1320468E+00
        -11   -1    0    0    0    0  0.00000000000E+00  0.00000000000E+00  0.45593999997E+02  0.45594000000E+02  0.51100000000E-03 0.  1.
         11   -1    0    0    0    0 -0.00000000000E+00 -0.00000000000E+00 -0.45593999997E+02  0.45594000000E+02  0.51100000000E-03 0. -1.
    9900012    2    1    2    0    0  0.23206819967E+02 -0.35767683666E+02  0.14533745335E+02  0.46142318284E+02  0.10000004767E+02 0.  0.
         12    1    1    2    0    0 -0.23206819967E+02  0.35767683666E+02 -0.14533745335E+02  0.45045681716E+02  0.00000000000E+00 0. -1.
         11    1    3    3    0    0  0.26924263713E+00 -0.18979879496E+01  0.25831630721E+01  0.32167657006E+01  0.51100000000E-03 0. -1.
        -11    1    3    3    0    0  0.75423274076E+01 -0.71862408113E+01  0.32987173571E+01  0.10927501827E+02  0.51100000000E-03 0.  1.
        -12    1    3    3    0    0  0.15395249922E+02 -0.26683454905E+02  0.86518649059E+01  0.31998050756E+02  0.00000000000E+00 0.  1.
</event>
<event>
 7    1  0.2297343E-008  0.4614232E+02  0.7816164E-02  0.1320468E+00
        -11   -1    0    0    0    0  0.00000000000E+00  0.00000000000E+00  0.45593999997E+02  0.45594000000E+02  0.51100000000E-03 0.  1.
         11   -1    0    0    0    0 -0.00000000000E+00 -0.00000000000E+00 -0.45593999997E+02  0.45594000000E+02  0.51100000000E-03 0. -1.
    9900012    2    1    2    0    0  0.68744528320E+01  0.48853704647E+01  0.44249160728E+02  0.46142321279E+02  0.10000032077E+02 0.  0.
         12    1    1    2    0    0 -0.68744528320E+01 -0.48853704647E+01 -0.44249160728E+02  0.45045678721E+02  0.00000000000E+00 0. -1.
         11    1    3    3    0    0  0.21063976724E+01  0.19346107008E+01  0.46636515871E+01  0.54707655868E+01  0.51100000000E-03 0. -1.
        -11    1    3    3    0    0 -0.23602112024E+00 -0.17638309659E+01  0.16168512701E+02  0.16266149172E+02  0.51100000000E-03 0.  1.
        -12    1    3    3    0    0  0.50040762798E+01  0.47145907297E+01  0.23416996440E+02  0.24405406520E+02  0.00000000000E+00 0.  1.
</event>
<event>
 7    1  0.2297343E-008  0.4614232E+02  0.7816164E-02  0.1320468E+00
        -11   -1    0    0    0    0  0.00000000000E+00  0.00000000000E+00  0.45593999997E+02  0.45594000000E+02  0.51100000000E-03 0.  1.
         11   -1    0    0    0    0 -0.00000000000E+00 -0.00000000000E+00 -0.45593999997E+02  0.45594000000E+02  0.51100000000E-03 0. -1.
    9900012    2    1    2    0    0 -0.24942624865E+02 -0.61926323166E+01  0.36995002628E+02  0.46142318192E+02  0.10000003926E+02 0.  0.
         12    1    1    2    0    0  0.24942624865E+02  0.61926323166E+01 -0.36995002628E+02  0.45045681808E+02  0.00000000000E+00 0. -1.
         11    1    3    3    0    0 -0.16896528287E+02 -0.17776193051E+01  0.30174509589E+02  0.34628797666E+02  0.51100000000E-03 0. -1.
        -11    1    3    3    0    0 -0.43562131821E+01 -0.19269881352E+01  0.41895113946E+01  0.63436489931E+01  0.51100000000E-03 0.  1.
        -12    1    3    3    0    0 -0.36898833952E+01 -0.24880248763E+01  0.26309816440E+01  0.51698715329E+01  0.00000000000E+00 0.  1.
</event>
<event>
 7    1  0.2297343E-008  0.4614231E+02  0.7816164E-02  0.1320468E+00
        -11   -1    0    0    0    0  0.00000000000E+00  0.00000000000E+00  0.45593999997E+02  0.45594000000E+02  0.51100000000E-03 0.  1.
         11   -1    0    0    0    0 -0.00000000000E+00 -0.00000000000E+00 -0.45593999997E+02  0.45594000000E+02  0.51100000000E-03 0. -1.
    9900012    2    1    2    0    0 -0.37480330720E+02  0.18932012602E+02  0.16306981350E+02  0.46142312828E+02  0.99999550124E+01 0.  0.
         12    1    1    2    0    0  0.37480330720E+02 -0.18932012602E+02 -0.16306981350E+02  0.45045687172E+02  0.00000000000E+00 0. -1.
         11    1    3    3    0    0 -0.45419846337E+01  0.54184115192E+01  0.40916018438E+01  0.81688440867E+01  0.51100000000E-03 0. -1.
        -11    1    3    3    0    0 -0.60503153048E+01  0.46935614378E+01  0.26006339898E+01  0.80869729608E+01  0.51100000000E-03 0.  1.
        -12    1    3    3    0    0 -0.26888030782E+02  0.88200396454E+01  0.96147455161E+01  0.29886495780E+02  0.00000000000E+00 0.  1.
</event>
<event>
 7    1  0.2297343E-008  0.4614232E+02  0.7816164E-02  0.1320468E+00
        -11   -1    0    0    0    0  0.00000000000E+00  0.00000000000E+00  0.45593999997E+02  0.45594000000E+02  0.51100000000E-03 0.  1.
         11   -1    0    0    0    0 -0.00000000000E+00 -0.00000000000E+00 -0.45593999997E+02  0.45594000000E+02  0.51100000000E-03 0. -1.
    9900012    2    1    2    0    0 -0.67696549948E+00  0.10325635713E+02  0.43841035585E+02  0.46142318339E+02  0.10000005265E+02 0.  0.
         12    1    1    2    0    0  0.67696549948E+00 -0.10325635713E+02 -0.43841035585E+02  0.45045681661E+02  0.00000000000E+00 0. -1.
         11    1    3    3    0    0 -0.32495618789E+01  0.16944704209E+01  0.51472658775E+01  0.63186413640E+01  0.51100000000E-03 0. -1.
        -11    1    3    3    0    0 -0.22328867844E+00  0.31189952943E+01  0.16036007613E+02  0.16338039353E+02  0.51100000000E-03 0.  1.
        -12    1    3    3    0    0  0.27958850578E+01  0.55121699977E+01  0.22657762095E+02  0.23485637622E+02  0.00000000000E+00 0.  1.
</event>
<event>
 7    1  0.2297343E-008  0.4614233E+02  0.7816164E-02  0.1320468E+00
        -11   -1    0    0    0    0  0.00000000000E+00  0.00000000000E+00  0.45593999997E+02  0.45594000000E+02  0.51100000000E-03 0. -1.
         11   -1    0    0    0    0 -0.00000000000E+00 -0.00000000000E+00 -0.45593999997E+02  0.45594000000E+02  0.51100000000E-03 0.  1.
    9900012    2    1    2    0    0 -0.21254597985E+01 -0.44988882083E+02 -0.77133103766E+00  0.46142333816E+02  0.10000146398E+02 0.  0.
         12    1    1    2    0    0  0.21254597985E+01  0.44988882083E+02  0.77133103766E+00  0.45045666184E+02  0.00000000000E+00 0. -1.
         11    1    3    3    0    0 -0.41856774293E+00 -0.32476922698E+01  0.92557978264E+00  0.34028520729E+01  0.51100000000E-03 0. -1.
        -11    1    3    3    0    0 -0.35949507373E+01 -0.33061075516E+02  0.15230623149E+01  0.33290811107E+02  0.51100000000E-03 0.  1.
        -12    1    3    3    0    0  0.18880586818E+01 -0.86801142968E+01 -0.32199731352E+01  0.94486706358E+01  0.00000000000E+00 0.  1.
</event>
<event>
 7    1  0.2297343E-008  0.4614232E+02  0.7816164E-02  0.1320468E+00
        -11   -1    0    0    0    0  0.00000000000E+00  0.00000000000E+00  0.45593999997E+02  0.45594000000E+02  0.51100000000E-03 0.  1.
         11   -1    0    0    0    0 -0.00000000000E+00 -0.00000000000E+00 -0.45593999997E+02  0.45594000000E+02  0.51100000000E-03 0. -1.
    9900012    2    1    2    0    0  0.70106649719E+01  0.18391359883E+02  0.40518168665E+02  0.46142317259E+02  0.99999954169E+01 0.  0.
         12    1    1    2    0    0 -0.70106649719E+01 -0.18391359883E+02 -0.40518168665E+02  0.45045682741E+02  0.00000000000E+00 0. -1.
         11    1    3    3    0    0  0.10588927872E+01  0.11654225362E+02  0.26728525907E+02  0.29178010901E+02  0.51100000000E-03 0. -1.
        -11    1    3    3    0    0  0.23391520313E+01  0.32252657895E+01  0.96615980926E+01  0.10450858797E+02  0.51100000000E-03 0.  1.
         12    1    3    3    0    0  0.36126201534E+01  0.35118687309E+01  0.41280446652E+01  0.65134475598E+01  0.00000000000E+00 0. -1.
</event>
<event>
 7    1  0.2297343E-008  0.4614232E+02  0.7816164E-02  0.1320468E+00
        -11   -1    0    0    0    0  0.00000000000E+00  0.00000000000E+00  0.45593999997E+02  0.45594000000E+02  0.51100000000E-03 0.  1.
         11   -1    0    0    0    0 -0.00000000000E+00 -0.00000000000E+00 -0.45593999997E+02  0.45594000000E+02  0.51100000000E-03 0. -1.
    9900012    2    1    2    0    0  0.15917907681E+02 -0.23426524797E+02  0.35027583538E+02  0.46142318104E+02  0.10000003126E+02 0.  0.
         12    1    1    2    0    0 -0.15917907681E+02  0.23426524797E+02 -0.35027583538E+02  0.45045681896E+02  0.00000000000E+00 0. -1.
         11    1    3    3    0    0  0.67481400376E+01 -0.99229531653E+01  0.13437320258E+02  0.18015659008E+02  0.51100000000E-03 0. -1.
        -11    1    3    3    0    0  0.98963563701E+01 -0.90959178364E+01  0.17528921384E+02  0.22089288713E+02  0.51100000000E-03 0.  1.
         12    1    3    3    0    0 -0.72658872718E+00 -0.44076537950E+01  0.40613418951E+01  0.60373703832E+01  0.00000000000E+00 0. -1.
</event>
<event>
 7    1  0.2297343E-008  0.4614232E+02  0.7816164E-02  0.1320468E+00
        -11   -1    0    0    0    0  0.00000000000E+00  0.00000000000E+00  0.45593999997E+02  0.45594000000E+02  0.51100000000E-03 0.  1.
         11   -1    0    0    0    0 -0.00000000000E+00 -0.00000000000E+00 -0.45593999997E+02  0.45594000000E+02  0.51100000000E-03 0. -1.
    9900012    2    1    2    0    0 -0.10189544422E+02 -0.34663815619E+02  0.26901794807E+02  0.46142317714E+02  0.99999995666E+01 0.  0.
         12    1    1    2    0    0  0.10189544422E+02  0.34663815619E+02 -0.26901794807E+02  0.45045682286E+02  0.00000000000E+00 0. -1.
         11    1    3    3    0    0 -0.33822288070E+01 -0.51486794362E+01  0.68029066465E+01  0.91775765179E+01  0.51100000000E-03 0. -1.
        -11    1    3    3    0    0  0.21743847750E+00 -0.13171084715E+02  0.96964738552E+01  0.16356844364E+02  0.51100000000E-03 0.  1.
        -12    1    3    3    0    0 -0.70247540927E+01 -0.16344051468E+02  0.10402414306E+02  0.20607896832E+02  0.00000000000E+00 0.  1.
</event>
<event>
 7    1  0.2297343E-008  0.4614232E+02  0.7816164E-02  0.1320468E+00
        -11   -1    0    0    0    0  0.00000000000E+00  0.00000000000E+00  0.45593999997E+02  0.45594000000E+02  0.51100000000E-03 0. -1.
         11   -1    0    0    0    0 -0.00000000000E+00 -0.00000000000E+00 -0.45593999997E+02  0.45594000000E+02  0.51100000000E-03 0.  1.
    9900012    2    1    2    0    0 -0.24606951542E+02  0.97468032610E+01 -0.36450120320E+02  0.46142317528E+02  0.99999978781E+01 0.  0.
         12    1    1    2    0    0  0.24606951542E+02 -0.97468032610E+01  0.36450120320E+02  0.45045682472E+02  0.00000000000E+00 0. -1.
         11    1    3    3    0    0 -0.67603758193E+01 -0.52887333496E+00 -0.99600923088E+01  0.12049308166E+02  0.51100000000E-03 0. -1.
        -11    1    3    3    0    0 -0.63937421215E+01  0.26326702619E+01 -0.48572463124E+01  0.84500729597E+01  0.51100000000E-03 0.  1.
         12    1    3    3    0    0 -0.11452833601E+02  0.76430063341E+01 -0.21632781699E+02  0.25642936402E+02  0.00000000000E+00 0. -1.
</event>
<event>
 7    1  0.2297343E-008  0.4614232E+02  0.7816164E-02  0.1320468E+00
        -11   -1    0    0    0    0  0.00000000000E+00  0.00000000000E+00  0.45593999997E+02  0.45594000000E+02  0.51100000000E-03 0.  1.
         11   -1    0    0    0    0 -0.00000000000E+00 -0.00000000000E+00 -0.45593999997E+02  0.45594000000E+02  0.51100000000E-03 0. -1.
    9900012    2    1    2    0    0 -0.21851247761E+02 -0.23153130388E+02  0.31867993890E+02  0.46142317520E+02  0.99999978041E+01 0.  0.
         12    1    1    2    0    0  0.21851247761E+02  0.23153130388E+02 -0.31867993890E+02  0.45045682480E+02  0.00000000000E+00 0. -1.
         11    1    3    3    0    0 -0.27986397468E+01 -0.50426513903E+01  0.47454694129E+01  0.74686141744E+01  0.51100000000E-03 0.  1.
        -11    1    3    3    0    0 -0.44084853759E+01 -0.87446868469E+00  0.74368957552E+01  0.86894681957E+01  0.51100000000E-03 0. -1.
         12    1    3    3    0    0 -0.14644122638E+02 -0.17236010313E+02  0.19685628722E+02  0.29984235150E+02  0.00000000000E+00 0. -1.
</event>
<event>
 7    1  0.2297343E-008  0.4614232E+02  0.7816164E-02  0.1320468E+00
        -11   -1    0    0    0    0  0.00000000000E+00  0.00000000000E+00  0.45593999997E+02  0.45594000000E+02  0.51100000000E-03 0.  1.
         11   -1    0    0    0    0 -0.00000000000E+00 -0.00000000000E+00 -0.45593999997E+02  0.45594000000E+02  0.51100000000E-03 0. -1.
    9900012    2    1    2    0    0  0.39608819150E+02  0.19386729920E+02 -0.91874715904E+01  0.46142317791E+02  0.10000000271E+02 0.  0.
         12    1    1    2    0    0 -0.39608819150E+02 -0.19386729920E+02  0.91874715904E+01  0.45045682209E+02  0.00000000000E+00 0. -1.
         11    1    3    3    0    0  0.73676760727E+01  0.57037295551E+01 -0.18253749892E+01  0.94945866504E+01  0.51100000000E-03 0. -1.
        -11    1    3    3    0    0  0.62575622892E-01 -0.63078429027E+00 -0.39441879962E+00  0.74657282301E+00  0.51100000000E-03 0.  1.
        -12    1    3    3    0    0  0.32178567455E+02  0.14313784655E+02 -0.69676778016E+01  0.35901158317E+02  0.00000000000E+00 0.  1.
</event>
<event>
 7    1  0.2297343E-008  0.4614232E+02  0.7816164E-02  0.1320468E+00
        -11   -1    0    0    0    0  0.00000000000E+00  0.00000000000E+00  0.45593999997E+02  0.45594000000E+02  0.51100000000E-03 0. -1.
         11   -1    0    0    0    0 -0.00000000000E+00 -0.00000000000E+00 -0.45593999997E+02  0.45594000000E+02  0.51100000000E-03 0.  1.
    9900012    2    1    2    0    0  0.32109145890E+02 -0.28422905999E+02  0.13793284240E+02  0.46142317351E+02  0.99999962586E+01 0.  0.
         12    1    1    2    0    0 -0.32109145890E+02  0.28422905999E+02 -0.13793284240E+02  0.45045682649E+02  0.00000000000E+00 0. -1.
         11    1    3    3    0    0  0.79805529455E+01 -0.56276566271E+01  0.19529902566E+01  0.99586101255E+01  0.51100000000E-03 0. -1.
        -11    1    3    3    0    0  0.10578891760E+02 -0.10367517436E+02  0.10132878072E+01  0.14846720887E+02  0.51100000000E-03 0.  1.
        -12    1    3    3    0    0  0.13549701185E+02 -0.12427731936E+02  0.10827006177E+02  0.21336986338E+02  0.00000000000E+00 0.  1.
</event>
<event>
 7    1  0.2297343E-008  0.4614232E+02  0.7816164E-02  0.1320468E+00
        -11   -1    0    0    0    0  0.00000000000E+00  0.00000000000E+00  0.45593999997E+02  0.45594000000E+02  0.51100000000E-03 0.  1.
         11   -1    0    0    0    0 -0.00000000000E+00 -0.00000000000E+00 -0.45593999997E+02  0.45594000000E+02  0.51100000000E-03 0. -1.
    9900012    2    1    2    0    0 -0.22037833986E+02 -0.17196968953E+02  0.35322960269E+02  0.46142318852E+02  0.10000009948E+02 0.  0.
         12    1    1    2    0    0  0.22037833986E+02  0.17196968953E+02 -0.35322960269E+02  0.45045681148E+02  0.00000000000E+00 0. -1.
         11    1    3    3    0    0 -0.51836248643E+01 -0.24895971702E+00  0.45051279270E+01  0.68722722279E+01  0.51100000000E-03 0. -1.
        -11    1    3    3    0    0 -0.11702927443E+02 -0.88328723054E+01  0.17194083264E+02  0.22596783918E+02  0.51100000000E-03 0.  1.
        -12    1    3    3    0    0 -0.51512816788E+01 -0.81151369302E+01  0.13623749078E+02  0.16673262706E+02  0.00000000000E+00 0.  1.
</event>
<event>
 7    1  0.2297343E-008  0.4614232E+02  0.7816164E-02  0.1320468E+00
        -11   -1    0    0    0    0  0.00000000000E+00  0.00000000000E+00  0.45593999997E+02  0.45594000000E+02  0.51100000000E-03 0.  1.
         11   -1    0    0    0    0 -0.00000000000E+00 -0.00000000000E+00 -0.45593999997E+02  0.45594000000E+02  0.51100000000E-03 0. -1.
    9900012    2    1    2    0    0  0.42205231694E+02 -0.14962227640E+02 -0.48952706094E+01  0.46142317492E+02  0.99999975415E+01 0.  0.
         12    1    1    2    0    0 -0.42205231694E+02  0.14962227640E+02  0.48952706094E+01  0.45045682508E+02  0.00000000000E+00 0. -1.
         11    1    3    3    0    0  0.59594243605E+01 -0.38001493450E+01  0.16765406157E+01  0.72640665229E+01  0.51100000000E-03 0. -1.
        -11    1    3    3    0    0  0.11345624232E+02 -0.21576035645E+01  0.18882329160E+00  0.11550502017E+02  0.51100000000E-03 0.  1.
         12    1    3    3    0    0  0.24900183102E+02 -0.90044747306E+01 -0.67606345167E+01  0.27327748952E+02  0.00000000000E+00 0. -1.
</event>
<event>
 7    1  0.2297343E-008  0.4614232E+02  0.7816164E-02  0.1320468E+00
        -11   -1    0    0    0    0  0.00000000000E+00  0.00000000000E+00  0.45593999997E+02  0.45594000000E+02  0.51100000000E-03 0.  1.
         11   -1    0    0    0    0 -0.00000000000E+00 -0.00000000000E+00 -0.45593999997E+02  0.45594000000E+02  0.51100000000E-03 0. -1.
    9900012    2    1    2    0    0  0.38875997433E+02 -0.15132611816E+02 -0.16993365759E+02  0.46142316560E+02  0.99999890475E+01 0.  0.
         12    1    1    2    0    0 -0.38875997433E+02  0.15132611816E+02  0.16993365759E+02  0.45045683440E+02  0.00000000000E+00 0. -1.
         11    1    3    3    0    0  0.20925495293E+02 -0.73130754960E+01 -0.69737135727E+01  0.23237687228E+02  0.51100000000E-03 0. -1.
        -11    1    3    3    0    0  0.16178367879E+02 -0.45666339268E+01 -0.73975226099E+01  0.18366193772E+02  0.51100000000E-03 0.  1.
         12    1    3    3    0    0  0.17721342611E+01 -0.32529023927E+01 -0.26221295760E+01  0.45384355597E+01  0.00000000000E+00 0. -1.
</event>
<event>
 7    1  0.2297343E-008  0.4614232E+02  0.7816164E-02  0.1320468E+00
        -11   -1    0    0    0    0  0.00000000000E+00  0.00000000000E+00  0.45593999997E+02  0.45594000000E+02  0.51100000000E-03 0.  1.
         11   -1    0    0    0    0 -0.00000000000E+00 -0.00000000000E+00 -0.45593999997E+02  0.45594000000E+02  0.51100000000E-03 0. -1.
    9900012    2    1    2    0    0  0.35278045894E+01 -0.42178556224E+02  0.15415495281E+02  0.46142317575E+02  0.99999983066E+01 0.  0.
         12    1    1    2    0    0 -0.35278045894E+01  0.42178556224E+02 -0.15415495281E+02  0.45045682425E+02  0.00000000000E+00 0. -1.
         11    1    3    3    0    0  0.57748622035E-01  0.34779564685E+00  0.30465405558E+00  0.46595178937E+00  0.51100000000E-03 0. -1.
        -11    1    3    3    0    0  0.27995267721E+01 -0.42018678966E+02  0.14211818341E+02  0.44445275486E+02  0.51100000000E-03 0.  1.
        -12    1    3    3    0    0  0.67052919523E+00 -0.50767290420E+00  0.89902288466E+00  0.12310902999E+01  0.00000000000E+00 0.  1.
</event>
<event>
 7    1  0.2297343E-008  0.4614232E+02  0.7816164E-02  0.1320468E+00
        -11   -1    0    0    0    0  0.00000000000E+00  0.00000000000E+00  0.45593999997E+02  0.45594000000E+02  0.51100000000E-03 0. -1.
         11   -1    0    0    0    0 -0.00000000000E+00 -0.00000000000E+00 -0.45593999997E+02  0.45594000000E+02  0.51100000000E-03 0.  1.
    9900012    2    1    2    0    0 -0.12932024108E+02 -0.41466657090E+02 -0.11932843280E+02  0.46142316006E+02  0.99999839986E+01 0.  0.
         12    1    1    2    0    0  0.12932024108E+02  0.41466657090E+02  0.11932843280E+02  0.45045683994E+02  0.00000000000E+00 0. -1.
         11    1    3    3    0    0 -0.28909859797E+01 -0.85382196736E+01 -0.41899415805E+01  0.99405535982E+01  0.51100000000E-03 0. -1.
        -11    1    3    3    0    0 -0.69405706303E+01 -0.12487798750E+02 -0.50123933190E+00  0.14295729412E+02  0.51100000000E-03 0.  1.
        -12    1    3    3    0    0 -0.31004674978E+01 -0.20440638666E+02 -0.72416623671E+01  0.21906032996E+02  0.00000000000E+00 0.  1.
</event>
<event>
 7    1  0.2297343E-008  0.4614232E+02  0.7816164E-02  0.1320468E+00
        -11   -1    0    0    0    0  0.00000000000E+00  0.00000000000E+00  0.45593999997E+02  0.45594000000E+02  0.51100000000E-03 0.  1.
         11   -1    0    0    0    0 -0.00000000000E+00 -0.00000000000E+00 -0.45593999997E+02  0.45594000000E+02  0.51100000000E-03 0. -1.
    9900012    2    1    2    0    0  0.44640910025E+02  0.16324357355E+01  0.57998132975E+01  0.46142317315E+02  0.99999959331E+01 0.  0.
         12    1    1    2    0    0 -0.44640910025E+02 -0.16324357355E+01 -0.57998132975E+01  0.45045682685E+02  0.00000000000E+00 0. -1.
         11    1    3    3    0    0  0.10491735956E+02 -0.35237942885E+00  0.36482088112E+01  0.11113510805E+02  0.51100000000E-03 0. -1.
        -11    1    3    3    0    0  0.17179920161E+02  0.41865622499E+01  0.28104877932E+01  0.17904630744E+02  0.51100000000E-03 0.  1.
         12    1    3    3    0    0  0.16969253908E+02 -0.22017470856E+01 -0.65888330700E+00  0.17124175765E+02  0.00000000000E+00 0. -1.
</event>
<event>
 7    1  0.2297343E-008  0.4614232E+02  0.7816164E-02  0.1320468E+00
        -11   -1    0    0    0    0  0.00000000000E+00  0.00000000000E+00  0.45593999997E+02  0.45594000000E+02  0.51100000000E-03 0.  1.
         11   -1    0    0    0    0 -0.00000000000E+00 -0.00000000000E+00 -0.45593999997E+02  0.45594000000E+02  0.51100000000E-03 0. -1.
    9900012    2    1    2    0    0 -0.21618627181E+01  0.28812312548E+02  0.34558508198E+02  0.46142317703E+02  0.99999994677E+01 0.  0.
         12    1    1    2    0    0  0.21618627181E+01 -0.28812312548E+02 -0.34558508198E+02  0.45045682297E+02  0.00000000000E+00 0. -1.
         11    1    3    3    0    0 -0.22796098192E+00  0.80644035785E+01  0.66009974528E+01  0.10423998221E+02  0.51100000000E-03 0. -1.
        -11    1    3    3    0    0  0.80694516401E+00  0.18552198143E+02  0.21868510539E+02  0.28689143764E+02  0.51100000000E-03 0.  1.
         12    1    3    3    0    0 -0.27408469002E+01  0.21957108266E+01  0.60890002059E+01  0.70291757178E+01  0.00000000000E+00 0. -1.
</event>
<event>
 7    1  0.2297343E-008  0.4614232E+02  0.7816164E-02  0.1320468E+00
        -11   -1    0    0    0    0  0.00000000000E+00  0.00000000000E+00  0.45593999997E+02  0.45594000000E+02  0.51100000000E-03 0.  1.
         11   -1    0    0    0    0 -0.00000000000E+00 -0.00000000000E+00 -0.45593999997E+02  0.45594000000E+02  0.51100000000E-03 0. -1.
    9900012    2    1    2    0    0 -0.33917162607E+02  0.28974441739E+02 -0.62626847515E+01  0.46142318590E+02  0.10000007559E+02 0.  0.
         12    1    1    2    0    0  0.33917162607E+02 -0.28974441739E+02  0.62626847515E+01  0.45045681410E+02  0.00000000000E+00 0. -1.
         11    1    3    3    0    0 -0.51812559366E+01  0.20817038646E+01 -0.11088219392E+00  0.55849081624E+01  0.51100000000E-03 0. -1.
        -11    1    3    3    0    0 -0.25932437114E+02  0.23571652024E+02 -0.29681047290E+01  0.35169926354E+02  0.51100000000E-03 0.  1.
        -12    1    3    3    0    0 -0.28034695561E+01  0.33210858506E+01 -0.31836978287E+01  0.53874840735E+01  0.00000000000E+00 0.  1.
</event>
<event>
 7    1  0.2297343E-008  0.4614232E+02  0.7816164E-02  0.1320468E+00
        -11   -1    0    0    0    0  0.00000000000E+00  0.00000000000E+00  0.45593999997E+02  0.45594000000E+02  0.51100000000E-03 0.  1.
         11   -1    0    0    0    0 -0.00000000000E+00 -0.00000000000E+00 -0.45593999997E+02  0.45594000000E+02  0.51100000000E-03 0. -1.
    9900012    2    1    2    0    0  0.20416761552E+02  0.18431256568E+02  0.35672932944E+02  0.46142317457E+02  0.99999972306E+01 0.  0.
         12    1    1    2    0    0 -0.20416761552E+02 -0.18431256568E+02 -0.35672932944E+02  0.45045682543E+02  0.00000000000E+00 0. -1.
         11    1    3    3    0    0  0.88372786678E+01  0.47209417409E+01  0.89439124480E+01  0.13430500933E+02  0.51100000000E-03 0. -1.
        -11    1    3    3    0    0  0.96586845903E+01  0.12888993512E+02  0.20074901978E+02  0.25737483006E+02  0.51100000000E-03 0.  1.
         12    1    3    3    0    0  0.19207982933E+01  0.82132131493E+00  0.66541185174E+01  0.69743335187E+01  0.00000000000E+00 0. -1.
</event>
<event>
 7    1  0.2297343E-008  0.4614232E+02  0.7816164E-02  0.1320468E+00
        -11   -1    0    0    0    0  0.00000000000E+00  0.00000000000E+00  0.45593999997E+02  0.45594000000E+02  0.51100000000E-03 0. -1.
         11   -1    0    0    0    0 -0.00000000000E+00 -0.00000000000E+00 -0.45593999997E+02  0.45594000000E+02  0.51100000000E-03 0.  1.
    9900012    2    1    2    0    0  0.85732778425E+01  0.33043806339E+02 -0.29389091850E+02  0.46142323736E+02  0.10000054481E+02 0.  0.
         12    1    1    2    0    0 -0.85732778425E+01 -0.33043806339E+02  0.29389091850E+02  0.45045676264E+02  0.00000000000E+00 0. -1.
         11    1    3    3    0    0  0.57591909385E+01  0.27757646253E+02 -0.24288493987E+02  0.37330766751E+02  0.51100000000E-03 0.  1.
        -11    1    3    3    0    0  0.11898794060E+01  0.17628080691E+01 -0.43750432720E+01  0.48645975355E+01  0.51100000000E-03 0. -1.
        -12    1    3    3    0    0  0.16242074979E+01  0.35233520169E+01 -0.72555459092E+00  0.39469594495E+01  0.00000000000E+00 0.  1.
</event>
<event>
 7    1  0.2297343E-008  0.4614232E+02  0.7816164E-02  0.1320468E+00
        -11   -1    0    0    0    0  0.00000000000E+00  0.00000000000E+00  0.45593999997E+02  0.45594000000E+02  0.51100000000E-03 0. -1.
         11   -1    0    0    0    0 -0.00000000000E+00 -0.00000000000E+00 -0.45593999997E+02  0.45594000000E+02  0.51100000000E-03 0.  1.
    9900012    2    1    2    0    0 -0.22939149603E+02  0.19836830276E+02 -0.33307792347E+02  0.46142318176E+02  0.10000003782E+02 0.  0.
         12    1    1    2    0    0  0.22939149603E+02 -0.19836830276E+02  0.33307792347E+02  0.45045681824E+02  0.00000000000E+00 0. -1.
         11    1    3    3    0    0 -0.10896441744E+02  0.13779890665E+02 -0.17052306798E+02  0.24482626428E+02  0.51100000000E-03 0. -1.
        -11    1    3    3    0    0 -0.11754016678E+02  0.65998783866E+01 -0.16148675300E+02  0.21035565526E+02  0.51100000000E-03 0.  1.
         12    1    3    3    0    0 -0.28869118155E+00 -0.54293877499E+00 -0.10681024908E+00  0.62412622202E+00  0.00000000000E+00 0. -1.
</event>
<event>
 7    1  0.2297343E-008  0.4614232E+02  0.7816164E-02  0.1320468E+00
        -11   -1    0    0    0    0  0.00000000000E+00  0.00000000000E+00  0.45593999997E+02  0.45594000000E+02  0.51100000000E-03 0.  1.
         11   -1    0    0    0    0 -0.00000000000E+00 -0.00000000000E+00 -0.45593999997E+02  0.45594000000E+02  0.51100000000E-03 0. -1.
    9900012    2    1    2    0    0  0.24505412230E+02 -0.26451006628E+02  0.26998935067E+02  0.46142317910E+02  0.10000001358E+02 0.  0.
         12    1    1    2    0    0 -0.24505412230E+02  0.26451006628E+02 -0.26998935067E+02  0.45045682090E+02  0.00000000000E+00 0. -1.
         11    1    3    3    0    0  0.13989454696E+02 -0.16053853882E+02  0.99454453724E+01  0.23501977599E+02  0.51100000000E-03 0.  1.
        -11    1    3    3    0    0  0.76388923597E+01 -0.79140756896E+01  0.11523578572E+02  0.15930415371E+02  0.51100000000E-03 0. -1.
        -12    1    3    3    0    0  0.28770651745E+01 -0.24830770569E+01  0.55299111221E+01  0.67099249404E+01  0.00000000000E+00 0.  1.
</event>
<event>
 7    1  0.2297343E-008  0.4614232E+02  0.7816164E-02  0.1320468E+00
        -11   -1    0    0    0    0  0.00000000000E+00  0.00000000000E+00  0.45593999997E+02  0.45594000000E+02  0.51100000000E-03 0.  1.
         11   -1    0    0    0    0 -0.00000000000E+00 -0.00000000000E+00 -0.45593999997E+02  0.45594000000E+02  0.51100000000E-03 0. -1.
    9900012    2    1    2    0    0 -0.38940085253E+02  0.16670867577E+02  0.15325318162E+02  0.46142318275E+02  0.10000004687E+02 0.  0.
         12    1    1    2    0    0  0.38940085253E+02 -0.16670867577E+02 -0.15325318162E+02  0.45045681725E+02  0.00000000000E+00 0. -1.
         11    1    3    3    0    0 -0.82492296241E+00 -0.32697712199E+00  0.13770025809E+01  0.16381539308E+01  0.51100000000E-03 0. -1.
        -11    1    3    3    0    0 -0.29547587590E+02  0.10021689814E+02  0.10773737051E+02  0.33008599022E+02  0.51100000000E-03 0.  1.
        -12    1    3    3    0    0 -0.85675747011E+01  0.69761548844E+01  0.31745785303E+01  0.11495565322E+02  0.00000000000E+00 0.  1.
</event>
<event>
 7    1  0.2297343E-008  0.4614232E+02  0.7816164E-02  0.1320468E+00
        -11   -1    0    0    0    0  0.00000000000E+00  0.00000000000E+00  0.45593999997E+02  0.45594000000E+02  0.51100000000E-03 0. -1.
         11   -1    0    0    0    0 -0.00000000000E+00 -0.00000000000E+00 -0.45593999997E+02  0.45594000000E+02  0.51100000000E-03 0.  1.
    9900012    2    1    2    0    0 -0.44200935097E+02  0.44573664563E+01 -0.74513337030E+01  0.46142321482E+02  0.10000033931E+02 0.  0.
         12    1    1    2    0    0  0.44200935097E+02 -0.44573664563E+01  0.74513337030E+01  0.45045678518E+02  0.00000000000E+00 0. -1.
         11    1    3    3    0    0 -0.12854966887E+02 -0.27035435246E+00  0.15662481292E+01  0.12952852913E+02  0.51100000000E-03 0. -1.
        -11    1    3    3    0    0 -0.18114464222E+02  0.35858939723E+01 -0.34329876752E+01  0.18782381485E+02  0.51100000000E-03 0.  1.
         12    1    3    3    0    0 -0.13231503989E+02  0.11418268364E+01 -0.55845941571E+01  0.14407087083E+02  0.00000000000E+00 0. -1.
</event>
<event>
 7    1  0.2297343E-008  0.4614232E+02  0.7816164E-02  0.1320468E+00
        -11   -1    0    0    0    0  0.00000000000E+00  0.00000000000E+00  0.45593999997E+02  0.45594000000E+02  0.51100000000E-03 0.  1.
         11   -1    0    0    0    0 -0.00000000000E+00 -0.00000000000E+00 -0.45593999997E+02  0.45594000000E+02  0.51100000000E-03 0. -1.
    9900012    2    1    2    0    0 -0.26311390238E+02  0.26535991275E+02  0.25152843339E+02  0.46142316331E+02  0.99999869561E+01 0.  0.
         12    1    1    2    0    0  0.26311390238E+02 -0.26535991275E+02 -0.25152843339E+02  0.45045683669E+02  0.00000000000E+00 0. -1.
         11    1    3    3    0    0 -0.13974192348E+02  0.11640530903E+02  0.79208687541E+01  0.19837342906E+02  0.51100000000E-03 0. -1.
        -11    1    3    3    0    0 -0.12546659936E+02  0.15011937222E+02  0.17222465948E+02  0.26065115927E+02  0.51100000000E-03 0.  1.
        -12    1    3    3    0    0  0.20946204523E+00 -0.11647685037E+00  0.95086367600E-02  0.23985749777E+00  0.00000000000E+00 0.  1.
</event>
<event>
 7    1  0.2297343E-008  0.4614232E+02  0.7816164E-02  0.1320468E+00
        -11   -1    0    0    0    0  0.00000000000E+00  0.00000000000E+00  0.45593999997E+02  0.45594000000E+02  0.51100000000E-03 0. -1.
         11   -1    0    0    0    0 -0.00000000000E+00 -0.00000000000E+00 -0.45593999997E+02  0.45594000000E+02  0.51100000000E-03 0.  1.
    9900012    2    1    2    0    0 -0.34671877549E+02 -0.26914695768E+02 -0.10127860083E+02  0.46142317733E+02  0.99999997392E+01 0.  0.
         12    1    1    2    0    0  0.34671877549E+02  0.26914695768E+02  0.10127860083E+02  0.45045682267E+02  0.00000000000E+00 0. -1.
         11    1    3    3    0    0 -0.13562024223E+02 -0.11227297986E+02 -0.60526664542E+01  0.18617612429E+02  0.51100000000E-03 0. -1.
        -11    1    3    3    0    0 -0.88804900379E+01 -0.93597371632E+01 -0.47243885780E+01  0.13740001120E+02  0.51100000000E-03 0.  1.
         12    1    3    3    0    0 -0.12229363288E+02 -0.63276606191E+01  0.64919494922E+00  0.13784704184E+02  0.00000000000E+00 0. -1.
</event>
<event>
 7    1  0.2297343E-008  0.4614232E+02  0.7816164E-02  0.1320468E+00
        -11   -1    0    0    0    0  0.00000000000E+00  0.00000000000E+00  0.45593999997E+02  0.45594000000E+02  0.51100000000E-03 0.  1.
         11   -1    0    0    0    0 -0.00000000000E+00 -0.00000000000E+00 -0.45593999997E+02  0.45594000000E+02  0.51100000000E-03 0. -1.
    9900012    2    1    2    0    0 -0.20546033872E+02 -0.34027810767E+01  0.39942397336E+02  0.46142317278E+02  0.99999955980E+01 0.  0.
         12    1    1    2    0    0  0.20546033872E+02  0.34027810767E+01 -0.39942397336E+02  0.45045682722E+02  0.00000000000E+00 0. -1.
         11    1    3    3    0    0 -0.54637544735E+01 -0.66496835575E+00  0.10635277356E+02  0.11975137601E+02  0.51100000000E-03 0.  1.
        -11    1    3    3    0    0 -0.41786408151E+01  0.13796657842E+01  0.15428256942E+02  0.16043554135E+02  0.51100000000E-03 0. -1.
         12    1    3    3    0    0 -0.10903638583E+02 -0.41174785052E+01  0.13878863038E+02  0.18123625543E+02  0.00000000000E+00 0. -1.
</event>
<event>
 7    1  0.2297343E-008  0.4614232E+02  0.7816164E-02  0.1320468E+00
        -11   -1    0    0    0    0  0.00000000000E+00  0.00000000000E+00  0.45593999997E+02  0.45594000000E+02  0.51100000000E-03 0.  1.
         11   -1    0    0    0    0 -0.00000000000E+00 -0.00000000000E+00 -0.45593999997E+02  0.45594000000E+02  0.51100000000E-03 0. -1.
    9900012    2    1    2    0    0  0.90112402977E+01  0.60446270222E+01  0.43719258872E+02  0.46142316923E+02  0.99999923618E+01 0.  0.
         12    1    1    2    0    0 -0.90112402977E+01 -0.60446270222E+01 -0.43719258872E+02  0.45045683077E+02  0.00000000000E+00 0. -1.
         11    1    3    3    0    0  0.13252295312E+01  0.24105036425E+01  0.53369295725E+01  0.60041301321E+01  0.51100000000E-03 0. -1.
        -11    1    3    3    0    0  0.69377027519E+01 -0.10220384655E+01  0.22002346381E+02  0.23092845833E+02  0.51100000000E-03 0.  1.
         12    1    3    3    0    0  0.74830801458E+00  0.46561618452E+01  0.16379982918E+02  0.17045340959E+02  0.00000000000E+00 0. -1.
</event>
<event>
 7    1  0.2297343E-008  0.4614232E+02  0.7816164E-02  0.1320468E+00
        -11   -1    0    0    0    0  0.00000000000E+00  0.00000000000E+00  0.45593999997E+02  0.45594000000E+02  0.51100000000E-03 0.  1.
         11   -1    0    0    0    0 -0.00000000000E+00 -0.00000000000E+00 -0.45593999997E+02  0.45594000000E+02  0.51100000000E-03 0. -1.
    9900012    2    1    2    0    0 -0.18417503749E+02 -0.18613701707E+00  0.41108084739E+02  0.46142315165E+02  0.99999763251E+01 0.  0.
         12    1    1    2    0    0  0.18417503749E+02  0.18613701707E+00 -0.41108084739E+02  0.45045684835E+02  0.00000000000E+00 0. -1.
         11    1    3    3    0    0 -0.95589088469E+01 -0.70109284822E+00  0.24351778611E+02  0.26170085810E+02  0.51100000000E-03 0.  1.
        -11    1    3    3    0    0 -0.60826079012E+01 -0.97059927876E+00  0.54128972740E+01  0.81999779877E+01  0.51100000000E-03 0. -1.
         12    1    3    3    0    0 -0.27759870012E+01  0.14855551099E+01  0.11343408854E+02  0.11772251367E+02  0.00000000000E+00 0. -1.
</event>
<event>
 7    1  0.2297343E-008  0.4614232E+02  0.7816164E-02  0.1320468E+00
        -11   -1    0    0    0    0  0.00000000000E+00  0.00000000000E+00  0.45593999997E+02  0.45594000000E+02  0.51100000000E-03 0.  1.
         11   -1    0    0    0    0 -0.00000000000E+00 -0.00000000000E+00 -0.45593999997E+02  0.45594000000E+02  0.51100000000E-03 0. -1.
    9900012    2    1    2    0    0  0.39991373266E+02  0.10881854603E+02  0.17646213423E+02  0.46142317149E+02  0.99999944191E+01 0.  0.
         12    1    1    2    0    0 -0.39991373266E+02 -0.10881854603E+02 -0.17646213423E+02  0.45045682851E+02  0.00000000000E+00 0. -1.
         11    1    3    3    0    0  0.82039215363E+01  0.17396123576E+01  0.24434466833E+01  0.87350450304E+01  0.51100000000E-03 0. -1.
        -11    1    3    3    0    0  0.29460379548E+02  0.96860116698E+01  0.11654829372E+02  0.33129561319E+02  0.51100000000E-03 0.  1.
         12    1    3    3    0    0  0.23270721816E+01 -0.54376942431E+00  0.35479373674E+01  0.42777108000E+01  0.00000000000E+00 0. -1.
</event>
<event>
 7    1  0.2297343E-008  0.4614232E+02  0.7816164E-02  0.1320468E+00
        -11   -1    0    0    0    0  0.00000000000E+00  0.00000000000E+00  0.45593999997E+02  0.45594000000E+02  0.51100000000E-03 0.  1.
         11   -1    0    0    0    0 -0.00000000000E+00 -0.00000000000E+00 -0.45593999997E+02  0.45594000000E+02  0.51100000000E-03 0. -1.
    9900012    2    1    2    0    0  0.25223893710E+02  0.23148326800E+02  0.29274960893E+02  0.46142321152E+02  0.10000030923E+02 0.  0.
         12    1    1    2    0    0 -0.25223893710E+02 -0.23148326800E+02 -0.29274960893E+02  0.45045678848E+02  0.00000000000E+00 0. -1.
         11    1    3    3    0    0  0.15710849724E+01  0.72393523709E+00  0.44223878807E+01  0.47486740303E+01  0.51100000000E-03 0. -1.
        -11    1    3    3    0    0  0.10963933887E+02  0.10175719948E+02  0.78363631615E+01  0.16886731792E+02  0.51100000000E-03 0.  1.
        -12    1    3    3    0    0  0.12688874851E+02  0.12248671615E+02  0.17016209851E+02  0.24506915330E+02  0.00000000000E+00 0.  1.
</event>
<event>
 7    1  0.2297343E-008  0.4614232E+02  0.7816164E-02  0.1320468E+00
        -11   -1    0    0    0    0  0.00000000000E+00  0.00000000000E+00  0.45593999997E+02  0.45594000000E+02  0.51100000000E-03 0. -1.
         11   -1    0    0    0    0 -0.00000000000E+00 -0.00000000000E+00 -0.45593999997E+02  0.45594000000E+02  0.51100000000E-03 0.  1.
    9900012    2    1    2    0    0 -0.32609847993E+02  0.11496792655E+02 -0.28871005859E+02  0.46142318666E+02  0.10000008253E+02 0.  0.
         12    1    1    2    0    0  0.32609847993E+02 -0.11496792655E+02  0.28871005859E+02  0.45045681334E+02  0.00000000000E+00 0. -1.
         11    1    3    3    0    0 -0.14548781097E+02  0.73884227454E+01 -0.14157455590E+02  0.21602994494E+02  0.51100000000E-03 0. -1.
        -11    1    3    3    0    0 -0.50447927680E+01 -0.11561724356E+01 -0.63669781968E+01  0.82051861888E+01  0.51100000000E-03 0.  1.
         12    1    3    3    0    0 -0.13016274128E+02  0.52645423455E+01 -0.83465720725E+01  0.16334137983E+02  0.00000000000E+00 0. -1.
</event>
<event>
 7    1  0.2297343E-008  0.4614232E+02  0.7816164E-02  0.1320468E+00
        -11   -1    0    0    0    0  0.00000000000E+00  0.00000000000E+00  0.45593999997E+02  0.45594000000E+02  0.51100000000E-03 0.  1.
         11   -1    0    0    0    0 -0.00000000000E+00 -0.00000000000E+00 -0.45593999997E+02  0.45594000000E+02  0.51100000000E-03 0. -1.
    9900012    2    1    2    0    0 -0.81138689334E+01  0.27557367333E+02  0.34696832722E+02  0.46142316918E+02  0.99999923143E+01 0.  0.
         12    1    1    2    0    0  0.81138689334E+01 -0.27557367333E+02 -0.34696832722E+02  0.45045683082E+02  0.00000000000E+00 0. -1.
         11    1    3    3    0    0 -0.61461747485E+00 -0.16294715971E+00  0.67720527078E+00  0.92893145988E+00  0.51100000000E-03 0. -1.
        -11    1    3    3    0    0 -0.65294185633E+01  0.15456384810E+02  0.14689543012E+02  0.22300578745E+02  0.51100000000E-03 0.  1.
         12    1    3    3    0    0 -0.96983289528E+00  0.12263929682E+02  0.19330084439E+02  0.22912806714E+02  0.00000000000E+00 0. -1.
</event>
<event>
 7    1  0.2297343E-008  0.4614232E+02  0.7816164E-02  0.1320468E+00
        -11   -1    0    0    0    0  0.00000000000E+00  0.00000000000E+00  0.45593999997E+02  0.45594000000E+02  0.51100000000E-03 0.  1.
         11   -1    0    0    0    0 -0.00000000000E+00 -0.00000000000E+00 -0.45593999997E+02  0.45594000000E+02  0.51100000000E-03 0. -1.
    9900012    2    1    2    0    0 -0.74930405932E+01  0.62428645240E+01  0.43977204470E+02  0.46142317324E+02  0.99999960137E+01 0.  0.
         12    1    1    2    0    0  0.74930405932E+01 -0.62428645240E+01 -0.43977204470E+02  0.45045682676E+02  0.00000000000E+00 0. -1.
         11    1    3    3    0    0 -0.57371318904E+01  0.91234376118E-01  0.15693617276E+02  0.16709656774E+02  0.51100000000E-03 0. -1.
        -11    1    3    3    0    0 -0.34450911643E+01  0.41081599669E+01  0.21251436862E+02  0.21917326488E+02  0.51100000000E-03 0.  1.
         12    1    3    3    0    0  0.16891824616E+01  0.20434701810E+01  0.70321503315E+01  0.75153340614E+01  0.00000000000E+00 0. -1.
</event>
<event>
 7    1  0.2297343E-008  0.4614232E+02  0.7816164E-02  0.1320468E+00
        -11   -1    0    0    0    0  0.00000000000E+00  0.00000000000E+00  0.45593999997E+02  0.45594000000E+02  0.51100000000E-03 0. -1.
         11   -1    0    0    0    0 -0.00000000000E+00 -0.00000000000E+00 -0.45593999997E+02  0.45594000000E+02  0.51100000000E-03 0.  1.
    9900012    2    1    2    0    0  0.28168945456E+01  0.39770384712E+01 -0.44781265153E+02  0.46142318314E+02  0.10000005043E+02 0.  0.
         12    1    1    2    0    0 -0.28168945456E+01 -0.39770384712E+01  0.44781265153E+02  0.45045681686E+02  0.00000000000E+00 0. -1.
         11    1    3    3    0    0 -0.40121752364E+00  0.41734851974E+00  0.96475644732E-01  0.58690978809E+00  0.51100000000E-03 0. -1.
        -11    1    3    3    0    0 -0.95546159189E+00 -0.11569683000E+01 -0.71699879155E+01  0.73253129264E+01  0.51100000000E-03 0.  1.
         12    1    3    3    0    0  0.41735736612E+01  0.47166582514E+01 -0.37707752882E+02  0.38230095600E+02  0.00000000000E+00 0. -1.
</event>
<event>
 7    1  0.2297343E-008  0.4614232E+02  0.7816164E-02  0.1320468E+00
        -11   -1    0    0    0    0  0.00000000000E+00  0.00000000000E+00  0.45593999997E+02  0.45594000000E+02  0.51100000000E-03 0.  1.
         11   -1    0    0    0    0 -0.00000000000E+00 -0.00000000000E+00 -0.45593999997E+02  0.45594000000E+02  0.51100000000E-03 0. -1.
    9900012    2    1    2    0    0 -0.16850891055E+02 -0.33301589120E+02  0.25222313886E+02  0.46142317798E+02  0.10000000335E+02 0.  0.
         12    1    1    2    0    0  0.16850891055E+02  0.33301589120E+02 -0.25222313886E+02  0.45045682202E+02  0.00000000000E+00 0. -1.
         11    1    3    3    0    0 -0.26617644854E+01 -0.75808187924E+01  0.20876902071E+01  0.83013405183E+01  0.51100000000E-03 0. -1.
        -11    1    3    3    0    0 -0.27106106492E+01 -0.92609799150E+01  0.53844936055E+01  0.11050155235E+02  0.51100000000E-03 0.  1.
        -12    1    3    3    0    0 -0.11478515920E+02 -0.16459790413E+02  0.17750130074E+02  0.26790822044E+02  0.00000000000E+00 0.  1.
</event>
<event>
 7    1  0.2297343E-008  0.4614232E+02  0.7816164E-02  0.1320468E+00
        -11   -1    0    0    0    0  0.00000000000E+00  0.00000000000E+00  0.45593999997E+02  0.45594000000E+02  0.51100000000E-03 0. -1.
         11   -1    0    0    0    0 -0.00000000000E+00 -0.00000000000E+00 -0.45593999997E+02  0.45594000000E+02  0.51100000000E-03 0.  1.
    9900012    2    1    2    0    0 -0.26984728761E+01  0.38222787827E+02 -0.23682274488E+02  0.46142318852E+02  0.10000009949E+02 0.  0.
         12    1    1    2    0    0  0.26984728761E+01 -0.38222787827E+02  0.23682274488E+02  0.45045681148E+02  0.00000000000E+00 0. -1.
         11    1    3    3    0    0 -0.13486111995E+01  0.33885362580E+01 -0.59192682642E+01  0.69526014687E+01  0.51100000000E-03 0. -1.
        -11    1    3    3    0    0 -0.87750117127E+00  0.17512878380E+02 -0.10176237559E+02  0.20273794134E+02  0.51100000000E-03 0.  1.
         12    1    3    3    0    0 -0.47236050527E+00  0.17321373190E+02 -0.75867686640E+01  0.18915923250E+02  0.00000000000E+00 0. -1.
</event>
<event>
 7    1  0.2297343E-008  0.4614232E+02  0.7816164E-02  0.1320468E+00
        -11   -1    0    0    0    0  0.00000000000E+00  0.00000000000E+00  0.45593999997E+02  0.45594000000E+02  0.51100000000E-03 0.  1.
         11   -1    0    0    0    0 -0.00000000000E+00 -0.00000000000E+00 -0.45593999997E+02  0.45594000000E+02  0.51100000000E-03 0. -1.
    9900012    2    1    2    0    0 -0.29273314626E+00 -0.35120344917E+02  0.28206190438E+02  0.46142317646E+02  0.99999989459E+01 0.  0.
         12    1    1    2    0    0  0.29273314626E+00  0.35120344917E+02 -0.28206190438E+02  0.45045682354E+02  0.00000000000E+00 0. -1.
         11    1    3    3    0    0  0.21911468536E+01 -0.57820051762E+01  0.35504271764E+01  0.71300940939E+01  0.51100000000E-03 0. -1.
        -11    1    3    3    0    0  0.38202692416E+00 -0.21445419709E+02  0.14774498679E+02  0.26044918555E+02  0.51100000000E-03 0.  1.
         12    1    3    3    0    0 -0.28659069240E+01 -0.78929200315E+01  0.98812645830E+01  0.12967304997E+02  0.00000000000E+00 0. -1.
</event>
<event>
 7    1  0.2297343E-008  0.4614232E+02  0.7816164E-02  0.1320468E+00
        -11   -1    0    0    0    0  0.00000000000E+00  0.00000000000E+00  0.45593999997E+02  0.45594000000E+02  0.51100000000E-03 0. -1.
         11   -1    0    0    0    0 -0.00000000000E+00 -0.00000000000E+00 -0.45593999997E+02  0.45594000000E+02  0.51100000000E-03 0.  1.
    9900012    2    1    2    0    0 -0.53655826368E+01 -0.19754908045E+02 -0.40125647560E+02  0.46142318065E+02  0.10000002773E+02 0.  0.
         12    1    1    2    0    0  0.53655826368E+01  0.19754908045E+02  0.40125647560E+02  0.45045681935E+02  0.00000000000E+00 0. -1.
         11    1    3    3    0    0  0.64106990460E+00 -0.57019536452E+01 -0.14902801384E+02  0.15969243418E+02  0.51100000000E-03 0. -1.
        -11    1    3    3    0    0 -0.70266391851E+01 -0.10615004515E+02 -0.21622378422E+02  0.25091417417E+02  0.51100000000E-03 0.  1.
         12    1    3    3    0    0  0.10199866437E+01 -0.34379498846E+01 -0.36004677535E+01  0.50816572303E+01  0.00000000000E+00 0. -1.
</event>
<event>
 7    1  0.2297343E-008  0.4614232E+02  0.7816164E-02  0.1320468E+00
        -11   -1    0    0    0    0  0.00000000000E+00  0.00000000000E+00  0.45593999997E+02  0.45594000000E+02  0.51100000000E-03 0.  1.
         11   -1    0    0    0    0 -0.00000000000E+00 -0.00000000000E+00 -0.45593999997E+02  0.45594000000E+02  0.51100000000E-03 0. -1.
    9900012    2    1    2    0    0  0.34885254207E+02  0.16548161676E+02  0.23201096135E+02  0.46142317879E+02  0.10000001071E+02 0.  0.
         12    1    1    2    0    0 -0.34885254207E+02 -0.16548161676E+02 -0.23201096135E+02  0.45045682121E+02  0.00000000000E+00 0. -1.
         11    1    3    3    0    0  0.25657040148E+01  0.28055675952E+01  0.27222319817E+01  0.46759591365E+01  0.51100000000E-03 0. -1.
        -11    1    3    3    0    0  0.17667808111E+02  0.10405264341E+02  0.15257657966E+02  0.25558112143E+02  0.51100000000E-03 0.  1.
         12    1    3    3    0    0  0.14651742081E+02  0.33373297393E+01  0.52212061878E+01  0.15908246599E+02  0.00000000000E+00 0. -1.
</event>
<event>
 7    1  0.2297343E-008  0.4614232E+02  0.7816164E-02  0.1320468E+00
        -11   -1    0    0    0    0  0.00000000000E+00  0.00000000000E+00  0.45593999997E+02  0.45594000000E+02  0.51100000000E-03 0.  1.
         11   -1    0    0    0    0 -0.00000000000E+00 -0.00000000000E+00 -0.45593999997E+02  0.45594000000E+02  0.51100000000E-03 0. -1.
    9900012    2    1    2    0    0 -0.10152002436E+02  0.21701414360E+02  0.38145758923E+02  0.46142318048E+02  0.10000002619E+02 0.  0.
         12    1    1    2    0    0  0.10152002436E+02 -0.21701414360E+02 -0.38145758923E+02  0.45045681952E+02  0.00000000000E+00 0. -1.
         11    1    3    3    0    0 -0.37840623257E+01  0.30323969315E+01  0.38591408768E+01  0.61973806889E+01  0.51100000000E-03 0. -1.
        -11    1    3    3    0    0 -0.53072711858E+01  0.10716930348E+02  0.24711504711E+02  0.27453199975E+02  0.51100000000E-03 0.  1.
        -12    1    3    3    0    0 -0.10606689245E+01  0.79520870800E+01  0.95751133355E+01  0.12491737385E+02  0.00000000000E+00 0.  1.
</event>
<event>
 7    1  0.2297343E-008  0.4614232E+02  0.7816164E-02  0.1320468E+00
        -11   -1    0    0    0    0  0.00000000000E+00  0.00000000000E+00  0.45593999997E+02  0.45594000000E+02  0.51100000000E-03 0.  1.
         11   -1    0    0    0    0 -0.00000000000E+00 -0.00000000000E+00 -0.45593999997E+02  0.45594000000E+02  0.51100000000E-03 0. -1.
    9900012    2    1    2    0    0 -0.78252643949E+01  0.12249865372E+02  0.42635893974E+02  0.46142318526E+02  0.10000006975E+02 0.  0.
         12    1    1    2    0    0  0.78252643949E+01 -0.12249865372E+02 -0.42635893974E+02  0.45045681474E+02  0.00000000000E+00 0. -1.
         11    1    3    3    0    0 -0.51524387006E+01  0.30492514206E+01  0.17122024634E+02  0.18138613139E+02  0.51100000000E-03 0. -1.
        -11    1    3    3    0    0 -0.34985528682E+01  0.26423652253E+01  0.14601167620E+02  0.15245198007E+02  0.51100000000E-03 0.  1.
        -12    1    3    3    0    0  0.82572717393E+00  0.65582487258E+01  0.10912701720E+02  0.12758507379E+02  0.00000000000E+00 0.  1.
</event>
<event>
 7    1  0.2297343E-008  0.4614232E+02  0.7816164E-02  0.1320468E+00
        -11   -1    0    0    0    0  0.00000000000E+00  0.00000000000E+00  0.45593999997E+02  0.45594000000E+02  0.51100000000E-03 0. -1.
         11   -1    0    0    0    0 -0.00000000000E+00 -0.00000000000E+00 -0.45593999997E+02  0.45594000000E+02  0.51100000000E-03 0.  1.
    9900012    2    1    2    0    0  0.42370273876E+02  0.23097598653E+01 -0.15117485363E+02  0.46142318047E+02  0.10000002605E+02 0.  0.
         12    1    1    2    0    0 -0.42370273876E+02 -0.23097598653E+01  0.15117485363E+02  0.45045681953E+02  0.00000000000E+00 0. -1.
         11    1    3    3    0    0  0.12317086973E+02  0.49433733322E+01 -0.60937888378E+01  0.14604171803E+02  0.51100000000E-03 0. -1.
        -11    1    3    3    0    0  0.47097330843E+01 -0.98153174655E+00 -0.17577090670E+01  0.51219656110E+01  0.51100000000E-03 0.  1.
         12    1    3    3    0    0  0.25343453819E+02 -0.16520817204E+01 -0.72659874580E+01  0.26416180633E+02  0.00000000000E+00 0. -1.
</event>
<event>
 7    1  0.2297343E-008  0.4614232E+02  0.7816164E-02  0.1320468E+00
        -11   -1    0    0    0    0  0.00000000000E+00  0.00000000000E+00  0.45593999997E+02  0.45594000000E+02  0.51100000000E-03 0.  1.
         11   -1    0    0    0    0 -0.00000000000E+00 -0.00000000000E+00 -0.45593999997E+02  0.45594000000E+02  0.51100000000E-03 0. -1.
    9900012    2    1    2    0    0  0.39528966635E+02  0.77297601629E+01  0.20169907217E+02  0.46142317048E+02  0.99999934989E+01 0.  0.
         12    1    1    2    0    0 -0.39528966635E+02 -0.77297601629E+01 -0.20169907217E+02  0.45045682952E+02  0.00000000000E+00 0. -1.
         11    1    3    3    0    0  0.39772234882E+02  0.72376684767E+01  0.20278216026E+02  0.45226325939E+02  0.51100000000E-03 0.  1.
        -11    1    3    3    0    0  0.14589867223E+00  0.45423050267E+00 -0.19515440669E+00  0.51545831615E+00  0.51100000000E-03 0. -1.
        -12    1    3    3    0    0 -0.38916691913E+00  0.37861183507E-01  0.86845598311E-01  0.40053279280E+00  0.00000000000E+00 0.  1.
</event>
<event>
 7    1  0.2297343E-008  0.4614231E+02  0.7816164E-02  0.1320468E+00
        -11   -1    0    0    0    0  0.00000000000E+00  0.00000000000E+00  0.45593999997E+02  0.45594000000E+02  0.51100000000E-03 0. -1.
         11   -1    0    0    0    0 -0.00000000000E+00 -0.00000000000E+00 -0.45593999997E+02  0.45594000000E+02  0.51100000000E-03 0.  1.
    9900012    2    1    2    0    0 -0.34212525883E+02 -0.28938309516E+02  0.46033745635E+01  0.46142314942E+02  0.99999742936E+01 0.  0.
         12    1    1    2    0    0  0.34212525883E+02  0.28938309516E+02 -0.46033745635E+01  0.45045685058E+02  0.00000000000E+00 0. -1.
         11    1    3    3    0    0 -0.14396000166E+02 -0.13952815704E+02  0.23093377156E+01  0.20180657269E+02  0.51100000000E-03 0.  1.
        -11    1    3    3    0    0 -0.14599154712E+02 -0.91180885796E+01  0.45283777685E+01  0.17798344392E+02  0.51100000000E-03 0. -1.
        -12    1    3    3    0    0 -0.52173710064E+01 -0.58674052320E+01 -0.22343409206E+01  0.81633132811E+01  0.00000000000E+00 0.  1.
</event>
<event>
 7    1  0.2297343E-008  0.4614232E+02  0.7816164E-02  0.1320468E+00
        -11   -1    0    0    0    0  0.00000000000E+00  0.00000000000E+00  0.45593999997E+02  0.45594000000E+02  0.51100000000E-03 0. -1.
         11   -1    0    0    0    0 -0.00000000000E+00 -0.00000000000E+00 -0.45593999997E+02  0.45594000000E+02  0.51100000000E-03 0.  1.
    9900012    2    1    2    0    0  0.35327937210E+02 -0.27273706142E+02 -0.60987945759E+01  0.46142317748E+02  0.99999998824E+01 0.  0.
         12    1    1    2    0    0 -0.35327937210E+02  0.27273706142E+02  0.60987945759E+01  0.45045682252E+02  0.00000000000E+00 0. -1.
         11    1    3    3    0    0  0.53497814091E+01 -0.11914764769E+01 -0.38845538516E-01  0.54809932090E+01  0.51100000000E-03 0. -1.
        -11    1    3    3    0    0  0.23229975258E+02 -0.16974466960E+02 -0.56383665320E+01  0.29318176214E+02  0.51100000000E-03 0.  1.
         12    1    3    3    0    0  0.67481805428E+01 -0.91077627049E+01 -0.42158250541E+00  0.11343148326E+02  0.00000000000E+00 0. -1.
</event>
<event>
 7    1  0.2297343E-008  0.4614232E+02  0.7816164E-02  0.1320468E+00
        -11   -1    0    0    0    0  0.00000000000E+00  0.00000000000E+00  0.45593999997E+02  0.45594000000E+02  0.51100000000E-03 0.  1.
         11   -1    0    0    0    0 -0.00000000000E+00 -0.00000000000E+00 -0.45593999997E+02  0.45594000000E+02  0.51100000000E-03 0. -1.
    9900012    2    1    2    0    0  0.29998131909E+02 -0.25446128951E+02  0.21948126722E+02  0.46142315821E+02  0.99999823042E+01 0.  0.
         12    1    1    2    0    0 -0.29998131909E+02  0.25446128951E+02 -0.21948126722E+02  0.45045684179E+02  0.00000000000E+00 0. -1.
         11    1    3    3    0    0  0.15724905371E+01  0.48204801358E-01  0.12018036405E+01  0.19797430247E+01  0.51100000000E-03 0. -1.
        -11    1    3    3    0    0  0.30044128347E+00 -0.15012856539E+01 -0.38751483578E+00  0.15793326402E+01  0.51100000000E-03 0.  1.
        -12    1    3    3    0    0  0.28125200088E+02 -0.23993048099E+02  0.21133837917E+02  0.42583240156E+02  0.00000000000E+00 0.  1.
</event>
<event>
 7    1  0.2297343E-008  0.4614232E+02  0.7816164E-02  0.1320468E+00
        -11   -1    0    0    0    0  0.00000000000E+00  0.00000000000E+00  0.45593999997E+02  0.45594000000E+02  0.51100000000E-03 0.  1.
         11   -1    0    0    0    0 -0.00000000000E+00 -0.00000000000E+00 -0.45593999997E+02  0.45594000000E+02  0.51100000000E-03 0. -1.
    9900012    2    1    2    0    0 -0.43799805897E+02  0.83614365206E+01  0.63856761667E+01  0.46142317883E+02  0.10000001111E+02 0.  0.
         12    1    1    2    0    0  0.43799805897E+02 -0.83614365206E+01 -0.63856761667E+01  0.45045682117E+02  0.00000000000E+00 0. -1.
         11    1    3    3    0    0 -0.18967390749E+01  0.15415237683E+01  0.24773973935E+01  0.34801455074E+01  0.51100000000E-03 0. -1.
        -11    1    3    3    0    0 -0.15080493153E+02  0.31692044984E+01  0.16615193988E+01  0.15499218621E+02  0.51100000000E-03 0.  1.
         12    1    3    3    0    0 -0.26822573669E+02  0.36507082539E+01  0.22467593744E+01  0.27162953754E+02  0.00000000000E+00 0. -1.
</event>
<event>
 7    1  0.2297343E-008  0.4614232E+02  0.7816164E-02  0.1320468E+00
        -11   -1    0    0    0    0  0.00000000000E+00  0.00000000000E+00  0.45593999997E+02  0.45594000000E+02  0.51100000000E-03 0.  1.
         11   -1    0    0    0    0 -0.00000000000E+00 -0.00000000000E+00 -0.45593999997E+02  0.45594000000E+02  0.51100000000E-03 0. -1.
    9900012    2    1    2    0    0  0.12413267437E+02  0.68855851532E+01  0.42750590865E+02  0.46142317514E+02  0.99999977433E+01 0.  0.
         12    1    1    2    0    0 -0.12413267437E+02 -0.68855851532E+01 -0.42750590865E+02  0.45045682486E+02  0.00000000000E+00 0. -1.
         11    1    3    3    0    0  0.39918865670E+01  0.35215099664E+01  0.21294255173E+02  0.21949521508E+02  0.51100000000E-03 0.  1.
        -11    1    3    3    0    0  0.73673937981E+00  0.53964962922E+00 -0.28849135404E+00  0.95772342488E+00  0.51100000000E-03 0. -1.
         12    1    3    3    0    0  0.76846414906E+01  0.28244255576E+01  0.21744827046E+02  0.23235072581E+02  0.00000000000E+00 0. -1.
</event>
<event>
 7    1  0.2297343E-008  0.4614232E+02  0.7816164E-02  0.1320468E+00
        -11   -1    0    0    0    0  0.00000000000E+00  0.00000000000E+00  0.45593999997E+02  0.45594000000E+02  0.51100000000E-03 0. -1.
         11   -1    0    0    0    0 -0.00000000000E+00 -0.00000000000E+00 -0.45593999997E+02  0.45594000000E+02  0.51100000000E-03 0.  1.
    9900012    2    1    2    0    0 -0.77027031799E+00  0.11399963020E+02 -0.43572480005E+02  0.46142317777E+02  0.10000000141E+02 0.  0.
         12    1    1    2    0    0  0.77027031799E+00 -0.11399963020E+02  0.43572480005E+02  0.45045682223E+02  0.00000000000E+00 0. -1.
         11    1    3    3    0    0 -0.18964817883E+01  0.57209794013E+01 -0.30591911817E+02  0.31179982639E+02  0.51100000000E-03 0. -1.
        -11    1    3    3    0    0  0.26487695583E+01  0.20606423358E+01 -0.75424233390E+01  0.82553241666E+01  0.51100000000E-03 0.  1.
         12    1    3    3    0    0 -0.15225580880E+01  0.36183412828E+01 -0.54381448487E+01  0.67070109710E+01  0.00000000000E+00 0. -1.
</event>
<event>
 7    1  0.2297343E-008  0.4614232E+02  0.7816164E-02  0.1320468E+00
        -11   -1    0    0    0    0  0.00000000000E+00  0.00000000000E+00  0.45593999997E+02  0.45594000000E+02  0.51100000000E-03 0. -1.
         11   -1    0    0    0    0 -0.00000000000E+00 -0.00000000000E+00 -0.45593999997E+02  0.45594000000E+02  0.51100000000E-03 0.  1.
    9900012    2    1    2    0    0 -0.29949685454E+02 -0.32821808768E+02  0.74066597439E+01  0.46142318762E+02  0.10000009131E+02 0.  0.
         12    1    1    2    0    0  0.29949685454E+02  0.32821808768E+02 -0.74066597439E+01  0.45045681238E+02  0.00000000000E+00 0. -1.
         11    1    3    3    0    0 -0.25449401526E+01 -0.56426189790E+01 -0.93245089349E+00  0.62598190271E+01  0.51100000000E-03 0. -1.
        -11    1    3    3    0    0 -0.75326262846E+01 -0.11097468174E+02  0.35410825929E+01  0.13872041119E+02  0.51100000000E-03 0.  1.
        -12    1    3    3    0    0 -0.19872119017E+02 -0.16081721615E+02  0.47980280446E+01  0.26010458616E+02  0.00000000000E+00 0.  1.
</event>
<event>
 7    1  0.2297343E-008  0.4614232E+02  0.7816164E-02  0.1320468E+00
        -11   -1    0    0    0    0  0.00000000000E+00  0.00000000000E+00  0.45593999997E+02  0.45594000000E+02  0.51100000000E-03 0. -1.
         11   -1    0    0    0    0 -0.00000000000E+00 -0.00000000000E+00 -0.45593999997E+02  0.45594000000E+02  0.51100000000E-03 0.  1.
    9900012    2    1    2    0    0  0.27918863273E+02  0.35322234481E+02  0.14108304707E+01  0.46142316324E+02  0.99999868983E+01 0.  0.
         12    1    1    2    0    0 -0.27918863273E+02 -0.35322234481E+02 -0.14108304707E+01  0.45045683676E+02  0.00000000000E+00 0. -1.
         11    1    3    3    0    0  0.12596927957E+02  0.19774104481E+02  0.39526300405E+01  0.23776481793E+02  0.51100000000E-03 0. -1.
        -11    1    3    3    0    0  0.41132291673E+01  0.35619791986E+01  0.11117719753E+01  0.55535922771E+01  0.51100000000E-03 0.  1.
        -12    1    3    3    0    0  0.11208706149E+02  0.11986150802E+02 -0.36535715451E+01  0.16812242254E+02  0.00000000000E+00 0.  1.
</event>
<event>
 7    1  0.2297343E-008  0.4614232E+02  0.7816164E-02  0.1320468E+00
        -11   -1    0    0    0    0  0.00000000000E+00  0.00000000000E+00  0.45593999997E+02  0.45594000000E+02  0.51100000000E-03 0.  1.
         11   -1    0    0    0    0 -0.00000000000E+00 -0.00000000000E+00 -0.45593999997E+02  0.45594000000E+02  0.51100000000E-03 0. -1.
    9900012    2    1    2    0    0 -0.10425966784E+02 -0.31029952074E+02  0.30944381164E+02  0.46142318356E+02  0.10000005427E+02 0.  0.
         12    1    1    2    0    0  0.10425966784E+02  0.31029952074E+02 -0.30944381164E+02  0.45045681644E+02  0.00000000000E+00 0. -1.
         11    1    3    3    0    0  0.60011002436E+00  0.30182863865E+00  0.51438497122E+00  0.84606425771E+00  0.51100000000E-03 0. -1.
        -11    1    3    3    0    0 -0.68717235119E+00 -0.44396897301E+01  0.23723009413E+01  0.50804392288E+01  0.51100000000E-03 0.  1.
        -12    1    3    3    0    0 -0.10338904457E+02 -0.26892090983E+02  0.28057695252E+02  0.40215814870E+02  0.00000000000E+00 0.  1.
</event>
<event>
 7    1  0.2297343E-008  0.4614232E+02  0.7816164E-02  0.1320468E+00
        -11   -1    0    0    0    0  0.00000000000E+00  0.00000000000E+00  0.45593999997E+02  0.45594000000E+02  0.51100000000E-03 0.  1.
         11   -1    0    0    0    0 -0.00000000000E+00 -0.00000000000E+00 -0.45593999997E+02  0.45594000000E+02  0.51100000000E-03 0. -1.
    9900012    2    1    2    0    0 -0.29418636217E+02 -0.33788225204E+02  0.46917847370E+01  0.46142321369E+02  0.10000032901E+02 0.  0.
         12    1    1    2    0    0  0.29418636217E+02  0.33788225204E+02 -0.46917847370E+01  0.45045678631E+02  0.00000000000E+00 0. -1.
         11    1    3    3    0    0 -0.13236860211E+02 -0.10582779374E+02  0.54612054916E+01  0.17805461331E+02  0.51100000000E-03 0. -1.
        -11    1    3    3    0    0 -0.11662888522E+02 -0.15593418144E+02 -0.66950991030E+00  0.19483990912E+02  0.51100000000E-03 0.  1.
        -12    1    3    3    0    0 -0.45188874841E+01 -0.76120276854E+01 -0.99910844263E-01  0.88528691256E+01  0.00000000000E+00 0.  1.
</event>
