<event>
 7    1  0.7012292E-013  0.5930194E+02  0.7816164E-02  0.1266605E+00
        -11   -1    0    0    0    0  0.00000000000E+00  0.00000000000E+00  0.45593999997E+02  0.45594000000E+02  0.51100000000E-03 0. -1.
         11   -1    0    0    0    0 -0.00000000000E+00 -0.00000000000E+00 -0.45593999997E+02  0.45594000000E+02  0.51100000000E-03 0.  1.
    9900012    2    1    2    0    0 -0.29593724725E+02 -0.41956850658E+01  0.11105336656E+02  0.59301940060E+02  0.49999992763E+02 0.  0.
         12    1    1    2    0    0  0.29593724725E+02  0.41956850658E+01 -0.11105336656E+02  0.31886059940E+02  0.00000000000E+00 0. -1.
         11    1    3    3    0    0  0.48686752385E+00  0.78478829249E+00  0.14168918105E+01  0.16913058013E+01  0.51100000000E-03 0. -1.
        -11    1    3    3    0    0  0.45433013421E+01 -0.18772077473E+02  0.56464790307E+01  0.20122504949E+02  0.51100000000E-03 0.  1.
         12    1    3    3    0    0 -0.34623893591E+02  0.13791604115E+02  0.40419658151E+01  0.37488129309E+02  0.00000000000E+00 0. -1.
</event>
<event>
 7    1  0.7012292E-013  0.5930193E+02  0.7816164E-02  0.1266605E+00
        -11   -1    0    0    0    0  0.00000000000E+00  0.00000000000E+00  0.45593999997E+02  0.45594000000E+02  0.51100000000E-03 0. -1.
         11   -1    0    0    0    0 -0.00000000000E+00 -0.00000000000E+00 -0.45593999997E+02  0.45594000000E+02  0.51100000000E-03 0.  1.
    9900012    2    1    2    0    0 -0.27201569528E+02  0.84021209680E+01  0.14359670530E+02  0.59301934716E+02  0.49999983018E+02 0.  0.
         12    1    1    2    0    0  0.27201569528E+02 -0.84021209680E+01 -0.14359670530E+02  0.31886065284E+02  0.00000000000E+00 0. -1.
         11    1    3    3    0    0 -0.16623747472E+01 -0.58677510760E+01 -0.72504384775E+00  0.61416350699E+01  0.51100000000E-03 0.  1.
        -11    1    3    3    0    0 -0.12778680260E+02  0.14206903401E+02 -0.12454105566E+02  0.22808672016E+02  0.51100000000E-03 0. -1.
         12    1    3    3    0    0 -0.12760514521E+02  0.62968643363E-01  0.27538819944E+02  0.30351627630E+02  0.00000000000E+00 0. -1.
</event>
<event>
 7    1  0.7012292E-013  0.5930194E+02  0.7816164E-02  0.1266605E+00
        -11   -1    0    0    0    0  0.00000000000E+00  0.00000000000E+00  0.45593999997E+02  0.45594000000E+02  0.51100000000E-03 0.  1.
         11   -1    0    0    0    0 -0.00000000000E+00 -0.00000000000E+00 -0.45593999997E+02  0.45594000000E+02  0.51100000000E-03 0. -1.
    9900012    2    1    2    0    0  0.11224769335E+02  0.29202128435E+02  0.61612570096E+01  0.59301939727E+02  0.49999992157E+02 0.  0.
         12    1    1    2    0    0 -0.11224769335E+02 -0.29202128435E+02 -0.61612570096E+01  0.31886060273E+02  0.00000000000E+00 0. -1.
         11    1    3    3    0    0  0.51908784594E+01  0.11817316428E+01 -0.73491618077E+01  0.90747941239E+01  0.51100000000E-03 0. -1.
        -11    1    3    3    0    0  0.71257564848E+01  0.31771268888E+02 -0.35238263309E+01  0.32750683726E+02  0.51100000000E-03 0.  1.
         12    1    3    3    0    0 -0.10918656091E+01 -0.37508720953E+01  0.17034245148E+02  0.17476461877E+02  0.00000000000E+00 0. -1.
</event>
<event>
 7    1  0.7012292E-013  0.5930195E+02  0.7816164E-02  0.1266605E+00
        -11   -1    0    0    0    0  0.00000000000E+00  0.00000000000E+00  0.45593999997E+02  0.45594000000E+02  0.51100000000E-03 0. -1.
         11   -1    0    0    0    0 -0.00000000000E+00 -0.00000000000E+00 -0.45593999997E+02  0.45594000000E+02  0.51100000000E-03 0.  1.
    9900012    2    1    2    0    0 -0.30136289674E+02  0.15657968790E+01 -0.10299162819E+02  0.59301946153E+02  0.50000003875E+02 0.  0.
         12    1    1    2    0    0  0.30136289674E+02 -0.15657968790E+01  0.10299162819E+02  0.31886053847E+02  0.00000000000E+00 0. -1.
         11    1    3    3    0    0 -0.18555889677E+02  0.10622675068E+02 -0.49040957912E+01  0.21936554495E+02  0.51100000000E-03 0. -1.
        -11    1    3    3    0    0  0.83895073799E+01  0.19599839457E+01 -0.10909337376E+02  0.13901043608E+02  0.51100000000E-03 0.  1.
         12    1    3    3    0    0 -0.19969907377E+02 -0.11016862135E+02  0.55142703473E+01  0.23464348050E+02  0.00000000000E+00 0. -1.
</event>
<event>
 7    1  0.7012292E-013  0.5930187E+02  0.7816164E-02  0.1266605E+00
        -11   -1    0    0    0    0  0.00000000000E+00  0.00000000000E+00  0.45593999997E+02  0.45594000000E+02  0.51100000000E-03 0.  1.
         11   -1    0    0    0    0 -0.00000000000E+00 -0.00000000000E+00 -0.45593999997E+02  0.45594000000E+02  0.51100000000E-03 0. -1.
    9900012    2    1    2    0    0  0.29258808920E+02  0.10288207948E+02  0.74027097112E+01  0.59301870833E+02  0.49999866510E+02 0.  0.
         12    1    1    2    0    0 -0.29258808920E+02 -0.10288207948E+02 -0.74027097112E+01  0.31886129167E+02  0.00000000000E+00 0. -1.
         11    1    3    3    0    0 -0.57886161816E+00 -0.23213976404E+00  0.66999781272E+01  0.67289432163E+01  0.51100000000E-03 0. -1.
        -11    1    3    3    0    0  0.17530011904E+02  0.17027592198E+02  0.18012370156E+02  0.30359276874E+02  0.51100000000E-03 0.  1.
         12    1    3    3    0    0  0.12307658634E+02 -0.65072444860E+01 -0.17309638572E+02  0.22213650743E+02  0.00000000000E+00 0. -1.
</event>
<event>
 7    1  0.7012292E-013  0.5930192E+02  0.7816164E-02  0.1266605E+00
        -11   -1    0    0    0    0  0.00000000000E+00  0.00000000000E+00  0.45593999997E+02  0.45594000000E+02  0.51100000000E-03 0.  1.
         11   -1    0    0    0    0 -0.00000000000E+00 -0.00000000000E+00 -0.45593999997E+02  0.45594000000E+02  0.51100000000E-03 0. -1.
    9900012    2    1    2    0    0 -0.14740672812E+01 -0.20555658838E+02  0.24331342425E+02  0.59301918259E+02  0.49999953004E+02 0.  0.
         12    1    1    2    0    0  0.14740672812E+01  0.20555658838E+02 -0.24331342425E+02  0.31886081741E+02  0.00000000000E+00 0. -1.
         11    1    3    3    0    0 -0.14034204777E+02 -0.30023817104E+02  0.22778883721E+02  0.40215246376E+02  0.51100000000E-03 0.  1.
        -11    1    3    3    0    0  0.68789992026E+01  0.95885869322E+00 -0.33846108918E+01  0.77262947894E+01  0.51100000000E-03 0. -1.
        -12    1    3    3    0    0  0.56811382935E+01  0.85092995725E+01  0.49370695955E+01  0.11360377094E+02  0.00000000000E+00 0.  1.
</event>
<event>
 7    1  0.7012292E-013  0.5930193E+02  0.7816164E-02  0.1266605E+00
        -11   -1    0    0    0    0  0.00000000000E+00  0.00000000000E+00  0.45593999997E+02  0.45594000000E+02  0.51100000000E-03 0. -1.
         11   -1    0    0    0    0 -0.00000000000E+00 -0.00000000000E+00 -0.45593999997E+02  0.45594000000E+02  0.51100000000E-03 0.  1.
    9900012    2    1    2    0    0 -0.13700998109E+02  0.23893789535E+02 -0.16065207725E+02  0.59301930522E+02  0.49999975368E+02 0.  0.
         12    1    1    2    0    0  0.13700998109E+02 -0.23893789535E+02  0.16065207725E+02  0.31886069478E+02  0.00000000000E+00 0. -1.
         11    1    3    3    0    0  0.65601090992E+01 -0.10428326799E+02 -0.90957548518E+01  0.15313973613E+02  0.51100000000E-03 0. -1.
        -11    1    3    3    0    0  0.24143158169E+01  0.54342585289E+00  0.73387805131E+00  0.25812419059E+01  0.51100000000E-03 0.  1.
        -12    1    3    3    0    0 -0.22675423025E+02  0.33778690482E+02 -0.77033309248E+01  0.41406715003E+02  0.00000000000E+00 0.  1.
</event>
<event>
 7    1  0.7012292E-013  0.5930194E+02  0.7816164E-02  0.1266605E+00
        -11   -1    0    0    0    0  0.00000000000E+00  0.00000000000E+00  0.45593999997E+02  0.45594000000E+02  0.51100000000E-03 0.  1.
         11   -1    0    0    0    0 -0.00000000000E+00 -0.00000000000E+00 -0.45593999997E+02  0.45594000000E+02  0.51100000000E-03 0. -1.
    9900012    2    1    2    0    0 -0.30758514742E+02  0.27968316500E+01  0.79254170113E+01  0.59301941429E+02  0.49999995260E+02 0.  0.
         12    1    1    2    0    0  0.30758514742E+02 -0.27968316500E+01 -0.79254170113E+01  0.31886058571E+02  0.00000000000E+00 0. -1.
         11    1    3    3    0    0  0.93357894884E+01 -0.73434149387E+01 -0.36766396400E+01  0.12433840422E+02  0.51100000000E-03 0. -1.
        -11    1    3    3    0    0 -0.13422010778E+02  0.40186355352E+01 -0.49811800362E+01  0.14869833883E+02  0.51100000000E-03 0.  1.
        -12    1    3    3    0    0 -0.26672293452E+02  0.61216110536E+01  0.16583236688E+02  0.31998267124E+02  0.00000000000E+00 0.  1.
</event>
<event>
 7    1  0.7012292E-013  0.5930171E+02  0.7816164E-02  0.1266606E+00
        -11   -1    0    0    0    0  0.00000000000E+00  0.00000000000E+00  0.45593999997E+02  0.45594000000E+02  0.51100000000E-03 0. -1.
         11   -1    0    0    0    0 -0.00000000000E+00 -0.00000000000E+00 -0.45593999997E+02  0.45594000000E+02  0.51100000000E-03 0.  1.
    9900012    2    1    2    0    0 -0.43728604028E+01  0.93943606754E+00 -0.31571043418E+02  0.59301714065E+02  0.49999580602E+02 0.  0.
         12    1    1    2    0    0  0.43728604028E+01 -0.93943606754E+00  0.31571043418E+02  0.31886285935E+02  0.00000000000E+00 0. -1.
         11    1    3    3    0    0  0.72683573766E+01  0.15672724381E+01 -0.14394656387E+02  0.16201589262E+02  0.51100000000E-03 0. -1.
        -11    1    3    3    0    0 -0.87998707536E+01  0.15186903281E+02 -0.20189079935E+02  0.26752171975E+02  0.51100000000E-03 0.  1.
         12    1    3    3    0    0 -0.28413470259E+01 -0.15814739651E+02  0.30126929036E+01  0.16347952829E+02  0.00000000000E+00 0. -1.
</event>
<event>
 7    1  0.7012292E-013  0.5930194E+02  0.7816164E-02  0.1266605E+00
        -11   -1    0    0    0    0  0.00000000000E+00  0.00000000000E+00  0.45593999997E+02  0.45594000000E+02  0.51100000000E-03 0.  1.
         11   -1    0    0    0    0 -0.00000000000E+00 -0.00000000000E+00 -0.45593999997E+02  0.45594000000E+02  0.51100000000E-03 0. -1.
    9900012    2    1    2    0    0 -0.21968698760E+02 -0.17856660520E+02  0.14670949109E+02  0.59301940383E+02  0.49999993353E+02 0.  0.
         12    1    1    2    0    0  0.21968698760E+02  0.17856660520E+02 -0.14670949109E+02  0.31886059617E+02  0.00000000000E+00 0. -1.
         11    1    3    3    0    0 -0.27796342039E+01  0.94075785513E+01 -0.62451278090E+01  0.11628865900E+02  0.51100000000E-03 0. -1.
        -11    1    3    3    0    0 -0.13355331964E+02 -0.18287460033E+02 -0.16409770390E+01  0.22704380463E+02  0.51100000000E-03 0.  1.
        -12    1    3    3    0    0 -0.58337325924E+01 -0.89767790386E+01  0.22557053957E+02  0.24968694020E+02  0.00000000000E+00 0.  1.
</event>
<event>
 7    1  0.7012292E-013  0.5930174E+02  0.7816164E-02  0.1266605E+00
        -11   -1    0    0    0    0  0.00000000000E+00  0.00000000000E+00  0.45593999997E+02  0.45594000000E+02  0.51100000000E-03 0.  1.
         11   -1    0    0    0    0 -0.00000000000E+00 -0.00000000000E+00 -0.45593999997E+02  0.45594000000E+02  0.51100000000E-03 0. -1.
    9900012    2    1    2    0    0  0.17430276521E+02  0.16358712124E+02  0.21102412670E+02  0.59301736147E+02  0.49999620875E+02 0.  0.
         12    1    1    2    0    0 -0.17430276521E+02 -0.16358712124E+02 -0.21102412670E+02  0.31886263853E+02  0.00000000000E+00 0. -1.
         11    1    3    3    0    0  0.15291974825E+02  0.17522160718E+02  0.13950198861E+02  0.27119709785E+02  0.51100000000E-03 0.  1.
        -11    1    3    3    0    0  0.14064481067E+02  0.47409051873E+01 -0.33666566040E+01  0.15219073120E+02  0.51100000000E-03 0. -1.
         12    1    3    3    0    0 -0.11926179371E+02 -0.59043537807E+01  0.10518870413E+02  0.16962953243E+02  0.00000000000E+00 0. -1.
</event>
<event>
 7    1  0.7012292E-013  0.5930195E+02  0.7816164E-02  0.1266605E+00
        -11   -1    0    0    0    0  0.00000000000E+00  0.00000000000E+00  0.45593999997E+02  0.45594000000E+02  0.51100000000E-03 0.  1.
         11   -1    0    0    0    0 -0.00000000000E+00 -0.00000000000E+00 -0.45593999997E+02  0.45594000000E+02  0.51100000000E-03 0. -1.
    9900012    2    1    2    0    0 -0.11598468062E+02  0.13426774484E+02  0.26493728140E+02  0.59301947168E+02  0.50000005727E+02 0.  0.
         12    1    1    2    0    0  0.11598468062E+02 -0.13426774484E+02 -0.26493728140E+02  0.31886052832E+02  0.00000000000E+00 0. -1.
         11    1    3    3    0    0 -0.18595631197E+01  0.17233967116E+02  0.10821672258E+02  0.20434681017E+02  0.51100000000E-03 0. -1.
        -11    1    3    3    0    0  0.74214325163E+01  0.79356170240E+01  0.14394159537E+02  0.18034508787E+02  0.51100000000E-03 0.  1.
        -12    1    3    3    0    0 -0.17160337459E+02 -0.11742809656E+02  0.12778963449E+01  0.20832757364E+02  0.00000000000E+00 0.  1.
</event>
<event>
 7    1  0.7012292E-013  0.5930195E+02  0.7816164E-02  0.1266605E+00
        -11   -1    0    0    0    0  0.00000000000E+00  0.00000000000E+00  0.45593999997E+02  0.45594000000E+02  0.51100000000E-03 0. -1.
         11   -1    0    0    0    0 -0.00000000000E+00 -0.00000000000E+00 -0.45593999997E+02  0.45594000000E+02  0.51100000000E-03 0.  1.
    9900012    2    1    2    0    0  0.23272487531E+02 -0.20652208953E+02 -0.69712010000E+01  0.59301952049E+02  0.50000014630E+02 0.  0.
         12    1    1    2    0    0 -0.23272487531E+02  0.20652208953E+02  0.69712010000E+01  0.31886047951E+02  0.00000000000E+00 0. -1.
         11    1    3    3    0    0  0.16929788524E+02 -0.15080711135E+02  0.12160928890E+02  0.25728073763E+02  0.51100000000E-03 0. -1.
        -11    1    3    3    0    0  0.16521906020E+02 -0.51169356401E+01 -0.10615475505E+02  0.20293957952E+02  0.51100000000E-03 0.  1.
         12    1    3    3    0    0 -0.10179207013E+02 -0.45456217823E+00 -0.85166543855E+01  0.13279920335E+02  0.00000000000E+00 0. -1.
</event>
<event>
 7    1  0.7012292E-013  0.5930193E+02  0.7816164E-02  0.1266605E+00
        -11   -1    0    0    0    0  0.00000000000E+00  0.00000000000E+00  0.45593999997E+02  0.45594000000E+02  0.51100000000E-03 0.  1.
         11   -1    0    0    0    0 -0.00000000000E+00 -0.00000000000E+00 -0.45593999997E+02  0.45594000000E+02  0.51100000000E-03 0. -1.
    9900012    2    1    2    0    0 -0.15312132861E+02  0.25384067627E+02 -0.11743462414E+02  0.59301933897E+02  0.49999981525E+02 0.  0.
         12    1    1    2    0    0  0.15312132861E+02 -0.25384067627E+02  0.11743462414E+02  0.31886066103E+02  0.00000000000E+00 0. -1.
         11    1    3    3    0    0 -0.39988045180E+00  0.85215973687E+01 -0.16139998142E+02  0.18255877585E+02  0.51100000000E-03 0. -1.
        -11    1    3    3    0    0 -0.62602027690E+01  0.63036115249E+01 -0.14936784397E+02  0.17379101972E+02  0.51100000000E-03 0.  1.
        -12    1    3    3    0    0 -0.86520496397E+01  0.10558858733E+02  0.19333320125E+02  0.23666954341E+02  0.00000000000E+00 0.  1.
</event>
<event>
 7    1  0.7012292E-013  0.5930194E+02  0.7816164E-02  0.1266605E+00
        -11   -1    0    0    0    0  0.00000000000E+00  0.00000000000E+00  0.45593999997E+02  0.45594000000E+02  0.51100000000E-03 0.  1.
         11   -1    0    0    0    0 -0.00000000000E+00 -0.00000000000E+00 -0.45593999997E+02  0.45594000000E+02  0.51100000000E-03 0. -1.
    9900012    2    1    2    0    0  0.18897304336E+01 -0.76019185720E+01  0.30908910750E+02  0.59301937044E+02  0.49999987263E+02 0.  0.
         12    1    1    2    0    0 -0.18897304336E+01  0.76019185720E+01 -0.30908910750E+02  0.31886062956E+02  0.00000000000E+00 0. -1.
         11    1    3    3    0    0  0.57011410992E+01 -0.46059043239E+00  0.44765035738E+01  0.72632112655E+01  0.51100000000E-03 0. -1.
        -11    1    3    3    0    0 -0.10254994205E+02  0.16989864521E+02  0.11346657913E+02  0.22859725472E+02  0.51100000000E-03 0.  1.
         12    1    3    3    0    0  0.64435835397E+01 -0.24131192661E+02  0.15085749264E+02  0.29179000307E+02  0.00000000000E+00 0. -1.
</event>
<event>
 7    1  0.7012292E-013  0.5930193E+02  0.7816164E-02  0.1266605E+00
        -11   -1    0    0    0    0  0.00000000000E+00  0.00000000000E+00  0.45593999997E+02  0.45594000000E+02  0.51100000000E-03 0.  1.
         11   -1    0    0    0    0 -0.00000000000E+00 -0.00000000000E+00 -0.45593999997E+02  0.45594000000E+02  0.51100000000E-03 0. -1.
    9900012    2    1    2    0    0 -0.19407440146E+02  0.25088161702E+02  0.32645133160E+01  0.59301927212E+02  0.49999969333E+02 0.  0.
         12    1    1    2    0    0  0.19407440146E+02 -0.25088161702E+02 -0.32645133160E+01  0.31886072788E+02  0.00000000000E+00 0. -1.
         11    1    3    3    0    0  0.34007228142E+01  0.13780863678E+02 -0.53329358697E+00  0.14204278288E+02  0.51100000000E-03 0. -1.
        -11    1    3    3    0    0  0.91614909744E+01  0.73644752874E+01  0.52043078986E+01  0.12855085923E+02  0.51100000000E-03 0.  1.
        -12    1    3    3    0    0 -0.31969653935E+02  0.39428227372E+01 -0.14065009956E+01  0.32242563001E+02  0.00000000000E+00 0.  1.
</event>
<event>
 7    1  0.7012292E-013  0.5930191E+02  0.7816164E-02  0.1266605E+00
        -11   -1    0    0    0    0  0.00000000000E+00  0.00000000000E+00  0.45593999997E+02  0.45594000000E+02  0.51100000000E-03 0.  1.
         11   -1    0    0    0    0 -0.00000000000E+00 -0.00000000000E+00 -0.45593999997E+02  0.45594000000E+02  0.51100000000E-03 0. -1.
    9900012    2    1    2    0    0  0.20630152241E+02 -0.14451726660E+02  0.19551648466E+02  0.59301913023E+02  0.49999943455E+02 0.  0.
         12    1    1    2    0    0 -0.20630152241E+02  0.14451726660E+02 -0.19551648466E+02  0.31886086977E+02  0.00000000000E+00 0. -1.
         11    1    3    3    0    0  0.20391946818E+01  0.86492674041E+00 -0.36374145320E+01  0.42587789277E+01  0.51100000000E-03 0. -1.
        -11    1    3    3    0    0  0.23888818196E+02  0.86061992556E+01  0.10915607619E+02  0.27638610501E+02  0.51100000000E-03 0.  1.
         12    1    3    3    0    0 -0.52978606370E+01 -0.23922852656E+02  0.12273455378E+02  0.27404523595E+02  0.00000000000E+00 0. -1.
</event>
<event>
 7    1  0.7012292E-013  0.5930190E+02  0.7816164E-02  0.1266605E+00
        -11   -1    0    0    0    0  0.00000000000E+00  0.00000000000E+00  0.45593999997E+02  0.45594000000E+02  0.51100000000E-03 0.  1.
         11   -1    0    0    0    0 -0.00000000000E+00 -0.00000000000E+00 -0.45593999997E+02  0.45594000000E+02  0.51100000000E-03 0. -1.
    9900012    2    1    2    0    0 -0.91265773467E+01  0.23123730955E+01  0.30464436366E+02  0.59301900105E+02  0.49999919895E+02 0.  0.
         12    1    1    2    0    0  0.91265773467E+01 -0.23123730955E+01 -0.30464436366E+02  0.31886099895E+02  0.00000000000E+00 0. -1.
         11    1    3    3    0    0 -0.46804469742E+01 -0.49039089739E+01  0.10918160816E+02  0.12851503529E+02  0.51100000000E-03 0. -1.
        -11    1    3    3    0    0  0.27929164565E+01 -0.76870055203E+01  0.27051909987E+02  0.28261214949E+02  0.51100000000E-03 0.  1.
         12    1    3    3    0    0 -0.72390468291E+01  0.14903287590E+02 -0.75056344358E+01  0.18189181627E+02  0.00000000000E+00 0. -1.
</event>
<event>
 7    1  0.7012292E-013  0.5930194E+02  0.7816164E-02  0.1266605E+00
        -11   -1    0    0    0    0  0.00000000000E+00  0.00000000000E+00  0.45593999997E+02  0.45594000000E+02  0.51100000000E-03 0.  1.
         11   -1    0    0    0    0 -0.00000000000E+00 -0.00000000000E+00 -0.45593999997E+02  0.45594000000E+02  0.51100000000E-03 0. -1.
    9900012    2    1    2    0    0 -0.72950191397E+01 -0.72738177697E+01  0.30176065548E+02  0.59301942528E+02  0.49999997264E+02 0.  0.
         12    1    1    2    0    0  0.72950191397E+01  0.72738177697E+01 -0.30176065548E+02  0.31886057472E+02  0.00000000000E+00 0. -1.
         11    1    3    3    0    0 -0.90833631514E+00  0.65875145445E+01 -0.71461642936E+01  0.97615617146E+01  0.51100000000E-03 0.  1.
        -11    1    3    3    0    0  0.57373784856E+01  0.22483017389E+01 -0.99530582242E+00  0.62420354482E+01  0.51100000000E-03 0. -1.
        -12    1    3    3    0    0 -0.12124061310E+02 -0.16109634053E+02  0.38317535664E+02  0.43298345365E+02  0.00000000000E+00 0.  1.
</event>
<event>
 7    1  0.7012292E-013  0.5930197E+02  0.7816164E-02  0.1266605E+00
        -11   -1    0    0    0    0  0.00000000000E+00  0.00000000000E+00  0.45593999997E+02  0.45594000000E+02  0.51100000000E-03 0.  1.
         11   -1    0    0    0    0 -0.00000000000E+00 -0.00000000000E+00 -0.45593999997E+02  0.45594000000E+02  0.51100000000E-03 0. -1.
    9900012    2    1    2    0    0  0.50164069184E+01 -0.28111812854E+02  0.14187343151E+02  0.59301967540E+02  0.50000042881E+02 0.  0.
         12    1    1    2    0    0 -0.50164069184E+01  0.28111812854E+02 -0.14187343151E+02  0.31886032460E+02  0.00000000000E+00 0. -1.
         11    1    3    3    0    0  0.12523124946E+02 -0.16989236072E+02 -0.69019715847E+01  0.22205855371E+02  0.51100000000E-03 0. -1.
        -11    1    3    3    0    0 -0.13137835332E+02 -0.99353086975E+01  0.13406915118E+01  0.16526056097E+02  0.51100000000E-03 0.  1.
         12    1    3    3    0    0  0.56311173039E+01 -0.11872680849E+01  0.19748623224E+02  0.20570056073E+02  0.00000000000E+00 0. -1.
</event>
<event>
 7    1  0.7012292E-013  0.5930192E+02  0.7816164E-02  0.1266605E+00
        -11   -1    0    0    0    0  0.00000000000E+00  0.00000000000E+00  0.45593999997E+02  0.45594000000E+02  0.51100000000E-03 0.  1.
         11   -1    0    0    0    0 -0.00000000000E+00 -0.00000000000E+00 -0.45593999997E+02  0.45594000000E+02  0.51100000000E-03 0. -1.
    9900012    2    1    2    0    0  0.85690622846E+00 -0.40747619627E+01  0.31613034489E+02  0.59301922741E+02  0.49999961179E+02 0.  0.
         12    1    1    2    0    0 -0.85690622846E+00  0.40747619627E+01 -0.31613034489E+02  0.31886077259E+02  0.00000000000E+00 0. -1.
         11    1    3    3    0    0  0.15130455674E+01 -0.13873294940E+02  0.10988894407E+02  0.17762697428E+02  0.51100000000E-03 0. -1.
        -11    1    3    3    0    0 -0.15090516783E+02  0.80737001070E+01  0.10356368216E+01  0.17145870468E+02  0.51100000000E-03 0.  1.
        -12    1    3    3    0    0  0.14434377444E+02  0.17248328698E+01  0.19588503261E+02  0.24393354846E+02  0.00000000000E+00 0.  1.
</event>
<event>
 7    1  0.7012292E-013  0.5930191E+02  0.7816164E-02  0.1266605E+00
        -11   -1    0    0    0    0  0.00000000000E+00  0.00000000000E+00  0.45593999997E+02  0.45594000000E+02  0.51100000000E-03 0. -1.
         11   -1    0    0    0    0 -0.00000000000E+00 -0.00000000000E+00 -0.45593999997E+02  0.45594000000E+02  0.51100000000E-03 0.  1.
    9900012    2    1    2    0    0 -0.19236304794E+02 -0.25338324568E+02 -0.21579348463E+01  0.59301909038E+02  0.49999936186E+02 0.  0.
         12    1    1    2    0    0  0.19236304794E+02  0.25338324568E+02  0.21579348463E+01  0.31886090962E+02  0.00000000000E+00 0. -1.
         11    1    3    3    0    0 -0.47549219075E+01  0.33121885672E+01  0.17554923414E+00  0.57974730052E+01  0.51100000000E-03 0. -1.
        -11    1    3    3    0    0 -0.13690144016E+02  0.40800736463E+01 -0.12749592668E+02  0.19147301575E+02  0.51100000000E-03 0.  1.
        -12    1    3    3    0    0 -0.79123887103E+00 -0.32730586782E+02  0.10416108588E+02  0.34357134457E+02  0.00000000000E+00 0.  1.
</event>
<event>
 7    1  0.7012292E-013  0.5930195E+02  0.7816164E-02  0.1266605E+00
        -11   -1    0    0    0    0  0.00000000000E+00  0.00000000000E+00  0.45593999997E+02  0.45594000000E+02  0.51100000000E-03 0. -1.
         11   -1    0    0    0    0 -0.00000000000E+00 -0.00000000000E+00 -0.45593999997E+02  0.45594000000E+02  0.51100000000E-03 0.  1.
    9900012    2    1    2    0    0  0.31438525605E+02  0.52965736207E+01 -0.53441019007E+00  0.59301950094E+02  0.50000011063E+02 0.  0.
         12    1    1    2    0    0 -0.31438525605E+02 -0.52965736207E+01  0.53441019007E+00  0.31886049906E+02  0.00000000000E+00 0. -1.
         11    1    3    3    0    0  0.76065372802E+01  0.39377230464E+01 -0.17187183057E+02  0.19203237588E+02  0.51100000000E-03 0.  1.
        -11    1    3    3    0    0  0.23979888600E+02  0.11313832334E+02  0.12438474852E+02  0.29287429322E+02  0.51100000000E-03 0. -1.
         12    1    3    3    0    0 -0.14790027514E+00 -0.99549817599E+01  0.42142980148E+01  0.10811283184E+02  0.00000000000E+00 0. -1.
</event>
<event>
 7    1  0.7012292E-013  0.5930193E+02  0.7816164E-02  0.1266605E+00
        -11   -1    0    0    0    0  0.00000000000E+00  0.00000000000E+00  0.45593999997E+02  0.45594000000E+02  0.51100000000E-03 0.  1.
         11   -1    0    0    0    0 -0.00000000000E+00 -0.00000000000E+00 -0.45593999997E+02  0.45594000000E+02  0.51100000000E-03 0. -1.
    9900012    2    1    2    0    0 -0.28232728130E+02 -0.13918321686E+02  0.50906470288E+01  0.59301932457E+02  0.49999978897E+02 0.  0.
         12    1    1    2    0    0  0.28232728130E+02  0.13918321686E+02 -0.50906470288E+01  0.31886067543E+02  0.00000000000E+00 0. -1.
         11    1    3    3    0    0  0.68248731368E+01  0.66012057141E+01 -0.63077909420E+01  0.11399255986E+02  0.51100000000E-03 0. -1.
        -11    1    3    3    0    0 -0.16277472276E+02 -0.22314664619E+02  0.57905367288E+01  0.28221103391E+02  0.51100000000E-03 0.  1.
        -12    1    3    3    0    0 -0.18780128991E+02  0.17951372182E+01  0.56079012419E+01  0.19681573079E+02  0.00000000000E+00 0.  1.
</event>
<event>
 7    1  0.7012292E-013  0.5930197E+02  0.7816164E-02  0.1266605E+00
        -11   -1    0    0    0    0  0.00000000000E+00  0.00000000000E+00  0.45593999997E+02  0.45594000000E+02  0.51100000000E-03 0. -1.
         11   -1    0    0    0    0 -0.00000000000E+00 -0.00000000000E+00 -0.45593999997E+02  0.45594000000E+02  0.51100000000E-03 0.  1.
    9900012    2    1    2    0    0 -0.30762326751E+02  0.63588348439E+01  0.54739098131E+01  0.59301965183E+02  0.50000038582E+02 0.  0.
         12    1    1    2    0    0  0.30762326751E+02 -0.63588348439E+01 -0.54739098131E+01  0.31886034817E+02  0.00000000000E+00 0. -1.
         11    1    3    3    0    0 -0.10111774735E+02 -0.12699585946E+02 -0.12551423601E+01  0.16281979428E+02  0.51100000000E-03 0. -1.
        -11    1    3    3    0    0 -0.28255617578E+02  0.10003269981E+02  0.12842180071E+01  0.30001575811E+02  0.51100000000E-03 0.  1.
        -12    1    3    3    0    0  0.76050655619E+01  0.90551508086E+01  0.54448341661E+01  0.13018409944E+02  0.00000000000E+00 0.  1.
</event>
<event>
 7    1  0.8373419E-013  0.5930193E+02  0.7816164E-02  0.1266605E+00
        -11   -1    0    0    0    0  0.00000000000E+00  0.00000000000E+00  0.45593999997E+02  0.45594000000E+02  0.51100000000E-03 0. -1.
         11   -1    0    0    0    0 -0.00000000000E+00 -0.00000000000E+00 -0.45593999997E+02  0.45594000000E+02  0.51100000000E-03 0.  1.
    9900012    2    1    2    0    0 -0.21110423151E+02  0.96270914736E+01 -0.21872143263E+02  0.59301929268E+02  0.49999973081E+02 0.  0.
         12    1    1    2    0    0  0.21110423151E+02 -0.96270914736E+01  0.21872143263E+02  0.31886070732E+02  0.00000000000E+00 0. -1.
         11    1    3    3    0    0 -0.12922701145E+00 -0.12256303864E+02  0.13217849713E+01  0.12328049310E+02  0.51100000000E-03 0. -1.
        -11    1    3    3    0    0 -0.16049360619E+02  0.57415067040E+01  0.14467589983E+01  0.17106723455E+02  0.51100000000E-03 0.  1.
        -12    1    3    3    0    0 -0.49318355207E+01  0.16141888633E+02 -0.24640687233E+02  0.29867156503E+02  0.00000000000E+00 0.  1.
</event>
<event>
 7    1  0.7012292E-013  0.5930196E+02  0.7816164E-02  0.1266605E+00
        -11   -1    0    0    0    0  0.00000000000E+00  0.00000000000E+00  0.45593999997E+02  0.45594000000E+02  0.51100000000E-03 0. -1.
         11   -1    0    0    0    0 -0.00000000000E+00 -0.00000000000E+00 -0.45593999997E+02  0.45594000000E+02  0.51100000000E-03 0.  1.
    9900012    2    1    2    0    0  0.30418150993E+02 -0.18322943109E+01 -0.93860689799E+01  0.59301960685E+02  0.50000030380E+02 0.  0.
         12    1    1    2    0    0 -0.30418150993E+02  0.18322943109E+01  0.93860689799E+01  0.31886039315E+02  0.00000000000E+00 0. -1.
         11    1    3    3    0    0 -0.57850386194E+01 -0.10457153526E+02  0.13170101646E+01  0.12023029890E+02  0.51100000000E-03 0. -1.
        -11    1    3    3    0    0  0.60127584278E+01  0.12273300352E+02 -0.98683586775E+01  0.16857392108E+02  0.51100000000E-03 0.  1.
         12    1    3    3    0    0  0.30190431185E+02 -0.36484411367E+01 -0.83472046699E+00  0.30421538687E+02  0.00000000000E+00 0. -1.
</event>
<event>
 7    1  0.7012292E-013  0.5930195E+02  0.7816164E-02  0.1266605E+00
        -11   -1    0    0    0    0  0.00000000000E+00  0.00000000000E+00  0.45593999997E+02  0.45594000000E+02  0.51100000000E-03 0.  1.
         11   -1    0    0    0    0 -0.00000000000E+00 -0.00000000000E+00 -0.45593999997E+02  0.45594000000E+02  0.51100000000E-03 0. -1.
    9900012    2    1    2    0    0  0.43672784580E+01  0.29755611343E+02 -0.10594852649E+02  0.59301946149E+02  0.50000003868E+02 0.  0.
         12    1    1    2    0    0 -0.43672784580E+01 -0.29755611343E+02  0.10594852649E+02  0.31886053851E+02  0.00000000000E+00 0. -1.
         11    1    3    3    0    0 -0.14142074673E+02  0.10396043083E+02 -0.36594732320E+00  0.17555907995E+02  0.51100000000E-03 0. -1.
        -11    1    3    3    0    0  0.19850098535E+02  0.25302409654E+02 -0.30101884884E+01  0.32300148315E+02  0.51100000000E-03 0.  1.
         12    1    3    3    0    0 -0.13407454044E+01 -0.59428413932E+01 -0.72187168376E+01  0.94458898387E+01  0.00000000000E+00 0. -1.
</event>
<event>
 7    1  0.7012292E-013  0.5930195E+02  0.7816164E-02  0.1266605E+00
        -11   -1    0    0    0    0  0.00000000000E+00  0.00000000000E+00  0.45593999997E+02  0.45594000000E+02  0.51100000000E-03 0.  1.
         11   -1    0    0    0    0 -0.00000000000E+00 -0.00000000000E+00 -0.45593999997E+02  0.45594000000E+02  0.51100000000E-03 0. -1.
    9900012    2    1    2    0    0  0.21487345423E+01  0.51169953434E+01  0.31399354770E+02  0.59301950049E+02  0.50000010982E+02 0.  0.
         12    1    1    2    0    0 -0.21487345423E+01 -0.51169953434E+01 -0.31399354770E+02  0.31886049951E+02  0.00000000000E+00 0. -1.
         11    1    3    3    0    0  0.91150114356E+01 -0.45110933302E+01  0.13574665803E+02  0.16961867480E+02  0.51100000000E-03 0. -1.
        -11    1    3    3    0    0 -0.11567685665E+02  0.51469591615E+01  0.27759122727E+02  0.30510185760E+02  0.51100000000E-03 0.  1.
         12    1    3    3    0    0  0.46014087718E+01  0.44811295120E+01 -0.99344337597E+01  0.11829896809E+02  0.00000000000E+00 0. -1.
</event>
<event>
 7    1  0.7012292E-013  0.5930193E+02  0.7816164E-02  0.1266605E+00
        -11   -1    0    0    0    0  0.00000000000E+00  0.00000000000E+00  0.45593999997E+02  0.45594000000E+02  0.51100000000E-03 0.  1.
         11   -1    0    0    0    0 -0.00000000000E+00 -0.00000000000E+00 -0.45593999997E+02  0.45594000000E+02  0.51100000000E-03 0. -1.
    9900012    2    1    2    0    0  0.29996528224E+02 -0.17053734376E+01  0.10678080942E+02  0.59301930680E+02  0.49999975657E+02 0.  0.
         12    1    1    2    0    0 -0.29996528224E+02  0.17053734376E+01 -0.10678080942E+02  0.31886069320E+02  0.00000000000E+00 0. -1.
         11    1    3    3    0    0  0.17427583272E+02 -0.89512148762E+01 -0.13563332025E+02  0.23828740679E+02  0.51100000000E-03 0. -1.
        -11    1    3    3    0    0 -0.51831640069E+01  0.20873015058E+01  0.83943019723E+00  0.56503681310E+01  0.51100000000E-03 0.  1.
        -12    1    3    3    0    0  0.17752108959E+02  0.51585399329E+01  0.23401982770E+02  0.29822821870E+02  0.00000000000E+00 0.  1.
</event>
<event>
 7    1  0.7012292E-013  0.5930191E+02  0.7816164E-02  0.1266605E+00
        -11   -1    0    0    0    0  0.00000000000E+00  0.00000000000E+00  0.45593999997E+02  0.45594000000E+02  0.51100000000E-03 0. -1.
         11   -1    0    0    0    0 -0.00000000000E+00 -0.00000000000E+00 -0.45593999997E+02  0.45594000000E+02  0.51100000000E-03 0.  1.
    9900012    2    1    2    0    0 -0.12193799759E+02  0.52879523179E+01 -0.28983993003E+02  0.59301905183E+02  0.49999929156E+02 0.  0.
         12    1    1    2    0    0  0.12193799759E+02 -0.52879523179E+01  0.28983993003E+02  0.31886094817E+02  0.00000000000E+00 0. -1.
         11    1    3    3    0    0 -0.37589874925E+01 -0.55754831674E+01 -0.21263248822E+01  0.70524646248E+01  0.51100000000E-03 0. -1.
        -11    1    3    3    0    0 -0.16450782792E+01 -0.15037330403E+02 -0.19115180838E+02  0.24376581527E+02  0.51100000000E-03 0.  1.
         12    1    3    3    0    0 -0.67897339871E+01  0.25900765889E+02 -0.77424872832E+01  0.27872859031E+02  0.00000000000E+00 0. -1.
</event>
<event>
 7    1  0.7012292E-013  0.5930195E+02  0.7816164E-02  0.1266605E+00
        -11   -1    0    0    0    0  0.00000000000E+00  0.00000000000E+00  0.45593999997E+02  0.45594000000E+02  0.51100000000E-03 0.  1.
         11   -1    0    0    0    0 -0.00000000000E+00 -0.00000000000E+00 -0.45593999997E+02  0.45594000000E+02  0.51100000000E-03 0. -1.
    9900012    2    1    2    0    0  0.83638355294E+01  0.29116855336E+02  0.99486273474E+01  0.59301949829E+02  0.50000010580E+02 0.  0.
         12    1    1    2    0    0 -0.83638355294E+01 -0.29116855336E+02 -0.99486273474E+01  0.31886050171E+02  0.00000000000E+00 0. -1.
         11    1    3    3    0    0 -0.59013859259E+01  0.75777056885E+01 -0.37602477811E+01  0.10314428873E+02  0.51100000000E-03 0. -1.
        -11    1    3    3    0    0 -0.18883660596E+00  0.24651371563E+02  0.21107966285E+02  0.32454152587E+02  0.51100000000E-03 0.  1.
         12    1    3    3    0    0  0.14454058061E+02 -0.31122219154E+01 -0.73990911563E+01  0.16533368369E+02  0.00000000000E+00 0. -1.
</event>
<event>
 7    1  0.7012292E-013  0.5930196E+02  0.7816164E-02  0.1266605E+00
        -11   -1    0    0    0    0  0.00000000000E+00  0.00000000000E+00  0.45593999997E+02  0.45594000000E+02  0.51100000000E-03 0. -1.
         11   -1    0    0    0    0 -0.00000000000E+00 -0.00000000000E+00 -0.45593999997E+02  0.45594000000E+02  0.51100000000E-03 0.  1.
    9900012    2    1    2    0    0 -0.16219394206E+02 -0.27145040803E+02 -0.40984711415E+01  0.59301961451E+02  0.50000031776E+02 0.  0.
         12    1    1    2    0    0  0.16219394206E+02  0.27145040803E+02  0.40984711415E+01  0.31886038549E+02  0.00000000000E+00 0. -1.
         11    1    3    3    0    0 -0.13700498238E+02 -0.54860695663E+01 -0.77798656684E+01  0.16683132839E+02  0.51100000000E-03 0. -1.
        -11    1    3    3    0    0 -0.10231132661E+02 -0.13198719093E+02 -0.13839828156E+02  0.21689239380E+02  0.51100000000E-03 0.  1.
         12    1    3    3    0    0  0.77122366921E+01 -0.84602521434E+01  0.17521222683E+02  0.20929589232E+02  0.00000000000E+00 0. -1.
</event>
<event>
 7    1  0.7012292E-013  0.5930193E+02  0.7816164E-02  0.1266605E+00
        -11   -1    0    0    0    0  0.00000000000E+00  0.00000000000E+00  0.45593999997E+02  0.45594000000E+02  0.51100000000E-03 0.  1.
         11   -1    0    0    0    0 -0.00000000000E+00 -0.00000000000E+00 -0.45593999997E+02  0.45594000000E+02  0.51100000000E-03 0. -1.
    9900012    2    1    2    0    0  0.17695336881E+02  0.86415948179E+01  0.25078259682E+02  0.59301933811E+02  0.49999981367E+02 0.  0.
         12    1    1    2    0    0 -0.17695336881E+02 -0.86415948179E+01 -0.25078259682E+02  0.31886066189E+02  0.00000000000E+00 0. -1.
         11    1    3    3    0    0  0.92237736749E+01 -0.17450634985E+02  0.28020714188E+01  0.19936255082E+02  0.51100000000E-03 0. -1.
        -11    1    3    3    0    0 -0.53970320041E+01  0.82095813332E+01  0.69239959221E+01  0.12019438419E+02  0.51100000000E-03 0.  1.
        -12    1    3    3    0    0  0.13868595210E+02  0.17882648470E+02  0.15352192341E+02  0.27346240310E+02  0.00000000000E+00 0.  1.
</event>
<event>
 7    1  0.7012292E-013  0.5930194E+02  0.7816164E-02  0.1266605E+00
        -11   -1    0    0    0    0  0.00000000000E+00  0.00000000000E+00  0.45593999997E+02  0.45594000000E+02  0.51100000000E-03 0. -1.
         11   -1    0    0    0    0 -0.00000000000E+00 -0.00000000000E+00 -0.45593999997E+02  0.45594000000E+02  0.51100000000E-03 0.  1.
    9900012    2    1    2    0    0 -0.10300731018E+02  0.94499088528E+01 -0.28658591798E+02  0.59301941594E+02  0.49999995561E+02 0.  0.
         12    1    1    2    0    0  0.10300731018E+02 -0.94499088528E+01  0.28658591798E+02  0.31886058406E+02  0.00000000000E+00 0. -1.
         11    1    3    3    0    0  0.12788858362E+02  0.18622670296E+01 -0.48118565362E+01  0.13790464107E+02  0.51100000000E-03 0. -1.
        -11    1    3    3    0    0 -0.62793977089E+01  0.13380417817E+02  0.11621764972E+01  0.14826229157E+02  0.51100000000E-03 0.  1.
         12    1    3    3    0    0 -0.16810191671E+02 -0.57927759934E+01 -0.25008911759E+02  0.30685248331E+02  0.00000000000E+00 0. -1.
</event>
<event>
 7    1  0.7012292E-013  0.5930174E+02  0.7816164E-02  0.1266605E+00
        -11   -1    0    0    0    0  0.00000000000E+00  0.00000000000E+00  0.45593999997E+02  0.45594000000E+02  0.51100000000E-03 0. -1.
         11   -1    0    0    0    0 -0.00000000000E+00 -0.00000000000E+00 -0.45593999997E+02  0.45594000000E+02  0.51100000000E-03 0.  1.
    9900012    2    1    2    0    0  0.18500418213E+02  0.21845312249E+02 -0.14044584126E+02  0.59301741446E+02  0.49999630538E+02 0.  0.
         12    1    1    2    0    0 -0.18500418213E+02 -0.21845312249E+02  0.14044584126E+02  0.31886258554E+02  0.00000000000E+00 0. -1.
         11    1    3    3    0    0  0.70273860632E+01  0.97599901007E+01 -0.98392270453E+00  0.12066883019E+02  0.51100000000E-03 0. -1.
        -11    1    3    3    0    0  0.25313062977E+02  0.91532899016E+01 -0.17851178920E+02  0.32298582978E+02  0.51100000000E-03 0.  1.
         12    1    3    3    0    0 -0.13840030827E+02  0.29320322463E+01  0.47905174986E+01  0.14936275449E+02  0.00000000000E+00 0. -1.
</event>
<event>
 7    1  0.7012292E-013  0.5930193E+02  0.7816164E-02  0.1266605E+00
        -11   -1    0    0    0    0  0.00000000000E+00  0.00000000000E+00  0.45593999997E+02  0.45594000000E+02  0.51100000000E-03 0.  1.
         11   -1    0    0    0    0 -0.00000000000E+00 -0.00000000000E+00 -0.45593999997E+02  0.45594000000E+02  0.51100000000E-03 0. -1.
    9900012    2    1    2    0    0 -0.35288960826E+01 -0.12953842053E+02  0.28921723453E+02  0.59301933780E+02  0.49999981310E+02 0.  0.
         12    1    1    2    0    0  0.35288960826E+01  0.12953842053E+02 -0.28921723453E+02  0.31886066220E+02  0.00000000000E+00 0. -1.
         11    1    3    3    0    0  0.28229126973E+01  0.21288292619E+00  0.10633186118E+02  0.11003581349E+02  0.51100000000E-03 0. -1.
        -11    1    3    3    0    0 -0.87778604992E+01 -0.32080569256E+01  0.30763985151E+02  0.32152219936E+02  0.51100000000E-03 0.  1.
         12    1    3    3    0    0  0.24260517193E+01 -0.99586680534E+01 -0.12475447815E+02  0.16146132494E+02  0.00000000000E+00 0. -1.
</event>
<event>
 7    1  0.7012292E-013  0.5930194E+02  0.7816164E-02  0.1266605E+00
        -11   -1    0    0    0    0  0.00000000000E+00  0.00000000000E+00  0.45593999997E+02  0.45594000000E+02  0.51100000000E-03 0.  1.
         11   -1    0    0    0    0 -0.00000000000E+00 -0.00000000000E+00 -0.45593999997E+02  0.45594000000E+02  0.51100000000E-03 0. -1.
    9900012    2    1    2    0    0 -0.18038523169E+01  0.52195735251E+00  0.31830717296E+02  0.59301938998E+02  0.49999990826E+02 0.  0.
         12    1    1    2    0    0  0.18038523169E+01 -0.52195735251E+00 -0.31830717296E+02  0.31886061002E+02  0.00000000000E+00 0. -1.
         11    1    3    3    0    0 -0.11210638526E+02  0.14939833638E+02  0.14933418905E+01  0.18737852479E+02  0.51100000000E-03 0.  1.
        -11    1    3    3    0    0 -0.22861703818E+00  0.36685164320E+01 -0.31851070913E+00  0.36894075263E+01  0.51100000000E-03 0. -1.
        -12    1    3    3    0    0  0.96354032469E+01 -0.18086392717E+02  0.30655886115E+02  0.36874678992E+02  0.00000000000E+00 0.  1.
</event>
<event>
 7    1  0.7012292E-013  0.5930196E+02  0.7816164E-02  0.1266605E+00
        -11   -1    0    0    0    0  0.00000000000E+00  0.00000000000E+00  0.45593999997E+02  0.45594000000E+02  0.51100000000E-03 0. -1.
         11   -1    0    0    0    0 -0.00000000000E+00 -0.00000000000E+00 -0.45593999997E+02  0.45594000000E+02  0.51100000000E-03 0.  1.
    9900012    2    1    2    0    0  0.15274116473E+02  0.26169735356E+02  0.99280295833E+01  0.59301961456E+02  0.50000031784E+02 0.  0.
         12    1    1    2    0    0 -0.15274116473E+02 -0.26169735356E+02 -0.99280295833E+01  0.31886038544E+02  0.00000000000E+00 0. -1.
         11    1    3    3    0    0 -0.25075650303E+01  0.87830253522E+01  0.17065755860E+02  0.19356379828E+02  0.51100000000E-03 0. -1.
        -11    1    3    3    0    0 -0.84576666287E+01  0.71432173395E+01 -0.30462939741E+01  0.11482054955E+02  0.51100000000E-03 0.  1.
        -12    1    3    3    0    0  0.26239348132E+02  0.10243492665E+02 -0.40914323022E+01  0.28463526672E+02  0.00000000000E+00 0.  1.
</event>
<event>
 7    1  0.7012292E-013  0.5930194E+02  0.7816164E-02  0.1266605E+00
        -11   -1    0    0    0    0  0.00000000000E+00  0.00000000000E+00  0.45593999997E+02  0.45594000000E+02  0.51100000000E-03 0. -1.
         11   -1    0    0    0    0 -0.00000000000E+00 -0.00000000000E+00 -0.45593999997E+02  0.45594000000E+02  0.51100000000E-03 0.  1.
    9900012    2    1    2    0    0 -0.24337733397E+02 -0.19434009675E+02 -0.68348449812E+01  0.59301935570E+02  0.49999984574E+02 0.  0.
         12    1    1    2    0    0  0.24337733397E+02  0.19434009675E+02  0.68348449812E+01  0.31886064430E+02  0.00000000000E+00 0. -1.
         11    1    3    3    0    0 -0.17414075762E+02  0.59372209106E+01 -0.44273800083E+01  0.18923591646E+02  0.51100000000E-03 0. -1.
        -11    1    3    3    0    0 -0.23063529179E+01 -0.27059290098E+01 -0.14042824335E+02  0.14485932181E+02  0.51100000000E-03 0.  1.
         12    1    3    3    0    0 -0.46173047164E+01 -0.22665301576E+02  0.11635359362E+02  0.25892411743E+02  0.00000000000E+00 0. -1.
</event>
<event>
 7    1  0.7012292E-013  0.5930195E+02  0.7816164E-02  0.1266605E+00
        -11   -1    0    0    0    0  0.00000000000E+00  0.00000000000E+00  0.45593999997E+02  0.45594000000E+02  0.51100000000E-03 0. -1.
         11   -1    0    0    0    0 -0.00000000000E+00 -0.00000000000E+00 -0.45593999997E+02  0.45594000000E+02  0.51100000000E-03 0.  1.
    9900012    2    1    2    0    0  0.14048333311E+02  0.14891060743E+01 -0.28585787606E+02  0.59301947269E+02  0.50000005911E+02 0.  0.
         12    1    1    2    0    0 -0.14048333311E+02 -0.14891060743E+01  0.28585787606E+02  0.31886052731E+02  0.00000000000E+00 0. -1.
         11    1    3    3    0    0 -0.10678848310E+00 -0.24236614129E+01 -0.15528399700E+02  0.15716766077E+02  0.51100000000E-03 0. -1.
        -11    1    3    3    0    0 -0.56489604948E+00 -0.10351806881E+02 -0.19512018743E+02  0.22095200586E+02  0.51100000000E-03 0.  1.
         12    1    3    3    0    0  0.14720017843E+02  0.14264574368E+02  0.64546308365E+01  0.21489980606E+02  0.00000000000E+00 0. -1.
</event>
<event>
 7    1  0.7012292E-013  0.5930202E+02  0.7816164E-02  0.1266604E+00
        -11   -1    0    0    0    0  0.00000000000E+00  0.00000000000E+00  0.45593999997E+02  0.45594000000E+02  0.51100000000E-03 0.  1.
         11   -1    0    0    0    0 -0.00000000000E+00 -0.00000000000E+00 -0.45593999997E+02  0.45594000000E+02  0.51100000000E-03 0. -1.
    9900012    2    1    2    0    0 -0.97494257532E+01 -0.19014539296E+02  0.23666674800E+02  0.59302023408E+02  0.50000144770E+02 0.  0.
         12    1    1    2    0    0  0.97494257532E+01  0.19014539296E+02 -0.23666674800E+02  0.31885976592E+02  0.00000000000E+00 0. -1.
         11    1    3    3    0    0 -0.34504390976E+01 -0.11332299896E+01  0.17961620350E+02  0.18325106986E+02  0.51100000000E-03 0. -1.
        -11    1    3    3    0    0  0.50166374420E+01 -0.51563454661E+00  0.16748612509E+02  0.17491385064E+02  0.51100000000E-03 0.  1.
         12    1    3    3    0    0 -0.11315624098E+02 -0.17365674760E+02 -0.11043558059E+02  0.23485531358E+02  0.00000000000E+00 0. -1.
</event>
<event>
 7    1  0.7012292E-013  0.5930193E+02  0.7816164E-02  0.1266605E+00
        -11   -1    0    0    0    0  0.00000000000E+00  0.00000000000E+00  0.45593999997E+02  0.45594000000E+02  0.51100000000E-03 0. -1.
         11   -1    0    0    0    0 -0.00000000000E+00 -0.00000000000E+00 -0.45593999997E+02  0.45594000000E+02  0.51100000000E-03 0.  1.
    9900012    2    1    2    0    0 -0.18238613991E+02 -0.15869179670E+02  0.20790466679E+02  0.59301930809E+02  0.49999975892E+02 0.  0.
         12    1    1    2    0    0  0.18238613991E+02  0.15869179670E+02 -0.20790466679E+02  0.31886069191E+02  0.00000000000E+00 0. -1.
         11    1    3    3    0    0 -0.17593634698E+01  0.53421674440E+01  0.14542177860E+02  0.15591954656E+02  0.51100000000E-03 0. -1.
        -11    1    3    3    0    0  0.48455199539E+01  0.39679012518E+01  0.85902698975E+01  0.10630900298E+02  0.51100000000E-03 0.  1.
        -12    1    3    3    0    0 -0.21324770475E+02 -0.25179248366E+02 -0.23419810776E+01  0.33079075856E+02  0.00000000000E+00 0.  1.
</event>
<event>
 7    1  0.7012292E-013  0.5930197E+02  0.7816164E-02  0.1266605E+00
        -11   -1    0    0    0    0  0.00000000000E+00  0.00000000000E+00  0.45593999997E+02  0.45594000000E+02  0.51100000000E-03 0.  1.
         11   -1    0    0    0    0 -0.00000000000E+00 -0.00000000000E+00 -0.45593999997E+02  0.45594000000E+02  0.51100000000E-03 0. -1.
    9900012    2    1    2    0    0  0.30573453432E+02 -0.77559915815E+01  0.46719872910E+01  0.59301969745E+02  0.50000046902E+02 0.  0.
         12    1    1    2    0    0 -0.30573453432E+02  0.77559915815E+01 -0.46719872910E+01  0.31886030255E+02  0.00000000000E+00 0. -1.
         11    1    3    3    0    0 -0.32950765792E+00 -0.11288418004E+01 -0.23406506808E+01  0.26194474565E+01  0.51100000000E-03 0. -1.
        -11    1    3    3    0    0 -0.17601451748E+01 -0.87320391957E+01  0.19667312398E+02  0.21590502467E+02  0.51100000000E-03 0.  1.
        -12    1    3    3    0    0  0.32663106265E+02  0.21048894146E+01 -0.12654674426E+02  0.35092019821E+02  0.00000000000E+00 0.  1.
</event>
<event>
 7    1  0.7012292E-013  0.5930204E+02  0.7816164E-02  0.1266604E+00
        -11   -1    0    0    0    0  0.00000000000E+00  0.00000000000E+00  0.45593999997E+02  0.45594000000E+02  0.51100000000E-03 0.  1.
         11   -1    0    0    0    0 -0.00000000000E+00 -0.00000000000E+00 -0.45593999997E+02  0.45594000000E+02  0.51100000000E-03 0. -1.
    9900012    2    1    2    0    0 -0.62941610525E+01 -0.58284927555E+01  0.30710370856E+02  0.59302036485E+02  0.50000168620E+02 0.  0.
         12    1    1    2    0    0  0.62941610525E+01  0.58284927555E+01 -0.30710370856E+02  0.31885963515E+02  0.00000000000E+00 0. -1.
         11    1    3    3    0    0 -0.16737773847E+02  0.14298253275E+02  0.69354668312E+01  0.23080160755E+02  0.51100000000E-03 0.  1.
        -11    1    3    3    0    0  0.43018216671E+01 -0.38255813232E+01 -0.10930505171E+01  0.58596503146E+01  0.51100000000E-03 0. -1.
        -12    1    3    3    0    0  0.61417911271E+01 -0.16301164707E+02  0.24867954542E+02  0.30362225415E+02  0.00000000000E+00 0.  1.
</event>
<event>
 7    1  0.7012292E-013  0.5930200E+02  0.7816164E-02  0.1266605E+00
        -11   -1    0    0    0    0  0.00000000000E+00  0.00000000000E+00  0.45593999997E+02  0.45594000000E+02  0.51100000000E-03 0. -1.
         11   -1    0    0    0    0 -0.00000000000E+00 -0.00000000000E+00 -0.45593999997E+02  0.45594000000E+02  0.51100000000E-03 0.  1.
    9900012    2    1    2    0    0 -0.20364523958E+02 -0.22830457289E+02  0.89874085503E+01  0.59301997922E+02  0.50000098290E+02 0.  0.
         12    1    1    2    0    0  0.20364523958E+02  0.22830457289E+02 -0.89874085503E+01  0.31886002078E+02  0.00000000000E+00 0. -1.
         11    1    3    3    0    0  0.29617081631E+01  0.48850340090E+01 -0.70480939516E+01  0.90725355400E+01  0.51100000000E-03 0. -1.
        -11    1    3    3    0    0  0.31199733449E+01  0.40236624217E+01 -0.15602590256E+01  0.53252700819E+01  0.51100000000E-03 0.  1.
         12    1    3    3    0    0 -0.26446205466E+02 -0.31739153720E+02  0.17595761527E+02  0.44904192300E+02  0.00000000000E+00 0. -1.
</event>
<event>
 7    1  0.7012292E-013  0.5930195E+02  0.7816164E-02  0.1266605E+00
        -11   -1    0    0    0    0  0.00000000000E+00  0.00000000000E+00  0.45593999997E+02  0.45594000000E+02  0.51100000000E-03 0. -1.
         11   -1    0    0    0    0 -0.00000000000E+00 -0.00000000000E+00 -0.45593999997E+02  0.45594000000E+02  0.51100000000E-03 0.  1.
    9900012    2    1    2    0    0  0.49905306546E+01  0.25216522316E+02  0.18866417926E+02  0.59301951024E+02  0.50000012760E+02 0.  0.
         12    1    1    2    0    0 -0.49905306546E+01 -0.25216522316E+02 -0.18866417926E+02  0.31886048976E+02  0.00000000000E+00 0. -1.
         11    1    3    3    0    0 -0.34685127694E+00 -0.28314503863E+01  0.20376147477E+01  0.35056085377E+01  0.51100000000E-03 0.  1.
        -11    1    3    3    0    0 -0.92662842072E+01  0.32341624468E+01  0.24166860570E+02  0.26083730175E+02  0.51100000000E-03 0. -1.
         12    1    3    3    0    0  0.14603666139E+02  0.24813810256E+02 -0.73380573921E+01  0.29712612312E+02  0.00000000000E+00 0. -1.
</event>
<event>
 7    1  0.7012292E-013  0.5930196E+02  0.7816164E-02  0.1266605E+00
        -11   -1    0    0    0    0  0.00000000000E+00  0.00000000000E+00  0.45593999997E+02  0.45594000000E+02  0.51100000000E-03 0. -1.
         11   -1    0    0    0    0 -0.00000000000E+00 -0.00000000000E+00 -0.45593999997E+02  0.45594000000E+02  0.51100000000E-03 0.  1.
    9900012    2    1    2    0    0 -0.21023391515E+02 -0.20920308651E+02 -0.11707996596E+02  0.59301960905E+02  0.50000030780E+02 0.  0.
         12    1    1    2    0    0  0.21023391515E+02  0.20920308651E+02  0.11707996596E+02  0.31886039095E+02  0.00000000000E+00 0. -1.
         11    1    3    3    0    0  0.75726658393E+00 -0.25890503287E+01 -0.48370177874E+01  0.55383549562E+01  0.51100000000E-03 0. -1.
        -11    1    3    3    0    0  0.11652482609E+02  0.39401257541E+01 -0.57443674463E+01  0.13575813033E+02  0.51100000000E-03 0.  1.
         12    1    3    3    0    0 -0.33433140707E+02 -0.22271384077E+02 -0.11266113624E+01  0.40187792915E+02  0.00000000000E+00 0. -1.
</event>
<event>
 7    1  0.7012292E-013  0.5930194E+02  0.7816164E-02  0.1266605E+00
        -11   -1    0    0    0    0  0.00000000000E+00  0.00000000000E+00  0.45593999997E+02  0.45594000000E+02  0.51100000000E-03 0. -1.
         11   -1    0    0    0    0 -0.00000000000E+00 -0.00000000000E+00 -0.45593999997E+02  0.45594000000E+02  0.51100000000E-03 0.  1.
    9900012    2    1    2    0    0  0.21392078612E+02  0.23641592220E+02 -0.41854677339E+00  0.59301935780E+02  0.49999984959E+02 0.  0.
         12    1    1    2    0    0 -0.21392078612E+02 -0.23641592220E+02  0.41854677339E+00  0.31886064220E+02  0.00000000000E+00 0. -1.
         11    1    3    3    0    0 -0.35046051067E+01  0.82429586307E+01  0.12899540700E+02  0.15704355271E+02  0.51100000000E-03 0. -1.
        -11    1    3    3    0    0  0.23909055624E+02  0.52730206648E+01  0.26891894515E+01  0.24630863321E+02  0.51100000000E-03 0.  1.
        -12    1    3    3    0    0  0.98762809401E+00  0.10125612924E+02 -0.16007276925E+02  0.18966717188E+02  0.00000000000E+00 0.  1.
</event>
<event>
 7    1  0.7012292E-013  0.5930192E+02  0.7816164E-02  0.1266605E+00
        -11   -1    0    0    0    0  0.00000000000E+00  0.00000000000E+00  0.45593999997E+02  0.45594000000E+02  0.51100000000E-03 0.  1.
         11   -1    0    0    0    0 -0.00000000000E+00 -0.00000000000E+00 -0.45593999997E+02  0.45594000000E+02  0.51100000000E-03 0. -1.
    9900012    2    1    2    0    0  0.22759432922E+02  0.93087215792E+01  0.20299698416E+02  0.59301924040E+02  0.49999963546E+02 0.  0.
         12    1    1    2    0    0 -0.22759432922E+02 -0.93087215792E+01 -0.20299698416E+02  0.31886075960E+02  0.00000000000E+00 0. -1.
         11    1    3    3    0    0  0.13427240868E+00  0.20991630860E+02  0.10177421881E+02  0.23329091531E+02  0.51100000000E-03 0. -1.
        -11    1    3    3    0    0  0.11833008730E+02 -0.58001019081E+01 -0.69795022435E+01  0.14912234225E+02  0.51100000000E-03 0.  1.
        -12    1    3    3    0    0  0.10792151783E+02 -0.58828073726E+01  0.17101778778E+02  0.21060598284E+02  0.00000000000E+00 0.  1.
</event>
<event>
 7    1  0.7012292E-013  0.5930193E+02  0.7816164E-02  0.1266605E+00
        -11   -1    0    0    0    0  0.00000000000E+00  0.00000000000E+00  0.45593999997E+02  0.45594000000E+02  0.51100000000E-03 0.  1.
         11   -1    0    0    0    0 -0.00000000000E+00 -0.00000000000E+00 -0.45593999997E+02  0.45594000000E+02  0.51100000000E-03 0. -1.
    9900012    2    1    2    0    0 -0.21709494582E+02  0.58154138342E+01 -0.22618576728E+02  0.59301933979E+02  0.49999981674E+02 0.  0.
         12    1    1    2    0    0  0.21709494582E+02 -0.58154138342E+01  0.22618576728E+02  0.31886066021E+02  0.00000000000E+00 0. -1.
         11    1    3    3    0    0 -0.23997673789E+01 -0.27402430463E+01  0.29653614051E+01  0.46969334623E+01  0.51100000000E-03 0. -1.
        -11    1    3    3    0    0 -0.23106590312E+02 -0.12595392660E+02 -0.17700753924E+02  0.31715534394E+02  0.51100000000E-03 0.  1.
         12    1    3    3    0    0  0.37968631090E+01  0.21151049541E+02 -0.78831842089E+01  0.22889466123E+02  0.00000000000E+00 0. -1.
</event>
<event>
 7    1  0.7012292E-013  0.5930194E+02  0.7816164E-02  0.1266605E+00
        -11   -1    0    0    0    0  0.00000000000E+00  0.00000000000E+00  0.45593999997E+02  0.45594000000E+02  0.51100000000E-03 0. -1.
         11   -1    0    0    0    0 -0.00000000000E+00 -0.00000000000E+00 -0.45593999997E+02  0.45594000000E+02  0.51100000000E-03 0.  1.
    9900012    2    1    2    0    0  0.56273523086E+01  0.20316303985E+02 -0.23922826089E+02  0.59301938630E+02  0.49999990155E+02 0.  0.
         12    1    1    2    0    0 -0.56273523086E+01 -0.20316303985E+02  0.23922826089E+02  0.31886061370E+02  0.00000000000E+00 0. -1.
         11    1    3    3    0    0  0.13845669804E+02  0.50582339637E+01 -0.89550578306E+00  0.14767878453E+02  0.51100000000E-03 0. -1.
        -11    1    3    3    0    0 -0.43000787879E+01 -0.89989927388E+01  0.11777091274E+01  0.10042885389E+02  0.51100000000E-03 0.  1.
        -12    1    3    3    0    0 -0.39182387072E+01  0.24257062760E+02 -0.24205029434E+02  0.34491174787E+02  0.00000000000E+00 0.  1.
</event>
<event>
 7    1  0.7012292E-013  0.5930194E+02  0.7816164E-02  0.1266605E+00
        -11   -1    0    0    0    0  0.00000000000E+00  0.00000000000E+00  0.45593999997E+02  0.45594000000E+02  0.51100000000E-03 0.  1.
         11   -1    0    0    0    0 -0.00000000000E+00 -0.00000000000E+00 -0.45593999997E+02  0.45594000000E+02  0.51100000000E-03 0. -1.
    9900012    2    1    2    0    0 -0.52050458325E+00 -0.19324380932E+02  0.25357805638E+02  0.59301938308E+02  0.49999989569E+02 0.  0.
         12    1    1    2    0    0  0.52050458325E+00  0.19324380932E+02 -0.25357805638E+02  0.31886061692E+02  0.00000000000E+00 0. -1.
         11    1    3    3    0    0 -0.40360483794E+00 -0.14201667156E+01 -0.11245032224E+02  0.11341539594E+02  0.51100000000E-03 0. -1.
        -11    1    3    3    0    0  0.64141721085E+00  0.44083806977E+01 -0.67786795620E+00  0.45060782995E+01  0.51100000000E-03 0.  1.
        -12    1    3    3    0    0 -0.75831695616E+00 -0.22312594914E+02  0.37280705819E+02  0.43454320415E+02  0.00000000000E+00 0.  1.
</event>
<event>
 7    1  0.7012292E-013  0.5930192E+02  0.7816164E-02  0.1266605E+00
        -11   -1    0    0    0    0  0.00000000000E+00  0.00000000000E+00  0.45593999997E+02  0.45594000000E+02  0.51100000000E-03 0.  1.
         11   -1    0    0    0    0 -0.00000000000E+00 -0.00000000000E+00 -0.45593999997E+02  0.45594000000E+02  0.51100000000E-03 0. -1.
    9900012    2    1    2    0    0 -0.20196739461E+02 -0.24238577573E+02  0.46157295038E+01  0.59301923313E+02  0.49999962222E+02 0.  0.
         12    1    1    2    0    0  0.20196739461E+02  0.24238577573E+02 -0.46157295038E+01  0.31886076687E+02  0.00000000000E+00 0. -1.
         11    1    3    3    0    0  0.13662472911E+02 -0.96713903635E+01  0.15092258031E+01  0.16807043773E+02  0.51100000000E-03 0. -1.
        -11    1    3    3    0    0 -0.73169787795E+01 -0.65939236570E+01  0.98949190376E+01  0.13961641403E+02  0.51100000000E-03 0.  1.
         12    1    3    3    0    0 -0.26542233593E+02 -0.79732635528E+01 -0.67884153370E+01  0.28533238136E+02  0.00000000000E+00 0. -1.
</event>
<event>
 7    1  0.7012292E-013  0.5930195E+02  0.7816164E-02  0.1266605E+00
        -11   -1    0    0    0    0  0.00000000000E+00  0.00000000000E+00  0.45593999997E+02  0.45594000000E+02  0.51100000000E-03 0.  1.
         11   -1    0    0    0    0 -0.00000000000E+00 -0.00000000000E+00 -0.45593999997E+02  0.45594000000E+02  0.51100000000E-03 0. -1.
    9900012    2    1    2    0    0  0.95806358377E+01  0.28420974956E+02 -0.10824950868E+02  0.59301953494E+02  0.50000017264E+02 0.  0.
         12    1    1    2    0    0 -0.95806358377E+01 -0.28420974956E+02  0.10824950868E+02  0.31886046506E+02  0.00000000000E+00 0. -1.
         11    1    3    3    0    0 -0.43724839726E+01  0.13219122634E+02  0.22665750436E+01  0.14106777874E+02  0.51100000000E-03 0.  1.
        -11    1    3    3    0    0 -0.10898634538E+02  0.13337746853E+02 -0.10419880321E+02  0.20130813000E+02  0.51100000000E-03 0. -1.
         12    1    3    3    0    0  0.24851754348E+02  0.18641054697E+01 -0.26716455907E+01  0.25064362620E+02  0.00000000000E+00 0. -1.
</event>
<event>
 7    1  0.7012292E-013  0.5930196E+02  0.7816164E-02  0.1266605E+00
        -11   -1    0    0    0    0  0.00000000000E+00  0.00000000000E+00  0.45593999997E+02  0.45594000000E+02  0.51100000000E-03 0.  1.
         11   -1    0    0    0    0 -0.00000000000E+00 -0.00000000000E+00 -0.45593999997E+02  0.45594000000E+02  0.51100000000E-03 0. -1.
    9900012    2    1    2    0    0  0.44958395141E+01 -0.20081622878E+02  0.24356421209E+02  0.59301962233E+02  0.50000033203E+02 0.  0.
         12    1    1    2    0    0 -0.44958395141E+01  0.20081622878E+02 -0.24356421209E+02  0.31886037767E+02  0.00000000000E+00 0. -1.
         11    1    3    3    0    0  0.14141191802E+02 -0.16185183190E+01  0.10231480564E+02  0.17529292682E+02  0.51100000000E-03 0. -1.
        -11    1    3    3    0    0 -0.75955912200E+00 -0.17638046362E+02 -0.68823496808E+01  0.18948465555E+02  0.51100000000E-03 0.  1.
        -12    1    3    3    0    0 -0.88857931661E+01 -0.82505819760E+00  0.21007290326E+02  0.22824203996E+02  0.00000000000E+00 0.  1.
</event>
<event>
 7    1  0.7012292E-013  0.5930194E+02  0.7816164E-02  0.1266605E+00
        -11   -1    0    0    0    0  0.00000000000E+00  0.00000000000E+00  0.45593999997E+02  0.45594000000E+02  0.51100000000E-03 0.  1.
         11   -1    0    0    0    0 -0.00000000000E+00 -0.00000000000E+00 -0.45593999997E+02  0.45594000000E+02  0.51100000000E-03 0. -1.
    9900012    2    1    2    0    0 -0.82613901687E+00 -0.14594587521E+02  0.28337897209E+02  0.59301938644E+02  0.49999990182E+02 0.  0.
         12    1    1    2    0    0  0.82613901687E+00  0.14594587521E+02 -0.28337897209E+02  0.31886061356E+02  0.00000000000E+00 0. -1.
         11    1    3    3    0    0  0.62011795849E+01  0.50869615110E+01  0.11398772302E+00  0.80215209979E+01  0.51100000000E-03 0. -1.
        -11    1    3    3    0    0 -0.18574099864E+02 -0.21368121938E+02  0.10784283140E+02  0.30296775142E+02  0.51100000000E-03 0.  1.
         12    1    3    3    0    0  0.11546781262E+02  0.16865729060E+01  0.17439626345E+02  0.20983642504E+02  0.00000000000E+00 0. -1.
</event>
<event>
 7    1  0.7012292E-013  0.5930193E+02  0.7816164E-02  0.1266605E+00
        -11   -1    0    0    0    0  0.00000000000E+00  0.00000000000E+00  0.45593999997E+02  0.45594000000E+02  0.51100000000E-03 0.  1.
         11   -1    0    0    0    0 -0.00000000000E+00 -0.00000000000E+00 -0.45593999997E+02  0.45594000000E+02  0.51100000000E-03 0. -1.
    9900012    2    1    2    0    0  0.24395942808E+02  0.52899857083E+01  0.19838737920E+02  0.59301929428E+02  0.49999973373E+02 0.  0.
         12    1    1    2    0    0 -0.24395942808E+02 -0.52899857083E+01 -0.19838737920E+02  0.31886070572E+02  0.00000000000E+00 0. -1.
         11    1    3    3    0    0  0.27063618233E+02  0.62622047682E+01 -0.81017251241E+01  0.28936008547E+02  0.51100000000E-03 0. -1.
        -11    1    3    3    0    0  0.13792208469E+01 -0.40548810570E+01  0.38984226943E+01  0.57915464512E+01  0.51100000000E-03 0.  1.
        -12    1    3    3    0    0 -0.40468962713E+01  0.30826619971E+01  0.24042040349E+02  0.24574374429E+02  0.00000000000E+00 0.  1.
</event>
<event>
 7    1  0.7012292E-013  0.5930193E+02  0.7816164E-02  0.1266605E+00
        -11   -1    0    0    0    0  0.00000000000E+00  0.00000000000E+00  0.45593999997E+02  0.45594000000E+02  0.51100000000E-03 0. -1.
         11   -1    0    0    0    0 -0.00000000000E+00 -0.00000000000E+00 -0.45593999997E+02  0.45594000000E+02  0.51100000000E-03 0.  1.
    9900012    2    1    2    0    0  0.16955557237E+02  0.20116308272E+02  0.18015673829E+02  0.59301932773E+02  0.49999979473E+02 0.  0.
         12    1    1    2    0    0 -0.16955557237E+02 -0.20116308272E+02 -0.18015673829E+02  0.31886067227E+02  0.00000000000E+00 0. -1.
         11    1    3    3    0    0  0.28900290766E+01 -0.66543544863E+01  0.51339162741E+01  0.88876205063E+01  0.51100000000E-03 0. -1.
        -11    1    3    3    0    0  0.25803272412E+02  0.10479676333E+02  0.29287482876E+01  0.28003750642E+02  0.51100000000E-03 0.  1.
         12    1    3    3    0    0 -0.11737744252E+02  0.16290986425E+02  0.99530092676E+01  0.22410561624E+02  0.00000000000E+00 0. -1.
</event>
<event>
 7    1  0.7012292E-013  0.5930195E+02  0.7816164E-02  0.1266605E+00
        -11   -1    0    0    0    0  0.00000000000E+00  0.00000000000E+00  0.45593999997E+02  0.45594000000E+02  0.51100000000E-03 0.  1.
         11   -1    0    0    0    0 -0.00000000000E+00 -0.00000000000E+00 -0.45593999997E+02  0.45594000000E+02  0.51100000000E-03 0. -1.
    9900012    2    1    2    0    0 -0.31297290719E+02 -0.35162751130E+01  0.49835123882E+01  0.59301953009E+02  0.50000016379E+02 0.  0.
         12    1    1    2    0    0  0.31297290719E+02  0.35162751130E+01 -0.49835123882E+01  0.31886046991E+02  0.00000000000E+00 0. -1.
         11    1    3    3    0    0  0.20638883975E+01  0.11873763914E+01 -0.80061476024E+01  0.83527179830E+01  0.51100000000E-03 0. -1.
        -11    1    3    3    0    0  0.78064022445E+00  0.50691181401E+00  0.16233440116E+02  0.16260102614E+02  0.51100000000E-03 0.  1.
        -12    1    3    3    0    0 -0.34141819341E+02 -0.52105633185E+01 -0.32437801256E+01  0.34689132412E+02  0.00000000000E+00 0.  1.
</event>
<event>
 7    1  0.7012292E-013  0.5930191E+02  0.7816164E-02  0.1266605E+00
        -11   -1    0    0    0    0  0.00000000000E+00  0.00000000000E+00  0.45593999997E+02  0.45594000000E+02  0.51100000000E-03 0.  1.
         11   -1    0    0    0    0 -0.00000000000E+00 -0.00000000000E+00 -0.45593999997E+02  0.45594000000E+02  0.51100000000E-03 0. -1.
    9900012    2    1    2    0    0 -0.23448016986E+02  0.21524196615E+02  0.19031427816E+01  0.59301913803E+02  0.49999944878E+02 0.  0.
         12    1    1    2    0    0  0.23448016986E+02 -0.21524196615E+02 -0.19031427816E+01  0.31886086197E+02  0.00000000000E+00 0. -1.
         11    1    3    3    0    0 -0.15068178905E+01  0.12062404336E+02  0.11221900856E+02  0.16543976475E+02  0.51100000000E-03 0. -1.
        -11    1    3    3    0    0 -0.82495683031E+01  0.76525069988E+01  0.12573595354E+02  0.16873397433E+02  0.51100000000E-03 0.  1.
         12    1    3    3    0    0 -0.13691630792E+02  0.18092852805E+01 -0.21892353428E+02  0.25884539895E+02  0.00000000000E+00 0. -1.
</event>
<event>
 7    1  0.7012292E-013  0.5930195E+02  0.7816164E-02  0.1266605E+00
        -11   -1    0    0    0    0  0.00000000000E+00  0.00000000000E+00  0.45593999997E+02  0.45594000000E+02  0.51100000000E-03 0.  1.
         11   -1    0    0    0    0 -0.00000000000E+00 -0.00000000000E+00 -0.45593999997E+02  0.45594000000E+02  0.51100000000E-03 0. -1.
    9900012    2    1    2    0    0 -0.15155156152E+02 -0.52680255939E+01  0.27555203304E+02  0.59301951628E+02  0.50000013861E+02 0.  0.
         12    1    1    2    0    0  0.15155156152E+02  0.52680255939E+01 -0.27555203304E+02  0.31886048372E+02  0.00000000000E+00 0. -1.
         11    1    3    3    0    0 -0.26655376094E+01 -0.60251420122E+01  0.45625652405E+01  0.80140145276E+01  0.51100000000E-03 0.  1.
        -11    1    3    3    0    0 -0.14107171939E+02 -0.20291097385E+02  0.11610260613E+02  0.27304561615E+02  0.51100000000E-03 0. -1.
         12    1    3    3    0    0  0.16175533961E+01  0.21048213803E+02  0.11382377450E+02  0.23983375486E+02  0.00000000000E+00 0. -1.
</event>
<event>
 7    1  0.7012292E-013  0.5930190E+02  0.7816164E-02  0.1266605E+00
        -11   -1    0    0    0    0  0.00000000000E+00  0.00000000000E+00  0.45593999997E+02  0.45594000000E+02  0.51100000000E-03 0.  1.
         11   -1    0    0    0    0 -0.00000000000E+00 -0.00000000000E+00 -0.45593999997E+02  0.45594000000E+02  0.51100000000E-03 0. -1.
    9900012    2    1    2    0    0  0.21103206598E+02 -0.59228984758E+01  0.23158094644E+02  0.59301899538E+02  0.49999918862E+02 0.  0.
         12    1    1    2    0    0 -0.21103206598E+02  0.59228984758E+01 -0.23158094644E+02  0.31886100462E+02  0.00000000000E+00 0. -1.
         11    1    3    3    0    0  0.36809993266E+01  0.53929935668E+01  0.70311346033E+01  0.95953629282E+01  0.51100000000E-03 0. -1.
        -11    1    3    3    0    0  0.62523363165E+01 -0.10478387263E+02  0.29699726897E+02  0.32108598335E+02  0.51100000000E-03 0.  1.
         12    1    3    3    0    0  0.11169870955E+02 -0.83750477938E+00 -0.13572766856E+02  0.17597938275E+02  0.00000000000E+00 0. -1.
</event>
<event>
 7    1  0.7012292E-013  0.5930194E+02  0.7816164E-02  0.1266605E+00
        -11   -1    0    0    0    0  0.00000000000E+00  0.00000000000E+00  0.45593999997E+02  0.45594000000E+02  0.51100000000E-03 0.  1.
         11   -1    0    0    0    0 -0.00000000000E+00 -0.00000000000E+00 -0.45593999997E+02  0.45594000000E+02  0.51100000000E-03 0. -1.
    9900012    2    1    2    0    0  0.27352780671E+02 -0.10091283382E+02  0.12911707810E+02  0.59301940204E+02  0.49999993026E+02 0.  0.
         12    1    1    2    0    0 -0.27352780671E+02  0.10091283382E+02 -0.12911707810E+02  0.31886059796E+02  0.00000000000E+00 0. -1.
         11    1    3    3    0    0 -0.17993340252E+01  0.18584996555E+01 -0.16092152813E+01  0.30465058651E+01  0.51100000000E-03 0. -1.
        -11    1    3    3    0    0 -0.73722997598E+01  0.85871060203E+01  0.79744805031E+01  0.13844910007E+02  0.51100000000E-03 0.  1.
         12    1    3    3    0    0  0.36524414456E+02 -0.20536889058E+02  0.65464425886E+01  0.42410524332E+02  0.00000000000E+00 0. -1.
</event>
<event>
 7    1  0.7012292E-013  0.5930207E+02  0.7816164E-02  0.1266604E+00
        -11   -1    0    0    0    0  0.00000000000E+00  0.00000000000E+00  0.45593999997E+02  0.45594000000E+02  0.51100000000E-03 0. -1.
         11   -1    0    0    0    0 -0.00000000000E+00 -0.00000000000E+00 -0.45593999997E+02  0.45594000000E+02  0.51100000000E-03 0.  1.
    9900012    2    1    2    0    0  0.66369984780E+01  0.19642798153E+02 -0.24224436884E+02  0.59302068770E+02  0.50000227500E+02 0.  0.
         12    1    1    2    0    0 -0.66369984780E+01 -0.19642798153E+02  0.24224436884E+02  0.31885931230E+02  0.00000000000E+00 0. -1.
         11    1    3    3    0    0  0.42593620704E+01 -0.72455280546E+01 -0.20403186793E+02  0.22066487568E+02  0.51100000000E-03 0. -1.
        -11    1    3    3    0    0  0.11794757552E+02  0.60491643693E+01 -0.53994459467E+01  0.14313025958E+02  0.51100000000E-03 0.  1.
         12    1    3    3    0    0 -0.94171211442E+01  0.20839161838E+02  0.15781958559E+01  0.22922555244E+02  0.00000000000E+00 0. -1.
</event>
<event>
 7    1  0.7012292E-013  0.5930195E+02  0.7816164E-02  0.1266605E+00
        -11   -1    0    0    0    0  0.00000000000E+00  0.00000000000E+00  0.45593999997E+02  0.45594000000E+02  0.51100000000E-03 0.  1.
         11   -1    0    0    0    0 -0.00000000000E+00 -0.00000000000E+00 -0.45593999997E+02  0.45594000000E+02  0.51100000000E-03 0. -1.
    9900012    2    1    2    0    0  0.15324148535E+02  0.24391449919E+02  0.13672896743E+02  0.59301945637E+02  0.50000002935E+02 0.  0.
         12    1    1    2    0    0 -0.15324148535E+02 -0.24391449919E+02 -0.13672896743E+02  0.31886054363E+02  0.00000000000E+00 0. -1.
         11    1    3    3    0    0 -0.62700100528E+01  0.15869995144E+02 -0.99916471239E+01  0.19773790341E+02  0.51100000000E-03 0. -1.
        -11    1    3    3    0    0 -0.31082082563E+01 -0.25603967060E+01  0.83320329315E+00  0.41122764797E+01  0.51100000000E-03 0.  1.
         12    1    3    3    0    0  0.24702366844E+02  0.11081851481E+02  0.22831340574E+02  0.35415878816E+02  0.00000000000E+00 0. -1.
</event>
<event>
 7    1  0.7012292E-013  0.5930194E+02  0.7816164E-02  0.1266605E+00
        -11   -1    0    0    0    0  0.00000000000E+00  0.00000000000E+00  0.45593999997E+02  0.45594000000E+02  0.51100000000E-03 0.  1.
         11   -1    0    0    0    0 -0.00000000000E+00 -0.00000000000E+00 -0.45593999997E+02  0.45594000000E+02  0.51100000000E-03 0. -1.
    9900012    2    1    2    0    0 -0.12529202013E+02  0.11913077806E+02  0.26792130860E+02  0.59301943456E+02  0.49999998957E+02 0.  0.
         12    1    1    2    0    0  0.12529202013E+02 -0.11913077806E+02 -0.26792130860E+02  0.31886056544E+02  0.00000000000E+00 0. -1.
         11    1    3    3    0    0 -0.57024446699E+01  0.16503955576E+02  0.50958586778E+01  0.18189727893E+02  0.51100000000E-03 0. -1.
        -11    1    3    3    0    0 -0.13683206234E+02 -0.86455458141E+01  0.27044328733E+02  0.31517793580E+02  0.51100000000E-03 0.  1.
         12    1    3    3    0    0  0.68564488904E+01  0.40546680441E+01 -0.53480565505E+01  0.95944219838E+01  0.00000000000E+00 0. -1.
</event>
<event>
 7    1  0.7012292E-013  0.5930194E+02  0.7816164E-02  0.1266605E+00
        -11   -1    0    0    0    0  0.00000000000E+00  0.00000000000E+00  0.45593999997E+02  0.45594000000E+02  0.51100000000E-03 0.  1.
         11   -1    0    0    0    0 -0.00000000000E+00 -0.00000000000E+00 -0.45593999997E+02  0.45594000000E+02  0.51100000000E-03 0. -1.
    9900012    2    1    2    0    0  0.21335231927E+01 -0.30568293265E+02  0.88175190120E+01  0.59301935397E+02  0.49999984259E+02 0.  0.
         12    1    1    2    0    0 -0.21335231927E+01  0.30568293265E+02 -0.88175190120E+01  0.31886064603E+02  0.00000000000E+00 0. -1.
         11    1    3    3    0    0 -0.12864918533E+02 -0.71689523774E+01  0.92381774997E+01  0.17385164101E+02  0.51100000000E-03 0. -1.
        -11    1    3    3    0    0  0.26109338719E+01 -0.26408326179E+01  0.13513635404E+02  0.14014610758E+02  0.51100000000E-03 0.  1.
         12    1    3    3    0    0  0.12387507853E+02 -0.20758508270E+02 -0.13934293892E+02  0.27902160538E+02  0.00000000000E+00 0. -1.
</event>
<event>
 7    1  0.7012292E-013  0.5930193E+02  0.7816164E-02  0.1266605E+00
        -11   -1    0    0    0    0  0.00000000000E+00  0.00000000000E+00  0.45593999997E+02  0.45594000000E+02  0.51100000000E-03 0.  1.
         11   -1    0    0    0    0 -0.00000000000E+00 -0.00000000000E+00 -0.45593999997E+02  0.45594000000E+02  0.51100000000E-03 0. -1.
    9900012    2    1    2    0    0 -0.17020926670E+02 -0.19079051165E+02  0.19052538917E+02  0.59301931299E+02  0.49999976786E+02 0.  0.
         12    1    1    2    0    0  0.17020926670E+02  0.19079051165E+02 -0.19052538917E+02  0.31886068701E+02  0.00000000000E+00 0. -1.
         11    1    3    3    0    0  0.93731847522E+01  0.22682878372E+01  0.10452342789E+02  0.14221574883E+02  0.51100000000E-03 0. -1.
        -11    1    3    3    0    0  0.44173556590E+01  0.19377381722E+01 -0.16922788123E+01  0.51119143265E+01  0.51100000000E-03 0.  1.
        -12    1    3    3    0    0 -0.30811467081E+02 -0.23285077174E+02  0.10292474940E+02  0.39968442090E+02  0.00000000000E+00 0.  1.
</event>
<event>
 7    1  0.7012292E-013  0.5930195E+02  0.7816164E-02  0.1266605E+00
        -11   -1    0    0    0    0  0.00000000000E+00  0.00000000000E+00  0.45593999997E+02  0.45594000000E+02  0.51100000000E-03 0.  1.
         11   -1    0    0    0    0 -0.00000000000E+00 -0.00000000000E+00 -0.45593999997E+02  0.45594000000E+02  0.51100000000E-03 0. -1.
    9900012    2    1    2    0    0 -0.13281946920E+02 -0.42199085667E+01  0.28679308762E+02  0.59301945158E+02  0.50000002062E+02 0.  0.
         12    1    1    2    0    0  0.13281946920E+02  0.42199085667E+01 -0.28679308762E+02  0.31886054842E+02  0.00000000000E+00 0. -1.
         11    1    3    3    0    0 -0.55293970910E+01 -0.14774147168E+02 -0.45699709013E+01  0.16423589468E+02  0.51100000000E-03 0. -1.
        -11    1    3    3    0    0 -0.12125339554E+02 -0.28182045675E+01  0.19968216599E+02  0.23530741822E+02  0.51100000000E-03 0.  1.
         12    1    3    3    0    0  0.43727897246E+01  0.13372443169E+02  0.13281063064E+02  0.19347613868E+02  0.00000000000E+00 0. -1.
</event>
<event>
 7    1  0.7012292E-013  0.5930195E+02  0.7816164E-02  0.1266605E+00
        -11   -1    0    0    0    0  0.00000000000E+00  0.00000000000E+00  0.45593999997E+02  0.45594000000E+02  0.51100000000E-03 0. -1.
         11   -1    0    0    0    0 -0.00000000000E+00 -0.00000000000E+00 -0.45593999997E+02  0.45594000000E+02  0.51100000000E-03 0.  1.
    9900012    2    1    2    0    0  0.23806496477E+02 -0.35765005554E+01 -0.20908835682E+02  0.59301952262E+02  0.50000015018E+02 0.  0.
         12    1    1    2    0    0 -0.23806496477E+02  0.35765005554E+01  0.20908835682E+02  0.31886047738E+02  0.00000000000E+00 0. -1.
         11    1    3    3    0    0  0.87398938921E+01  0.14846944024E+02  0.77861608502E+00  0.17245977368E+02  0.51100000000E-03 0. -1.
        -11    1    3    3    0    0 -0.25092111855E+01  0.51642396676E+01 -0.73653664332E+01  0.93388508433E+01  0.51100000000E-03 0.  1.
        -12    1    3    3    0    0  0.17575813770E+02 -0.23587684247E+02 -0.14322085334E+02  0.32717124051E+02  0.00000000000E+00 0.  1.
</event>
<event>
 7    1  0.7012292E-013  0.5930194E+02  0.7816164E-02  0.1266605E+00
        -11   -1    0    0    0    0  0.00000000000E+00  0.00000000000E+00  0.45593999997E+02  0.45594000000E+02  0.51100000000E-03 0. -1.
         11   -1    0    0    0    0 -0.00000000000E+00 -0.00000000000E+00 -0.45593999997E+02  0.45594000000E+02  0.51100000000E-03 0.  1.
    9900012    2    1    2    0    0 -0.91867645918E+01  0.16046331304E+02 -0.25977671892E+02  0.59301939897E+02  0.49999992466E+02 0.  0.
         12    1    1    2    0    0  0.91867645918E+01 -0.16046331304E+02  0.25977671892E+02  0.31886060103E+02  0.00000000000E+00 0. -1.
         11    1    3    3    0    0 -0.98708327004E+00  0.19281080850E+02  0.28462172822E+01  0.19515003592E+02  0.51100000000E-03 0. -1.
        -11    1    3    3    0    0  0.18448408670E+01 -0.48166075411E+01  0.32791965134E+01  0.61119780811E+01  0.51100000000E-03 0.  1.
        -12    1    3    3    0    0 -0.10044522189E+02  0.15818579954E+01 -0.32103085687E+02  0.33674958223E+02  0.00000000000E+00 0.  1.
</event>
<event>
 7    1  0.7012292E-013  0.5930192E+02  0.7816164E-02  0.1266605E+00
        -11   -1    0    0    0    0  0.00000000000E+00  0.00000000000E+00  0.45593999997E+02  0.45594000000E+02  0.51100000000E-03 0.  1.
         11   -1    0    0    0    0 -0.00000000000E+00 -0.00000000000E+00 -0.45593999997E+02  0.45594000000E+02  0.51100000000E-03 0. -1.
    9900012    2    1    2    0    0  0.19093581568E+02 -0.22344305638E+02  0.12364830242E+02  0.59301923439E+02  0.49999962451E+02 0.  0.
         12    1    1    2    0    0 -0.19093581568E+02  0.22344305638E+02 -0.12364830242E+02  0.31886076561E+02  0.00000000000E+00 0. -1.
         11    1    3    3    0    0 -0.89129156382E+01 -0.36432225615E+00  0.22833271172E+01  0.92079519365E+01  0.51100000000E-03 0. -1.
        -11    1    3    3    0    0  0.91112401321E+00 -0.21881453302E+02  0.58664689212E+01  0.22672529710E+02  0.51100000000E-03 0.  1.
         12    1    3    3    0    0  0.27095373193E+02 -0.98530079909E-01  0.42150342037E+01  0.27421441793E+02  0.00000000000E+00 0. -1.
</event>
<event>
 7    1  0.7012292E-013  0.5930191E+02  0.7816164E-02  0.1266605E+00
        -11   -1    0    0    0    0  0.00000000000E+00  0.00000000000E+00  0.45593999997E+02  0.45594000000E+02  0.51100000000E-03 0.  1.
         11   -1    0    0    0    0 -0.00000000000E+00 -0.00000000000E+00 -0.45593999997E+02  0.45594000000E+02  0.51100000000E-03 0. -1.
    9900012    2    1    2    0    0  0.26962660176E+02 -0.13985524780E+02 -0.97027195247E+01  0.59301910348E+02  0.49999938576E+02 0.  0.
         12    1    1    2    0    0 -0.26962660176E+02  0.13985524780E+02  0.97027195247E+01  0.31886089652E+02  0.00000000000E+00 0. -1.
         11    1    3    3    0    0  0.15211052645E+02 -0.17781175093E+02 -0.19403948939E+02  0.30398347734E+02  0.51100000000E-03 0. -1.
        -11    1    3    3    0    0  0.58317329348E+01 -0.80938742443E+01 -0.31105242026E+01  0.10449654080E+02  0.51100000000E-03 0.  1.
        -12    1    3    3    0    0  0.59198745963E+01  0.11889524558E+02  0.12811753617E+02  0.18453908534E+02  0.00000000000E+00 0.  1.
</event>
<event>
 7    1  0.7012292E-013  0.5930193E+02  0.7816164E-02  0.1266605E+00
        -11   -1    0    0    0    0  0.00000000000E+00  0.00000000000E+00  0.45593999997E+02  0.45594000000E+02  0.51100000000E-03 0.  1.
         11   -1    0    0    0    0 -0.00000000000E+00 -0.00000000000E+00 -0.45593999997E+02  0.45594000000E+02  0.51100000000E-03 0. -1.
    9900012    2    1    2    0    0  0.16391230335E+02 -0.10136955846E+02  0.25402582731E+02  0.59301929136E+02  0.49999972841E+02 0.  0.
         12    1    1    2    0    0 -0.16391230335E+02  0.10136955846E+02 -0.25402582731E+02  0.31886070864E+02  0.00000000000E+00 0. -1.
         11    1    3    3    0    0  0.17159084158E+02 -0.54212659393E+01 -0.73970317797E+01  0.19456114025E+02  0.51100000000E-03 0. -1.
        -11    1    3    3    0    0  0.65872514898E+01 -0.10223547810E+02  0.11899871298E+02  0.17015279874E+02  0.51100000000E-03 0.  1.
        -12    1    3    3    0    0 -0.73551053128E+01  0.55078579030E+01  0.20899743213E+02  0.22830535237E+02  0.00000000000E+00 0.  1.
</event>
<event>
 7    1  0.7012292E-013  0.5930186E+02  0.7816164E-02  0.1266605E+00
        -11   -1    0    0    0    0  0.00000000000E+00  0.00000000000E+00  0.45593999997E+02  0.45594000000E+02  0.51100000000E-03 0.  1.
         11   -1    0    0    0    0 -0.00000000000E+00 -0.00000000000E+00 -0.45593999997E+02  0.45594000000E+02  0.51100000000E-03 0. -1.
    9900012    2    1    2    0    0  0.30854062037E+02 -0.62860790821E+00 -0.80223161393E+01  0.59301861189E+02  0.49999848921E+02 0.  0.
         12    1    1    2    0    0 -0.30854062037E+02  0.62860790821E+00  0.80223161393E+01  0.31886138811E+02  0.00000000000E+00 0. -1.
         11    1    3    3    0    0  0.72378534498E+01 -0.11562020011E+02 -0.19919935263E+02  0.24142714231E+02  0.51100000000E-03 0. -1.
        -11    1    3    3    0    0  0.11287710335E+01  0.12832032158E+01  0.10511256621E+02  0.10649284039E+02  0.51100000000E-03 0.  1.
        -12    1    3    3    0    0  0.22487437553E+02  0.96502088870E+01  0.13863625034E+01  0.24509862918E+02  0.00000000000E+00 0.  1.
</event>
<event>
 7    1  0.7012292E-013  0.5930218E+02  0.7816164E-02  0.1266604E+00
        -11   -1    0    0    0    0  0.00000000000E+00  0.00000000000E+00  0.45593999997E+02  0.45594000000E+02  0.51100000000E-03 0. -1.
         11   -1    0    0    0    0 -0.00000000000E+00 -0.00000000000E+00 -0.45593999997E+02  0.45594000000E+02  0.51100000000E-03 0.  1.
    9900012    2    1    2    0    0  0.14424769570E+02 -0.25168920271E+02 -0.13234692486E+02  0.59302178543E+02  0.50000427698E+02 0.  0.
         12    1    1    2    0    0 -0.14424769570E+02  0.25168920271E+02  0.13234692486E+02  0.31885821457E+02  0.00000000000E+00 0. -1.
         11    1    3    3    0    0 -0.55357363694E+01 -0.49690117835E+01 -0.29055783910E+01  0.79861030111E+01  0.51100000000E-03 0. -1.
        -11    1    3    3    0    0 -0.70099580278E+01  0.77437500607E+01  0.18647629791E+01  0.10610490930E+02  0.51100000000E-03 0.  1.
         12    1    3    3    0    0  0.26970463967E+02 -0.27943658549E+02 -0.12193877075E+02  0.40705584602E+02  0.00000000000E+00 0. -1.
</event>
<event>
 7    1  0.7012292E-013  0.5930197E+02  0.7816164E-02  0.1266605E+00
        -11   -1    0    0    0    0  0.00000000000E+00  0.00000000000E+00  0.45593999997E+02  0.45594000000E+02  0.51100000000E-03 0. -1.
         11   -1    0    0    0    0 -0.00000000000E+00 -0.00000000000E+00 -0.45593999997E+02  0.45594000000E+02  0.51100000000E-03 0.  1.
    9900012    2    1    2    0    0  0.29357124505E+02  0.23454688591E+01 -0.12221978815E+02  0.59301972504E+02  0.50000051933E+02 0.  0.
         12    1    1    2    0    0 -0.29357124505E+02 -0.23454688591E+01  0.12221978815E+02  0.31886027496E+02  0.00000000000E+00 0. -1.
         11    1    3    3    0    0  0.12898700795E+02 -0.13080512078E+02 -0.80296162194E+01  0.20048716052E+02  0.51100000000E-03 0.  1.
        -11    1    3    3    0    0  0.86722797060E+01 -0.95265272463E+01 -0.10351333221E+01  0.12924188869E+02  0.51100000000E-03 0. -1.
        -12    1    3    3    0    0  0.77861440036E+01  0.24952508183E+02 -0.31572292737E+01  0.26329067583E+02  0.00000000000E+00 0.  1.
</event>
<event>
 7    1  0.7012292E-013  0.5930192E+02  0.7816164E-02  0.1266605E+00
        -11   -1    0    0    0    0  0.00000000000E+00  0.00000000000E+00  0.45593999997E+02  0.45594000000E+02  0.51100000000E-03 0. -1.
         11   -1    0    0    0    0 -0.00000000000E+00 -0.00000000000E+00 -0.45593999997E+02  0.45594000000E+02  0.51100000000E-03 0.  1.
    9900012    2    1    2    0    0  0.19051001081E+02  0.98014194537E+01 -0.23615959299E+02  0.59301921547E+02  0.49999959001E+02 0.  0.
         12    1    1    2    0    0 -0.19051001081E+02 -0.98014194537E+01  0.23615959299E+02  0.31886078453E+02  0.00000000000E+00 0. -1.
         11    1    3    3    0    0 -0.56551497875E+00  0.20383382046E+01  0.62474339698E+01  0.65958366638E+01  0.51100000000E-03 0. -1.
        -11    1    3    3    0    0 -0.77847011459E+01  0.84625932953E+01  0.86252631730E+00  0.11530872002E+02  0.51100000000E-03 0.  1.
        -12    1    3    3    0    0  0.27401217205E+02 -0.69951204614E+00 -0.30725919586E+02  0.41175212882E+02  0.00000000000E+00 0.  1.
</event>
<event>
 7    1  0.7012292E-013  0.5930192E+02  0.7816164E-02  0.1266605E+00
        -11   -1    0    0    0    0  0.00000000000E+00  0.00000000000E+00  0.45593999997E+02  0.45594000000E+02  0.51100000000E-03 0.  1.
         11   -1    0    0    0    0 -0.00000000000E+00 -0.00000000000E+00 -0.45593999997E+02  0.45594000000E+02  0.51100000000E-03 0. -1.
    9900012    2    1    2    0    0  0.11733362617E+02  0.15125403271E+01  0.29610178705E+02  0.59301917464E+02  0.49999951555E+02 0.  0.
         12    1    1    2    0    0 -0.11733362617E+02 -0.15125403271E+01 -0.29610178705E+02  0.31886082536E+02  0.00000000000E+00 0. -1.
         11    1    3    3    0    0  0.13607837739E+02  0.81005242936E+01  0.48314507435E+01  0.16557012361E+02  0.51100000000E-03 0. -1.
        -11    1    3    3    0    0  0.15100676680E+02  0.15511056121E+01  0.65259332400E+01  0.16523443035E+02  0.51100000000E-03 0.  1.
        -12    1    3    3    0    0 -0.16975151802E+02 -0.81390895786E+01  0.18252794721E+02  0.26221462068E+02  0.00000000000E+00 0.  1.
</event>
<event>
 7    1  0.7012292E-013  0.5930194E+02  0.7816164E-02  0.1266605E+00
        -11   -1    0    0    0    0  0.00000000000E+00  0.00000000000E+00  0.45593999997E+02  0.45594000000E+02  0.51100000000E-03 0.  1.
         11   -1    0    0    0    0 -0.00000000000E+00 -0.00000000000E+00 -0.45593999997E+02  0.45594000000E+02  0.51100000000E-03 0. -1.
    9900012    2    1    2    0    0  0.23022203423E+02 -0.21110676064E+02  0.64061370831E+01  0.59301935855E+02  0.49999985095E+02 0.  0.
         12    1    1    2    0    0 -0.23022203423E+02  0.21110676064E+02 -0.64061370831E+01  0.31886064145E+02  0.00000000000E+00 0. -1.
         11    1    3    3    0    0 -0.75195096703E+01 -0.31040809245E+01  0.31019093523E+01  0.87063302234E+01  0.51100000000E-03 0. -1.
        -11    1    3    3    0    0  0.89949998613E+01 -0.15883554956E+02  0.17026745077E+02  0.24962119075E+02  0.51100000000E-03 0.  1.
         12    1    3    3    0    0  0.21546713232E+02 -0.21230401831E+01 -0.13722517346E+02  0.25633486556E+02  0.00000000000E+00 0. -1.
</event>
<event>
 7    1  0.7012292E-013  0.5930192E+02  0.7816164E-02  0.1266605E+00
        -11   -1    0    0    0    0  0.00000000000E+00  0.00000000000E+00  0.45593999997E+02  0.45594000000E+02  0.51100000000E-03 0. -1.
         11   -1    0    0    0    0 -0.00000000000E+00 -0.00000000000E+00 -0.45593999997E+02  0.45594000000E+02  0.51100000000E-03 0.  1.
    9900012    2    1    2    0    0 -0.91253530208E+01  0.30012839016E+02 -0.57165994288E+01  0.59301920238E+02  0.49999956613E+02 0.  0.
         12    1    1    2    0    0  0.91253530208E+01 -0.30012839016E+02  0.57165994288E+01  0.31886079762E+02  0.00000000000E+00 0. -1.
         11    1    3    3    0    0 -0.43087625997E+01  0.21680864125E+02  0.13605585267E+02  0.25956449200E+02  0.51100000000E-03 0.  1.
        -11    1    3    3    0    0  0.47058917280E+00  0.45051506138E+01  0.58171340831E+01  0.73727122163E+01  0.51100000000E-03 0. -1.
        -12    1    3    3    0    0 -0.52871795939E+01  0.38268242770E+01 -0.25139318779E+02  0.25972758821E+02  0.00000000000E+00 0.  1.
</event>
<event>
 7    1  0.7012292E-013  0.5930199E+02  0.7816164E-02  0.1266605E+00
        -11   -1    0    0    0    0  0.00000000000E+00  0.00000000000E+00  0.45593999997E+02  0.45594000000E+02  0.51100000000E-03 0.  1.
         11   -1    0    0    0    0 -0.00000000000E+00 -0.00000000000E+00 -0.45593999997E+02  0.45594000000E+02  0.51100000000E-03 0. -1.
    9900012    2    1    2    0    0 -0.15820725004E+01  0.17016098240E+02  0.26919646061E+02  0.59301985876E+02  0.50000076320E+02 0.  0.
         12    1    1    2    0    0  0.15820725004E+01 -0.17016098240E+02 -0.26919646061E+02  0.31886014124E+02  0.00000000000E+00 0. -1.
         11    1    3    3    0    0  0.21974068606E+02  0.94220565273E+01  0.13812365287E+02  0.27611886487E+02  0.51100000000E-03 0. -1.
        -11    1    3    3    0    0  0.14477339825E+01 -0.16037260313E+01  0.14956526100E+01  0.26277077194E+01  0.51100000000E-03 0.  1.
        -12    1    3    3    0    0 -0.25003875089E+02  0.91977677441E+01  0.11611628164E+02  0.29062391669E+02  0.00000000000E+00 0.  1.
</event>
<event>
 7    1  0.7012292E-013  0.5930194E+02  0.7816164E-02  0.1266605E+00
        -11   -1    0    0    0    0  0.00000000000E+00  0.00000000000E+00  0.45593999997E+02  0.45594000000E+02  0.51100000000E-03 0. -1.
         11   -1    0    0    0    0 -0.00000000000E+00 -0.00000000000E+00 -0.45593999997E+02  0.45594000000E+02  0.51100000000E-03 0.  1.
    9900012    2    1    2    0    0 -0.26497056400E+02 -0.10480984604E+02 -0.14309980899E+02  0.59301943652E+02  0.49999999315E+02 0.  0.
         12    1    1    2    0    0  0.26497056400E+02  0.10480984604E+02  0.14309980899E+02  0.31886056348E+02  0.00000000000E+00 0. -1.
         11    1    3    3    0    0 -0.13241398445E+02 -0.16176419030E+02 -0.16569242877E+02  0.26674912843E+02  0.51100000000E-03 0. -1.
        -11    1    3    3    0    0 -0.11402715463E+02  0.58068557511E+01 -0.12419034015E+02  0.17831822671E+02  0.51100000000E-03 0.  1.
        -12    1    3    3    0    0 -0.18529424915E+01 -0.11142132524E+00  0.14678295993E+02  0.14795208138E+02  0.00000000000E+00 0.  1.
</event>
<event>
 7    1  0.7012292E-013  0.5930192E+02  0.7816164E-02  0.1266605E+00
        -11   -1    0    0    0    0  0.00000000000E+00  0.00000000000E+00  0.45593999997E+02  0.45594000000E+02  0.51100000000E-03 0. -1.
         11   -1    0    0    0    0 -0.00000000000E+00 -0.00000000000E+00 -0.45593999997E+02  0.45594000000E+02  0.51100000000E-03 0.  1.
    9900012    2    1    2    0    0 -0.53711624656E+01  0.15924970673E+02 -0.27097380551E+02  0.59301919810E+02  0.49999955833E+02 0.  0.
         12    1    1    2    0    0  0.53711624656E+01 -0.15924970673E+02  0.27097380551E+02  0.31886080190E+02  0.00000000000E+00 0. -1.
         11    1    3    3    0    0 -0.38921503974E+00  0.19057043044E+02 -0.28816003601E+02  0.34549738664E+02  0.51100000000E-03 0. -1.
        -11    1    3    3    0    0  0.47938572883E+01  0.49532302294E+01 -0.66310359545E+01  0.95648416347E+01  0.51100000000E-03 0.  1.
         12    1    3    3    0    0 -0.97758047142E+01 -0.80853026011E+01  0.83496590045E+01  0.15187339512E+02  0.00000000000E+00 0. -1.
</event>
<event>
 7    1  0.7012292E-013  0.5930193E+02  0.7816164E-02  0.1266605E+00
        -11   -1    0    0    0    0  0.00000000000E+00  0.00000000000E+00  0.45593999997E+02  0.45594000000E+02  0.51100000000E-03 0.  1.
         11   -1    0    0    0    0 -0.00000000000E+00 -0.00000000000E+00 -0.45593999997E+02  0.45594000000E+02  0.51100000000E-03 0. -1.
    9900012    2    1    2    0    0  0.19107614330E+02 -0.24725716651E+02  0.63450288615E+01  0.59301931247E+02  0.49999976690E+02 0.  0.
         12    1    1    2    0    0 -0.19107614330E+02  0.24725716651E+02 -0.63450288615E+01  0.31886068753E+02  0.00000000000E+00 0. -1.
         11    1    3    3    0    0  0.35491848677E+01 -0.42507054769E+01 -0.10251190721E+02  0.11651271250E+02  0.51100000000E-03 0. -1.
        -11    1    3    3    0    0  0.65488034288E+01 -0.28087091113E+02  0.20355546525E+01  0.28912194599E+02  0.51100000000E-03 0.  1.
         12    1    3    3    0    0  0.90096260335E+01  0.76120799386E+01  0.14560664930E+02  0.18738465398E+02  0.00000000000E+00 0. -1.
</event>
<event>
 7    1  0.7012292E-013  0.5930191E+02  0.7816164E-02  0.1266605E+00
        -11   -1    0    0    0    0  0.00000000000E+00  0.00000000000E+00  0.45593999997E+02  0.45594000000E+02  0.51100000000E-03 0. -1.
         11   -1    0    0    0    0 -0.00000000000E+00 -0.00000000000E+00 -0.45593999997E+02  0.45594000000E+02  0.51100000000E-03 0.  1.
    9900012    2    1    2    0    0  0.17734037816E+02  0.14229736859E+02 -0.22354899513E+02  0.59301905216E+02  0.49999929216E+02 0.  0.
         12    1    1    2    0    0 -0.17734037816E+02 -0.14229736859E+02  0.22354899513E+02  0.31886094784E+02  0.00000000000E+00 0. -1.
         11    1    3    3    0    0  0.87955212178E+01  0.26298369907E+02 -0.19024743750E+02  0.33628950746E+02  0.51100000000E-03 0. -1.
        -11    1    3    3    0    0 -0.55640363057E+01 -0.52649467841E+01  0.32937700222E+01  0.83382903446E+01  0.51100000000E-03 0.  1.
        -12    1    3    3    0    0  0.14502552904E+02 -0.68036862643E+01 -0.66239257856E+01  0.17334664125E+02  0.00000000000E+00 0.  1.
</event>
<event>
 7    1  0.7012292E-013  0.5930193E+02  0.7816164E-02  0.1266605E+00
        -11   -1    0    0    0    0  0.00000000000E+00  0.00000000000E+00  0.45593999997E+02  0.45594000000E+02  0.51100000000E-03 0.  1.
         11   -1    0    0    0    0 -0.00000000000E+00 -0.00000000000E+00 -0.45593999997E+02  0.45594000000E+02  0.51100000000E-03 0. -1.
    9900012    2    1    2    0    0 -0.63515332044E+01  0.14595678495E+02  0.27628705116E+02  0.59301934843E+02  0.49999983250E+02 0.  0.
         12    1    1    2    0    0  0.63515332044E+01 -0.14595678495E+02 -0.27628705116E+02  0.31886065157E+02  0.00000000000E+00 0. -1.
         11    1    3    3    0    0  0.68161485403E+01  0.17451319274E+02  0.76162354621E+01  0.20224130839E+02  0.51100000000E-03 0. -1.
        -11    1    3    3    0    0 -0.63016969045E+01 -0.12423213473E+02 -0.20393108149E+01  0.14078579677E+02  0.51100000000E-03 0.  1.
         12    1    3    3    0    0 -0.68659848402E+01  0.95675726936E+01  0.22051780469E+02  0.24999224327E+02  0.00000000000E+00 0. -1.
</event>
<event>
 7    1  0.7012292E-013  0.5930193E+02  0.7816164E-02  0.1266605E+00
        -11   -1    0    0    0    0  0.00000000000E+00  0.00000000000E+00  0.45593999997E+02  0.45594000000E+02  0.51100000000E-03 0.  1.
         11   -1    0    0    0    0 -0.00000000000E+00 -0.00000000000E+00 -0.45593999997E+02  0.45594000000E+02  0.51100000000E-03 0. -1.
    9900012    2    1    2    0    0  0.14575955214E+02 -0.17092801028E+02  0.22629602034E+02  0.59301933990E+02  0.49999981694E+02 0.  0.
         12    1    1    2    0    0 -0.14575955214E+02  0.17092801028E+02 -0.22629602034E+02  0.31886066010E+02  0.00000000000E+00 0. -1.
         11    1    3    3    0    0 -0.10065272123E+02  0.11124236975E+02  0.23342571471E+01  0.15182460535E+02  0.51100000000E-03 0. -1.
        -11    1    3    3    0    0  0.81079414565E+01 -0.25095822470E+01  0.30105600277E+01  0.90055643720E+01  0.51100000000E-03 0.  1.
        -12    1    3    3    0    0  0.16533285881E+02 -0.25707455756E+02  0.17284784859E+02  0.35113909083E+02  0.00000000000E+00 0.  1.
</event>
<event>
 7    1  0.7012292E-013  0.5930197E+02  0.7816164E-02  0.1266605E+00
        -11   -1    0    0    0    0  0.00000000000E+00  0.00000000000E+00  0.45593999997E+02  0.45594000000E+02  0.51100000000E-03 0.  1.
         11   -1    0    0    0    0 -0.00000000000E+00 -0.00000000000E+00 -0.45593999997E+02  0.45594000000E+02  0.51100000000E-03 0. -1.
    9900012    2    1    2    0    0 -0.28155938545E+02 -0.10923220708E+02  0.10229636612E+02  0.59301967145E+02  0.50000042161E+02 0.  0.
         12    1    1    2    0    0  0.28155938545E+02  0.10923220708E+02 -0.10229636612E+02  0.31886032855E+02  0.00000000000E+00 0. -1.
         11    1    3    3    0    0 -0.53957403928E+01 -0.57102977740E+01  0.52977620953E+01  0.94756423810E+01  0.51100000000E-03 0. -1.
        -11    1    3    3    0    0 -0.23850642542E+02 -0.21720713358E+02  0.74069954332E+01  0.33098430779E+02  0.51100000000E-03 0.  1.
         12    1    3    3    0    0  0.10904443896E+01  0.16507790424E+02 -0.24751209165E+01  0.16727893985E+02  0.00000000000E+00 0. -1.
</event>
<event>
 7    1  0.7012292E-013  0.5930184E+02  0.7816164E-02  0.1266605E+00
        -11   -1    0    0    0    0  0.00000000000E+00  0.00000000000E+00  0.45593999997E+02  0.45594000000E+02  0.51100000000E-03 0. -1.
         11   -1    0    0    0    0 -0.00000000000E+00 -0.00000000000E+00 -0.45593999997E+02  0.45594000000E+02  0.51100000000E-03 0.  1.
    9900012    2    1    2    0    0 -0.14920805939E+02  0.21010110534E+02  0.18779567630E+02  0.59301837564E+02  0.49999805835E+02 0.  0.
         12    1    1    2    0    0  0.14920805939E+02 -0.21010110534E+02 -0.18779567630E+02  0.31886162436E+02  0.00000000000E+00 0. -1.
         11    1    3    3    0    0 -0.17109994872E+01 -0.29012326341E+01  0.74580064630E+00  0.34497665004E+01  0.51100000000E-03 0. -1.
        -11    1    3    3    0    0  0.31931187505E+01 -0.70503089585E+01 -0.87997273051E+01  0.11719132420E+02  0.51100000000E-03 0.  1.
         12    1    3    3    0    0 -0.16402925202E+02  0.30961652127E+02  0.26833494289E+02  0.44132938644E+02  0.00000000000E+00 0. -1.
</event>
<event>
 7    1  0.7012292E-013  0.5930195E+02  0.7816164E-02  0.1266605E+00
        -11   -1    0    0    0    0  0.00000000000E+00  0.00000000000E+00  0.45593999997E+02  0.45594000000E+02  0.51100000000E-03 0.  1.
         11   -1    0    0    0    0 -0.00000000000E+00 -0.00000000000E+00 -0.45593999997E+02  0.45594000000E+02  0.51100000000E-03 0. -1.
    9900012    2    1    2    0    0 -0.16165109514E+02 -0.24822586045E+02 -0.11800369045E+02  0.59301948924E+02  0.50000008930E+02 0.  0.
         12    1    1    2    0    0  0.16165109514E+02  0.24822586045E+02  0.11800369045E+02  0.31886051076E+02  0.00000000000E+00 0. -1.
         11    1    3    3    0    0 -0.99781327971E+01 -0.22990059925E+02  0.12138834326E+02  0.27847033748E+02  0.51100000000E-03 0.  1.
        -11    1    3    3    0    0 -0.10050166975E+02 -0.53967825086E+01 -0.62628732117E+01  0.13013635110E+02  0.51100000000E-03 0. -1.
        -12    1    3    3    0    0  0.38631902573E+01  0.35642563885E+01 -0.17676330160E+02  0.18441280066E+02  0.00000000000E+00 0.  1.
</event>
<event>
 7    1  0.7012292E-013  0.5930190E+02  0.7816164E-02  0.1266605E+00
        -11   -1    0    0    0    0  0.00000000000E+00  0.00000000000E+00  0.45593999997E+02  0.45594000000E+02  0.51100000000E-03 0.  1.
         11   -1    0    0    0    0 -0.00000000000E+00 -0.00000000000E+00 -0.45593999997E+02  0.45594000000E+02  0.51100000000E-03 0. -1.
    9900012    2    1    2    0    0 -0.26897100399E+02  0.11268046382E+02  0.12895750450E+02  0.59301901794E+02  0.49999922976E+02 0.  0.
         12    1    1    2    0    0  0.26897100399E+02 -0.11268046382E+02 -0.12895750450E+02  0.31886098206E+02  0.00000000000E+00 0. -1.
         11    1    3    3    0    0 -0.11433054703E+01  0.43885942417E+01  0.84819701087E+01  0.96182495291E+01  0.51100000000E-03 0.  1.
        -11    1    3    3    0    0  0.87874365050E+01  0.59067353357E+01 -0.76727362721E+01  0.13075910860E+02  0.51100000000E-03 0. -1.
         12    1    3    3    0    0 -0.34541231434E+02  0.97271680489E+00  0.12086516613E+02  0.36607741405E+02  0.00000000000E+00 0. -1.
</event>
<event>
 7    1  0.7012292E-013  0.5930193E+02  0.7816164E-02  0.1266605E+00
        -11   -1    0    0    0    0  0.00000000000E+00  0.00000000000E+00  0.45593999997E+02  0.45594000000E+02  0.51100000000E-03 0.  1.
         11   -1    0    0    0    0 -0.00000000000E+00 -0.00000000000E+00 -0.45593999997E+02  0.45594000000E+02  0.51100000000E-03 0. -1.
    9900012    2    1    2    0    0 -0.22969279869E+02  0.15291697462E+02  0.15978030365E+02  0.59301932771E+02  0.49999979471E+02 0.  0.
         12    1    1    2    0    0  0.22969279869E+02 -0.15291697462E+02 -0.15978030365E+02  0.31886067229E+02  0.00000000000E+00 0. -1.
         11    1    3    3    0    0 -0.20918343840E+01  0.54767267751E+01 -0.79140626427E+01  0.98489946204E+01  0.51100000000E-03 0. -1.
        -11    1    3    3    0    0 -0.27317553684E+02 -0.16565572187E+01  0.73885713593E+01  0.28347555593E+02  0.51100000000E-03 0.  1.
         12    1    3    3    0    0  0.64401081992E+01  0.11471527906E+02  0.16503521649E+02  0.21105382558E+02  0.00000000000E+00 0. -1.
</event>
<event>
 7    1  0.7012292E-013  0.5930191E+02  0.7816164E-02  0.1266605E+00
        -11   -1    0    0    0    0  0.00000000000E+00  0.00000000000E+00  0.45593999997E+02  0.45594000000E+02  0.51100000000E-03 0.  1.
         11   -1    0    0    0    0 -0.00000000000E+00 -0.00000000000E+00 -0.45593999997E+02  0.45594000000E+02  0.51100000000E-03 0. -1.
    9900012    2    1    2    0    0  0.21990558628E+02 -0.23082360362E+02  0.58552592521E+00  0.59301907902E+02  0.49999934116E+02 0.  0.
         12    1    1    2    0    0 -0.21990558628E+02  0.23082360362E+02 -0.58552592521E+00  0.31886092098E+02  0.00000000000E+00 0. -1.
         11    1    3    3    0    0 -0.17288237398E+01 -0.21780609239E+00  0.35803074801E+01  0.39818177922E+01  0.51100000000E-03 0. -1.
        -11    1    3    3    0    0  0.85293447035E+01 -0.12701210660E+02  0.20483685697E+02  0.25566615992E+02  0.51100000000E-03 0.  1.
        -12    1    3    3    0    0  0.15190037664E+02 -0.10163343610E+02 -0.23478467252E+02  0.29753474118E+02  0.00000000000E+00 0.  1.
</event>
<event>
 7    1  0.7012292E-013  0.5930194E+02  0.7816164E-02  0.1266605E+00
        -11   -1    0    0    0    0  0.00000000000E+00  0.00000000000E+00  0.45593999997E+02  0.45594000000E+02  0.51100000000E-03 0.  1.
         11   -1    0    0    0    0 -0.00000000000E+00 -0.00000000000E+00 -0.45593999997E+02  0.45594000000E+02  0.51100000000E-03 0. -1.
    9900012    2    1    2    0    0 -0.11484814918E+01  0.21086362082E+02  0.23890727507E+02  0.59301944484E+02  0.50000000831E+02 0.  0.
         12    1    1    2    0    0  0.11484814918E+01 -0.21086362082E+02 -0.23890727507E+02  0.31886055516E+02  0.00000000000E+00 0. -1.
         11    1    3    3    0    0  0.12012128032E+02 -0.80470712758E+01  0.65343003914E+01  0.15866431793E+02  0.51100000000E-03 0. -1.
        -11    1    3    3    0    0 -0.60564772747E+01  0.46331007305E+00  0.11953475378E+02  0.13408249218E+02  0.51100000000E-03 0.  1.
        -12    1    3    3    0    0 -0.71041322494E+01  0.28670123285E+02  0.54029517370E+01  0.30027263473E+02  0.00000000000E+00 0.  1.
</event>
<event>
 7    1  0.7012292E-013  0.5930192E+02  0.7816164E-02  0.1266605E+00
        -11   -1    0    0    0    0  0.00000000000E+00  0.00000000000E+00  0.45593999997E+02  0.45594000000E+02  0.51100000000E-03 0.  1.
         11   -1    0    0    0    0 -0.00000000000E+00 -0.00000000000E+00 -0.45593999997E+02  0.45594000000E+02  0.51100000000E-03 0. -1.
    9900012    2    1    2    0    0 -0.36417164031E+01 -0.17082726805E+01  0.31631344993E+02  0.59301917143E+02  0.49999950968E+02 0.  0.
         12    1    1    2    0    0  0.36417164031E+01  0.17082726805E+01 -0.31631344993E+02  0.31886082857E+02  0.00000000000E+00 0. -1.
         11    1    3    3    0    0 -0.19089178102E+02  0.44399792072E+01  0.24992041174E+02  0.31760230765E+02  0.51100000000E-03 0. -1.
        -11    1    3    3    0    0 -0.21623596564E+01  0.53002862454E+01  0.13297070867E+01  0.58768150187E+01  0.51100000000E-03 0.  1.
        -12    1    3    3    0    0  0.17609821355E+02 -0.11448538133E+02  0.53095967327E+01  0.21664871359E+02  0.00000000000E+00 0.  1.
</event>
<event>
 7    1  0.7012292E-013  0.5930195E+02  0.7816164E-02  0.1266605E+00
        -11   -1    0    0    0    0  0.00000000000E+00  0.00000000000E+00  0.45593999997E+02  0.45594000000E+02  0.51100000000E-03 0. -1.
         11   -1    0    0    0    0 -0.00000000000E+00 -0.00000000000E+00 -0.45593999997E+02  0.45594000000E+02  0.51100000000E-03 0.  1.
    9900012    2    1    2    0    0  0.37705626607E+01 -0.31517911766E+02  0.30205979402E+01  0.59301954199E+02  0.50000018550E+02 0.  0.
         12    1    1    2    0    0 -0.37705626607E+01  0.31517911766E+02 -0.30205979402E+01  0.31886045801E+02  0.00000000000E+00 0. -1.
         11    1    3    3    0    0  0.80783194573E+00 -0.26118263473E+01 -0.13166876919E+02  0.13447709002E+02  0.51100000000E-03 0. -1.
        -11    1    3    3    0    0 -0.14514028319E+01 -0.85986946920E+01 -0.94454896487E+01  0.12855403360E+02  0.51100000000E-03 0.  1.
         12    1    3    3    0    0  0.44141335469E+01 -0.20307390727E+02  0.25632964508E+02  0.32998841837E+02  0.00000000000E+00 0. -1.
</event>
<event>
 7    1  0.7012292E-013  0.5930192E+02  0.7816164E-02  0.1266605E+00
        -11   -1    0    0    0    0  0.00000000000E+00  0.00000000000E+00  0.45593999997E+02  0.45594000000E+02  0.51100000000E-03 0. -1.
         11   -1    0    0    0    0 -0.00000000000E+00 -0.00000000000E+00 -0.45593999997E+02  0.45594000000E+02  0.51100000000E-03 0.  1.
    9900012    2    1    2    0    0  0.20919489866E+02  0.97172331950E+01 -0.22015281210E+02  0.59301917080E+02  0.49999950854E+02 0.  0.
         12    1    1    2    0    0 -0.20919489866E+02 -0.97172331950E+01  0.22015281210E+02  0.31886082920E+02  0.00000000000E+00 0. -1.
         11    1    3    3    0    0  0.11136326609E+02 -0.90331150734E+01 -0.32309477689E+01  0.14698774168E+02  0.51100000000E-03 0. -1.
        -11    1    3    3    0    0 -0.81168308595E+01  0.11138580708E+01  0.53312455038E+01  0.97747532903E+01  0.51100000000E-03 0.  1.
        -12    1    3    3    0    0  0.17899994116E+02  0.17636490198E+02 -0.24115578945E+02  0.34828389622E+02  0.00000000000E+00 0.  1.
</event>
<event>
 7    1  0.7012292E-013  0.5930197E+02  0.7816164E-02  0.1266605E+00
        -11   -1    0    0    0    0  0.00000000000E+00  0.00000000000E+00  0.45593999997E+02  0.45594000000E+02  0.51100000000E-03 0. -1.
         11   -1    0    0    0    0 -0.00000000000E+00 -0.00000000000E+00 -0.45593999997E+02  0.45594000000E+02  0.51100000000E-03 0.  1.
    9900012    2    1    2    0    0  0.31614502421E+02  0.38792410712E+01  0.14811560792E+01  0.59301967039E+02  0.50000041968E+02 0.  0.
         12    1    1    2    0    0 -0.31614502421E+02 -0.38792410712E+01 -0.14811560792E+01  0.31886032961E+02  0.00000000000E+00 0. -1.
         11    1    3    3    0    0  0.45609752706E+01 -0.30553571507E+01  0.11095382458E+02  0.12379225132E+02  0.51100000000E-03 0. -1.
        -11    1    3    3    0    0  0.42973539234E+01 -0.63456232687E+01  0.11043463509E+02  0.13442182559E+02  0.51100000000E-03 0.  1.
        -12    1    3    3    0    0  0.22756173227E+02  0.13280221491E+02 -0.20657689887E+02  0.33480559348E+02  0.00000000000E+00 0.  1.
</event>
<event>
 7    1  0.7012292E-013  0.5930173E+02  0.7816164E-02  0.1266606E+00
        -11   -1    0    0    0    0  0.00000000000E+00  0.00000000000E+00  0.45593999997E+02  0.45594000000E+02  0.51100000000E-03 0. -1.
         11   -1    0    0    0    0 -0.00000000000E+00 -0.00000000000E+00 -0.45593999997E+02  0.45594000000E+02  0.51100000000E-03 0.  1.
    9900012    2    1    2    0    0 -0.82527640618E+01 -0.30738860591E+02 -0.19361260747E+01  0.59301729455E+02  0.49999608669E+02 0.  0.
         12    1    1    2    0    0  0.82527640618E+01  0.30738860591E+02  0.19361260747E+01  0.31886270545E+02  0.00000000000E+00 0. -1.
         11    1    3    3    0    0 -0.20810134753E+01 -0.70307977297E+01 -0.38747697431E+01  0.82931643311E+01  0.51100000000E-03 0. -1.
        -11    1    3    3    0    0  0.15214169171E+02 -0.24934095540E+02  0.40288749164E+01  0.29485791448E+02  0.51100000000E-03 0.  1.
         12    1    3    3    0    0 -0.21385919758E+02  0.12260326790E+01 -0.20902312479E+01  0.21522773675E+02  0.00000000000E+00 0. -1.
</event>
<event>
 7    1  0.7012292E-013  0.5930195E+02  0.7816164E-02  0.1266605E+00
        -11   -1    0    0    0    0  0.00000000000E+00  0.00000000000E+00  0.45593999997E+02  0.45594000000E+02  0.51100000000E-03 0.  1.
         11   -1    0    0    0    0 -0.00000000000E+00 -0.00000000000E+00 -0.45593999997E+02  0.45594000000E+02  0.51100000000E-03 0. -1.
    9900012    2    1    2    0    0 -0.22187766577E+02  0.10678938234E+02  0.20257926229E+02  0.59301948463E+02  0.50000008089E+02 0.  0.
         12    1    1    2    0    0  0.22187766577E+02 -0.10678938234E+02 -0.20257926229E+02  0.31886051537E+02  0.00000000000E+00 0. -1.
         11    1    3    3    0    0 -0.79558846031E+01  0.73162836984E+01 -0.40829826520E+01  0.11553997342E+02  0.51100000000E-03 0. -1.
        -11    1    3    3    0    0 -0.46567759494E+01  0.10729545372E+02 -0.73624019589E+01  0.13820769479E+02  0.51100000000E-03 0.  1.
        -12    1    3    3    0    0 -0.95751060249E+01 -0.73668908365E+01  0.31703310840E+02  0.33927181642E+02  0.00000000000E+00 0.  1.
</event>
<event>
 7    1  0.7012292E-013  0.5930194E+02  0.7816164E-02  0.1266605E+00
        -11   -1    0    0    0    0  0.00000000000E+00  0.00000000000E+00  0.45593999997E+02  0.45594000000E+02  0.51100000000E-03 0.  1.
         11   -1    0    0    0    0 -0.00000000000E+00 -0.00000000000E+00 -0.45593999997E+02  0.45594000000E+02  0.51100000000E-03 0. -1.
    9900012    2    1    2    0    0 -0.28896744831E+02  0.10649165341E+02  0.82640183102E+01  0.59301943754E+02  0.49999999501E+02 0.  0.
         12    1    1    2    0    0  0.28896744831E+02 -0.10649165341E+02 -0.82640183102E+01  0.31886056246E+02  0.00000000000E+00 0. -1.
         11    1    3    3    0    0 -0.15246385632E+02  0.18241469690E+02 -0.81217087281E+00  0.23787877440E+02  0.51100000000E-03 0. -1.
        -11    1    3    3    0    0 -0.19061671429E+02 -0.15295982497E+02  0.38347889251E+01  0.24739038068E+02  0.51100000000E-03 0.  1.
         12    1    3    3    0    0  0.54113122294E+01  0.77036781473E+01  0.52414002579E+01  0.10775028246E+02  0.00000000000E+00 0. -1.
</event>
<event>
 7    1  0.7012292E-013  0.5930189E+02  0.7816164E-02  0.1266605E+00
        -11   -1    0    0    0    0  0.00000000000E+00  0.00000000000E+00  0.45593999997E+02  0.45594000000E+02  0.51100000000E-03 0.  1.
         11   -1    0    0    0    0 -0.00000000000E+00 -0.00000000000E+00 -0.45593999997E+02  0.45594000000E+02  0.51100000000E-03 0. -1.
    9900012    2    1    2    0    0 -0.30515209595E+01 -0.13904265473E+02  0.28532146714E+02  0.59301893706E+02  0.49999908225E+02 0.  0.
         12    1    1    2    0    0  0.30515209595E+01  0.13904265473E+02 -0.28532146714E+02  0.31886106294E+02  0.00000000000E+00 0. -1.
         11    1    3    3    0    0  0.68916733047E+01 -0.12322200972E+02  0.30141954312E+02  0.33284669260E+02  0.51100000000E-03 0.  1.
        -11    1    3    3    0    0  0.57231154102E+01 -0.68257764602E+00  0.62202472390E+01  0.84800612154E+01  0.51100000000E-03 0. -1.
        -12    1    3    3    0    0 -0.15666309674E+02 -0.89948685524E+00 -0.78300548377E+01  0.17537163231E+02  0.00000000000E+00 0.  1.
</event>
<event>
 7    1  0.7012292E-013  0.5930196E+02  0.7816164E-02  0.1266605E+00
        -11   -1    0    0    0    0  0.00000000000E+00  0.00000000000E+00  0.45593999997E+02  0.45594000000E+02  0.51100000000E-03 0. -1.
         11   -1    0    0    0    0 -0.00000000000E+00 -0.00000000000E+00 -0.45593999997E+02  0.45594000000E+02  0.51100000000E-03 0.  1.
    9900012    2    1    2    0    0  0.21640026695E+02 -0.55059830960E+01 -0.22762099874E+02  0.59301956096E+02  0.50000022009E+02 0.  0.
         12    1    1    2    0    0 -0.21640026695E+02  0.55059830960E+01  0.22762099874E+02  0.31886043904E+02  0.00000000000E+00 0. -1.
         11    1    3    3    0    0  0.61468122739E+01  0.66332726500E+01  0.11122043661E+01  0.91115644097E+01  0.51100000000E-03 0. -1.
        -11    1    3    3    0    0 -0.33711489996E+01  0.10839519298E+02 -0.15668592733E+02  0.19348504404E+02  0.51100000000E-03 0.  1.
         12    1    3    3    0    0  0.18864363420E+02 -0.22978775044E+02 -0.82057115071E+01  0.30841887282E+02  0.00000000000E+00 0. -1.
</event>
<event>
 7    1  0.7012292E-013  0.5930199E+02  0.7816164E-02  0.1266605E+00
        -11   -1    0    0    0    0  0.00000000000E+00  0.00000000000E+00  0.45593999997E+02  0.45594000000E+02  0.51100000000E-03 0. -1.
         11   -1    0    0    0    0 -0.00000000000E+00 -0.00000000000E+00 -0.45593999997E+02  0.45594000000E+02  0.51100000000E-03 0.  1.
    9900012    2    1    2    0    0 -0.49292793622E+01  0.20274321620E+02  0.24111649333E+02  0.59301991380E+02  0.50000086359E+02 0.  0.
         12    1    1    2    0    0  0.49292793622E+01 -0.20274321620E+02 -0.24111649333E+02  0.31886008620E+02  0.00000000000E+00 0. -1.
         11    1    3    3    0    0  0.99835997585E+01  0.10004881399E+02  0.21810266703E+02  0.25989568097E+02  0.51100000000E-03 0. -1.
        -11    1    3    3    0    0 -0.54023740001E+01  0.19070777966E+02  0.40682116584E+01  0.20234390611E+02  0.51100000000E-03 0.  1.
         12    1    3    3    0    0 -0.95105051206E+01 -0.88013377452E+01 -0.17668290284E+01  0.13078032672E+02  0.00000000000E+00 0. -1.
</event>
<event>
 7    1  0.7012292E-013  0.5930196E+02  0.7816164E-02  0.1266605E+00
        -11   -1    0    0    0    0  0.00000000000E+00  0.00000000000E+00  0.45593999997E+02  0.45594000000E+02  0.51100000000E-03 0.  1.
         11   -1    0    0    0    0 -0.00000000000E+00 -0.00000000000E+00 -0.45593999997E+02  0.45594000000E+02  0.51100000000E-03 0. -1.
    9900012    2    1    2    0    0 -0.17005669327E+02 -0.12395155432E+02  0.23955938220E+02  0.59301958486E+02  0.50000026368E+02 0.  0.
         12    1    1    2    0    0  0.17005669327E+02  0.12395155432E+02 -0.23955938220E+02  0.31886041514E+02  0.00000000000E+00 0. -1.
         11    1    3    3    0    0 -0.12792134159E+02  0.13615634248E+01 -0.69239799256E+01  0.14609382245E+02  0.51100000000E-03 0. -1.
        -11    1    3    3    0    0 -0.74385661416E+01  0.76351503154E+01  0.95464161338E+01  0.14309502012E+02  0.51100000000E-03 0.  1.
         12    1    3    3    0    0  0.32250309738E+01 -0.21391869172E+02  0.21333502012E+02  0.30383074228E+02  0.00000000000E+00 0. -1.
</event>
<event>
 7    1  0.7012292E-013  0.5930191E+02  0.7816164E-02  0.1266605E+00
        -11   -1    0    0    0    0  0.00000000000E+00  0.00000000000E+00  0.45593999997E+02  0.45594000000E+02  0.51100000000E-03 0.  1.
         11   -1    0    0    0    0 -0.00000000000E+00 -0.00000000000E+00 -0.45593999997E+02  0.45594000000E+02  0.51100000000E-03 0. -1.
    9900012    2    1    2    0    0 -0.36962943563E+01 -0.30981990238E+02  0.65708905033E+01  0.59301907216E+02  0.49999932863E+02 0.  0.
         12    1    1    2    0    0  0.36962943563E+01  0.30981990238E+02 -0.65708905033E+01  0.31886092784E+02  0.00000000000E+00 0. -1.
         11    1    3    3    0    0 -0.11087713957E+01  0.95476203572E+01 -0.34487182515E+00  0.96179709570E+01  0.51100000000E-03 0. -1.
        -11    1    3    3    0    0  0.34782096916E+01 -0.68770844519E+01  0.12844362060E+02  0.14978980947E+02  0.51100000000E-03 0.  1.
        -12    1    3    3    0    0 -0.60657326522E+01 -0.33652526143E+02 -0.59285997316E+01  0.34704955312E+02  0.00000000000E+00 0.  1.
</event>
<event>
 7    1  0.7012292E-013  0.5930193E+02  0.7816164E-02  0.1266605E+00
        -11   -1    0    0    0    0  0.00000000000E+00  0.00000000000E+00  0.45593999997E+02  0.45594000000E+02  0.51100000000E-03 0. -1.
         11   -1    0    0    0    0 -0.00000000000E+00 -0.00000000000E+00 -0.45593999997E+02  0.45594000000E+02  0.51100000000E-03 0.  1.
    9900012    2    1    2    0    0  0.17615033906E+02  0.19628452425E+02 -0.17920827051E+02  0.59301927707E+02  0.49999970234E+02 0.  0.
         12    1    1    2    0    0 -0.17615033906E+02 -0.19628452425E+02  0.17920827051E+02  0.31886072293E+02  0.00000000000E+00 0. -1.
         11    1    3    3    0    0  0.17227402410E+02 -0.11792296044E+02 -0.12257093315E+02  0.24209047412E+02  0.51100000000E-03 0. -1.
        -11    1    3    3    0    0 -0.11303638578E+01  0.90317600268E+01 -0.85247586578E+01  0.12470842877E+02  0.51100000000E-03 0.  1.
        -12    1    3    3    0    0  0.15179953529E+01  0.22388988442E+02  0.28610249215E+01  0.22622037418E+02  0.00000000000E+00 0.  1.
</event>
<event>
 7    1  0.7012292E-013  0.5930194E+02  0.7816164E-02  0.1266605E+00
        -11   -1    0    0    0    0  0.00000000000E+00  0.00000000000E+00  0.45593999997E+02  0.45594000000E+02  0.51100000000E-03 0. -1.
         11   -1    0    0    0    0 -0.00000000000E+00 -0.00000000000E+00 -0.45593999997E+02  0.45594000000E+02  0.51100000000E-03 0.  1.
    9900012    2    1    2    0    0 -0.22482455276E+02 -0.12035152100E+02 -0.19141969562E+02  0.59301942231E+02  0.49999996723E+02 0.  0.
         12    1    1    2    0    0  0.22482455276E+02  0.12035152100E+02  0.19141969562E+02  0.31886057769E+02  0.00000000000E+00 0. -1.
         11    1    3    3    0    0  0.15983060242E+01  0.45866028327E+01  0.35806420648E+01  0.60342775499E+01  0.51100000000E-03 0. -1.
        -11    1    3    3    0    0 -0.17531932030E+02 -0.52905941200E+01 -0.32245145616E+02  0.37082454651E+02  0.51100000000E-03 0.  1.
         12    1    3    3    0    0 -0.65488292699E+01 -0.11331160813E+02  0.95225339887E+01  0.16185210031E+02  0.00000000000E+00 0. -1.
</event>
<event>
 7    1  0.7012292E-013  0.5930196E+02  0.7816164E-02  0.1266605E+00
        -11   -1    0    0    0    0  0.00000000000E+00  0.00000000000E+00  0.45593999997E+02  0.45594000000E+02  0.51100000000E-03 0. -1.
         11   -1    0    0    0    0 -0.00000000000E+00 -0.00000000000E+00 -0.45593999997E+02  0.45594000000E+02  0.51100000000E-03 0.  1.
    9900012    2    1    2    0    0 -0.43963681936E+01  0.29465818566E+02 -0.11364734267E+02  0.59301957567E+02  0.50000024693E+02 0.  0.
         12    1    1    2    0    0  0.43963681936E+01 -0.29465818566E+02  0.11364734267E+02  0.31886042433E+02  0.00000000000E+00 0. -1.
         11    1    3    3    0    0  0.12596435526E+02  0.11210096790E+02  0.32545285031E+01  0.17173479963E+02  0.51100000000E-03 0. -1.
        -11    1    3    3    0    0 -0.61818721480E+01  0.17772844450E+02  0.52215731087E+01  0.19528296625E+02  0.51100000000E-03 0.  1.
        -12    1    3    3    0    0 -0.10810931571E+02  0.48287732652E+00 -0.19840835878E+02  0.22600180979E+02  0.00000000000E+00 0.  1.
</event>
<event>
 7    1  0.7012292E-013  0.5930195E+02  0.7816164E-02  0.1266605E+00
        -11   -1    0    0    0    0  0.00000000000E+00  0.00000000000E+00  0.45593999997E+02  0.45594000000E+02  0.51100000000E-03 0.  1.
         11   -1    0    0    0    0 -0.00000000000E+00 -0.00000000000E+00 -0.45593999997E+02  0.45594000000E+02  0.51100000000E-03 0. -1.
    9900012    2    1    2    0    0  0.23646904095E+02 -0.58284422558E+01  0.20580903550E+02  0.59301946570E+02  0.50000004636E+02 0.  0.
         12    1    1    2    0    0 -0.23646904095E+02  0.58284422558E+01 -0.20580903550E+02  0.31886053430E+02  0.00000000000E+00 0. -1.
         11    1    3    3    0    0  0.14318120270E+02 -0.13686328527E+02  0.72059071718E+01  0.21077221236E+02  0.51100000000E-03 0. -1.
        -11    1    3    3    0    0  0.10631752871E+02  0.31719356116E+01  0.24054469107E+02  0.26489862758E+02  0.51100000000E-03 0.  1.
         12    1    3    3    0    0 -0.13029690448E+01  0.46859506594E+01 -0.10679472729E+02  0.11734862576E+02  0.00000000000E+00 0. -1.
</event>
<event>
 7    1  0.7012292E-013  0.5930199E+02  0.7816164E-02  0.1266605E+00
        -11   -1    0    0    0    0  0.00000000000E+00  0.00000000000E+00  0.45593999997E+02  0.45594000000E+02  0.51100000000E-03 0.  1.
         11   -1    0    0    0    0 -0.00000000000E+00 -0.00000000000E+00 -0.45593999997E+02  0.45594000000E+02  0.51100000000E-03 0. -1.
    9900012    2    1    2    0    0 -0.27359550313E+01  0.73448638521E+01  0.30907692131E+02  0.59301985702E+02  0.50000076005E+02 0.  0.
         12    1    1    2    0    0  0.27359550313E+01 -0.73448638521E+01 -0.30907692131E+02  0.31886014298E+02  0.00000000000E+00 0. -1.
         11    1    3    3    0    0 -0.29401001629E+01 -0.10746274372E+02  0.15512456355E+02  0.19098767088E+02  0.51100000000E-03 0. -1.
        -11    1    3    3    0    0  0.11805048555E+02  0.37685302395E+00 -0.29642791642E+01  0.12177361817E+02  0.51100000000E-03 0.  1.
        -12    1    3    3    0    0 -0.11600903424E+02  0.17714285200E+02  0.18359514940E+02  0.28025856798E+02  0.00000000000E+00 0.  1.
</event>
<event>
 7    1  0.7012292E-013  0.5930194E+02  0.7816164E-02  0.1266605E+00
        -11   -1    0    0    0    0  0.00000000000E+00  0.00000000000E+00  0.45593999997E+02  0.45594000000E+02  0.51100000000E-03 0.  1.
         11   -1    0    0    0    0 -0.00000000000E+00 -0.00000000000E+00 -0.45593999997E+02  0.45594000000E+02  0.51100000000E-03 0. -1.
    9900012    2    1    2    0    0 -0.92427283413E+01  0.11906110353E+01  0.30493857345E+02  0.59301938506E+02  0.49999989930E+02 0.  0.
         12    1    1    2    0    0  0.92427283413E+01 -0.11906110353E+01 -0.30493857345E+02  0.31886061494E+02  0.00000000000E+00 0. -1.
         11    1    3    3    0    0  0.47859099482E+01 -0.19536648043E+01  0.44450937949E+01  0.68176681722E+01  0.51100000000E-03 0. -1.
        -11    1    3    3    0    0  0.13801684075E+01 -0.11990156978E+02  0.28302797455E+02  0.30768767821E+02  0.51100000000E-03 0.  1.
         12    1    3    3    0    0 -0.15408806697E+02  0.15134432818E+02 -0.22540339051E+01  0.21715502513E+02  0.00000000000E+00 0. -1.
</event>
<event>
 7    1  0.7012292E-013  0.5930197E+02  0.7816164E-02  0.1266605E+00
        -11   -1    0    0    0    0  0.00000000000E+00  0.00000000000E+00  0.45593999997E+02  0.45594000000E+02  0.51100000000E-03 0.  1.
         11   -1    0    0    0    0 -0.00000000000E+00 -0.00000000000E+00 -0.45593999997E+02  0.45594000000E+02  0.51100000000E-03 0. -1.
    9900012    2    1    2    0    0 -0.85810208037E+01  0.60548997762E+01  0.30106862370E+02  0.59301970283E+02  0.50000047884E+02 0.  0.
         12    1    1    2    0    0  0.85810208037E+01 -0.60548997762E+01 -0.30106862370E+02  0.31886029717E+02  0.00000000000E+00 0. -1.
         11    1    3    3    0    0  0.13883025928E+02 -0.80095004866E+01  0.23321099834E+01  0.16196581250E+02  0.51100000000E-03 0. -1.
        -11    1    3    3    0    0  0.11154082319E+01  0.85837886665E+01  0.58747010054E+01  0.10461246367E+02  0.51100000000E-03 0.  1.
        -12    1    3    3    0    0 -0.23579454964E+02  0.54806115964E+01  0.21900051381E+02  0.32644142665E+02  0.00000000000E+00 0.  1.
</event>
<event>
 7    1  0.7012292E-013  0.5930194E+02  0.7816164E-02  0.1266605E+00
        -11   -1    0    0    0    0  0.00000000000E+00  0.00000000000E+00  0.45593999997E+02  0.45594000000E+02  0.51100000000E-03 0. -1.
         11   -1    0    0    0    0 -0.00000000000E+00 -0.00000000000E+00 -0.45593999997E+02  0.45594000000E+02  0.51100000000E-03 0.  1.
    9900012    2    1    2    0    0  0.69650393235E+01 -0.16975074298E+02 -0.26077882468E+02  0.59301939186E+02  0.49999991171E+02 0.  0.
         12    1    1    2    0    0 -0.69650393235E+01  0.16975074298E+02  0.26077882468E+02  0.31886060814E+02  0.00000000000E+00 0. -1.
         11    1    3    3    0    0 -0.36047967693E+01  0.96164131385E+01 -0.13082182865E+02  0.16631700760E+02  0.51100000000E-03 0. -1.
        -11    1    3    3    0    0  0.14304131636E+02 -0.20837202957E+02 -0.20470789469E+02  0.32524612691E+02  0.51100000000E-03 0.  1.
        -12    1    3    3    0    0 -0.37342955429E+01 -0.57542844790E+01  0.74750898659E+01  0.10145625736E+02  0.00000000000E+00 0.  1.
</event>
<event>
 7    1  0.7012292E-013  0.5930194E+02  0.7816164E-02  0.1266605E+00
        -11   -1    0    0    0    0  0.00000000000E+00  0.00000000000E+00  0.45593999997E+02  0.45594000000E+02  0.51100000000E-03 0. -1.
         11   -1    0    0    0    0 -0.00000000000E+00 -0.00000000000E+00 -0.45593999997E+02  0.45594000000E+02  0.51100000000E-03 0.  1.
    9900012    2    1    2    0    0 -0.17452599093E+02 -0.21185114118E+02 -0.16227090155E+02  0.59301941445E+02  0.49999995290E+02 0.  0.
         12    1    1    2    0    0  0.17452599093E+02  0.21185114118E+02  0.16227090155E+02  0.31886058555E+02  0.00000000000E+00 0. -1.
         11    1    3    3    0    0  0.76257103128E+01 -0.88549391250E+01 -0.90943816470E+01  0.14807740627E+02  0.51100000000E-03 0.  1.
        -11    1    3    3    0    0  0.71945623632E+00  0.22006331023E+01  0.10014580904E+02  0.10278727269E+02  0.51100000000E-03 0. -1.
        -12    1    3    3    0    0 -0.25797765642E+02 -0.14530808095E+02 -0.17147289412E+02  0.34215473549E+02  0.00000000000E+00 0.  1.
</event>
<event>
 7    1  0.7012292E-013  0.5930195E+02  0.7816164E-02  0.1266605E+00
        -11   -1    0    0    0    0  0.00000000000E+00  0.00000000000E+00  0.45593999997E+02  0.45594000000E+02  0.51100000000E-03 0. -1.
         11   -1    0    0    0    0 -0.00000000000E+00 -0.00000000000E+00 -0.45593999997E+02  0.45594000000E+02  0.51100000000E-03 0.  1.
    9900012    2    1    2    0    0  0.20905073063E+02  0.11103669634E+02  0.21363678873E+02  0.59301947656E+02  0.50000006617E+02 0.  0.
         12    1    1    2    0    0 -0.20905073063E+02 -0.11103669634E+02 -0.21363678873E+02  0.31886052344E+02  0.00000000000E+00 0. -1.
         11    1    3    3    0    0  0.69384243813E+01 -0.20120410701E+01  0.17558982795E+02  0.18987046090E+02  0.51100000000E-03 0. -1.
        -11    1    3    3    0    0  0.20449730034E+02  0.21045259476E+02  0.57151862604E+01  0.29895781628E+02  0.51100000000E-03 0.  1.
         12    1    3    3    0    0 -0.64830813520E+01 -0.79295487721E+01 -0.19104901831E+01  0.10419119938E+02  0.00000000000E+00 0. -1.
</event>
<event>
 7    1  0.7012292E-013  0.5930196E+02  0.7816164E-02  0.1266605E+00
        -11   -1    0    0    0    0  0.00000000000E+00  0.00000000000E+00  0.45593999997E+02  0.45594000000E+02  0.51100000000E-03 0. -1.
         11   -1    0    0    0    0 -0.00000000000E+00 -0.00000000000E+00 -0.45593999997E+02  0.45594000000E+02  0.51100000000E-03 0.  1.
    9900012    2    1    2    0    0  0.14096704073E+02 -0.12890745579E+02 -0.25530988738E+02  0.59301956450E+02  0.50000022655E+02 0.  0.
         12    1    1    2    0    0 -0.14096704073E+02  0.12890745579E+02  0.25530988738E+02  0.31886043550E+02  0.00000000000E+00 0. -1.
         11    1    3    3    0    0 -0.64229893873E+01 -0.22955413800E+01  0.77115404727E+01  0.10295249371E+02  0.51100000000E-03 0. -1.
        -11    1    3    3    0    0 -0.91206954222E+00  0.70069959558E+01 -0.22467782667E+01  0.74147067383E+01  0.51100000000E-03 0.  1.
        -12    1    3    3    0    0  0.21431763003E+02 -0.17602200155E+02 -0.30995750944E+02  0.41592000340E+02  0.00000000000E+00 0.  1.
</event>
<event>
 7    1  0.7012292E-013  0.5930194E+02  0.7816164E-02  0.1266605E+00
        -11   -1    0    0    0    0  0.00000000000E+00  0.00000000000E+00  0.45593999997E+02  0.45594000000E+02  0.51100000000E-03 0. -1.
         11   -1    0    0    0    0 -0.00000000000E+00 -0.00000000000E+00 -0.45593999997E+02  0.45594000000E+02  0.51100000000E-03 0.  1.
    9900012    2    1    2    0    0 -0.15491323175E+02  0.14113631696E+02 -0.24032174418E+02  0.59301935636E+02  0.49999984696E+02 0.  0.
         12    1    1    2    0    0  0.15491323175E+02 -0.14113631696E+02  0.24032174418E+02  0.31886064364E+02  0.00000000000E+00 0. -1.
         11    1    3    3    0    0 -0.76837915274E+01  0.28173518615E+00  0.58706934378E+01  0.96739375982E+01  0.51100000000E-03 0. -1.
        -11    1    3    3    0    0 -0.71227056648E+00 -0.12312204256E+02 -0.71840641745E+01  0.14272648014E+02  0.51100000000E-03 0.  1.
         12    1    3    3    0    0 -0.70952610814E+01  0.26144100766E+02 -0.22718803681E+02  0.35355350024E+02  0.00000000000E+00 0. -1.
</event>
<event>
 7    1  0.7012292E-013  0.5930199E+02  0.7816164E-02  0.1266605E+00
        -11   -1    0    0    0    0  0.00000000000E+00  0.00000000000E+00  0.45593999997E+02  0.45594000000E+02  0.51100000000E-03 0.  1.
         11   -1    0    0    0    0 -0.00000000000E+00 -0.00000000000E+00 -0.45593999997E+02  0.45594000000E+02  0.51100000000E-03 0. -1.
    9900012    2    1    2    0    0 -0.15308856712E+02 -0.23593056845E+02  0.15024111034E+02  0.59301994645E+02  0.50000092314E+02 0.  0.
         12    1    1    2    0    0  0.15308856712E+02  0.23593056845E+02 -0.15024111034E+02  0.31886005355E+02  0.00000000000E+00 0. -1.
         11    1    3    3    0    0 -0.26171008902E+01 -0.37392285086E+01 -0.21467902740E+01  0.50437838624E+01  0.51100000000E-03 0. -1.
        -11    1    3    3    0    0  0.33787861212E+01  0.13253693623E+02  0.71162519404E-01  0.13677779596E+02  0.51100000000E-03 0.  1.
         12    1    3    3    0    0 -0.16070541943E+02 -0.33107521960E+02  0.17099738789E+02  0.40580431187E+02  0.00000000000E+00 0. -1.
</event>
<event>
 7    1  0.7012292E-013  0.5930190E+02  0.7816164E-02  0.1266605E+00
        -11   -1    0    0    0    0  0.00000000000E+00  0.00000000000E+00  0.45593999997E+02  0.45594000000E+02  0.51100000000E-03 0. -1.
         11   -1    0    0    0    0 -0.00000000000E+00 -0.00000000000E+00 -0.45593999997E+02  0.45594000000E+02  0.51100000000E-03 0.  1.
    9900012    2    1    2    0    0 -0.54537259094E+01  0.22623165863E+02 -0.21798454143E+02  0.59301900160E+02  0.49999919996E+02 0.  0.
         12    1    1    2    0    0  0.54537259094E+01 -0.22623165863E+02  0.21798454143E+02  0.31886099840E+02  0.00000000000E+00 0. -1.
         11    1    3    3    0    0 -0.67388436474E+01  0.13886428463E+01  0.33223133150E+01  0.76405568306E+01  0.51100000000E-03 0.  1.
        -11    1    3    3    0    0  0.62675312984E+01 -0.40807022198E+01  0.71483783676E+01  0.10345694405E+02  0.51100000000E-03 0. -1.
        -12    1    3    3    0    0 -0.49824135604E+01  0.25315225237E+02 -0.32269145826E+02  0.41315648924E+02  0.00000000000E+00 0.  1.
</event>
<event>
 7    1  0.7012292E-013  0.5930202E+02  0.7816164E-02  0.1266605E+00
        -11   -1    0    0    0    0  0.00000000000E+00  0.00000000000E+00  0.45593999997E+02  0.45594000000E+02  0.51100000000E-03 0.  1.
         11   -1    0    0    0    0 -0.00000000000E+00 -0.00000000000E+00 -0.45593999997E+02  0.45594000000E+02  0.51100000000E-03 0. -1.
    9900012    2    1    2    0    0  0.28539159083E+01 -0.28726406639E+02  0.13541221813E+02  0.59302016204E+02  0.50000131633E+02 0.  0.
         12    1    1    2    0    0 -0.28539159083E+01  0.28726406639E+02 -0.13541221813E+02  0.31885983796E+02  0.00000000000E+00 0. -1.
         11    1    3    3    0    0 -0.37110081921E+01 -0.66675352513E+01 -0.17424096047E+02  0.19021743649E+02  0.51100000000E-03 0. -1.
        -11    1    3    3    0    0 -0.31434906852E+01 -0.36275752313E+01  0.43174649739E+01  0.64561087203E+01  0.51100000000E-03 0.  1.
        -12    1    3    3    0    0  0.97084147856E+01 -0.18431296157E+02  0.26647852887E+02  0.33824163835E+02  0.00000000000E+00 0.  1.
</event>
<event>
 7    1  0.7012292E-013  0.5930197E+02  0.7816164E-02  0.1266605E+00
        -11   -1    0    0    0    0  0.00000000000E+00  0.00000000000E+00  0.45593999997E+02  0.45594000000E+02  0.51100000000E-03 0.  1.
         11   -1    0    0    0    0 -0.00000000000E+00 -0.00000000000E+00 -0.45593999997E+02  0.45594000000E+02  0.51100000000E-03 0. -1.
    9900012    2    1    2    0    0 -0.16655441517E+02 -0.88472556210E+01  0.25710727340E+02  0.59301965996E+02  0.50000040065E+02 0.  0.
         12    1    1    2    0    0  0.16655441517E+02  0.88472556210E+01 -0.25710727340E+02  0.31886034004E+02  0.00000000000E+00 0. -1.
         11    1    3    3    0    0  0.13475055530E+01 -0.12339319230E+02 -0.93763966108E+01  0.15556072253E+02  0.51100000000E-03 0. -1.
        -11    1    3    3    0    0  0.68576059176E+00 -0.39563148811E+01  0.14153617587E+02  0.14712157765E+02  0.51100000000E-03 0.  1.
        -12    1    3    3    0    0 -0.18688707662E+02  0.74483784897E+01  0.20933506364E+02  0.29033735979E+02  0.00000000000E+00 0.  1.
</event>
<event>
 7    1  0.7012292E-013  0.5930192E+02  0.7816164E-02  0.1266605E+00
        -11   -1    0    0    0    0  0.00000000000E+00  0.00000000000E+00  0.45593999997E+02  0.45594000000E+02  0.51100000000E-03 0.  1.
         11   -1    0    0    0    0 -0.00000000000E+00 -0.00000000000E+00 -0.45593999997E+02  0.45594000000E+02  0.51100000000E-03 0. -1.
    9900012    2    1    2    0    0 -0.29222665835E+02 -0.12509630272E+02  0.25033991433E+01  0.59301920666E+02  0.49999957393E+02 0.  0.
         12    1    1    2    0    0  0.29222665835E+02  0.12509630272E+02 -0.25033991433E+01  0.31886079334E+02  0.00000000000E+00 0. -1.
         11    1    3    3    0    0 -0.17111557723E+02 -0.31797226428E+01 -0.81854466701E+01  0.19233241569E+02  0.51100000000E-03 0. -1.
        -11    1    3    3    0    0 -0.76637607929E+01 -0.21067946846E+02 -0.16346671503E+01  0.22478072666E+02  0.51100000000E-03 0.  1.
        -12    1    3    3    0    0 -0.44473473189E+01  0.11738039217E+02  0.12323512964E+02  0.17590606431E+02  0.00000000000E+00 0.  1.
</event>
<event>
 7    1  0.7012292E-013  0.5930197E+02  0.7816164E-02  0.1266605E+00
        -11   -1    0    0    0    0  0.00000000000E+00  0.00000000000E+00  0.45593999997E+02  0.45594000000E+02  0.51100000000E-03 0. -1.
         11   -1    0    0    0    0 -0.00000000000E+00 -0.00000000000E+00 -0.45593999997E+02  0.45594000000E+02  0.51100000000E-03 0.  1.
    9900012    2    1    2    0    0  0.34238461922E+01 -0.26212203137E+02 -0.17830215624E+02  0.59301970061E+02  0.50000047479E+02 0.  0.
         12    1    1    2    0    0 -0.34238461922E+01  0.26212203137E+02  0.17830215624E+02  0.31886029939E+02  0.00000000000E+00 0. -1.
         11    1    3    3    0    0  0.78808861405E+01  0.57287822488E+01 -0.10739423509E+02  0.14500432062E+02  0.51100000000E-03 0. -1.
        -11    1    3    3    0    0  0.35718927026E-01 -0.11142899156E+01 -0.13038835942E+02  0.13086411304E+02  0.51100000000E-03 0.  1.
        -12    1    3    3    0    0 -0.44927588754E+01 -0.30826695470E+02  0.59480438268E+01  0.31715126695E+02  0.00000000000E+00 0.  1.
</event>
<event>
 7    1  0.7012292E-013  0.5930188E+02  0.7816164E-02  0.1266605E+00
        -11   -1    0    0    0    0  0.00000000000E+00  0.00000000000E+00  0.45593999997E+02  0.45594000000E+02  0.51100000000E-03 0.  1.
         11   -1    0    0    0    0 -0.00000000000E+00 -0.00000000000E+00 -0.45593999997E+02  0.45594000000E+02  0.51100000000E-03 0. -1.
    9900012    2    1    2    0    0  0.24523759770E+02 -0.19727488302E+02 -0.51123175663E+01  0.59301884231E+02  0.49999890945E+02 0.  0.
         12    1    1    2    0    0 -0.24523759770E+02  0.19727488302E+02  0.51123175663E+01  0.31886115769E+02  0.00000000000E+00 0. -1.
         11    1    3    3    0    0  0.12250073001E+02 -0.10225989219E+02 -0.19433615710E+02  0.25145587363E+02  0.51100000000E-03 0. -1.
        -11    1    3    3    0    0  0.18011644674E+02 -0.23683776583E+01  0.12654072721E+01  0.18210705984E+02  0.51100000000E-03 0.  1.
         12    1    3    3    0    0 -0.57379579054E+01 -0.71331214250E+01  0.13055890871E+02  0.15945590884E+02  0.00000000000E+00 0. -1.
</event>
<event>
 7    1  0.7012292E-013  0.5930195E+02  0.7816164E-02  0.1266605E+00
        -11   -1    0    0    0    0  0.00000000000E+00  0.00000000000E+00  0.45593999997E+02  0.45594000000E+02  0.51100000000E-03 0. -1.
         11   -1    0    0    0    0 -0.00000000000E+00 -0.00000000000E+00 -0.45593999997E+02  0.45594000000E+02  0.51100000000E-03 0.  1.
    9900012    2    1    2    0    0  0.76390595065E+01  0.73032360203E+01 -0.30083674698E+02  0.59301953367E+02  0.50000017033E+02 0.  0.
         12    1    1    2    0    0 -0.76390595065E+01 -0.73032360203E+01  0.30083674698E+02  0.31886046633E+02  0.00000000000E+00 0. -1.
         11    1    3    3    0    0  0.13371617398E+01  0.10446583998E+02  0.24121975813E+01  0.10804527578E+02  0.51100000000E-03 0.  1.
        -11    1    3    3    0    0  0.15989137219E+02  0.40431609127E+01 -0.31787272551E+01  0.16795950893E+02  0.51100000000E-03 0. -1.
        -12    1    3    3    0    0 -0.96872394519E+01 -0.71865088905E+01 -0.29317145025E+02  0.31701474897E+02  0.00000000000E+00 0.  1.
</event>
<event>
 7    1  0.7012292E-013  0.5930197E+02  0.7816164E-02  0.1266605E+00
        -11   -1    0    0    0    0  0.00000000000E+00  0.00000000000E+00  0.45593999997E+02  0.45594000000E+02  0.51100000000E-03 0.  1.
         11   -1    0    0    0    0 -0.00000000000E+00 -0.00000000000E+00 -0.45593999997E+02  0.45594000000E+02  0.51100000000E-03 0. -1.
    9900012    2    1    2    0    0 -0.55371072207E+01  0.27340571696E+02  0.15445148583E+02  0.59301968077E+02  0.50000043860E+02 0.  0.
         12    1    1    2    0    0  0.55371072207E+01 -0.27340571696E+02 -0.15445148583E+02  0.31886031923E+02  0.00000000000E+00 0. -1.
         11    1    3    3    0    0  0.23635025825E+01 -0.81760823910E+01 -0.36126858562E+00  0.85185082599E+01  0.51100000000E-03 0. -1.
        -11    1    3    3    0    0  0.65310484387E+01  0.90512700716E+01  0.17315617078E+02  0.20601230028E+02  0.51100000000E-03 0.  1.
        -12    1    3    3    0    0 -0.14431658242E+02  0.26465384015E+02 -0.15091999091E+01  0.30182229789E+02  0.00000000000E+00 0.  1.
</event>
<event>
 7    1  0.7012292E-013  0.5930194E+02  0.7816164E-02  0.1266605E+00
        -11   -1    0    0    0    0  0.00000000000E+00  0.00000000000E+00  0.45593999997E+02  0.45594000000E+02  0.51100000000E-03 0. -1.
         11   -1    0    0    0    0 -0.00000000000E+00 -0.00000000000E+00 -0.45593999997E+02  0.45594000000E+02  0.51100000000E-03 0.  1.
    9900012    2    1    2    0    0 -0.31642372572E+02 -0.37666249370E+01 -0.11374200280E+01  0.59301938316E+02  0.49999989583E+02 0.  0.
         12    1    1    2    0    0  0.31642372572E+02  0.37666249370E+01  0.11374200280E+01  0.31886061684E+02  0.00000000000E+00 0. -1.
         11    1    3    3    0    0 -0.35281921441E+02  0.13464367183E+02  0.42754011330E+01  0.38005028869E+02  0.51100000000E-03 0. -1.
        -11    1    3    3    0    0 -0.37032145173E+01 -0.61077260089E+01 -0.77433365527E+00  0.71845464458E+01  0.51100000000E-03 0.  1.
        -12    1    3    3    0    0  0.73427633865E+01 -0.11123266111E+02 -0.46384875057E+01  0.14112363001E+02  0.00000000000E+00 0.  1.
</event>
<event>
 7    1  0.7012292E-013  0.5930191E+02  0.7816164E-02  0.1266605E+00
        -11   -1    0    0    0    0  0.00000000000E+00  0.00000000000E+00  0.45593999997E+02  0.45594000000E+02  0.51100000000E-03 0.  1.
         11   -1    0    0    0    0 -0.00000000000E+00 -0.00000000000E+00 -0.45593999997E+02  0.45594000000E+02  0.51100000000E-03 0. -1.
    9900012    2    1    2    0    0 -0.52878681786E+01 -0.30028435852E+02 -0.93302723031E+01  0.59301913836E+02  0.49999944938E+02 0.  0.
         12    1    1    2    0    0  0.52878681786E+01  0.30028435852E+02  0.93302723031E+01  0.31886086164E+02  0.00000000000E+00 0. -1.
         11    1    3    3    0    0 -0.89418421398E+01 -0.35239397899E+01  0.11582305355E+02  0.15050730551E+02  0.51100000000E-03 0. -1.
        -11    1    3    3    0    0 -0.44899542376E+01 -0.36522905265E+01  0.57810742847E+01  0.81804483552E+01  0.51100000000E-03 0.  1.
         12    1    3    3    0    0  0.81439281988E+01 -0.22852205536E+02 -0.26693651943E+02  0.36070734930E+02  0.00000000000E+00 0. -1.
</event>
<event>
 7    1  0.7012292E-013  0.5930195E+02  0.7816164E-02  0.1266605E+00
        -11   -1    0    0    0    0  0.00000000000E+00  0.00000000000E+00  0.45593999997E+02  0.45594000000E+02  0.51100000000E-03 0. -1.
         11   -1    0    0    0    0 -0.00000000000E+00 -0.00000000000E+00 -0.45593999997E+02  0.45594000000E+02  0.51100000000E-03 0.  1.
    9900012    2    1    2    0    0  0.16664587213E+02 -0.61638731928E+01 -0.26476754213E+02  0.59301947981E+02  0.50000007210E+02 0.  0.
         12    1    1    2    0    0 -0.16664587213E+02  0.61638731928E+01  0.26476754213E+02  0.31886052019E+02  0.00000000000E+00 0. -1.
         11    1    3    3    0    0  0.33534714007E+01 -0.49315696934E+01 -0.58929232436E+00  0.59927803047E+01  0.51100000000E-03 0. -1.
        -11    1    3    3    0    0 -0.98500223518E+01 -0.56998013038E+01  0.66045054434E+01  0.13157893739E+02  0.51100000000E-03 0.  1.
        -12    1    3    3    0    0  0.23161138164E+02  0.44674978044E+01 -0.32491967332E+02  0.40151273937E+02  0.00000000000E+00 0.  1.
</event>
<event>
 7    1  0.7012292E-013  0.5930185E+02  0.7816164E-02  0.1266605E+00
        -11   -1    0    0    0    0  0.00000000000E+00  0.00000000000E+00  0.45593999997E+02  0.45594000000E+02  0.51100000000E-03 0.  1.
         11   -1    0    0    0    0 -0.00000000000E+00 -0.00000000000E+00 -0.45593999997E+02  0.45594000000E+02  0.51100000000E-03 0. -1.
    9900012    2    1    2    0    0 -0.15460127338E+02 -0.27883485199E+02 -0.47148445203E+00  0.59301849687E+02  0.49999827946E+02 0.  0.
         12    1    1    2    0    0  0.15460127338E+02  0.27883485199E+02  0.47148445203E+00  0.31886150313E+02  0.00000000000E+00 0. -1.
         11    1    3    3    0    0 -0.48283909353E+01 -0.29402274767E+02  0.11328127247E+01  0.29817618708E+02  0.51100000000E-03 0. -1.
        -11    1    3    3    0    0  0.91114129987E+01  0.11172146746E+01  0.20398620601E+01  0.94035659698E+01  0.51100000000E-03 0.  1.
         12    1    3    3    0    0 -0.19743149401E+02  0.40157489307E+00 -0.36441592368E+01  0.20080665009E+02  0.00000000000E+00 0. -1.
</event>
<event>
 7    1  0.9933297E-013  0.5930195E+02  0.7816164E-02  0.1266605E+00
        -11   -1    0    0    0    0  0.00000000000E+00  0.00000000000E+00  0.45593999997E+02  0.45594000000E+02  0.51100000000E-03 0. -1.
         11   -1    0    0    0    0 -0.00000000000E+00 -0.00000000000E+00 -0.45593999997E+02  0.45594000000E+02  0.51100000000E-03 0.  1.
    9900012    2    1    2    0    0  0.14277912719E+02  0.75467610924E+01 -0.27493782510E+02  0.59301945504E+02  0.50000002692E+02 0.  0.
         12    1    1    2    0    0 -0.14277912719E+02 -0.75467610924E+01  0.27493782510E+02  0.31886054496E+02  0.00000000000E+00 0. -1.
         11    1    3    3    0    0 -0.45562067070E+01 -0.92816821802E+01 -0.47372103171E+01  0.11373205595E+02  0.51100000000E-03 0. -1.
        -11    1    3    3    0    0 -0.49788198040E+01  0.88205614893E+01 -0.20298748137E+02  0.22685460714E+02  0.51100000000E-03 0.  1.
         12    1    3    3    0    0  0.23812939230E+02  0.80078817833E+01 -0.24578240565E+01  0.25243279195E+02  0.00000000000E+00 0. -1.
</event>
<event>
 7    1  0.7012292E-013  0.5930192E+02  0.7816164E-02  0.1266605E+00
        -11   -1    0    0    0    0  0.00000000000E+00  0.00000000000E+00  0.45593999997E+02  0.45594000000E+02  0.51100000000E-03 0.  1.
         11   -1    0    0    0    0 -0.00000000000E+00 -0.00000000000E+00 -0.45593999997E+02  0.45594000000E+02  0.51100000000E-03 0. -1.
    9900012    2    1    2    0    0 -0.25821149519E+02 -0.72264464592E+01  0.17255987060E+02  0.59301915569E+02  0.49999948098E+02 0.  0.
         12    1    1    2    0    0  0.25821149519E+02  0.72264464592E+01 -0.17255987060E+02  0.31886084431E+02  0.00000000000E+00 0. -1.
         11    1    3    3    0    0 -0.45322661031E+01  0.98548692316E+01 -0.48670809643E+01  0.11889001681E+02  0.51100000000E-03 0. -1.
        -11    1    3    3    0    0  0.43992364773E+01 -0.14338079453E+02  0.30600532965E+01  0.15306787070E+02  0.51100000000E-03 0.  1.
        -12    1    3    3    0    0 -0.25688119893E+02 -0.27432362381E+01  0.19063014728E+02  0.32106126818E+02  0.00000000000E+00 0.  1.
</event>
<event>
 7    1  0.7012292E-013  0.5930195E+02  0.7816164E-02  0.1266605E+00
        -11   -1    0    0    0    0  0.00000000000E+00  0.00000000000E+00  0.45593999997E+02  0.45594000000E+02  0.51100000000E-03 0.  1.
         11   -1    0    0    0    0 -0.00000000000E+00 -0.00000000000E+00 -0.45593999997E+02  0.45594000000E+02  0.51100000000E-03 0. -1.
    9900012    2    1    2    0    0  0.68920387142E+01  0.31017093821E+02  0.26758448560E+01  0.59301945800E+02  0.50000003233E+02 0.  0.
         12    1    1    2    0    0 -0.68920387142E+01 -0.31017093821E+02 -0.26758448560E+01  0.31886054200E+02  0.00000000000E+00 0. -1.
         11    1    3    3    0    0 -0.73041337554E+01  0.14456579935E+02 -0.82318246871E+01  0.18168819755E+02  0.51100000000E-03 0. -1.
        -11    1    3    3    0    0  0.13159892164E+02  0.21946123979E+02  0.18636232121E+02  0.31656346399E+02  0.51100000000E-03 0.  1.
         12    1    3    3    0    0  0.10362803059E+01 -0.53856100931E+01 -0.77285625776E+01  0.94767796463E+01  0.00000000000E+00 0. -1.
</event>
<event>
 7    1  0.7012292E-013  0.5930197E+02  0.7816164E-02  0.1266605E+00
        -11   -1    0    0    0    0  0.00000000000E+00  0.00000000000E+00  0.45593999997E+02  0.45594000000E+02  0.51100000000E-03 0.  1.
         11   -1    0    0    0    0 -0.00000000000E+00 -0.00000000000E+00 -0.45593999997E+02  0.45594000000E+02  0.51100000000E-03 0. -1.
    9900012    2    1    2    0    0  0.17144058576E+02 -0.50394223661E+01  0.26408413931E+02  0.59301970950E+02  0.50000049099E+02 0.  0.
         12    1    1    2    0    0 -0.17144058576E+02  0.50394223661E+01 -0.26408413931E+02  0.31886029050E+02  0.00000000000E+00 0. -1.
         11    1    3    3    0    0  0.84901826062E+01  0.17975479999E+01  0.97042206814E+01  0.13018689596E+02  0.51100000000E-03 0. -1.
        -11    1    3    3    0    0  0.44336053202E+01  0.17693919836E+02  0.61917200125E+01  0.19263152709E+02  0.51100000000E-03 0.  1.
         12    1    3    3    0    0  0.42202706497E+01 -0.24530890202E+02  0.10512473237E+02  0.27020128645E+02  0.00000000000E+00 0. -1.
</event>
<event>
 7    1  0.7012292E-013  0.5930197E+02  0.7816164E-02  0.1266605E+00
        -11   -1    0    0    0    0  0.00000000000E+00  0.00000000000E+00  0.45593999997E+02  0.45594000000E+02  0.51100000000E-03 0.  1.
         11   -1    0    0    0    0 -0.00000000000E+00 -0.00000000000E+00 -0.45593999997E+02  0.45594000000E+02  0.51100000000E-03 0. -1.
    9900012    2    1    2    0    0 -0.14084438342E+02 -0.25832053809E+02  0.12290351376E+02  0.59301966311E+02  0.50000040640E+02 0.  0.
         12    1    1    2    0    0  0.14084438342E+02  0.25832053809E+02 -0.12290351376E+02  0.31886033689E+02  0.00000000000E+00 0. -1.
         11    1    3    3    0    0 -0.19358000897E+01  0.93255772773E+01  0.97110511200E+01  0.13602140554E+02  0.51100000000E-03 0. -1.
        -11    1    3    3    0    0 -0.14397557253E+02 -0.53222441432E+01  0.35851127530E+01  0.15762898568E+02  0.51100000000E-03 0.  1.
        -12    1    3    3    0    0  0.22489189998E+01 -0.29835386943E+02 -0.10058124966E+01  0.29936927189E+02  0.00000000000E+00 0.  1.
</event>
<event>
 7    1  0.7012292E-013  0.5930195E+02  0.7816164E-02  0.1266605E+00
        -11   -1    0    0    0    0  0.00000000000E+00  0.00000000000E+00  0.45593999997E+02  0.45594000000E+02  0.51100000000E-03 0.  1.
         11   -1    0    0    0    0 -0.00000000000E+00 -0.00000000000E+00 -0.45593999997E+02  0.45594000000E+02  0.51100000000E-03 0. -1.
    9900012    2    1    2    0    0 -0.46405206276E+01 -0.31405764422E+02  0.29772246520E+01  0.59301947606E+02  0.50000006527E+02 0.  0.
         12    1    1    2    0    0  0.46405206276E+01  0.31405764422E+02 -0.29772246520E+01  0.31886052394E+02  0.00000000000E+00 0. -1.
         11    1    3    3    0    0  0.14480100259E+02 -0.22638577549E+02 -0.51389191998E+01  0.27360317757E+02  0.51100000000E-03 0. -1.
        -11    1    3    3    0    0  0.24098094133E+01 -0.36400947727E+01  0.87732983310E+01  0.97993997381E+01  0.51100000000E-03 0.  1.
         12    1    3    3    0    0 -0.21530430300E+02 -0.51270921004E+01 -0.65715447921E+00  0.22142230112E+02  0.00000000000E+00 0. -1.
</event>
<event>
 7    1  0.7012292E-013  0.5930202E+02  0.7816164E-02  0.1266604E+00
        -11   -1    0    0    0    0  0.00000000000E+00  0.00000000000E+00  0.45593999997E+02  0.45594000000E+02  0.51100000000E-03 0.  1.
         11   -1    0    0    0    0 -0.00000000000E+00 -0.00000000000E+00 -0.45593999997E+02  0.45594000000E+02  0.51100000000E-03 0. -1.
    9900012    2    1    2    0    0  0.19092042079E+02  0.87139843319E+01  0.24005751771E+02  0.59302020138E+02  0.50000138806E+02 0.  0.
         12    1    1    2    0    0 -0.19092042079E+02 -0.87139843319E+01 -0.24005751771E+02  0.31885979862E+02  0.00000000000E+00 0. -1.
         11    1    3    3    0    0  0.26590913888E+02  0.18579458811E+02  0.13615315370E+02  0.35180247356E+02  0.51100000000E-03 0. -1.
        -11    1    3    3    0    0  0.19056358400E+01  0.43312045404E+01  0.19881338316E+01  0.51325877605E+01  0.51100000000E-03 0.  1.
         12    1    3    3    0    0 -0.94045076489E+01 -0.14196679020E+02  0.84023025691E+01  0.18989185021E+02  0.00000000000E+00 0. -1.
</event>
<event>
 7    1  0.7012292E-013  0.5930196E+02  0.7816164E-02  0.1266605E+00
        -11   -1    0    0    0    0  0.00000000000E+00  0.00000000000E+00  0.45593999997E+02  0.45594000000E+02  0.51100000000E-03 0.  1.
         11   -1    0    0    0    0 -0.00000000000E+00 -0.00000000000E+00 -0.45593999997E+02  0.45594000000E+02  0.51100000000E-03 0. -1.
    9900012    2    1    2    0    0 -0.73118808707E+01 -0.18122434163E+02  0.25195895857E+02  0.59301962462E+02  0.50000033619E+02 0.  0.
         12    1    1    2    0    0  0.73118808707E+01  0.18122434163E+02 -0.25195895857E+02  0.31886037538E+02  0.00000000000E+00 0. -1.
         11    1    3    3    0    0  0.49242592421E+01  0.62476882444E+01  0.13758169322E+01  0.80730917234E+01  0.51100000000E-03 0. -1.
        -11    1    3    3    0    0  0.53959032863E+01  0.53271823853E+01  0.12976411857E+02  0.15029368230E+02  0.51100000000E-03 0.  1.
        -12    1    3    3    0    0 -0.17632043399E+02 -0.29697304793E+02  0.10843667068E+02  0.36199502508E+02  0.00000000000E+00 0.  1.
</event>
<event>
 7    1  0.7012292E-013  0.5930195E+02  0.7816164E-02  0.1266605E+00
        -11   -1    0    0    0    0  0.00000000000E+00  0.00000000000E+00  0.45593999997E+02  0.45594000000E+02  0.51100000000E-03 0. -1.
         11   -1    0    0    0    0 -0.00000000000E+00 -0.00000000000E+00 -0.45593999997E+02  0.45594000000E+02  0.51100000000E-03 0.  1.
    9900012    2    1    2    0    0  0.31371974201E+02 -0.46736872408E+01  0.32673797107E+01  0.59301954653E+02  0.50000019377E+02 0.  0.
         12    1    1    2    0    0 -0.31371974201E+02  0.46736872408E+01 -0.32673797107E+01  0.31886045347E+02  0.00000000000E+00 0. -1.
         11    1    3    3    0    0  0.37346942666E+01 -0.74996656499E+01  0.20774339752E+02  0.22400136573E+02  0.51100000000E-03 0. -1.
        -11    1    3    3    0    0  0.22810900397E+02 -0.33968889248E+01 -0.76776340337E+01  0.24306832289E+02  0.51100000000E-03 0.  1.
        -12    1    3    3    0    0  0.48263795376E+01  0.62228673339E+01 -0.98293260075E+01  0.12594985790E+02  0.00000000000E+00 0.  1.
</event>
<event>
 7    1  0.7012292E-013  0.5930188E+02  0.7816164E-02  0.1266605E+00
        -11   -1    0    0    0    0  0.00000000000E+00  0.00000000000E+00  0.45593999997E+02  0.45594000000E+02  0.51100000000E-03 0. -1.
         11   -1    0    0    0    0 -0.00000000000E+00 -0.00000000000E+00 -0.45593999997E+02  0.45594000000E+02  0.51100000000E-03 0.  1.
    9900012    2    1    2    0    0 -0.29173299324E+02 -0.31840711526E+01  0.12470173120E+02  0.59301875742E+02  0.49999875464E+02 0.  0.
         12    1    1    2    0    0  0.29173299324E+02  0.31840711526E+01 -0.12470173120E+02  0.31886124258E+02  0.00000000000E+00 0. -1.
         11    1    3    3    0    0 -0.91729931717E+01  0.83036226920E+01  0.11599612927E+02  0.16960099465E+02  0.51100000000E-03 0. -1.
        -11    1    3    3    0    0 -0.16479208458E+01  0.10549485258E+02 -0.67955407908E+01  0.12656486764E+02  0.51100000000E-03 0.  1.
         12    1    3    3    0    0 -0.18352385306E+02 -0.22037179102E+02  0.76661009838E+01  0.29685289514E+02  0.00000000000E+00 0. -1.
</event>
<event>
 7    1  0.7012292E-013  0.5930195E+02  0.7816164E-02  0.1266605E+00
        -11   -1    0    0    0    0  0.00000000000E+00  0.00000000000E+00  0.45593999997E+02  0.45594000000E+02  0.51100000000E-03 0.  1.
         11   -1    0    0    0    0 -0.00000000000E+00 -0.00000000000E+00 -0.45593999997E+02  0.45594000000E+02  0.51100000000E-03 0. -1.
    9900012    2    1    2    0    0 -0.29231527082E+02  0.69231525627E+01  0.10691497144E+02  0.59301947749E+02  0.50000006787E+02 0.  0.
         12    1    1    2    0    0  0.29231527082E+02 -0.69231525627E+01 -0.10691497144E+02  0.31886052251E+02  0.00000000000E+00 0. -1.
         11    1    3    3    0    0 -0.26549108965E+02 -0.54909840235E+01 -0.40150707822E+00  0.27113968735E+02  0.51100000000E-03 0. -1.
        -11    1    3    3    0    0 -0.33759073893E+00 -0.21531781926E+01  0.16372593656E+02  0.16517020528E+02  0.51100000000E-03 0.  1.
         12    1    3    3    0    0 -0.23448273783E+01  0.14567314779E+02 -0.52795894336E+01  0.15670958486E+02  0.00000000000E+00 0. -1.
</event>
<event>
 7    1  0.7012292E-013  0.5930215E+02  0.7816164E-02  0.1266604E+00
        -11   -1    0    0    0    0  0.00000000000E+00  0.00000000000E+00  0.45593999997E+02  0.45594000000E+02  0.51100000000E-03 0.  1.
         11   -1    0    0    0    0 -0.00000000000E+00 -0.00000000000E+00 -0.45593999997E+02  0.45594000000E+02  0.51100000000E-03 0. -1.
    9900012    2    1    2    0    0  0.94655534613E-01  0.80493032784E+01  0.30852994577E+02  0.59302148635E+02  0.50000373153E+02 0.  0.
         12    1    1    2    0    0 -0.94655534613E-01 -0.80493032784E+01 -0.30852994577E+02  0.31885851365E+02  0.00000000000E+00 0. -1.
         11    1    3    3    0    0 -0.16211138328E+01 -0.13757137021E+02  0.85222891583E+00  0.13878513013E+02  0.51100000000E-03 0. -1.
        -11    1    3    3    0    0  0.13238695575E+02  0.75086149833E+01  0.96914585447E+01  0.18043467751E+02  0.51100000000E-03 0.  1.
         12    1    3    3    0    0 -0.11522926207E+02  0.14297825316E+02  0.20309307116E+02  0.27380167871E+02  0.00000000000E+00 0. -1.
</event>
<event>
 7    1  0.7012292E-013  0.5930196E+02  0.7816164E-02  0.1266605E+00
        -11   -1    0    0    0    0  0.00000000000E+00  0.00000000000E+00  0.45593999997E+02  0.45594000000E+02  0.51100000000E-03 0.  1.
         11   -1    0    0    0    0 -0.00000000000E+00 -0.00000000000E+00 -0.45593999997E+02  0.45594000000E+02  0.51100000000E-03 0. -1.
    9900012    2    1    2    0    0 -0.30909182495E+01  0.27610372907E+02  0.15647147958E+02  0.59301957491E+02  0.50000024554E+02 0.  0.
         12    1    1    2    0    0  0.30909182495E+01 -0.27610372907E+02 -0.15647147958E+02  0.31886042509E+02  0.00000000000E+00 0. -1.
         11    1    3    3    0    0  0.75616901118E+01  0.95870592483E+01 -0.72534929401E+01  0.14202254133E+02  0.51100000000E-03 0. -1.
        -11    1    3    3    0    0  0.83610565973E+01  0.47821767048E+01  0.19409680207E+02  0.21668229449E+02  0.51100000000E-03 0.  1.
        -12    1    3    3    0    0 -0.19013664959E+02  0.13241136953E+02  0.34909606912E+01  0.23431473908E+02  0.00000000000E+00 0.  1.
</event>
<event>
 7    1  0.7012292E-013  0.5930194E+02  0.7816164E-02  0.1266605E+00
        -11   -1    0    0    0    0  0.00000000000E+00  0.00000000000E+00  0.45593999997E+02  0.45594000000E+02  0.51100000000E-03 0.  1.
         11   -1    0    0    0    0 -0.00000000000E+00 -0.00000000000E+00 -0.45593999997E+02  0.45594000000E+02  0.51100000000E-03 0. -1.
    9900012    2    1    2    0    0  0.55053295974E+01  0.31122382745E+02 -0.42201489040E+01  0.59301936924E+02  0.49999987045E+02 0.  0.
         12    1    1    2    0    0 -0.55053295974E+01 -0.31122382745E+02  0.42201489040E+01  0.31886063076E+02  0.00000000000E+00 0. -1.
         11    1    3    3    0    0 -0.61959567161E+01  0.10999484401E+02 -0.66568067325E+01  0.14272057064E+02  0.51100000000E-03 0. -1.
        -11    1    3    3    0    0 -0.81742736035E+01  0.79518760725E+01  0.14771140215E+02  0.18661127123E+02  0.51100000000E-03 0.  1.
         12    1    3    3    0    0  0.19875559917E+02  0.12171022272E+02 -0.12334482386E+02  0.26368752737E+02  0.00000000000E+00 0. -1.
</event>
<event>
 7    1  0.7012292E-013  0.5930195E+02  0.7816164E-02  0.1266605E+00
        -11   -1    0    0    0    0  0.00000000000E+00  0.00000000000E+00  0.45593999997E+02  0.45594000000E+02  0.51100000000E-03 0.  1.
         11   -1    0    0    0    0 -0.00000000000E+00 -0.00000000000E+00 -0.45593999997E+02  0.45594000000E+02  0.51100000000E-03 0. -1.
    9900012    2    1    2    0    0  0.12769908043E+02 -0.26513433123E+02  0.12275475682E+02  0.59301953042E+02  0.50000016440E+02 0.  0.
         12    1    1    2    0    0 -0.12769908043E+02  0.26513433123E+02 -0.12275475682E+02  0.31886046958E+02  0.00000000000E+00 0. -1.
         11    1    3    3    0    0 -0.92017322065E+01 -0.15105411344E+02 -0.21727779131E+00  0.17688768679E+02  0.51100000000E-03 0. -1.
        -11    1    3    3    0    0 -0.66013150941E+01 -0.58759334431E+01 -0.20591331035E+01  0.90743586108E+01  0.51100000000E-03 0.  1.
        -12    1    3    3    0    0  0.28572955344E+02 -0.55320883358E+01  0.14551886577E+02  0.32538825753E+02  0.00000000000E+00 0.  1.
</event>
<event>
 7    1  0.7012292E-013  0.5930181E+02  0.7816164E-02  0.1266605E+00
        -11   -1    0    0    0    0  0.00000000000E+00  0.00000000000E+00  0.45593999997E+02  0.45594000000E+02  0.51100000000E-03 0. -1.
         11   -1    0    0    0    0 -0.00000000000E+00 -0.00000000000E+00 -0.45593999997E+02  0.45594000000E+02  0.51100000000E-03 0.  1.
    9900012    2    1    2    0    0  0.13716413240E+02  0.22855506336E+02 -0.17498996238E+02  0.59301811275E+02  0.49999757891E+02 0.  0.
         12    1    1    2    0    0 -0.13716413240E+02 -0.22855506336E+02  0.17498996238E+02  0.31886188725E+02  0.00000000000E+00 0. -1.
         11    1    3    3    0    0  0.97317189702E+01  0.30062102117E+02 -0.26754795606E+02  0.41403567793E+02  0.51100000000E-03 0.  1.
        -11    1    3    3    0    0 -0.45014134126E+01 -0.36970399155E+01  0.18836281837E+01  0.61219998565E+01  0.51100000000E-03 0. -1.
        -12    1    3    3    0    0  0.84861076819E+01 -0.35095558650E+01  0.73721711849E+01  0.11776243626E+02  0.00000000000E+00 0.  1.
</event>
<event>
 7    1  0.7012292E-013  0.5930194E+02  0.7816164E-02  0.1266605E+00
        -11   -1    0    0    0    0  0.00000000000E+00  0.00000000000E+00  0.45593999997E+02  0.45594000000E+02  0.51100000000E-03 0.  1.
         11   -1    0    0    0    0 -0.00000000000E+00 -0.00000000000E+00 -0.45593999997E+02  0.45594000000E+02  0.51100000000E-03 0. -1.
    9900012    2    1    2    0    0 -0.19041537314E+02 -0.21768773467E+02  0.13426132886E+02  0.59301942141E+02  0.49999996558E+02 0.  0.
         12    1    1    2    0    0  0.19041537314E+02  0.21768773467E+02 -0.13426132886E+02  0.31886057859E+02  0.00000000000E+00 0. -1.
         11    1    3    3    0    0 -0.11756239490E+02 -0.67903619973E+01  0.91754060603E+01  0.16386160613E+02  0.51100000000E-03 0. -1.
        -11    1    3    3    0    0 -0.46735241088E+01  0.36159351183E+01  0.18450882021E+02  0.19373999638E+02  0.51100000000E-03 0.  1.
         12    1    3    3    0    0 -0.26117737154E+01 -0.18594346588E+02 -0.14200155195E+02  0.23541781889E+02  0.00000000000E+00 0. -1.
</event>
<event>
 7    1  0.7012292E-013  0.5930195E+02  0.7816164E-02  0.1266605E+00
        -11   -1    0    0    0    0  0.00000000000E+00  0.00000000000E+00  0.45593999997E+02  0.45594000000E+02  0.51100000000E-03 0. -1.
         11   -1    0    0    0    0 -0.00000000000E+00 -0.00000000000E+00 -0.45593999997E+02  0.45594000000E+02  0.51100000000E-03 0.  1.
    9900012    2    1    2    0    0  0.15059929950E+02  0.19388653204E+02 -0.20346957137E+02  0.59301952458E+02  0.50000015374E+02 0.  0.
         12    1    1    2    0    0 -0.15059929950E+02 -0.19388653204E+02  0.20346957137E+02  0.31886047542E+02  0.00000000000E+00 0. -1.
         11    1    3    3    0    0  0.41897477724E+01  0.16355531956E+02  0.27143028673E+01  0.17100434271E+02  0.51100000000E-03 0. -1.
        -11    1    3    3    0    0  0.57691405030E+01  0.30147746758E+01  0.82323242580E+01  0.10494904070E+02  0.51100000000E-03 0.  1.
        -12    1    3    3    0    0  0.51010416743E+01  0.18346572386E-01 -0.31293584262E+02  0.31706614116E+02  0.00000000000E+00 0.  1.
</event>
<event>
 7    1  0.7012292E-013  0.5930200E+02  0.7816164E-02  0.1266605E+00
        -11   -1    0    0    0    0  0.00000000000E+00  0.00000000000E+00  0.45593999997E+02  0.45594000000E+02  0.51100000000E-03 0. -1.
         11   -1    0    0    0    0 -0.00000000000E+00 -0.00000000000E+00 -0.45593999997E+02  0.45594000000E+02  0.51100000000E-03 0.  1.
    9900012    2    1    2    0    0  0.25468847251E+02 -0.19141974099E+02  0.12804604574E+01  0.59302001008E+02  0.50000103918E+02 0.  0.
         12    1    1    2    0    0 -0.25468847251E+02  0.19141974099E+02 -0.12804604574E+01  0.31885998992E+02  0.00000000000E+00 0. -1.
         11    1    3    3    0    0 -0.59397059901E+01  0.36136913612E+01 -0.79263010971E+01  0.10543487177E+02  0.51100000000E-03 0. -1.
        -11    1    3    3    0    0  0.81738768026E+01 -0.59936568688E+01 -0.10022008191E+02  0.14254011123E+02  0.51100000000E-03 0.  1.
         12    1    3    3    0    0  0.23234676439E+02 -0.16762008592E+02  0.19228769745E+02  0.34504502709E+02  0.00000000000E+00 0. -1.
</event>
<event>
 7    1  0.7012292E-013  0.5930195E+02  0.7816164E-02  0.1266605E+00
        -11   -1    0    0    0    0  0.00000000000E+00  0.00000000000E+00  0.45593999997E+02  0.45594000000E+02  0.51100000000E-03 0.  1.
         11   -1    0    0    0    0 -0.00000000000E+00 -0.00000000000E+00 -0.45593999997E+02  0.45594000000E+02  0.51100000000E-03 0. -1.
    9900012    2    1    2    0    0 -0.83475133326E+01 -0.30686156557E+02  0.23235496039E+01  0.59301951862E+02  0.50000014288E+02 0.  0.
         12    1    1    2    0    0  0.83475133326E+01  0.30686156557E+02 -0.23235496039E+01  0.31886048138E+02  0.00000000000E+00 0. -1.
         11    1    3    3    0    0 -0.16731102616E+01 -0.19772949170E+01 -0.45537470884E+01  0.52388554038E+01  0.51100000000E-03 0. -1.
        -11    1    3    3    0    0 -0.25652375003E+01 -0.40116600588E+02  0.15449014793E+00  0.40198830252E+02  0.51100000000E-03 0.  1.
         12    1    3    3    0    0 -0.41091655707E+01  0.11407738948E+02  0.67228065444E+01  0.13864266206E+02  0.00000000000E+00 0. -1.
</event>
<event>
 7    1  0.7012292E-013  0.5930196E+02  0.7816164E-02  0.1266605E+00
        -11   -1    0    0    0    0  0.00000000000E+00  0.00000000000E+00  0.45593999997E+02  0.45594000000E+02  0.51100000000E-03 0.  1.
         11   -1    0    0    0    0 -0.00000000000E+00 -0.00000000000E+00 -0.45593999997E+02  0.45594000000E+02  0.51100000000E-03 0. -1.
    9900012    2    1    2    0    0 -0.10001198304E+02  0.24657426377E+02  0.17570059200E+02  0.59301958801E+02  0.50000026942E+02 0.  0.
         12    1    1    2    0    0  0.10001198304E+02 -0.24657426377E+02 -0.17570059200E+02  0.31886041199E+02  0.00000000000E+00 0. -1.
         11    1    3    3    0    0 -0.92478711641E+01  0.29250547502E+01 -0.95158011864E+01  0.13587845261E+02  0.51100000000E-03 0. -1.
        -11    1    3    3    0    0 -0.16795095077E+01  0.17856158403E+02 -0.40138199055E+00  0.17939460774E+02  0.51100000000E-03 0.  1.
        -12    1    3    3    0    0  0.92618236800E+00  0.38762132238E+01  0.27487242377E+02  0.27774652765E+02  0.00000000000E+00 0.  1.
</event>
<event>
 7    1  0.7012292E-013  0.5930196E+02  0.7816164E-02  0.1266605E+00
        -11   -1    0    0    0    0  0.00000000000E+00  0.00000000000E+00  0.45593999997E+02  0.45594000000E+02  0.51100000000E-03 0. -1.
         11   -1    0    0    0    0 -0.00000000000E+00 -0.00000000000E+00 -0.45593999997E+02  0.45594000000E+02  0.51100000000E-03 0.  1.
    9900012    2    1    2    0    0  0.27319024284E+02 -0.15269238887E+02 -0.61025080651E+01  0.59301963107E+02  0.50000034797E+02 0.  0.
         12    1    1    2    0    0 -0.27319024284E+02  0.15269238887E+02  0.61025080651E+01  0.31886036893E+02  0.00000000000E+00 0. -1.
         11    1    3    3    0    0 -0.16784865475E+01  0.47490193589E+01 -0.56912424917E+01  0.76000489026E+01  0.51100000000E-03 0. -1.
        -11    1    3    3    0    0 -0.50935561023E+01 -0.86826030375E+01  0.10109817181E+02  0.14266755516E+02  0.51100000000E-03 0.  1.
        -12    1    3    3    0    0  0.34091066934E+02 -0.11335655208E+02 -0.10521082754E+02  0.37435158688E+02  0.00000000000E+00 0.  1.
</event>
<event>
 7    1  0.7012292E-013  0.5930195E+02  0.7816164E-02  0.1266605E+00
        -11   -1    0    0    0    0  0.00000000000E+00  0.00000000000E+00  0.45593999997E+02  0.45594000000E+02  0.51100000000E-03 0.  1.
         11   -1    0    0    0    0 -0.00000000000E+00 -0.00000000000E+00 -0.45593999997E+02  0.45594000000E+02  0.51100000000E-03 0. -1.
    9900012    2    1    2    0    0  0.11690168655E+02 -0.69046908607E+01  0.28851087107E+02  0.59301952482E+02  0.50000015419E+02 0.  0.
         12    1    1    2    0    0 -0.11690168655E+02  0.69046908607E+01 -0.28851087107E+02  0.31886047518E+02  0.00000000000E+00 0. -1.
         11    1    3    3    0    0 -0.45828172122E+01  0.10621835473E+02 -0.10775552926E+00  0.11568803479E+02  0.51100000000E-03 0. -1.
        -11    1    3    3    0    0  0.24487135343E+02 -0.93790546533E+01  0.18067552397E+02  0.31843726437E+02  0.51100000000E-03 0.  1.
         12    1    3    3    0    0 -0.82141494765E+01 -0.81474716808E+01  0.10891290240E+02  0.15889422566E+02  0.00000000000E+00 0. -1.
</event>
<event>
 7    1  0.7012292E-013  0.5930194E+02  0.7816164E-02  0.1266605E+00
        -11   -1    0    0    0    0  0.00000000000E+00  0.00000000000E+00  0.45593999997E+02  0.45594000000E+02  0.51100000000E-03 0.  1.
         11   -1    0    0    0    0 -0.00000000000E+00 -0.00000000000E+00 -0.45593999997E+02  0.45594000000E+02  0.51100000000E-03 0. -1.
    9900012    2    1    2    0    0  0.26322843256E+02 -0.12238424346E+02  0.13192780571E+02  0.59301944007E+02  0.49999999963E+02 0.  0.
         12    1    1    2    0    0 -0.26322843256E+02  0.12238424346E+02 -0.13192780571E+02  0.31886055993E+02  0.00000000000E+00 0. -1.
         11    1    3    3    0    0 -0.89128373850E+01 -0.41364255395E+01 -0.31075823709E+00  0.98308319809E+01  0.51100000000E-03 0. -1.
        -11    1    3    3    0    0  0.37228890480E+01 -0.13837445042E+02 -0.88598857369E+00  0.14356871670E+02  0.51100000000E-03 0.  1.
        -12    1    3    3    0    0  0.31512791593E+02  0.57354462353E+01  0.14389527382E+02  0.35114240356E+02  0.00000000000E+00 0.  1.
</event>
<event>
 7    1  0.7012292E-013  0.5930197E+02  0.7816164E-02  0.1266605E+00
        -11   -1    0    0    0    0  0.00000000000E+00  0.00000000000E+00  0.45593999997E+02  0.45594000000E+02  0.51100000000E-03 0.  1.
         11   -1    0    0    0    0 -0.00000000000E+00 -0.00000000000E+00 -0.45593999997E+02  0.45594000000E+02  0.51100000000E-03 0. -1.
    9900012    2    1    2    0    0 -0.61527357361E+01 -0.71206751079E+01  0.30465702629E+02  0.59301965318E+02  0.50000038829E+02 0.  0.
         12    1    1    2    0    0  0.61527357361E+01  0.71206751079E+01 -0.30465702629E+02  0.31886034682E+02  0.00000000000E+00 0. -1.
         11    1    3    3    0    0 -0.61055373011E+01 -0.54013301407E+01  0.15394360993E+02  0.17419480580E+02  0.51100000000E-03 0. -1.
        -11    1    3    3    0    0  0.52724005842E+01 -0.18145384775E+02  0.15756039926E+02  0.24602967117E+02  0.51100000000E-03 0.  1.
         12    1    3    3    0    0 -0.53195990192E+01  0.16426039808E+02 -0.68469828968E+00  0.17279517622E+02  0.00000000000E+00 0. -1.
</event>
<event>
 7    1  0.7012292E-013  0.5930195E+02  0.7816164E-02  0.1266605E+00
        -11   -1    0    0    0    0  0.00000000000E+00  0.00000000000E+00  0.45593999997E+02  0.45594000000E+02  0.51100000000E-03 0.  1.
         11   -1    0    0    0    0 -0.00000000000E+00 -0.00000000000E+00 -0.45593999997E+02  0.45594000000E+02  0.51100000000E-03 0. -1.
    9900012    2    1    2    0    0  0.18368484744E+02 -0.16340574578E+02  0.20305286381E+02  0.59301948749E+02  0.50000008611E+02 0.  0.
         12    1    1    2    0    0 -0.18368484744E+02  0.16340574578E+02 -0.20305286381E+02  0.31886051251E+02  0.00000000000E+00 0. -1.
         11    1    3    3    0    0 -0.15323106080E+01 -0.51011248208E+01  0.48105691030E+01  0.71771181956E+01  0.51100000000E-03 0. -1.
        -11    1    3    3    0    0  0.11536077735E+01 -0.25649670764E+02  0.45765106835E+01  0.26080277442E+02  0.51100000000E-03 0.  1.
        -12    1    3    3    0    0  0.18747187579E+02  0.14410221006E+02  0.10918206594E+02  0.26044553112E+02  0.00000000000E+00 0.  1.
</event>
<event>
 7    1  0.7012292E-013  0.5930194E+02  0.7816164E-02  0.1266605E+00
        -11   -1    0    0    0    0  0.00000000000E+00  0.00000000000E+00  0.45593999997E+02  0.45594000000E+02  0.51100000000E-03 0. -1.
         11   -1    0    0    0    0 -0.00000000000E+00 -0.00000000000E+00 -0.45593999997E+02  0.45594000000E+02  0.51100000000E-03 0.  1.
    9900012    2    1    2    0    0  0.13167075900E+01 -0.26353422666E+02 -0.17902080982E+02  0.59301935512E+02  0.49999984469E+02 0.  0.
         12    1    1    2    0    0 -0.13167075900E+01  0.26353422666E+02  0.17902080982E+02  0.31886064488E+02  0.00000000000E+00 0. -1.
         11    1    3    3    0    0 -0.29080893456E+01  0.21068135961E+01 -0.14730090525E+02  0.15161504355E+02  0.51100000000E-03 0. -1.
        -11    1    3    3    0    0 -0.13516268627E+02 -0.45958859862E+01 -0.51444117343E+00  0.14285528887E+02  0.51100000000E-03 0.  1.
        -12    1    3    3    0    0  0.17741065562E+02 -0.23864350276E+02 -0.26575492832E+01  0.29854902270E+02  0.00000000000E+00 0.  1.
</event>
<event>
 7    1  0.7012292E-013  0.5930198E+02  0.7816164E-02  0.1266605E+00
        -11   -1    0    0    0    0  0.00000000000E+00  0.00000000000E+00  0.45593999997E+02  0.45594000000E+02  0.51100000000E-03 0.  1.
         11   -1    0    0    0    0 -0.00000000000E+00 -0.00000000000E+00 -0.45593999997E+02  0.45594000000E+02  0.51100000000E-03 0. -1.
    9900012    2    1    2    0    0  0.14236600951E+02 -0.26383648199E+02  0.10860043870E+02  0.59301980308E+02  0.50000066167E+02 0.  0.
         12    1    1    2    0    0 -0.14236600951E+02  0.26383648199E+02 -0.10860043870E+02  0.31886019692E+02  0.00000000000E+00 0. -1.
         11    1    3    3    0    0 -0.37629967960E+00  0.56195590799E+01  0.31566314852E+00  0.56409829982E+01  0.51100000000E-03 0. -1.
        -11    1    3    3    0    0 -0.95444171228E+01  0.27462307913E+01  0.45242125255E+01  0.10913577828E+02  0.51100000000E-03 0.  1.
        -12    1    3    3    0    0  0.24157317753E+02 -0.34749438070E+02  0.60201681962E+01  0.42747419482E+02  0.00000000000E+00 0.  1.
</event>
<event>
 7    1  0.7012292E-013  0.5930197E+02  0.7816164E-02  0.1266605E+00
        -11   -1    0    0    0    0  0.00000000000E+00  0.00000000000E+00  0.45593999997E+02  0.45594000000E+02  0.51100000000E-03 0. -1.
         11   -1    0    0    0    0 -0.00000000000E+00 -0.00000000000E+00 -0.45593999997E+02  0.45594000000E+02  0.51100000000E-03 0.  1.
    9900012    2    1    2    0    0  0.27697900985E+02  0.15537535388E+02  0.28513642832E+01  0.59301968526E+02  0.50000044679E+02 0.  0.
         12    1    1    2    0    0 -0.27697900985E+02 -0.15537535388E+02 -0.28513642832E+01  0.31886031474E+02  0.00000000000E+00 0. -1.
         11    1    3    3    0    0  0.11608577287E+02  0.48628038250E+01  0.39376507810E+01  0.13187532810E+02  0.51100000000E-03 0. -1.
        -11    1    3    3    0    0  0.22740684493E+02 -0.19873294712E+01 -0.14055208745E+02  0.26807407610E+02  0.51100000000E-03 0.  1.
        -12    1    3    3    0    0 -0.66513607955E+01  0.12662061034E+02  0.12968922247E+02  0.19307028107E+02  0.00000000000E+00 0.  1.
</event>
<event>
 7    1  0.7012292E-013  0.5930195E+02  0.7816164E-02  0.1266605E+00
        -11   -1    0    0    0    0  0.00000000000E+00  0.00000000000E+00  0.45593999997E+02  0.45594000000E+02  0.51100000000E-03 0.  1.
         11   -1    0    0    0    0 -0.00000000000E+00 -0.00000000000E+00 -0.45593999997E+02  0.45594000000E+02  0.51100000000E-03 0. -1.
    9900012    2    1    2    0    0  0.18956590909E+02 -0.19679683861E+02  0.16434051722E+02  0.59301947379E+02  0.50000006113E+02 0.  0.
         12    1    1    2    0    0 -0.18956590909E+02  0.19679683861E+02 -0.16434051722E+02  0.31886052621E+02  0.00000000000E+00 0. -1.
         11    1    3    3    0    0 -0.71417207026E+01  0.24284244166E+01 -0.98811056906E+01  0.12431318099E+02  0.51100000000E-03 0. -1.
        -11    1    3    3    0    0  0.76287542818E+01 -0.17380015907E+02  0.85720732067E+01  0.20826504367E+02  0.51100000000E-03 0.  1.
        -12    1    3    3    0    0  0.18469557329E+02 -0.47280923704E+01  0.17743084206E+02  0.26044124914E+02  0.00000000000E+00 0.  1.
</event>
<event>
 7    1  0.7012292E-013  0.5930192E+02  0.7816164E-02  0.1266605E+00
        -11   -1    0    0    0    0  0.00000000000E+00  0.00000000000E+00  0.45593999997E+02  0.45594000000E+02  0.51100000000E-03 0. -1.
         11   -1    0    0    0    0 -0.00000000000E+00 -0.00000000000E+00 -0.45593999997E+02  0.45594000000E+02  0.51100000000E-03 0.  1.
    9900012    2    1    2    0    0  0.14157535479E+02  0.25781972841E+02 -0.12311615374E+02  0.59301924551E+02  0.49999964479E+02 0.  0.
         12    1    1    2    0    0 -0.14157535479E+02 -0.25781972841E+02  0.12311615374E+02  0.31886075449E+02  0.00000000000E+00 0. -1.
         11    1    3    3    0    0  0.10101440943E+02  0.17252472136E+02 -0.15468797281E+02  0.25277867662E+02  0.51100000000E-03 0. -1.
        -11    1    3    3    0    0 -0.23614847865E+00  0.13313153162E+02 -0.11770309003E+02  0.17771775024E+02  0.51100000000E-03 0.  1.
         12    1    3    3    0    0  0.42922430146E+01 -0.47836524573E+01  0.14927490911E+02  0.16252281865E+02  0.00000000000E+00 0. -1.
</event>
<event>
 7    1  0.8112611E-013  0.5930186E+02  0.7816164E-02  0.1266605E+00
        -11   -1    0    0    0    0  0.00000000000E+00  0.00000000000E+00  0.45593999997E+02  0.45594000000E+02  0.51100000000E-03 0. -1.
         11   -1    0    0    0    0 -0.00000000000E+00 -0.00000000000E+00 -0.45593999997E+02  0.45594000000E+02  0.51100000000E-03 0.  1.
    9900012    2    1    2    0    0  0.17694640231E+02 -0.42501833296E+01 -0.26183228549E+02  0.59301861813E+02  0.49999850060E+02 0.  0.
         12    1    1    2    0    0 -0.17694640231E+02  0.42501833296E+01  0.26183228549E+02  0.31886138187E+02  0.00000000000E+00 0. -1.
         11    1    3    3    0    0  0.20895573719E+01 -0.10774707002E+02  0.18099591792E+01  0.11123691540E+02  0.51100000000E-03 0. -1.
        -11    1    3    3    0    0  0.39914751631E+01 -0.26864154168E+01 -0.32367655970E+02  0.32723292240E+02  0.51100000000E-03 0.  1.
         12    1    3    3    0    0  0.11613607696E+02  0.92109390889E+01  0.43744682418E+01  0.15454878033E+02  0.00000000000E+00 0. -1.
</event>
<event>
 7    1  0.7012292E-013  0.5930223E+02  0.7816164E-02  0.1266604E+00
        -11   -1    0    0    0    0  0.00000000000E+00  0.00000000000E+00  0.45593999997E+02  0.45594000000E+02  0.51100000000E-03 0. -1.
         11   -1    0    0    0    0 -0.00000000000E+00 -0.00000000000E+00 -0.45593999997E+02  0.45594000000E+02  0.51100000000E-03 0.  1.
    9900012    2    1    2    0    0 -0.30301097427E+02 -0.93428722455E+01  0.33550620634E+01  0.59302231882E+02  0.50000524974E+02 0.  0.
         12    1    1    2    0    0  0.30301097427E+02  0.93428722455E+01 -0.33550620634E+01  0.31885768118E+02  0.00000000000E+00 0. -1.
         11    1    3    3    0    0 -0.13108362025E+02  0.55552941739E+01  0.18490096765E+02  0.23336112079E+02  0.51100000000E-03 0. -1.
        -11    1    3    3    0    0 -0.13302698270E+02 -0.83754306227E+01  0.32695534405E+01  0.16056138993E+02  0.51100000000E-03 0.  1.
        -12    1    3    3    0    0 -0.38900371315E+01 -0.65227357967E+01 -0.18404588142E+02  0.19909980810E+02  0.00000000000E+00 0.  1.
</event>
<event>
 7    1  0.7012292E-013  0.5930194E+02  0.7816164E-02  0.1266605E+00
        -11   -1    0    0    0    0  0.00000000000E+00  0.00000000000E+00  0.45593999997E+02  0.45594000000E+02  0.51100000000E-03 0.  1.
         11   -1    0    0    0    0 -0.00000000000E+00 -0.00000000000E+00 -0.45593999997E+02  0.45594000000E+02  0.51100000000E-03 0. -1.
    9900012    2    1    2    0    0 -0.46184082510E+01  0.89132582841E+00  0.31537226697E+02  0.59301939970E+02  0.49999992599E+02 0.  0.
         12    1    1    2    0    0  0.46184082510E+01 -0.89132582841E+00 -0.31537226697E+02  0.31886060030E+02  0.00000000000E+00 0. -1.
         11    1    3    3    0    0  0.69258892406E+01  0.33949708933E+01 -0.26792334549E+01  0.81652961554E+01  0.51100000000E-03 0. -1.
        -11    1    3    3    0    0  0.78011161362E+01  0.10688702299E+02  0.61698950709E+01  0.14600458049E+02  0.51100000000E-03 0.  1.
         12    1    3    3    0    0 -0.19345413628E+02 -0.13192347364E+02  0.28046565081E+02  0.36536185765E+02  0.00000000000E+00 0. -1.
</event>
<event>
 7    1  0.7012292E-013  0.5930197E+02  0.7816164E-02  0.1266605E+00
        -11   -1    0    0    0    0  0.00000000000E+00  0.00000000000E+00  0.45593999997E+02  0.45594000000E+02  0.51100000000E-03 0.  1.
         11   -1    0    0    0    0 -0.00000000000E+00 -0.00000000000E+00 -0.45593999997E+02  0.45594000000E+02  0.51100000000E-03 0. -1.
    9900012    2    1    2    0    0  0.31099545262E+01  0.14612280076E+02  0.28169630493E+02  0.59301974405E+02  0.50000055400E+02 0.  0.
         12    1    1    2    0    0 -0.31099545262E+01 -0.14612280076E+02 -0.28169630493E+02  0.31886025595E+02  0.00000000000E+00 0. -1.
         11    1    3    3    0    0  0.47229180576E+01 -0.29869707778E+01  0.35768693652E+01  0.66349034750E+01  0.51100000000E-03 0. -1.
        -11    1    3    3    0    0  0.10316346281E+02 -0.58748156030E+01 -0.51522901694E+01  0.12941659600E+02  0.51100000000E-03 0.  1.
        -12    1    3    3    0    0 -0.11929309812E+02  0.23474066457E+02  0.29745051297E+02  0.39725411329E+02  0.00000000000E+00 0.  1.
</event>
<event>
 7    1  0.7012292E-013  0.5930176E+02  0.7816164E-02  0.1266605E+00
        -11   -1    0    0    0    0  0.00000000000E+00  0.00000000000E+00  0.45593999997E+02  0.45594000000E+02  0.51100000000E-03 0.  1.
         11   -1    0    0    0    0 -0.00000000000E+00 -0.00000000000E+00 -0.45593999997E+02  0.45594000000E+02  0.51100000000E-03 0. -1.
    9900012    2    1    2    0    0  0.29099635545E+01 -0.17837095179E+02  0.26269799201E+02  0.59301761552E+02  0.49999667206E+02 0.  0.
         12    1    1    2    0    0 -0.29099635545E+01  0.17837095179E+02 -0.26269799201E+02  0.31886238448E+02  0.00000000000E+00 0. -1.
         11    1    3    3    0    0 -0.16947070884E+01 -0.47917626187E+01  0.66885309678E+01  0.84005635453E+01  0.51100000000E-03 0. -1.
        -11    1    3    3    0    0 -0.12904920078E+02 -0.19869297547E+01  0.26105338289E+02  0.29188585775E+02  0.51100000000E-03 0.  1.
         12    1    3    3    0    0  0.17509590721E+02 -0.11058402805E+02 -0.65240700553E+01  0.21712612232E+02  0.00000000000E+00 0. -1.
</event>
<event>
 7    1  0.7012292E-013  0.5930195E+02  0.7816164E-02  0.1266605E+00
        -11   -1    0    0    0    0  0.00000000000E+00  0.00000000000E+00  0.45593999997E+02  0.45594000000E+02  0.51100000000E-03 0. -1.
         11   -1    0    0    0    0 -0.00000000000E+00 -0.00000000000E+00 -0.45593999997E+02  0.45594000000E+02  0.51100000000E-03 0.  1.
    9900012    2    1    2    0    0 -0.67960424879E+01  0.20690107461E+02 -0.23290632666E+02  0.59301948031E+02  0.50000007300E+02 0.  0.
         12    1    1    2    0    0  0.67960424879E+01 -0.20690107461E+02  0.23290632666E+02  0.31886051969E+02  0.00000000000E+00 0. -1.
         11    1    3    3    0    0  0.90786823713E+00 -0.36050133206E+01  0.67961208403E+01  0.77464575461E+01  0.51100000000E-03 0. -1.
        -11    1    3    3    0    0 -0.13114723202E+01  0.46115989242E+01  0.73521375757E+01  0.87772849719E+01  0.51100000000E-03 0.  1.
        -12    1    3    3    0    0 -0.63924384048E+01  0.19683521857E+02 -0.37438891082E+02  0.42778205513E+02  0.00000000000E+00 0.  1.
</event>
<event>
 7    1  0.7012292E-013  0.5930193E+02  0.7816164E-02  0.1266605E+00
        -11   -1    0    0    0    0  0.00000000000E+00  0.00000000000E+00  0.45593999997E+02  0.45594000000E+02  0.51100000000E-03 0. -1.
         11   -1    0    0    0    0 -0.00000000000E+00 -0.00000000000E+00 -0.45593999997E+02  0.45594000000E+02  0.51100000000E-03 0.  1.
    9900012    2    1    2    0    0  0.16856203429E+02  0.69833387628E+01 -0.26150001364E+02  0.59301934303E+02  0.49999982264E+02 0.  0.
         12    1    1    2    0    0 -0.16856203429E+02 -0.69833387628E+01  0.26150001364E+02  0.31886065697E+02  0.00000000000E+00 0. -1.
         11    1    3    3    0    0  0.19208845134E+01 -0.23646452999E+01 -0.35245414016E+01  0.46587269786E+01  0.51100000000E-03 0. -1.
        -11    1    3    3    0    0  0.28927825848E+02  0.70225333550E+01 -0.26590754655E+02  0.39914951038E+02  0.51100000000E-03 0.  1.
         12    1    3    3    0    0 -0.13992506932E+02  0.23254507078E+01  0.39652946925E+01  0.14728256286E+02  0.00000000000E+00 0. -1.
</event>
<event>
 7    1  0.7012292E-013  0.5930192E+02  0.7816164E-02  0.1266605E+00
        -11   -1    0    0    0    0  0.00000000000E+00  0.00000000000E+00  0.45593999997E+02  0.45594000000E+02  0.51100000000E-03 0. -1.
         11   -1    0    0    0    0 -0.00000000000E+00 -0.00000000000E+00 -0.45593999997E+02  0.45594000000E+02  0.51100000000E-03 0.  1.
    9900012    2    1    2    0    0 -0.54120624460E+01 -0.18585858503E+02 -0.25337673869E+02  0.59301917248E+02  0.49999951160E+02 0.  0.
         12    1    1    2    0    0  0.54120624460E+01  0.18585858503E+02  0.25337673869E+02  0.31886082752E+02  0.00000000000E+00 0. -1.
         11    1    3    3    0    0  0.38249463487E+01 -0.11740827165E+02 -0.47385833084E+01  0.13226163810E+02  0.51100000000E-03 0. -1.
        -11    1    3    3    0    0  0.10663356637E+02 -0.16062401021E+02 -0.93319623521E+01  0.21419463647E+02  0.51100000000E-03 0.  1.
        -12    1    3    3    0    0 -0.19900365431E+02  0.92173696837E+01 -0.11267128208E+02  0.24656289791E+02  0.00000000000E+00 0.  1.
</event>
<event>
 7    1  0.7012292E-013  0.5930165E+02  0.7816164E-02  0.1266606E+00
        -11   -1    0    0    0    0  0.00000000000E+00  0.00000000000E+00  0.45593999997E+02  0.45594000000E+02  0.51100000000E-03 0.  1.
         11   -1    0    0    0    0 -0.00000000000E+00 -0.00000000000E+00 -0.45593999997E+02  0.45594000000E+02  0.51100000000E-03 0. -1.
    9900012    2    1    2    0    0 -0.15508846538E+02  0.84163485290E+01  0.26558992489E+02  0.59301649856E+02  0.49999463498E+02 0.  0.
         12    1    1    2    0    0  0.15508846538E+02 -0.84163485290E+01 -0.26558992489E+02  0.31886350144E+02  0.00000000000E+00 0. -1.
         11    1    3    3    0    0 -0.18333317396E+01  0.44915912578E+00  0.46528825776E+01  0.50211717486E+01  0.51100000000E-03 0. -1.
        -11    1    3    3    0    0  0.12513787556E+02 -0.29589378245E+01  0.22479648341E+02  0.25897582548E+02  0.51100000000E-03 0.  1.
         12    1    3    3    0    0 -0.26189302354E+02  0.10926127228E+02 -0.57353842972E+00  0.28382895559E+02  0.00000000000E+00 0. -1.
</event>
<event>
 7    1  0.7012292E-013  0.5930196E+02  0.7816164E-02  0.1266605E+00
        -11   -1    0    0    0    0  0.00000000000E+00  0.00000000000E+00  0.45593999997E+02  0.45594000000E+02  0.51100000000E-03 0.  1.
         11   -1    0    0    0    0 -0.00000000000E+00 -0.00000000000E+00 -0.45593999997E+02  0.45594000000E+02  0.51100000000E-03 0. -1.
    9900012    2    1    2    0    0 -0.19423096473E+01  0.87389296131E+01  0.30603564287E+02  0.59301959095E+02  0.50000027479E+02 0.  0.
         12    1    1    2    0    0  0.19423096473E+01 -0.87389296131E+01 -0.30603564287E+02  0.31886040905E+02  0.00000000000E+00 0. -1.
         11    1    3    3    0    0 -0.46382312743E+01  0.45909052886E+00 -0.26737756544E+01  0.53733630046E+01  0.51100000000E-03 0. -1.
        -11    1    3    3    0    0 -0.52504703438E+01 -0.18061924528E+01 -0.85388694260E+01  0.10185384693E+02  0.51100000000E-03 0.  1.
        -12    1    3    3    0    0  0.79463919709E+01  0.10086031537E+02  0.41816209367E+02  0.43743211397E+02  0.00000000000E+00 0.  1.
</event>
<event>
 7    1  0.7012292E-013  0.5930194E+02  0.7816164E-02  0.1266605E+00
        -11   -1    0    0    0    0  0.00000000000E+00  0.00000000000E+00  0.45593999997E+02  0.45594000000E+02  0.51100000000E-03 0. -1.
         11   -1    0    0    0    0 -0.00000000000E+00 -0.00000000000E+00 -0.45593999997E+02  0.45594000000E+02  0.51100000000E-03 0.  1.
    9900012    2    1    2    0    0 -0.10842602087E+02  0.29666171269E+02 -0.43677162478E+01  0.59301942185E+02  0.49999996639E+02 0.  0.
         12    1    1    2    0    0  0.10842602087E+02 -0.29666171269E+02  0.43677162478E+01  0.31886057815E+02  0.00000000000E+00 0. -1.
         11    1    3    3    0    0  0.67018433334E+01  0.75545186351E+01  0.14672731457E+02  0.17812201002E+02  0.51100000000E-03 0. -1.
        -11    1    3    3    0    0 -0.66982341679E+01  0.68960829877E+01  0.51632268687E+01  0.10912433894E+02  0.51100000000E-03 0.  1.
         12    1    3    3    0    0 -0.10846211253E+02  0.15215569646E+02 -0.24203674573E+02  0.30577307289E+02  0.00000000000E+00 0. -1.
</event>
<event>
 7    1  0.7012292E-013  0.5930195E+02  0.7816164E-02  0.1266605E+00
        -11   -1    0    0    0    0  0.00000000000E+00  0.00000000000E+00  0.45593999997E+02  0.45594000000E+02  0.51100000000E-03 0.  1.
         11   -1    0    0    0    0 -0.00000000000E+00 -0.00000000000E+00 -0.45593999997E+02  0.45594000000E+02  0.51100000000E-03 0. -1.
    9900012    2    1    2    0    0 -0.65503564049E+01 -0.14831940341E+02  0.27455901058E+02  0.59301950916E+02  0.50000012562E+02 0.  0.
         12    1    1    2    0    0  0.65503564049E+01  0.14831940341E+02 -0.27455901058E+02  0.31886049084E+02  0.00000000000E+00 0. -1.
         11    1    3    3    0    0  0.15396063714E+02  0.14288468495E+01  0.24309357023E+01  0.15652150966E+02  0.51100000000E-03 0. -1.
        -11    1    3    3    0    0 -0.77233723114E+01  0.39148719391E+01  0.22987179458E+00  0.86619595626E+01  0.51100000000E-03 0.  1.
         12    1    3    3    0    0 -0.14223047808E+02 -0.20175659130E+02  0.24795093561E+02  0.34987840387E+02  0.00000000000E+00 0. -1.
</event>
<event>
 7    1  0.7012292E-013  0.5930195E+02  0.7816164E-02  0.1266605E+00
        -11   -1    0    0    0    0  0.00000000000E+00  0.00000000000E+00  0.45593999997E+02  0.45594000000E+02  0.51100000000E-03 0. -1.
         11   -1    0    0    0    0 -0.00000000000E+00 -0.00000000000E+00 -0.45593999997E+02  0.45594000000E+02  0.51100000000E-03 0.  1.
    9900012    2    1    2    0    0 -0.14943646459E+01 -0.59899098893E+00 -0.31845377858E+02  0.59301952788E+02  0.50000015976E+02 0.  0.
         12    1    1    2    0    0  0.14943646459E+01  0.59899098893E+00  0.31845377858E+02  0.31886047212E+02  0.00000000000E+00 0. -1.
         11    1    3    3    0    0  0.35260254484E+01  0.10453600600E+02 -0.32660826362E+02  0.34473761035E+02  0.51100000000E-03 0.  1.
        -11    1    3    3    0    0 -0.30108216108E+01 -0.83573926485E+01 -0.10074241214E+02  0.13431358641E+02  0.51100000000E-03 0. -1.
         12    1    3    3    0    0 -0.20095684835E+01 -0.26951989401E+01  0.10889689718E+02  0.11396833112E+02  0.00000000000E+00 0. -1.
</event>
<event>
 7    1  0.7012292E-013  0.5930216E+02  0.7816164E-02  0.1266604E+00
        -11   -1    0    0    0    0  0.00000000000E+00  0.00000000000E+00  0.45593999997E+02  0.45594000000E+02  0.51100000000E-03 0.  1.
         11   -1    0    0    0    0 -0.00000000000E+00 -0.00000000000E+00 -0.45593999997E+02  0.45594000000E+02  0.51100000000E-03 0. -1.
    9900012    2    1    2    0    0 -0.26008141793E+02 -0.18285886853E+02 -0.24310385407E+01  0.59302156027E+02  0.50000386634E+02 0.  0.
         12    1    1    2    0    0  0.26008141793E+02  0.18285886853E+02  0.24310385407E+01  0.31885843973E+02  0.00000000000E+00 0. -1.
         11    1    3    3    0    0 -0.25114727555E+02 -0.13418836503E+02 -0.17302182666E+02  0.33319367319E+02  0.51100000000E-03 0. -1.
        -11    1    3    3    0    0 -0.56935655528E+01 -0.84145960943E+01  0.16865800307E+02  0.19689523519E+02  0.51100000000E-03 0.  1.
        -12    1    3    3    0    0  0.48001513153E+01  0.35475457444E+01 -0.19946561814E+01  0.62932651891E+01  0.00000000000E+00 0.  1.
</event>
<event>
 7    1  0.7012292E-013  0.5930196E+02  0.7816164E-02  0.1266605E+00
        -11   -1    0    0    0    0  0.00000000000E+00  0.00000000000E+00  0.45593999997E+02  0.45594000000E+02  0.51100000000E-03 0. -1.
         11   -1    0    0    0    0 -0.00000000000E+00 -0.00000000000E+00 -0.45593999997E+02  0.45594000000E+02  0.51100000000E-03 0.  1.
    9900012    2    1    2    0    0 -0.30961772615E+02 -0.18264899056E+01 -0.73994696516E+01  0.59301959481E+02  0.50000028184E+02 0.  0.
         12    1    1    2    0    0  0.30961772615E+02  0.18264899056E+01  0.73994696516E+01  0.31886040519E+02  0.00000000000E+00 0. -1.
         11    1    3    3    0    0 -0.19086433323E+02 -0.12741766892E+02  0.71615501472E+01  0.24040223820E+02  0.51100000000E-03 0. -1.
        -11    1    3    3    0    0 -0.16495077413E+02 -0.22141700223E+01 -0.24708150513E+01  0.16825428821E+02  0.51100000000E-03 0.  1.
         12    1    3    3    0    0  0.46197381213E+01  0.13129447009E+02 -0.12090204748E+02  0.18436306840E+02  0.00000000000E+00 0. -1.
</event>
<event>
 7    1  0.7012292E-013  0.5930198E+02  0.7816164E-02  0.1266605E+00
        -11   -1    0    0    0    0  0.00000000000E+00  0.00000000000E+00  0.45593999997E+02  0.45594000000E+02  0.51100000000E-03 0. -1.
         11   -1    0    0    0    0 -0.00000000000E+00 -0.00000000000E+00 -0.45593999997E+02  0.45594000000E+02  0.51100000000E-03 0.  1.
    9900012    2    1    2    0    0 -0.67493936115E+01  0.22008617068E+02 -0.22063205772E+02  0.59301975031E+02  0.50000056543E+02 0.  0.
         12    1    1    2    0    0  0.67493936115E+01 -0.22008617068E+02  0.22063205772E+02  0.31886024969E+02  0.00000000000E+00 0. -1.
         11    1    3    3    0    0 -0.13052726993E+01 -0.92377561873E+01 -0.16651592179E+01  0.94769526578E+01  0.51100000000E-03 0. -1.
        -11    1    3    3    0    0 -0.15426445530E+02  0.95915404590E+01  0.42162736174E+00  0.18170047880E+02  0.51100000000E-03 0.  1.
        -12    1    3    3    0    0  0.99823246180E+01  0.21654832796E+02 -0.20819673916E+02  0.31654974493E+02  0.00000000000E+00 0.  1.
</event>
<event>
 7    1  0.7012292E-013  0.5930195E+02  0.7816164E-02  0.1266605E+00
        -11   -1    0    0    0    0  0.00000000000E+00  0.00000000000E+00  0.45593999997E+02  0.45594000000E+02  0.51100000000E-03 0.  1.
         11   -1    0    0    0    0 -0.00000000000E+00 -0.00000000000E+00 -0.45593999997E+02  0.45594000000E+02  0.51100000000E-03 0. -1.
    9900012    2    1    2    0    0  0.17459701010E+02  0.25380684673E+02  0.82279921292E+01  0.59301950255E+02  0.50000011358E+02 0.  0.
         12    1    1    2    0    0 -0.17459701010E+02 -0.25380684673E+02 -0.82279921292E+01  0.31886049745E+02  0.00000000000E+00 0. -1.
         11    1    3    3    0    0 -0.24980312129E+01  0.84216323520E+01  0.44860262609E+01  0.98634924489E+01  0.51100000000E-03 0. -1.
        -11    1    3    3    0    0 -0.34974278628E+01 -0.68906332818E+01  0.12648596983E+02  0.14822274946E+02  0.51100000000E-03 0.  1.
        -12    1    3    3    0    0  0.23455160086E+02  0.23849685603E+02 -0.89066311146E+01  0.34616182860E+02  0.00000000000E+00 0.  1.
</event>
<event>
 7    1  0.7012292E-013  0.5930195E+02  0.7816164E-02  0.1266605E+00
        -11   -1    0    0    0    0  0.00000000000E+00  0.00000000000E+00  0.45593999997E+02  0.45594000000E+02  0.51100000000E-03 0.  1.
         11   -1    0    0    0    0 -0.00000000000E+00 -0.00000000000E+00 -0.45593999997E+02  0.45594000000E+02  0.51100000000E-03 0. -1.
    9900012    2    1    2    0    0 -0.14839807142E+01 -0.26784214708E+02  0.17237282721E+02  0.59301948632E+02  0.50000008396E+02 0.  0.
         12    1    1    2    0    0  0.14839807142E+01  0.26784214708E+02 -0.17237282721E+02  0.31886051368E+02  0.00000000000E+00 0. -1.
         11    1    3    3    0    0 -0.85668152651E+01 -0.16336655239E+02 -0.36955682842E+01  0.18813129814E+02  0.51100000000E-03 0. -1.
        -11    1    3    3    0    0 -0.11773227718E+02 -0.97375550790E+01  0.12839332672E+02  0.19956886870E+02  0.51100000000E-03 0.  1.
         12    1    3    3    0    0  0.18856062269E+02 -0.71000438979E+00  0.80935183324E+01  0.20531931948E+02  0.00000000000E+00 0. -1.
</event>
<event>
 7    1  0.7012292E-013  0.5930193E+02  0.7816164E-02  0.1266605E+00
        -11   -1    0    0    0    0  0.00000000000E+00  0.00000000000E+00  0.45593999997E+02  0.45594000000E+02  0.51100000000E-03 0.  1.
         11   -1    0    0    0    0 -0.00000000000E+00 -0.00000000000E+00 -0.45593999997E+02  0.45594000000E+02  0.51100000000E-03 0. -1.
    9900012    2    1    2    0    0 -0.25085907849E+02  0.11128898944E+02  0.16234722885E+02  0.59301931076E+02  0.49999976379E+02 0.  0.
         12    1    1    2    0    0  0.25085907849E+02 -0.11128898944E+02 -0.16234722885E+02  0.31886068924E+02  0.00000000000E+00 0. -1.
         11    1    3    3    0    0 -0.10363413093E+02 -0.29116739527E+00  0.18959711097E+02  0.21609159043E+02  0.51100000000E-03 0. -1.
        -11    1    3    3    0    0 -0.24133853879E+02  0.79254396621E+01  0.38501414076E+01  0.25692004321E+02  0.51100000000E-03 0.  1.
         12    1    3    3    0    0  0.94113591236E+01  0.34946266768E+01 -0.65751296198E+01  0.12000767712E+02  0.00000000000E+00 0. -1.
</event>
<event>
 7    1  0.8174186E-013  0.5930194E+02  0.7816164E-02  0.1266605E+00
        -11   -1    0    0    0    0  0.00000000000E+00  0.00000000000E+00  0.45593999997E+02  0.45594000000E+02  0.51100000000E-03 0. -1.
         11   -1    0    0    0    0 -0.00000000000E+00 -0.00000000000E+00 -0.45593999997E+02  0.45594000000E+02  0.51100000000E-03 0.  1.
    9900012    2    1    2    0    0  0.55518167696E+01 -0.35256577875E+01 -0.31200444484E+02  0.59301942415E+02  0.49999997059E+02 0.  0.
         12    1    1    2    0    0 -0.55518167696E+01  0.35256577875E+01  0.31200444484E+02  0.31886057585E+02  0.00000000000E+00 0. -1.
         11    1    3    3    0    0 -0.10219455028E+02 -0.85792410915E+01 -0.12258027801E+02  0.18119047564E+02  0.51100000000E-03 0. -1.
        -11    1    3    3    0    0  0.71104357686E+01  0.15317838175E+02 -0.21675452999E+02  0.27477622280E+02  0.51100000000E-03 0.  1.
         12    1    3    3    0    0  0.86608360287E+01 -0.10264254871E+02  0.27330363163E+01  0.13705272572E+02  0.00000000000E+00 0. -1.
</event>
<event>
 7    1  0.7012292E-013  0.5930194E+02  0.7816164E-02  0.1266605E+00
        -11   -1    0    0    0    0  0.00000000000E+00  0.00000000000E+00  0.45593999997E+02  0.45594000000E+02  0.51100000000E-03 0. -1.
         11   -1    0    0    0    0 -0.00000000000E+00 -0.00000000000E+00 -0.45593999997E+02  0.45594000000E+02  0.51100000000E-03 0.  1.
    9900012    2    1    2    0    0  0.28713470791E+02  0.71800632734E+01 -0.11861878012E+02  0.59301939355E+02  0.49999991478E+02 0.  0.
         12    1    1    2    0    0 -0.28713470791E+02 -0.71800632734E+01  0.11861878012E+02  0.31886060645E+02  0.00000000000E+00 0. -1.
         11    1    3    3    0    0  0.37740160019E+01 -0.40556933560E+01  0.56771687319E+01  0.79323445746E+01  0.51100000000E-03 0. -1.
        -11    1    3    3    0    0  0.10600994394E+02  0.21833520872E+02  0.26723242940E+01  0.24417719656E+02  0.51100000000E-03 0.  1.
        -12    1    3    3    0    0  0.14338460395E+02 -0.10597764243E+02 -0.20211371038E+02  0.26951875124E+02  0.00000000000E+00 0.  1.
</event>
<event>
 7    1  0.7012292E-013  0.5930199E+02  0.7816164E-02  0.1266605E+00
        -11   -1    0    0    0    0  0.00000000000E+00  0.00000000000E+00  0.45593999997E+02  0.45594000000E+02  0.51100000000E-03 0. -1.
         11   -1    0    0    0    0 -0.00000000000E+00 -0.00000000000E+00 -0.45593999997E+02  0.45594000000E+02  0.51100000000E-03 0.  1.
    9900012    2    1    2    0    0  0.19516024813E+02  0.18447987195E+02 -0.17190521874E+02  0.59301992123E+02  0.50000087715E+02 0.  0.
         12    1    1    2    0    0 -0.19516024813E+02 -0.18447987195E+02  0.17190521874E+02  0.31886007877E+02  0.00000000000E+00 0. -1.
         11    1    3    3    0    0  0.61893505687E+01  0.19741093549E+02  0.90740265931E+01  0.22591077748E+02  0.51100000000E-03 0. -1.
        -11    1    3    3    0    0  0.66705488670E+01  0.10301433375E+02 -0.13000667027E+02  0.17878285577E+02  0.51100000000E-03 0.  1.
        -12    1    3    3    0    0  0.66561253771E+01 -0.11594539729E+02 -0.13263881440E+02  0.18832628797E+02  0.00000000000E+00 0.  1.
</event>
<event>
 7    1  0.7012292E-013  0.5930193E+02  0.7816164E-02  0.1266605E+00
        -11   -1    0    0    0    0  0.00000000000E+00  0.00000000000E+00  0.45593999997E+02  0.45594000000E+02  0.51100000000E-03 0.  1.
         11   -1    0    0    0    0 -0.00000000000E+00 -0.00000000000E+00 -0.45593999997E+02  0.45594000000E+02  0.51100000000E-03 0. -1.
    9900012    2    1    2    0    0  0.47419706779E+00 -0.31670853806E+01  0.31724854692E+02  0.59301926270E+02  0.49999967614E+02 0.  0.
         12    1    1    2    0    0 -0.47419706779E+00  0.31670853806E+01 -0.31724854692E+02  0.31886073730E+02  0.00000000000E+00 0. -1.
         11    1    3    3    0    0 -0.30943276797E+00 -0.86148790204E+01  0.29557981333E+02  0.30789383721E+02  0.51100000000E-03 0. -1.
        -11    1    3    3    0    0 -0.70602834059E+01  0.12067163537E+02  0.85860206435E+01  0.16406821397E+02  0.51100000000E-03 0.  1.
         12    1    3    3    0    0  0.78439132416E+01 -0.66193698970E+01 -0.64191472837E+01  0.12105721153E+02  0.00000000000E+00 0. -1.
</event>
<event>
 7    1  0.7012292E-013  0.5930208E+02  0.7816164E-02  0.1266604E+00
        -11   -1    0    0    0    0  0.00000000000E+00  0.00000000000E+00  0.45593999997E+02  0.45594000000E+02  0.51100000000E-03 0.  1.
         11   -1    0    0    0    0 -0.00000000000E+00 -0.00000000000E+00 -0.45593999997E+02  0.45594000000E+02  0.51100000000E-03 0. -1.
    9900012    2    1    2    0    0  0.72508430850E+01 -0.26243199574E+02  0.16596135818E+02  0.59302078759E+02  0.50000245716E+02 0.  0.
         12    1    1    2    0    0 -0.72508430850E+01  0.26243199574E+02 -0.16596135818E+02  0.31885921241E+02  0.00000000000E+00 0. -1.
         11    1    3    3    0    0  0.28731244316E+01  0.33628029559E+01 -0.28329557281E+00  0.44321038303E+01  0.51100000000E-03 0. -1.
        -11    1    3    3    0    0  0.75181305201E+01  0.98612327184E+01  0.61952683739E+01  0.13861729608E+02  0.51100000000E-03 0.  1.
         12    1    3    3    0    0 -0.31404118667E+01 -0.39467235249E+02  0.10684163016E+02  0.41008245320E+02  0.00000000000E+00 0. -1.
</event>
<event>
 7    1  0.7012292E-013  0.5930194E+02  0.7816164E-02  0.1266605E+00
        -11   -1    0    0    0    0  0.00000000000E+00  0.00000000000E+00  0.45593999997E+02  0.45594000000E+02  0.51100000000E-03 0. -1.
         11   -1    0    0    0    0 -0.00000000000E+00 -0.00000000000E+00 -0.45593999997E+02  0.45594000000E+02  0.51100000000E-03 0.  1.
    9900012    2    1    2    0    0 -0.19512705090E+02 -0.11112897746E+02 -0.22637998279E+02  0.59301935296E+02  0.49999984075E+02 0.  0.
         12    1    1    2    0    0  0.19512705090E+02  0.11112897746E+02  0.22637998279E+02  0.31886064704E+02  0.00000000000E+00 0. -1.
         11    1    3    3    0    0 -0.28581087948E+01  0.42475823272E+01 -0.10205353630E+00  0.51206597910E+01  0.51100000000E-03 0. -1.
        -11    1    3    3    0    0  0.63204104235E+01  0.63551172213E+01  0.66458623769E+01  0.11158072854E+02  0.51100000000E-03 0.  1.
        -12    1    3    3    0    0 -0.22975006719E+02 -0.21715597295E+02 -0.29181807119E+02  0.43023202651E+02  0.00000000000E+00 0.  1.
</event>
<event>
 7    1  0.9290838E-013  0.5930196E+02  0.7816164E-02  0.1266605E+00
        -11   -1    0    0    0    0  0.00000000000E+00  0.00000000000E+00  0.45593999997E+02  0.45594000000E+02  0.51100000000E-03 0.  1.
         11   -1    0    0    0    0 -0.00000000000E+00 -0.00000000000E+00 -0.45593999997E+02  0.45594000000E+02  0.51100000000E-03 0. -1.
    9900012    2    1    2    0    0 -0.21569086060E+02 -0.23026714729E+02 -0.46113748640E+01  0.59301955360E+02  0.50000020667E+02 0.  0.
         12    1    1    2    0    0  0.21569086060E+02  0.23026714729E+02  0.46113748640E+01  0.31886044640E+02  0.00000000000E+00 0. -1.
         11    1    3    3    0    0 -0.70362355600E+01 -0.16038540230E+02  0.89983380719E+01  0.19690441129E+02  0.51100000000E-03 0. -1.
        -11    1    3    3    0    0 -0.13466514558E+02 -0.12917629681E+02  0.55972816718E+01  0.19481830851E+02  0.51100000000E-03 0.  1.
         12    1    3    3    0    0 -0.10663359419E+01  0.59294551819E+01 -0.19206994608E+02  0.20129683379E+02  0.00000000000E+00 0. -1.
</event>
<event>
 7    1  0.7012292E-013  0.5930189E+02  0.7816164E-02  0.1266605E+00
        -11   -1    0    0    0    0  0.00000000000E+00  0.00000000000E+00  0.45593999997E+02  0.45594000000E+02  0.51100000000E-03 0.  1.
         11   -1    0    0    0    0 -0.00000000000E+00 -0.00000000000E+00 -0.45593999997E+02  0.45594000000E+02  0.51100000000E-03 0. -1.
    9900012    2    1    2    0    0 -0.11894003471E+02 -0.24268613630E+02  0.16920135566E+02  0.59301891525E+02  0.49999904248E+02 0.  0.
         12    1    1    2    0    0  0.11894003471E+02  0.24268613630E+02 -0.16920135566E+02  0.31886108475E+02  0.00000000000E+00 0. -1.
         11    1    3    3    0    0 -0.12539205958E+02 -0.85605966934E+01  0.40993396474E+01  0.15726413692E+02  0.51100000000E-03 0. -1.
        -11    1    3    3    0    0 -0.18099526764E+02 -0.33346269294E+01  0.99808501950E+01  0.20936331501E+02  0.51100000000E-03 0.  1.
        -12    1    3    3    0    0  0.18744729251E+02 -0.12373390007E+02  0.28399457233E+01  0.22639146332E+02  0.00000000000E+00 0.  1.
</event>
<event>
 7    1  0.7012292E-013  0.5930197E+02  0.7816164E-02  0.1266605E+00
        -11   -1    0    0    0    0  0.00000000000E+00  0.00000000000E+00  0.45593999997E+02  0.45594000000E+02  0.51100000000E-03 0. -1.
         11   -1    0    0    0    0 -0.00000000000E+00 -0.00000000000E+00 -0.45593999997E+02  0.45594000000E+02  0.51100000000E-03 0.  1.
    9900012    2    1    2    0    0  0.88510150018E+01  0.20458854210E+02 -0.22799425497E+02  0.59301968809E+02  0.50000045194E+02 0.  0.
         12    1    1    2    0    0 -0.88510150018E+01 -0.20458854210E+02  0.22799425497E+02  0.31886031191E+02  0.00000000000E+00 0. -1.
         11    1    3    3    0    0 -0.16163312478E+02  0.14985442074E+01  0.49647433494E+01  0.16974892688E+02  0.51100000000E-03 0. -1.
        -11    1    3    3    0    0  0.21584730877E+01  0.18378020138E+01 -0.56838884398E+00  0.28912952896E+01  0.51100000000E-03 0.  1.
        -12    1    3    3    0    0  0.22855854392E+02  0.17122507989E+02 -0.27195780002E+02  0.39435780831E+02  0.00000000000E+00 0.  1.
</event>
<event>
 7    1  0.7012292E-013  0.5930194E+02  0.7816164E-02  0.1266605E+00
        -11   -1    0    0    0    0  0.00000000000E+00  0.00000000000E+00  0.45593999997E+02  0.45594000000E+02  0.51100000000E-03 0.  1.
         11   -1    0    0    0    0 -0.00000000000E+00 -0.00000000000E+00 -0.45593999997E+02  0.45594000000E+02  0.51100000000E-03 0. -1.
    9900012    2    1    2    0    0  0.31134455401E+02 -0.32172720761E+01  0.60840406833E+01  0.59301941859E+02  0.49999996045E+02 0.  0.
         12    1    1    2    0    0 -0.31134455401E+02  0.32172720761E+01 -0.60840406833E+01  0.31886058141E+02  0.00000000000E+00 0. -1.
         11    1    3    3    0    0  0.10704355687E+02  0.13812767280E+02  0.66563796503E+01  0.18699817136E+02  0.51100000000E-03 0. -1.
        -11    1    3    3    0    0 -0.38463636364E+01  0.31823497582E+01 -0.67689486728E+01  0.84107389451E+01  0.51100000000E-03 0.  1.
        -12    1    3    3    0    0  0.24276463350E+02 -0.20212389114E+02  0.61966097057E+01  0.32191385779E+02  0.00000000000E+00 0.  1.
</event>
<event>
 7    1  0.7012292E-013  0.5930193E+02  0.7816164E-02  0.1266605E+00
        -11   -1    0    0    0    0  0.00000000000E+00  0.00000000000E+00  0.45593999997E+02  0.45594000000E+02  0.51100000000E-03 0. -1.
         11   -1    0    0    0    0 -0.00000000000E+00 -0.00000000000E+00 -0.45593999997E+02  0.45594000000E+02  0.51100000000E-03 0.  1.
    9900012    2    1    2    0    0 -0.27715625207E+02 -0.99630902212E+01 -0.12218941722E+02  0.59301928054E+02  0.49999970867E+02 0.  0.
         12    1    1    2    0    0  0.27715625207E+02  0.99630902212E+01  0.12218941722E+02  0.31886071946E+02  0.00000000000E+00 0. -1.
         11    1    3    3    0    0  0.49870430638E+01 -0.92129478912E+01 -0.11484088087E+02  0.15544558110E+02  0.51100000000E-03 0. -1.
        -11    1    3    3    0    0 -0.21623991047E+02 -0.60659130310E+00 -0.14533354858E+02  0.26061146282E+02  0.51100000000E-03 0.  1.
        -12    1    3    3    0    0 -0.11078677223E+02 -0.14355102682E+00  0.13798501223E+02  0.17696223663E+02  0.00000000000E+00 0.  1.
</event>
<event>
 7    1  0.7012292E-013  0.5930197E+02  0.7816164E-02  0.1266605E+00
        -11   -1    0    0    0    0  0.00000000000E+00  0.00000000000E+00  0.45593999997E+02  0.45594000000E+02  0.51100000000E-03 0.  1.
         11   -1    0    0    0    0 -0.00000000000E+00 -0.00000000000E+00 -0.45593999997E+02  0.45594000000E+02  0.51100000000E-03 0. -1.
    9900012    2    1    2    0    0  0.13130661397E+01  0.29108755705E+02 -0.12948946091E+02  0.59301968478E+02  0.50000044591E+02 0.  0.
         12    1    1    2    0    0 -0.13130661397E+01 -0.29108755705E+02  0.12948946091E+02  0.31886031522E+02  0.00000000000E+00 0. -1.
         11    1    3    3    0    0 -0.11523767259E+02  0.21836743264E+00  0.48825250461E+01  0.12517345856E+02  0.51100000000E-03 0.  1.
        -11    1    3    3    0    0  0.24761365567E+01 -0.36867684354E+01 -0.11083228318E+02  0.11939910550E+02  0.51100000000E-03 0. -1.
        -12    1    3    3    0    0  0.10360696842E+02  0.32577156708E+02 -0.67482428193E+01  0.34844712072E+02  0.00000000000E+00 0.  1.
</event>
<event>
 7    1  0.7012292E-013  0.5930194E+02  0.7816164E-02  0.1266605E+00
        -11   -1    0    0    0    0  0.00000000000E+00  0.00000000000E+00  0.45593999997E+02  0.45594000000E+02  0.51100000000E-03 0.  1.
         11   -1    0    0    0    0 -0.00000000000E+00 -0.00000000000E+00 -0.45593999997E+02  0.45594000000E+02  0.51100000000E-03 0. -1.
    9900012    2    1    2    0    0  0.27321557038E+00  0.84788097499E+01  0.30736878952E+02  0.59301943655E+02  0.49999999320E+02 0.  0.
         12    1    1    2    0    0 -0.27321557038E+00 -0.84788097499E+01 -0.30736878952E+02  0.31886056345E+02  0.00000000000E+00 0. -1.
         11    1    3    3    0    0  0.62896447463E+00 -0.40634156115E+01  0.12014728138E+02  0.12698843854E+02  0.51100000000E-03 0. -1.
        -11    1    3    3    0    0 -0.48650549462E+01  0.40231501527E+01  0.30635231271E+02  0.31278936876E+02  0.51100000000E-03 0.  1.
         12    1    3    3    0    0  0.45093060420E+01  0.85190752087E+01 -0.11913080457E+02  0.15324162925E+02  0.00000000000E+00 0. -1.
</event>
<event>
 7    1  0.7012292E-013  0.5930194E+02  0.7816164E-02  0.1266605E+00
        -11   -1    0    0    0    0  0.00000000000E+00  0.00000000000E+00  0.45593999997E+02  0.45594000000E+02  0.51100000000E-03 0.  1.
         11   -1    0    0    0    0 -0.00000000000E+00 -0.00000000000E+00 -0.45593999997E+02  0.45594000000E+02  0.51100000000E-03 0. -1.
    9900012    2    1    2    0    0  0.19521063260E+01 -0.12140164472E+02  0.29419830851E+02  0.59301940980E+02  0.49999994442E+02 0.  0.
         12    1    1    2    0    0 -0.19521063260E+01  0.12140164472E+02 -0.29419830851E+02  0.31886059020E+02  0.00000000000E+00 0. -1.
         11    1    3    3    0    0 -0.53069552846E+01  0.81670102945E+01  0.77812917572E+00  0.97708401286E+01  0.51100000000E-03 0. -1.
        -11    1    3    3    0    0 -0.13131230418E+02 -0.13672656742E+02  0.12874000640E+02  0.22915292872E+02  0.51100000000E-03 0.  1.
        -12    1    3    3    0    0  0.20390292029E+02 -0.66345180248E+01  0.15767701036E+02  0.26615807979E+02  0.00000000000E+00 0.  1.
</event>
<event>
 7    1  0.7012292E-013  0.5930193E+02  0.7816164E-02  0.1266605E+00
        -11   -1    0    0    0    0  0.00000000000E+00  0.00000000000E+00  0.45593999997E+02  0.45594000000E+02  0.51100000000E-03 0.  1.
         11   -1    0    0    0    0 -0.00000000000E+00 -0.00000000000E+00 -0.45593999997E+02  0.45594000000E+02  0.51100000000E-03 0. -1.
    9900012    2    1    2    0    0  0.27825641822E+02  0.11876974415E+02  0.10069373520E+02  0.59301934906E+02  0.49999983365E+02 0.  0.
         12    1    1    2    0    0 -0.27825641822E+02 -0.11876974415E+02 -0.10069373520E+02  0.31886065094E+02  0.00000000000E+00 0. -1.
         11    1    3    3    0    0  0.29640643396E+00 -0.10041093357E+02 -0.37107263185E+01  0.10708916969E+02  0.51100000000E-03 0. -1.
        -11    1    3    3    0    0 -0.62894500778E+01  0.63902209101E+01  0.16582491876E+00  0.89676977941E+01  0.51100000000E-03 0.  1.
        -12    1    3    3    0    0  0.33818685466E+02  0.15527846862E+02  0.13614274920E+02  0.39625320143E+02  0.00000000000E+00 0.  1.
</event>
<event>
 7    1  0.7012292E-013  0.5930193E+02  0.7816164E-02  0.1266605E+00
        -11   -1    0    0    0    0  0.00000000000E+00  0.00000000000E+00  0.45593999997E+02  0.45594000000E+02  0.51100000000E-03 0.  1.
         11   -1    0    0    0    0 -0.00000000000E+00 -0.00000000000E+00 -0.45593999997E+02  0.45594000000E+02  0.51100000000E-03 0. -1.
    9900012    2    1    2    0    0 -0.58506066968E+01  0.30022454493E+02  0.90079887395E+01  0.59301933551E+02  0.49999980892E+02 0.  0.
         12    1    1    2    0    0  0.58506066968E+01 -0.30022454493E+02 -0.90079887395E+01  0.31886066449E+02  0.00000000000E+00 0. -1.
         11    1    3    3    0    0 -0.30910827952E+01  0.22159428568E+01 -0.15228109024E+02  0.15695875264E+02  0.51100000000E-03 0. -1.
        -11    1    3    3    0    0 -0.10635508970E+01 -0.41320353983E+01  0.29055932192E+01  0.51621051190E+01  0.51100000000E-03 0.  1.
        -12    1    3    3    0    0 -0.16959730046E+01  0.31938547034E+02  0.21330504544E+02  0.38443953168E+02  0.00000000000E+00 0.  1.
</event>
<event>
 7    1  0.7012292E-013  0.5930213E+02  0.7816164E-02  0.1266604E+00
        -11   -1    0    0    0    0  0.00000000000E+00  0.00000000000E+00  0.45593999997E+02  0.45594000000E+02  0.51100000000E-03 0.  1.
         11   -1    0    0    0    0 -0.00000000000E+00 -0.00000000000E+00 -0.45593999997E+02  0.45594000000E+02  0.51100000000E-03 0. -1.
    9900012    2    1    2    0    0  0.21084960873E+01  0.77483360912E+01  0.30858166121E+02  0.59302127199E+02  0.50000334059E+02 0.  0.
         12    1    1    2    0    0 -0.21084960873E+01 -0.77483360912E+01 -0.30858166121E+02  0.31885872801E+02  0.00000000000E+00 0. -1.
         11    1    3    3    0    0 -0.99869422184E+01 -0.91032228221E+01  0.38169146882E+00  0.13518630451E+02  0.51100000000E-03 0. -1.
        -11    1    3    3    0    0 -0.19619880054E+01  0.10954950502E+02  0.28268464994E+02  0.30380362914E+02  0.51100000000E-03 0.  1.
        -12    1    3    3    0    0  0.14057426311E+02  0.58966084108E+01  0.22080096589E+01  0.15403133834E+02  0.00000000000E+00 0.  1.
</event>
<event>
 7    1  0.7012292E-013  0.5930211E+02  0.7816164E-02  0.1266604E+00
        -11   -1    0    0    0    0  0.00000000000E+00  0.00000000000E+00  0.45593999997E+02  0.45594000000E+02  0.51100000000E-03 0. -1.
         11   -1    0    0    0    0 -0.00000000000E+00 -0.00000000000E+00 -0.45593999997E+02  0.45594000000E+02  0.51100000000E-03 0.  1.
    9900012    2    1    2    0    0 -0.47550673064E+01  0.29792348359E+02 -0.10320618186E+02  0.59302112125E+02  0.50000306569E+02 0.  0.
         12    1    1    2    0    0  0.47550673064E+01 -0.29792348359E+02  0.10320618186E+02  0.31885887875E+02  0.00000000000E+00 0. -1.
         11    1    3    3    0    0 -0.10346645964E+02 -0.54555676862E+01  0.37167657826E+01  0.12273167872E+02  0.51100000000E-03 0. -1.
        -11    1    3    3    0    0 -0.40304471864E+01  0.28758436785E+02 -0.29438839703E+00  0.29040985790E+02  0.51100000000E-03 0.  1.
        -12    1    3    3    0    0  0.96220258436E+01  0.64894792594E+01 -0.13742995572E+02  0.17987958463E+02  0.00000000000E+00 0.  1.
</event>
<event>
 7    1  0.7012292E-013  0.5930198E+02  0.7816164E-02  0.1266605E+00
        -11   -1    0    0    0    0  0.00000000000E+00  0.00000000000E+00  0.45593999997E+02  0.45594000000E+02  0.51100000000E-03 0.  1.
         11   -1    0    0    0    0 -0.00000000000E+00 -0.00000000000E+00 -0.45593999997E+02  0.45594000000E+02  0.51100000000E-03 0. -1.
    9900012    2    1    2    0    0 -0.37405886290E+01  0.25968319301E+02  0.18121059723E+02  0.59301977732E+02  0.50000061468E+02 0.  0.
         12    1    1    2    0    0  0.37405886290E+01 -0.25968319301E+02 -0.18121059723E+02  0.31886022268E+02  0.00000000000E+00 0. -1.
         11    1    3    3    0    0 -0.28870703495E+01  0.26153715347E+02  0.11175356315E+02  0.28587420147E+02  0.51100000000E-03 0. -1.
        -11    1    3    3    0    0  0.88478583193E+00  0.14771259055E+02  0.24400781868E+01  0.14997563864E+02  0.51100000000E-03 0.  1.
         12    1    3    3    0    0 -0.17383041114E+01 -0.14956655101E+02  0.45056252203E+01  0.15716993720E+02  0.00000000000E+00 0. -1.
</event>
<event>
 7    1  0.7012292E-013  0.5930195E+02  0.7816164E-02  0.1266605E+00
        -11   -1    0    0    0    0  0.00000000000E+00  0.00000000000E+00  0.45593999997E+02  0.45594000000E+02  0.51100000000E-03 0.  1.
         11   -1    0    0    0    0 -0.00000000000E+00 -0.00000000000E+00 -0.45593999997E+02  0.45594000000E+02  0.51100000000E-03 0. -1.
    9900012    2    1    2    0    0 -0.26401650720E+01  0.53431906820E+01  0.31324108830E+02  0.59301953643E+02  0.50000017537E+02 0.  0.
         12    1    1    2    0    0  0.26401650720E+01 -0.53431906820E+01 -0.31324108830E+02  0.31886046357E+02  0.00000000000E+00 0. -1.
         11    1    3    3    0    0  0.26360366735E+01  0.55885258248E+01  0.97581765540E+01  0.11549992215E+02  0.51100000000E-03 0. -1.
        -11    1    3    3    0    0 -0.10226308455E+02 -0.14391841785E+02  0.26613594568E+02  0.31937218268E+02  0.51100000000E-03 0.  1.
         12    1    3    3    0    0  0.49501067099E+01  0.14146506643E+02 -0.50476622921E+01  0.15814743161E+02  0.00000000000E+00 0. -1.
</event>
<event>
 7    1  0.7012292E-013  0.5930193E+02  0.7816164E-02  0.1266605E+00
        -11   -1    0    0    0    0  0.00000000000E+00  0.00000000000E+00  0.45593999997E+02  0.45594000000E+02  0.51100000000E-03 0. -1.
         11   -1    0    0    0    0 -0.00000000000E+00 -0.00000000000E+00 -0.45593999997E+02  0.45594000000E+02  0.51100000000E-03 0.  1.
    9900012    2    1    2    0    0 -0.27701984663E+02  0.11569407435E+02 -0.10745723233E+02  0.59301926073E+02  0.49999967255E+02 0.  0.
         12    1    1    2    0    0  0.27701984663E+02 -0.11569407435E+02  0.10745723233E+02  0.31886073927E+02  0.00000000000E+00 0. -1.
         11    1    3    3    0    0 -0.22872128435E+02  0.12948488217E+02 -0.68930147314E+00  0.26292066162E+02  0.51100000000E-03 0. -1.
        -11    1    3    3    0    0 -0.13169191042E+02  0.82826352694E+01  0.17095660372E+01  0.15650950642E+02  0.51100000000E-03 0.  1.
         12    1    3    3    0    0  0.83393348138E+01 -0.96617160513E+01 -0.11765987797E+02  0.17358909270E+02  0.00000000000E+00 0. -1.
</event>
<event>
 7    1  0.7012292E-013  0.5930202E+02  0.7816164E-02  0.1266604E+00
        -11   -1    0    0    0    0  0.00000000000E+00  0.00000000000E+00  0.45593999997E+02  0.45594000000E+02  0.51100000000E-03 0.  1.
         11   -1    0    0    0    0 -0.00000000000E+00 -0.00000000000E+00 -0.45593999997E+02  0.45594000000E+02  0.51100000000E-03 0. -1.
    9900012    2    1    2    0    0 -0.26060545142E+02 -0.18372698620E+02 -0.85831925736E-01  0.59302024481E+02  0.50000146727E+02 0.  0.
         12    1    1    2    0    0  0.26060545142E+02  0.18372698620E+02  0.85831925736E-01  0.31885975519E+02  0.00000000000E+00 0. -1.
         11    1    3    3    0    0  0.26429390453E+01  0.83819659485E+01 -0.36627622439E+01  0.95214656159E+01  0.51100000000E-03 0. -1.
        -11    1    3    3    0    0 -0.24204529265E+01  0.57066073089E+00  0.10887746524E+02  0.11168136401E+02  0.51100000000E-03 0.  1.
         12    1    3    3    0    0 -0.26283031261E+02 -0.27325325299E+02 -0.73108162056E+01  0.38612422464E+02  0.00000000000E+00 0. -1.
</event>
<event>
 7    1  0.7012292E-013  0.5930200E+02  0.7816164E-02  0.1266605E+00
        -11   -1    0    0    0    0  0.00000000000E+00  0.00000000000E+00  0.45593999997E+02  0.45594000000E+02  0.51100000000E-03 0.  1.
         11   -1    0    0    0    0 -0.00000000000E+00 -0.00000000000E+00 -0.45593999997E+02  0.45594000000E+02  0.51100000000E-03 0. -1.
    9900012    2    1    2    0    0  0.12384418613E+02 -0.29357047046E+01  0.29235679806E+02  0.59301997426E+02  0.50000097385E+02 0.  0.
         12    1    1    2    0    0 -0.12384418613E+02  0.29357047046E+01 -0.29235679806E+02  0.31886002574E+02  0.00000000000E+00 0. -1.
         11    1    3    3    0    0  0.10088019453E+02 -0.16886340818E+01 -0.52809106895E+01  0.11511196268E+02  0.51100000000E-03 0. -1.
        -11    1    3    3    0    0  0.14680389402E+02  0.42889369001E+01  0.64120602455E+01  0.16583827351E+02  0.51100000000E-03 0.  1.
         12    1    3    3    0    0 -0.12383990243E+02 -0.55360075229E+01  0.28104530250E+02  0.31206973807E+02  0.00000000000E+00 0. -1.
</event>
<event>
 7    1  0.7012292E-013  0.5930196E+02  0.7816164E-02  0.1266605E+00
        -11   -1    0    0    0    0  0.00000000000E+00  0.00000000000E+00  0.45593999997E+02  0.45594000000E+02  0.51100000000E-03 0.  1.
         11   -1    0    0    0    0 -0.00000000000E+00 -0.00000000000E+00 -0.45593999997E+02  0.45594000000E+02  0.51100000000E-03 0. -1.
    9900012    2    1    2    0    0  0.39993361267E+01  0.11825954439E+02  0.29340616608E+02  0.59301958057E+02  0.50000025586E+02 0.  0.
         12    1    1    2    0    0 -0.39993361267E+01 -0.11825954439E+02 -0.29340616608E+02  0.31886041943E+02  0.00000000000E+00 0. -1.
         11    1    3    3    0    0  0.10698295260E+02  0.20145248332E+02  0.31443790862E+02  0.38845804611E+02  0.51100000000E-03 0. -1.
        -11    1    3    3    0    0 -0.77873253925E-01  0.44697166162E+01  0.27625140834E+01  0.52550846992E+01  0.51100000000E-03 0.  1.
         12    1    3    3    0    0 -0.66210858794E+01 -0.12789010510E+02 -0.48656883373E+01  0.15201068747E+02  0.00000000000E+00 0. -1.
</event>
<event>
 7    1  0.7012292E-013  0.5930194E+02  0.7816164E-02  0.1266605E+00
        -11   -1    0    0    0    0  0.00000000000E+00  0.00000000000E+00  0.45593999997E+02  0.45594000000E+02  0.51100000000E-03 0. -1.
         11   -1    0    0    0    0 -0.00000000000E+00 -0.00000000000E+00 -0.45593999997E+02  0.45594000000E+02  0.51100000000E-03 0.  1.
    9900012    2    1    2    0    0  0.25719236279E+02 -0.11104681747E+02  0.15229169202E+02  0.59301942450E+02  0.49999997123E+02 0.  0.
         12    1    1    2    0    0 -0.25719236279E+02  0.11104681747E+02 -0.15229169202E+02  0.31886057550E+02  0.00000000000E+00 0. -1.
         11    1    3    3    0    0  0.70142016419E+01 -0.24359396237E+01 -0.60399579494E+01  0.95715160144E+01  0.51100000000E-03 0. -1.
        -11    1    3    3    0    0  0.55831310309E+01 -0.11635646760E+02 -0.95817474421E+01  0.16073876693E+02  0.51100000000E-03 0.  1.
         12    1    3    3    0    0  0.13121903607E+02  0.29669046370E+01  0.30850874594E+02  0.33656549743E+02  0.00000000000E+00 0. -1.
</event>
<event>
 7    1  0.7012292E-013  0.5930195E+02  0.7816164E-02  0.1266605E+00
        -11   -1    0    0    0    0  0.00000000000E+00  0.00000000000E+00  0.45593999997E+02  0.45594000000E+02  0.51100000000E-03 0.  1.
         11   -1    0    0    0    0 -0.00000000000E+00 -0.00000000000E+00 -0.45593999997E+02  0.45594000000E+02  0.51100000000E-03 0. -1.
    9900012    2    1    2    0    0 -0.19669151033E+02 -0.16635758776E+02  0.18790852307E+02  0.59301951283E+02  0.50000013231E+02 0.  0.
         12    1    1    2    0    0  0.19669151033E+02  0.16635758776E+02 -0.18790852307E+02  0.31886048717E+02  0.00000000000E+00 0. -1.
         11    1    3    3    0    0 -0.12066771769E+02  0.10835280804E+02 -0.10177725059E+01  0.16249496982E+02  0.51100000000E-03 0. -1.
        -11    1    3    3    0    0 -0.12336637075E+02 -0.62399444341E+01  0.29213364246E+00  0.13828046253E+02  0.51100000000E-03 0.  1.
        -12    1    3    3    0    0  0.47342578110E+01 -0.21231095146E+02  0.19516491170E+02  0.29224408047E+02  0.00000000000E+00 0.  1.
</event>
<event>
 7    1  0.7012292E-013  0.5930202E+02  0.7816164E-02  0.1266605E+00
        -11   -1    0    0    0    0  0.00000000000E+00  0.00000000000E+00  0.45593999997E+02  0.45594000000E+02  0.51100000000E-03 0.  1.
         11   -1    0    0    0    0 -0.00000000000E+00 -0.00000000000E+00 -0.45593999997E+02  0.45594000000E+02  0.51100000000E-03 0. -1.
    9900012    2    1    2    0    0  0.18051106020E+02 -0.25470449580E+02  0.64907470941E+01  0.59302015176E+02  0.50000129758E+02 0.  0.
         12    1    1    2    0    0 -0.18051106020E+02  0.25470449580E+02 -0.64907470941E+01  0.31885984824E+02  0.00000000000E+00 0. -1.
         11    1    3    3    0    0  0.24290735635E+02  0.16812569899E+01 -0.82767419478E+01  0.25717132816E+02  0.51100000000E-03 0. -1.
        -11    1    3    3    0    0  0.12415327137E+01 -0.48076403140E+01  0.73721809014E+01  0.88884115776E+01  0.51100000000E-03 0.  1.
        -12    1    3    3    0    0 -0.74811623289E+01 -0.22344066256E+02  0.73953081405E+01  0.24696470783E+02  0.00000000000E+00 0.  1.
</event>
<event>
 7    1  0.7012292E-013  0.5930196E+02  0.7816164E-02  0.1266605E+00
        -11   -1    0    0    0    0  0.00000000000E+00  0.00000000000E+00  0.45593999997E+02  0.45594000000E+02  0.51100000000E-03 0. -1.
         11   -1    0    0    0    0 -0.00000000000E+00 -0.00000000000E+00 -0.45593999997E+02  0.45594000000E+02  0.51100000000E-03 0.  1.
    9900012    2    1    2    0    0 -0.11844082141E+01 -0.11198982958E+02 -0.29831186333E+02  0.59301957283E+02  0.50000024174E+02 0.  0.
         12    1    1    2    0    0  0.11844082141E+01  0.11198982958E+02  0.29831186333E+02  0.31886042717E+02  0.00000000000E+00 0. -1.
         11    1    3    3    0    0 -0.87781280909E+00 -0.13039283761E+02  0.78175299898E+01  0.15228501296E+02  0.51100000000E-03 0. -1.
        -11    1    3    3    0    0  0.10511137425E+02 -0.13609584558E+01 -0.11748241823E+02  0.15822686374E+02  0.51100000000E-03 0.  1.
        -12    1    3    3    0    0 -0.10817732830E+02  0.32012592584E+01 -0.25900474500E+02  0.28250769613E+02  0.00000000000E+00 0.  1.
</event>
<event>
 7    1  0.7012292E-013  0.5930195E+02  0.7816164E-02  0.1266605E+00
        -11   -1    0    0    0    0  0.00000000000E+00  0.00000000000E+00  0.45593999997E+02  0.45594000000E+02  0.51100000000E-03 0.  1.
         11   -1    0    0    0    0 -0.00000000000E+00 -0.00000000000E+00 -0.45593999997E+02  0.45594000000E+02  0.51100000000E-03 0. -1.
    9900012    2    1    2    0    0 -0.96325617747E+01 -0.29615135931E+02  0.68467183499E+01  0.59301951723E+02  0.50000014035E+02 0.  0.
         12    1    1    2    0    0  0.96325617747E+01  0.29615135931E+02 -0.68467183499E+01  0.31886048277E+02  0.00000000000E+00 0. -1.
         11    1    3    3    0    0  0.92412144436E+01  0.43357108872E+01 -0.94613303109E+01  0.13918160971E+02  0.51100000000E-03 0. -1.
        -11    1    3    3    0    0 -0.71407590265E+01 -0.74981946388E+01 -0.27754172090E+01  0.10719902204E+02  0.51100000000E-03 0.  1.
         12    1    3    3    0    0 -0.11733017192E+02 -0.26452652179E+02  0.19083465870E+02  0.34663888549E+02  0.00000000000E+00 0. -1.
</event>
<event>
 7    1  0.7012292E-013  0.5930182E+02  0.7816164E-02  0.1266605E+00
        -11   -1    0    0    0    0  0.00000000000E+00  0.00000000000E+00  0.45593999997E+02  0.45594000000E+02  0.51100000000E-03 0.  1.
         11   -1    0    0    0    0 -0.00000000000E+00 -0.00000000000E+00 -0.45593999997E+02  0.45594000000E+02  0.51100000000E-03 0. -1.
    9900012    2    1    2    0    0  0.30146126403E+02 -0.10050836680E+02  0.26306869391E+01  0.59301815392E+02  0.49999765398E+02 0.  0.
         12    1    1    2    0    0 -0.30146126403E+02  0.10050836680E+02 -0.26306869391E+01  0.31886184608E+02  0.00000000000E+00 0. -1.
         11    1    3    3    0    0 -0.80267162325E+01  0.11216031685E+02 -0.13952826049E+01  0.13862696492E+02  0.51100000000E-03 0. -1.
        -11    1    3    3    0    0  0.12687856680E+01  0.14353337551E+01 -0.78487249187E-01  0.19173316273E+01  0.51100000000E-03 0.  1.
        -12    1    3    3    0    0  0.36904056968E+02 -0.22702202120E+02  0.41044567932E+01  0.43521787272E+02  0.00000000000E+00 0.  1.
</event>
<event>
 7    1  0.7012292E-013  0.5930193E+02  0.7816164E-02  0.1266605E+00
        -11   -1    0    0    0    0  0.00000000000E+00  0.00000000000E+00  0.45593999997E+02  0.45594000000E+02  0.51100000000E-03 0. -1.
         11   -1    0    0    0    0 -0.00000000000E+00 -0.00000000000E+00 -0.45593999997E+02  0.45594000000E+02  0.51100000000E-03 0.  1.
    9900012    2    1    2    0    0 -0.26536875673E+02  0.52514802746E+01 -0.16880100914E+02  0.59301927453E+02  0.49999969772E+02 0.  0.
         12    1    1    2    0    0  0.26536875673E+02 -0.52514802746E+01  0.16880100914E+02  0.31886072547E+02  0.00000000000E+00 0. -1.
         11    1    3    3    0    0  0.27618400088E+01  0.44362270779E+01 -0.16476385837E+01  0.54792868227E+01  0.51100000000E-03 0. -1.
        -11    1    3    3    0    0  0.22241447362E-01 -0.42599621108E+01 -0.22738086258E+02  0.23133705687E+02  0.51100000000E-03 0.  1.
         12    1    3    3    0    0 -0.29320957130E+02  0.50752153075E+01  0.75056239278E+01  0.30688934943E+02  0.00000000000E+00 0. -1.
</event>
<event>
 7    1  0.7012292E-013  0.5930193E+02  0.7816164E-02  0.1266605E+00
        -11   -1    0    0    0    0  0.00000000000E+00  0.00000000000E+00  0.45593999997E+02  0.45594000000E+02  0.51100000000E-03 0.  1.
         11   -1    0    0    0    0 -0.00000000000E+00 -0.00000000000E+00 -0.45593999997E+02  0.45594000000E+02  0.51100000000E-03 0. -1.
    9900012    2    1    2    0    0 -0.36458046932E+01  0.11007175048E+02  0.29703054077E+02  0.59301933828E+02  0.49999981399E+02 0.  0.
         12    1    1    2    0    0  0.36458046932E+01 -0.11007175048E+02 -0.29703054077E+02  0.31886066172E+02  0.00000000000E+00 0. -1.
         11    1    3    3    0    0 -0.10975723574E+01 -0.16233671955E+02 -0.18246225877E-01  0.16270743788E+02  0.51100000000E-03 0. -1.
        -11    1    3    3    0    0 -0.28221317192E+01  0.16575673798E+02  0.75600266954E+01  0.18435601243E+02  0.51100000000E-03 0.  1.
        -12    1    3    3    0    0  0.27389938341E+00  0.10665173205E+02  0.22161273608E+02  0.24595588797E+02  0.00000000000E+00 0.  1.
</event>
<event>
 7    1  0.7012292E-013  0.5930188E+02  0.7816164E-02  0.1266605E+00
        -11   -1    0    0    0    0  0.00000000000E+00  0.00000000000E+00  0.45593999997E+02  0.45594000000E+02  0.51100000000E-03 0.  1.
         11   -1    0    0    0    0 -0.00000000000E+00 -0.00000000000E+00 -0.45593999997E+02  0.45594000000E+02  0.51100000000E-03 0. -1.
    9900012    2    1    2    0    0 -0.34213363290E+01  0.16980006525E+02  0.26771225266E+02  0.59301879726E+02  0.49999882730E+02 0.  0.
         12    1    1    2    0    0  0.34213363290E+01 -0.16980006525E+02 -0.26771225266E+02  0.31886120274E+02  0.00000000000E+00 0. -1.
         11    1    3    3    0    0  0.66099583559E+01 -0.33220459554E+01 -0.21702225053E+01  0.77095657972E+01  0.51100000000E-03 0. -1.
        -11    1    3    3    0    0 -0.13074809791E+01 -0.78351305971E+01 -0.26721762977E+01  0.83808892375E+01  0.51100000000E-03 0.  1.
        -12    1    3    3    0    0 -0.87238137059E+01  0.28137183078E+02  0.31613624069E+02  0.43211424692E+02  0.00000000000E+00 0.  1.
</event>
<event>
 7    1  0.7012292E-013  0.5930187E+02  0.7816164E-02  0.1266605E+00
        -11   -1    0    0    0    0  0.00000000000E+00  0.00000000000E+00  0.45593999997E+02  0.45594000000E+02  0.51100000000E-03 0.  1.
         11   -1    0    0    0    0 -0.00000000000E+00 -0.00000000000E+00 -0.45593999997E+02  0.45594000000E+02  0.51100000000E-03 0. -1.
    9900012    2    1    2    0    0  0.14787910211E+02  0.27657353064E+02 -0.57544874759E+01  0.59301865191E+02  0.49999856221E+02 0.  0.
         12    1    1    2    0    0 -0.14787910211E+02 -0.27657353064E+02  0.57544874759E+01  0.31886134809E+02  0.00000000000E+00 0. -1.
         11    1    3    3    0    0 -0.10882048375E+02  0.15333483295E+02  0.10771216294E+02  0.21669189821E+02  0.51100000000E-03 0. -1.
        -11    1    3    3    0    0  0.11156411200E+02  0.66345145017E+01  0.23087276493E+01  0.13183797524E+02  0.51100000000E-03 0.  1.
        -12    1    3    3    0    0  0.14513547385E+02  0.56893552676E+01 -0.18834431419E+02  0.24448877846E+02  0.00000000000E+00 0.  1.
</event>
<event>
 7    1  0.7012292E-013  0.5930194E+02  0.7816164E-02  0.1266605E+00
        -11   -1    0    0    0    0  0.00000000000E+00  0.00000000000E+00  0.45593999997E+02  0.45594000000E+02  0.51100000000E-03 0. -1.
         11   -1    0    0    0    0 -0.00000000000E+00 -0.00000000000E+00 -0.45593999997E+02  0.45594000000E+02  0.51100000000E-03 0.  1.
    9900012    2    1    2    0    0 -0.10547677624E+02 -0.29705154570E+02  0.48032660747E+01  0.59301936018E+02  0.49999985392E+02 0.  0.
         12    1    1    2    0    0  0.10547677624E+02  0.29705154570E+02 -0.48032660747E+01  0.31886063982E+02  0.00000000000E+00 0. -1.
         11    1    3    3    0    0 -0.97196426882E-01  0.78095619510E+01  0.89620069948E+01  0.11887652192E+02  0.51100000000E-03 0. -1.
        -11    1    3    3    0    0  0.90527707690E+01 -0.10440466375E+02 -0.27418111059E+00  0.13821402688E+02  0.51100000000E-03 0.  1.
        -12    1    3    3    0    0 -0.19503251966E+02 -0.27074250146E+02 -0.38845598095E+01  0.33592881137E+02  0.00000000000E+00 0.  1.
</event>
<event>
 7    1  0.7012292E-013  0.5930195E+02  0.7816164E-02  0.1266605E+00
        -11   -1    0    0    0    0  0.00000000000E+00  0.00000000000E+00  0.45593999997E+02  0.45594000000E+02  0.51100000000E-03 0.  1.
         11   -1    0    0    0    0 -0.00000000000E+00 -0.00000000000E+00 -0.45593999997E+02  0.45594000000E+02  0.51100000000E-03 0. -1.
    9900012    2    1    2    0    0 -0.21010594173E+02  0.12240190940E+02  0.20626512016E+02  0.59301947568E+02  0.50000006457E+02 0.  0.
         12    1    1    2    0    0  0.21010594173E+02 -0.12240190940E+02 -0.20626512016E+02  0.31886052432E+02  0.00000000000E+00 0. -1.
         11    1    3    3    0    0 -0.14671986673E+02 -0.71058033338E+01  0.48292340677E+01  0.17002386183E+02  0.51100000000E-03 0. -1.
        -11    1    3    3    0    0  0.11383043059E+02 -0.15502181060E+01  0.73076386316E+01  0.13615374695E+02  0.51100000000E-03 0.  1.
         12    1    3    3    0    0 -0.17721650559E+02  0.20896212380E+02  0.84896393164E+01  0.28684186690E+02  0.00000000000E+00 0. -1.
</event>
<event>
 7    1  0.7012292E-013  0.5930195E+02  0.7816164E-02  0.1266605E+00
        -11   -1    0    0    0    0  0.00000000000E+00  0.00000000000E+00  0.45593999997E+02  0.45594000000E+02  0.51100000000E-03 0. -1.
         11   -1    0    0    0    0 -0.00000000000E+00 -0.00000000000E+00 -0.45593999997E+02  0.45594000000E+02  0.51100000000E-03 0.  1.
    9900012    2    1    2    0    0 -0.92014004341E+01  0.27009232296E+02 -0.14232219300E+02  0.59301945597E+02  0.50000002862E+02 0.  0.
         12    1    1    2    0    0  0.92014004341E+01 -0.27009232296E+02  0.14232219300E+02  0.31886054403E+02  0.00000000000E+00 0. -1.
         11    1    3    3    0    0  0.12228566459E+02  0.38515917269E+01  0.62759172538E+01  0.14274443390E+02  0.51100000000E-03 0. -1.
        -11    1    3    3    0    0 -0.72191653766E+00  0.18751740357E+02 -0.11575860951E+02  0.22048797856E+02  0.51100000000E-03 0.  1.
        -12    1    3    3    0    0 -0.20708050355E+02  0.44059002129E+01 -0.89322756029E+01  0.22978704351E+02  0.00000000000E+00 0.  1.
</event>
<event>
 7    1  0.7012292E-013  0.5930191E+02  0.7816164E-02  0.1266605E+00
        -11   -1    0    0    0    0  0.00000000000E+00  0.00000000000E+00  0.45593999997E+02  0.45594000000E+02  0.51100000000E-03 0.  1.
         11   -1    0    0    0    0 -0.00000000000E+00 -0.00000000000E+00 -0.45593999997E+02  0.45594000000E+02  0.51100000000E-03 0. -1.
    9900012    2    1    2    0    0 -0.13618933071E+02  0.24713661840E+02  0.14848636989E+02  0.59301914633E+02  0.49999946392E+02 0.  0.
         12    1    1    2    0    0  0.13618933071E+02 -0.24713661840E+02 -0.14848636989E+02  0.31886085367E+02  0.00000000000E+00 0. -1.
         11    1    3    3    0    0 -0.33341906901E+01  0.19719322956E+01  0.88179019774E+01  0.96312377232E+01  0.51100000000E-03 0. -1.
        -11    1    3    3    0    0  0.57052527598E+00  0.33557183887E+02  0.71182542193E+01  0.34308594155E+02  0.51100000000E-03 0.  1.
         12    1    3    3    0    0 -0.10855267657E+02 -0.10815454342E+02 -0.10875192072E+01  0.15362082755E+02  0.00000000000E+00 0. -1.
</event>
<event>
 7    1  0.7012292E-013  0.5930186E+02  0.7816164E-02  0.1266605E+00
        -11   -1    0    0    0    0  0.00000000000E+00  0.00000000000E+00  0.45593999997E+02  0.45594000000E+02  0.51100000000E-03 0.  1.
         11   -1    0    0    0    0 -0.00000000000E+00 -0.00000000000E+00 -0.45593999997E+02  0.45594000000E+02  0.51100000000E-03 0. -1.
    9900012    2    1    2    0    0 -0.24130445334E+01  0.30740414203E+02  0.81197390391E+01  0.59301858631E+02  0.49999844257E+02 0.  0.
         12    1    1    2    0    0  0.24130445334E+01 -0.30740414203E+02 -0.81197390391E+01  0.31886141369E+02  0.00000000000E+00 0. -1.
         11    1    3    3    0    0  0.83842873781E+01  0.13433951940E+02 -0.13409226293E+02  0.20750293723E+02  0.51100000000E-03 0. -1.
        -11    1    3    3    0    0 -0.84283534659E+01  0.21943164191E+02  0.93340403650E+01  0.25291577781E+02  0.51100000000E-03 0.  1.
         12    1    3    3    0    0 -0.23689784457E+01 -0.46367019276E+01  0.12194924967E+02  0.13259987127E+02  0.00000000000E+00 0. -1.
</event>
<event>
 7    1  0.7012292E-013  0.5930195E+02  0.7816164E-02  0.1266605E+00
        -11   -1    0    0    0    0  0.00000000000E+00  0.00000000000E+00  0.45593999997E+02  0.45594000000E+02  0.51100000000E-03 0. -1.
         11   -1    0    0    0    0 -0.00000000000E+00 -0.00000000000E+00 -0.45593999997E+02  0.45594000000E+02  0.51100000000E-03 0.  1.
    9900012    2    1    2    0    0 -0.29875583819E+02 -0.57963302062E+01  0.95169501058E+01  0.59301948321E+02  0.50000007830E+02 0.  0.
         12    1    1    2    0    0  0.29875583819E+02  0.57963302062E+01 -0.95169501058E+01  0.31886051679E+02  0.00000000000E+00 0. -1.
         11    1    3    3    0    0 -0.15998999807E+02 -0.65411096334E+01  0.21335441137E+02  0.27458243914E+02  0.51100000000E-03 0. -1.
        -11    1    3    3    0    0 -0.10327759935E+02  0.54114828548E+01  0.59805482945E+01  0.13103958567E+02  0.51100000000E-03 0.  1.
        -12    1    3    3    0    0 -0.35488240770E+01 -0.46667034277E+01 -0.17799039326E+02  0.18739745840E+02  0.00000000000E+00 0.  1.
</event>
<event>
 7    1  0.7012292E-013  0.5930194E+02  0.7816164E-02  0.1266605E+00
        -11   -1    0    0    0    0  0.00000000000E+00  0.00000000000E+00  0.45593999997E+02  0.45594000000E+02  0.51100000000E-03 0.  1.
         11   -1    0    0    0    0 -0.00000000000E+00 -0.00000000000E+00 -0.45593999997E+02  0.45594000000E+02  0.51100000000E-03 0. -1.
    9900012    2    1    2    0    0 -0.31042244363E+02 -0.72677881122E+01 -0.52849994739E+00  0.59301937349E+02  0.49999987820E+02 0.  0.
         12    1    1    2    0    0  0.31042244363E+02  0.72677881122E+01  0.52849994739E+00  0.31886062651E+02  0.00000000000E+00 0. -1.
         11    1    3    3    0    0 -0.18988825576E+02 -0.82895440345E+00  0.10965512932E+02  0.21943225293E+02  0.51100000000E-03 0. -1.
        -11    1    3    3    0    0 -0.15803337095E+01 -0.10099479046E+02  0.92809323469E+01  0.13806977842E+02  0.51100000000E-03 0.  1.
         12    1    3    3    0    0 -0.10473085078E+02  0.36606453374E+01 -0.20774945226E+02  0.23551734214E+02  0.00000000000E+00 0. -1.
</event>
<event>
 7    1  0.7012292E-013  0.5930194E+02  0.7816164E-02  0.1266605E+00
        -11   -1    0    0    0    0  0.00000000000E+00  0.00000000000E+00  0.45593999997E+02  0.45594000000E+02  0.51100000000E-03 0. -1.
         11   -1    0    0    0    0 -0.00000000000E+00 -0.00000000000E+00 -0.45593999997E+02  0.45594000000E+02  0.51100000000E-03 0.  1.
    9900012    2    1    2    0    0 -0.58157174322E+01  0.15393045438E+02 -0.27312130010E+02  0.59301939365E+02  0.49999991496E+02 0.  0.
         12    1    1    2    0    0  0.58157174322E+01 -0.15393045438E+02  0.27312130010E+02  0.31886060635E+02  0.00000000000E+00 0. -1.
         11    1    3    3    0    0  0.19768076312E+01 -0.12944351878E+01  0.27140558330E+01  0.35985316717E+01  0.51100000000E-03 0. -1.
        -11    1    3    3    0    0  0.13573334855E+02  0.18963195596E+02 -0.73194729863E+01  0.24442031245E+02  0.51100000000E-03 0.  1.
         12    1    3    3    0    0 -0.21365859919E+02 -0.22757149698E+01 -0.22706712857E+02  0.31261376449E+02  0.00000000000E+00 0. -1.
</event>
<event>
 7    1  0.7012292E-013  0.5930196E+02  0.7816164E-02  0.1266605E+00
        -11   -1    0    0    0    0  0.00000000000E+00  0.00000000000E+00  0.45593999997E+02  0.45594000000E+02  0.51100000000E-03 0.  1.
         11   -1    0    0    0    0 -0.00000000000E+00 -0.00000000000E+00 -0.45593999997E+02  0.45594000000E+02  0.51100000000E-03 0. -1.
    9900012    2    1    2    0    0 -0.28743020617E+02  0.48279731030E+00  0.13795835296E+02  0.59301962320E+02  0.50000033361E+02 0.  0.
         12    1    1    2    0    0  0.28743020617E+02 -0.48279731030E+00 -0.13795835296E+02  0.31886037680E+02  0.00000000000E+00 0. -1.
         11    1    3    3    0    0 -0.24810197198E+02  0.12420289544E+02  0.10384337406E+02  0.29625055965E+02  0.51100000000E-03 0. -1.
        -11    1    3    3    0    0 -0.13217411227E+02 -0.30137613136E+01 -0.48258369291E+01  0.14389976342E+02  0.51100000000E-03 0.  1.
        -12    1    3    3    0    0  0.92845878078E+01 -0.89237309197E+01  0.82373348194E+01  0.15286930013E+02  0.00000000000E+00 0.  1.
</event>
<event>
 7    1  0.7012292E-013  0.5930194E+02  0.7816164E-02  0.1266605E+00
        -11   -1    0    0    0    0  0.00000000000E+00  0.00000000000E+00  0.45593999997E+02  0.45594000000E+02  0.51100000000E-03 0.  1.
         11   -1    0    0    0    0 -0.00000000000E+00 -0.00000000000E+00 -0.45593999997E+02  0.45594000000E+02  0.51100000000E-03 0. -1.
    9900012    2    1    2    0    0  0.32072669701E+00 -0.28862041640E+02  0.13549932127E+02  0.59301937623E+02  0.49999988319E+02 0.  0.
         12    1    1    2    0    0 -0.32072669701E+00  0.28862041640E+02 -0.13549932127E+02  0.31886062377E+02  0.00000000000E+00 0. -1.
         11    1    3    3    0    0 -0.59824477120E+01 -0.16283324124E+01 -0.84596386957E+01  0.10488404750E+02  0.51100000000E-03 0. -1.
        -11    1    3    3    0    0  0.37212662314E+00  0.34818663663E+01 -0.59191847990E+01  0.68773992586E+01  0.51100000000E-03 0.  1.
        -12    1    3    3    0    0  0.59310477858E+01 -0.30715575594E+02  0.27928755622E+02  0.41936133614E+02  0.00000000000E+00 0.  1.
</event>
<event>
 7    1  0.7012292E-013  0.5930194E+02  0.7816164E-02  0.1266605E+00
        -11   -1    0    0    0    0  0.00000000000E+00  0.00000000000E+00  0.45593999997E+02  0.45594000000E+02  0.51100000000E-03 0.  1.
         11   -1    0    0    0    0 -0.00000000000E+00 -0.00000000000E+00 -0.45593999997E+02  0.45594000000E+02  0.51100000000E-03 0. -1.
    9900012    2    1    2    0    0 -0.60411108449E+01  0.83400626904E+00  0.31297450574E+02  0.59301937228E+02  0.49999987599E+02 0.  0.
         12    1    1    2    0    0  0.60411108449E+01 -0.83400626904E+00 -0.31297450574E+02  0.31886062772E+02  0.00000000000E+00 0. -1.
         11    1    3    3    0    0 -0.10110295565E+02  0.74193685562E+01  0.96046893517E+00  0.12577265483E+02  0.51100000000E-03 0. -1.
        -11    1    3    3    0    0 -0.13547821943E+02 -0.64502622867E+01  0.23385167554E+02  0.27785165552E+02  0.51100000000E-03 0.  1.
        -12    1    3    3    0    0  0.17617006663E+02 -0.13510000045E+00  0.69518140848E+01  0.18939506193E+02  0.00000000000E+00 0.  1.
</event>
<event>
 7    1  0.7012292E-013  0.5930193E+02  0.7816164E-02  0.1266605E+00
        -11   -1    0    0    0    0  0.00000000000E+00  0.00000000000E+00  0.45593999997E+02  0.45594000000E+02  0.51100000000E-03 0.  1.
         11   -1    0    0    0    0 -0.00000000000E+00 -0.00000000000E+00 -0.45593999997E+02  0.45594000000E+02  0.51100000000E-03 0. -1.
    9900012    2    1    2    0    0 -0.27384944626E+02 -0.15858146166E+02  0.39121877104E+01  0.59301934004E+02  0.49999981719E+02 0.  0.
         12    1    1    2    0    0  0.27384944626E+02  0.15858146166E+02 -0.39121877104E+01  0.31886065996E+02  0.00000000000E+00 0. -1.
         11    1    3    3    0    0 -0.27555828754E+01  0.17632481822E+01  0.73760265409E+01  0.80689558760E+01  0.51100000000E-03 0. -1.
        -11    1    3    3    0    0 -0.14848930271E+02  0.25307003307E+01  0.15697430882E+02  0.21755562758E+02  0.51100000000E-03 0.  1.
         12    1    3    3    0    0 -0.97804314804E+01 -0.20152094679E+02 -0.19161269713E+02  0.29477415370E+02  0.00000000000E+00 0. -1.
</event>
<event>
 7    1  0.7012292E-013  0.5930195E+02  0.7816164E-02  0.1266605E+00
        -11   -1    0    0    0    0  0.00000000000E+00  0.00000000000E+00  0.45593999997E+02  0.45594000000E+02  0.51100000000E-03 0. -1.
         11   -1    0    0    0    0 -0.00000000000E+00 -0.00000000000E+00 -0.45593999997E+02  0.45594000000E+02  0.51100000000E-03 0.  1.
    9900012    2    1    2    0    0  0.14704010704E+02 -0.24776052697E+02 -0.13662337604E+02  0.59301949965E+02  0.50000010828E+02 0.  0.
         12    1    1    2    0    0 -0.14704010704E+02  0.24776052697E+02  0.13662337604E+02  0.31886050035E+02  0.00000000000E+00 0. -1.
         11    1    3    3    0    0 -0.28372358112E+00 -0.52985119400E+01  0.64470980896E+00  0.53451266447E+01  0.51100000000E-03 0. -1.
        -11    1    3    3    0    0 -0.92931492260E+01 -0.89832454089E+01  0.11279733317E+02  0.17154990661E+02  0.51100000000E-03 0.  1.
        -12    1    3    3    0    0  0.24280883512E+02 -0.10494295348E+02 -0.25586780730E+02  0.36801832659E+02  0.00000000000E+00 0.  1.
</event>
<event>
 7    1  0.7012292E-013  0.5930195E+02  0.7816164E-02  0.1266605E+00
        -11   -1    0    0    0    0  0.00000000000E+00  0.00000000000E+00  0.45593999997E+02  0.45594000000E+02  0.51100000000E-03 0.  1.
         11   -1    0    0    0    0 -0.00000000000E+00 -0.00000000000E+00 -0.45593999997E+02  0.45594000000E+02  0.51100000000E-03 0. -1.
    9900012    2    1    2    0    0  0.19703770240E+02 -0.24819029392E+02 -0.35352027853E+01  0.59301945989E+02  0.50000003577E+02 0.  0.
         12    1    1    2    0    0 -0.19703770240E+02  0.24819029392E+02  0.35352027853E+01  0.31886054011E+02  0.00000000000E+00 0. -1.
         11    1    3    3    0    0  0.18100632381E+02 -0.62723617364E+01 -0.11090434423E+02  0.22135337140E+02  0.51100000000E-03 0. -1.
        -11    1    3    3    0    0 -0.21956773447E+01  0.63504963769E+01  0.97990457617E+01  0.11881544569E+02  0.51100000000E-03 0.  1.
        -12    1    3    3    0    0  0.37988152038E+01 -0.24897164033E+02 -0.22438141239E+01  0.25285064280E+02  0.00000000000E+00 0.  1.
</event>
<event>
 7    1  0.7012292E-013  0.5930190E+02  0.7816164E-02  0.1266605E+00
        -11   -1    0    0    0    0  0.00000000000E+00  0.00000000000E+00  0.45593999997E+02  0.45594000000E+02  0.51100000000E-03 0.  1.
         11   -1    0    0    0    0 -0.00000000000E+00 -0.00000000000E+00 -0.45593999997E+02  0.45594000000E+02  0.51100000000E-03 0. -1.
    9900012    2    1    2    0    0  0.18030314823E+02 -0.11176559073E+02  0.23805784552E+02  0.59301904230E+02  0.49999927418E+02 0.  0.
         12    1    1    2    0    0 -0.18030314823E+02  0.11176559073E+02 -0.23805784552E+02  0.31886095770E+02  0.00000000000E+00 0. -1.
         11    1    3    3    0    0  0.74598923507E+00  0.20270483145E+01  0.24392550534E+01  0.32581268062E+01  0.51100000000E-03 0. -1.
        -11    1    3    3    0    0  0.15903035346E+02  0.14326471124E+02  0.39484972507E+00  0.21408181022E+02  0.51100000000E-03 0.  1.
         12    1    3    3    0    0  0.13812902413E+01 -0.27530078511E+02  0.20971679774E+02  0.34635596402E+02  0.00000000000E+00 0. -1.
</event>
<event>
 7    1  0.7012292E-013  0.5930204E+02  0.7816164E-02  0.1266604E+00
        -11   -1    0    0    0    0  0.00000000000E+00  0.00000000000E+00  0.45593999997E+02  0.45594000000E+02  0.51100000000E-03 0.  1.
         11   -1    0    0    0    0 -0.00000000000E+00 -0.00000000000E+00 -0.45593999997E+02  0.45594000000E+02  0.51100000000E-03 0. -1.
    9900012    2    1    2    0    0  0.31557577698E+02 -0.42324485293E+01  0.17087764452E+01  0.59302043097E+02  0.50000180678E+02 0.  0.
         12    1    1    2    0    0 -0.31557577698E+02  0.42324485293E+01 -0.17087764452E+01  0.31885956903E+02  0.00000000000E+00 0. -1.
         11    1    3    3    0    0  0.97095839539E+01 -0.57051408822E+01 -0.31954413997E+01  0.11706216256E+02  0.51100000000E-03 0. -1.
        -11    1    3    3    0    0  0.61592264080E+01 -0.73607818428E+01  0.21225461257E+02  0.23294578449E+02  0.51100000000E-03 0.  1.
         12    1    3    3    0    0  0.15688767336E+02  0.88334741956E+01 -0.16321243412E+02  0.24301248392E+02  0.00000000000E+00 0. -1.
</event>
<event>
 7    1  0.7012292E-013  0.5930196E+02  0.7816164E-02  0.1266605E+00
        -11   -1    0    0    0    0  0.00000000000E+00  0.00000000000E+00  0.45593999997E+02  0.45594000000E+02  0.51100000000E-03 0.  1.
         11   -1    0    0    0    0 -0.00000000000E+00 -0.00000000000E+00 -0.45593999997E+02  0.45594000000E+02  0.51100000000E-03 0. -1.
    9900012    2    1    2    0    0  0.31436845911E+02  0.37039293974E+01  0.38373136573E+01  0.59301963088E+02  0.50000034762E+02 0.  0.
         12    1    1    2    0    0 -0.31436845911E+02 -0.37039293974E+01 -0.38373136573E+01  0.31886036912E+02  0.00000000000E+00 0. -1.
         11    1    3    3    0    0 -0.10394953121E+01 -0.48053082900E+00 -0.84768879259E+01  0.85538932394E+01  0.51100000000E-03 0. -1.
        -11    1    3    3    0    0  0.66622349714E+01 -0.34047910682E+01 -0.12224424930E+02  0.14332290193E+02  0.51100000000E-03 0.  1.
         12    1    3    3    0    0  0.25814106252E+02  0.75892512947E+01  0.24538626513E+02  0.36415779656E+02  0.00000000000E+00 0. -1.
</event>
<event>
 7    1  0.7012292E-013  0.5930195E+02  0.7816164E-02  0.1266605E+00
        -11   -1    0    0    0    0  0.00000000000E+00  0.00000000000E+00  0.45593999997E+02  0.45594000000E+02  0.51100000000E-03 0.  1.
         11   -1    0    0    0    0 -0.00000000000E+00 -0.00000000000E+00 -0.45593999997E+02  0.45594000000E+02  0.51100000000E-03 0. -1.
    9900012    2    1    2    0    0  0.85592690322E+01 -0.60447073256E+01  0.30115127161E+02  0.59301945730E+02  0.50000003104E+02 0.  0.
         12    1    1    2    0    0 -0.85592690322E+01  0.60447073256E+01 -0.30115127161E+02  0.31886054270E+02  0.00000000000E+00 0. -1.
         11    1    3    3    0    0  0.33524450139E+01 -0.18359315058E+01  0.36296798892E+01  0.52710633106E+01  0.51100000000E-03 0. -1.
        -11    1    3    3    0    0  0.21652598670E+02 -0.42453685881E+01 -0.90394145866E+00  0.22083371437E+02  0.51100000000E-03 0.  1.
         12    1    3    3    0    0 -0.16445774652E+02  0.36592768306E-01  0.27389388730E+02  0.31947510982E+02  0.00000000000E+00 0. -1.
</event>
<event>
 7    1  0.7012292E-013  0.5930196E+02  0.7816164E-02  0.1266605E+00
        -11   -1    0    0    0    0  0.00000000000E+00  0.00000000000E+00  0.45593999997E+02  0.45594000000E+02  0.51100000000E-03 0. -1.
         11   -1    0    0    0    0 -0.00000000000E+00 -0.00000000000E+00 -0.45593999997E+02  0.45594000000E+02  0.51100000000E-03 0.  1.
    9900012    2    1    2    0    0 -0.23341379347E+02  0.15649128940E+02 -0.15066654113E+02  0.59301963988E+02  0.50000036403E+02 0.  0.
         12    1    1    2    0    0  0.23341379347E+02 -0.15649128940E+02  0.15066654113E+02  0.31886036012E+02  0.00000000000E+00 0. -1.
         11    1    3    3    0    0  0.68117539092E+00  0.31564303327E+01  0.69181913356E+01  0.76346855846E+01  0.51100000000E-03 0. -1.
        -11    1    3    3    0    0  0.43891708381E+01 -0.82892036033E-01  0.75922135981E+01  0.87700284672E+01  0.51100000000E-03 0.  1.
        -12    1    3    3    0    0 -0.28411725576E+02  0.12575590643E+02 -0.29577059047E+02  0.42897249936E+02  0.00000000000E+00 0.  1.
</event>
<event>
 7    1  0.7012292E-013  0.5930196E+02  0.7816164E-02  0.1266605E+00
        -11   -1    0    0    0    0  0.00000000000E+00  0.00000000000E+00  0.45593999997E+02  0.45594000000E+02  0.51100000000E-03 0. -1.
         11   -1    0    0    0    0 -0.00000000000E+00 -0.00000000000E+00 -0.45593999997E+02  0.45594000000E+02  0.51100000000E-03 0.  1.
    9900012    2    1    2    0    0  0.60177026891E+01  0.20748639311E+02 -0.23452089454E+02  0.59301964206E+02  0.50000036799E+02 0.  0.
         12    1    1    2    0    0 -0.60177026891E+01 -0.20748639311E+02  0.23452089454E+02  0.31886035794E+02  0.00000000000E+00 0. -1.
         11    1    3    3    0    0  0.16272950995E+02  0.31394734522E+01  0.27237471946E+01  0.16795357295E+02  0.51100000000E-03 0. -1.
        -11    1    3    3    0    0 -0.38268204249E+01  0.20195857492E+02 -0.63638698702E+01  0.21517807844E+02  0.51100000000E-03 0.  1.
        -12    1    3    3    0    0 -0.64284278806E+01 -0.25866916335E+01 -0.19811966778E+02  0.20988799067E+02  0.00000000000E+00 0.  1.
</event>
<event>
 7    1  0.7012292E-013  0.5930195E+02  0.7816164E-02  0.1266605E+00
        -11   -1    0    0    0    0  0.00000000000E+00  0.00000000000E+00  0.45593999997E+02  0.45594000000E+02  0.51100000000E-03 0.  1.
         11   -1    0    0    0    0 -0.00000000000E+00 -0.00000000000E+00 -0.45593999997E+02  0.45594000000E+02  0.51100000000E-03 0. -1.
    9900012    2    1    2    0    0 -0.22018525763E+02  0.11296071558E+02  0.20107298045E+02  0.59301950635E+02  0.50000012050E+02 0.  0.
         12    1    1    2    0    0  0.22018525763E+02 -0.11296071558E+02 -0.20107298045E+02  0.31886049365E+02  0.00000000000E+00 0. -1.
         11    1    3    3    0    0 -0.10189113845E+02 -0.47300597511E+01  0.17134808956E+02  0.20488855127E+02  0.51100000000E-03 0. -1.
        -11    1    3    3    0    0 -0.32116014705E+01  0.19570392768E+02  0.14074505489E+02  0.24318847878E+02  0.51100000000E-03 0.  1.
         12    1    3    3    0    0 -0.86178104475E+01 -0.35442614586E+01 -0.11102016400E+02  0.14494247630E+02  0.00000000000E+00 0. -1.
</event>
<event>
 7    1  0.7012292E-013  0.5930196E+02  0.7816164E-02  0.1266605E+00
        -11   -1    0    0    0    0  0.00000000000E+00  0.00000000000E+00  0.45593999997E+02  0.45594000000E+02  0.51100000000E-03 0.  1.
         11   -1    0    0    0    0 -0.00000000000E+00 -0.00000000000E+00 -0.45593999997E+02  0.45594000000E+02  0.51100000000E-03 0. -1.
    9900012    2    1    2    0    0 -0.26760831935E+01 -0.92702101947E+01  0.30391134472E+02  0.59301964298E+02  0.50000036967E+02 0.  0.
         12    1    1    2    0    0  0.26760831935E+01  0.92702101947E+01 -0.30391134472E+02  0.31886035702E+02  0.00000000000E+00 0. -1.
         11    1    3    3    0    0  0.11976095120E+02 -0.10203546797E+02  0.36927460687E+01  0.16160928048E+02  0.51100000000E-03 0. -1.
        -11    1    3    3    0    0  0.23752452460E+01  0.27825126684E+01  0.25727166731E+02  0.25985982279E+02  0.51100000000E-03 0.  1.
         12    1    3    3    0    0 -0.17027423560E+02 -0.18491760659E+01  0.97122167221E+00  0.17155053971E+02  0.00000000000E+00 0. -1.
</event>
<event>
 7    1  0.7012292E-013  0.5930197E+02  0.7816164E-02  0.1266605E+00
        -11   -1    0    0    0    0  0.00000000000E+00  0.00000000000E+00  0.45593999997E+02  0.45594000000E+02  0.51100000000E-03 0.  1.
         11   -1    0    0    0    0 -0.00000000000E+00 -0.00000000000E+00 -0.45593999997E+02  0.45594000000E+02  0.51100000000E-03 0. -1.
    9900012    2    1    2    0    0  0.18295615749E+02 -0.19129134942E+02  0.17778226869E+02  0.59301973125E+02  0.50000053067E+02 0.  0.
         12    1    1    2    0    0 -0.18295615749E+02  0.19129134942E+02 -0.17778226869E+02  0.31886026875E+02  0.00000000000E+00 0. -1.
         11    1    3    3    0    0  0.23591293160E+01 -0.69382524595E+01  0.30184084299E+01  0.79256310810E+01  0.51100000000E-03 0. -1.
        -11    1    3    3    0    0 -0.11385407419E+02 -0.12727900965E+01  0.18455860195E+02  0.21722483111E+02  0.51100000000E-03 0.  1.
         12    1    3    3    0    0  0.27321893852E+02 -0.10918092386E+02 -0.36960417558E+01  0.29653858933E+02  0.00000000000E+00 0. -1.
</event>
<event>
 7    1  0.7012292E-013  0.5930195E+02  0.7816164E-02  0.1266605E+00
        -11   -1    0    0    0    0  0.00000000000E+00  0.00000000000E+00  0.45593999997E+02  0.45594000000E+02  0.51100000000E-03 0.  1.
         11   -1    0    0    0    0 -0.00000000000E+00 -0.00000000000E+00 -0.45593999997E+02  0.45594000000E+02  0.51100000000E-03 0. -1.
    9900012    2    1    2    0    0 -0.27750770477E+02 -0.11195290631E+02  0.11012738494E+02  0.59301949704E+02  0.50000010352E+02 0.  0.
         12    1    1    2    0    0  0.27750770477E+02  0.11195290631E+02 -0.11012738494E+02  0.31886050296E+02  0.00000000000E+00 0. -1.
         11    1    3    3    0    0  0.29278705322E+01 -0.32209751983E+01  0.81762280096E+00  0.44289518384E+01  0.51100000000E-03 0. -1.
        -11    1    3    3    0    0  0.44184471945E+01 -0.13689388129E+02 -0.62636586734E+01  0.15689341707E+02  0.51100000000E-03 0.  1.
         12    1    3    3    0    0 -0.35097088204E+02  0.57150726969E+01  0.16458774366E+02  0.39183656158E+02  0.00000000000E+00 0. -1.
</event>
<event>
 7    1  0.7012292E-013  0.5930174E+02  0.7816164E-02  0.1266605E+00
        -11   -1    0    0    0    0  0.00000000000E+00  0.00000000000E+00  0.45593999997E+02  0.45594000000E+02  0.51100000000E-03 0.  1.
         11   -1    0    0    0    0 -0.00000000000E+00 -0.00000000000E+00 -0.45593999997E+02  0.45594000000E+02  0.51100000000E-03 0. -1.
    9900012    2    1    2    0    0  0.16915687253E+02  0.24015991336E+02 -0.12402625107E+02  0.59301742386E+02  0.49999632252E+02 0.  0.
         12    1    1    2    0    0 -0.16915687253E+02 -0.24015991336E+02  0.12402625107E+02  0.31886257614E+02  0.00000000000E+00 0. -1.
         11    1    3    3    0    0  0.70536224362E+01  0.43352426959E+00  0.67179401660E+01  0.97505001461E+01  0.51100000000E-03 0. -1.
        -11    1    3    3    0    0  0.94366095251E+01  0.12937066257E+02  0.97704554723E+01  0.18758440315E+02  0.51100000000E-03 0.  1.
         12    1    3    3    0    0  0.42545529129E+00  0.10645400810E+02 -0.28891020746E+02  0.30792801924E+02  0.00000000000E+00 0. -1.
</event>
<event>
 7    1  0.7012292E-013  0.5930195E+02  0.7816164E-02  0.1266605E+00
        -11   -1    0    0    0    0  0.00000000000E+00  0.00000000000E+00  0.45593999997E+02  0.45594000000E+02  0.51100000000E-03 0.  1.
         11   -1    0    0    0    0 -0.00000000000E+00 -0.00000000000E+00 -0.45593999997E+02  0.45594000000E+02  0.51100000000E-03 0. -1.
    9900012    2    1    2    0    0  0.52753383870E+01  0.91145580284E+01  0.30096778109E+02  0.59301946376E+02  0.50000004283E+02 0.  0.
         12    1    1    2    0    0 -0.52753383870E+01 -0.91145580284E+01 -0.30096778109E+02  0.31886053624E+02  0.00000000000E+00 0. -1.
         11    1    3    3    0    0 -0.18570130277E+01 -0.61432398930E+01  0.60163744174E+01  0.87968548447E+01  0.51100000000E-03 0. -1.
        -11    1    3    3    0    0  0.36246839009E+01  0.25452372546E+02  0.28913261981E+02  0.38690287157E+02  0.51100000000E-03 0.  1.
         12    1    3    3    0    0  0.35076675137E+01 -0.10194574625E+02 -0.48328582895E+01  0.11814804375E+02  0.00000000000E+00 0. -1.
</event>
<event>
 7    1  0.7012292E-013  0.5930197E+02  0.7816164E-02  0.1266605E+00
        -11   -1    0    0    0    0  0.00000000000E+00  0.00000000000E+00  0.45593999997E+02  0.45594000000E+02  0.51100000000E-03 0. -1.
         11   -1    0    0    0    0 -0.00000000000E+00 -0.00000000000E+00 -0.45593999997E+02  0.45594000000E+02  0.51100000000E-03 0.  1.
    9900012    2    1    2    0    0  0.17190246118E+02 -0.23001299147E+01 -0.26756747228E+02  0.59301973571E+02  0.50000053880E+02 0.  0.
         12    1    1    2    0    0 -0.17190246118E+02  0.23001299147E+01  0.26756747228E+02  0.31886026429E+02  0.00000000000E+00 0. -1.
         11    1    3    3    0    0 -0.71935474891E+01 -0.75929226727E+01 -0.40885411681E+00  0.10467414301E+02  0.51100000000E-03 0. -1.
        -11    1    3    3    0    0 -0.41980141796E+01 -0.66296077972E+01  0.47967076874E+00  0.78616224092E+01  0.51100000000E-03 0.  1.
        -12    1    3    3    0    0  0.28581807786E+02  0.11922400555E+02 -0.26827563880E+02  0.40972936861E+02  0.00000000000E+00 0.  1.
</event>
<event>
 7    1  0.7012292E-013  0.5930194E+02  0.7816164E-02  0.1266605E+00
        -11   -1    0    0    0    0  0.00000000000E+00  0.00000000000E+00  0.45593999997E+02  0.45594000000E+02  0.51100000000E-03 0. -1.
         11   -1    0    0    0    0 -0.00000000000E+00 -0.00000000000E+00 -0.45593999997E+02  0.45594000000E+02  0.51100000000E-03 0.  1.
    9900012    2    1    2    0    0 -0.27785521194E+02  0.14662640556E+01 -0.15573549337E+02  0.59301944157E+02  0.50000000236E+02 0.  0.
         12    1    1    2    0    0  0.27785521194E+02 -0.14662640556E+01  0.15573549337E+02  0.31886055843E+02  0.00000000000E+00 0. -1.
         11    1    3    3    0    0 -0.76858110558E+01 -0.40918100171E+01 -0.10886857879E+02  0.13940526372E+02  0.51100000000E-03 0. -1.
        -11    1    3    3    0    0 -0.11184211136E+02  0.15058971188E+02 -0.18518901693E+02  0.26359228216E+02  0.51100000000E-03 0.  1.
         12    1    3    3    0    0 -0.89154990020E+01 -0.95008971152E+01  0.13832210234E+02  0.19002189569E+02  0.00000000000E+00 0. -1.
</event>
<event>
 7    1  0.7012292E-013  0.5930195E+02  0.7816164E-02  0.1266605E+00
        -11   -1    0    0    0    0  0.00000000000E+00  0.00000000000E+00  0.45593999997E+02  0.45594000000E+02  0.51100000000E-03 0. -1.
         11   -1    0    0    0    0 -0.00000000000E+00 -0.00000000000E+00 -0.45593999997E+02  0.45594000000E+02  0.51100000000E-03 0.  1.
    9900012    2    1    2    0    0 -0.31590969861E+02 -0.22950889375E+01 -0.36692118375E+01  0.59301954063E+02  0.50000018303E+02 0.  0.
         12    1    1    2    0    0  0.31590969861E+02  0.22950889375E+01  0.36692118375E+01  0.31886045937E+02  0.00000000000E+00 0. -1.
         11    1    3    3    0    0 -0.23717978477E+02 -0.14264804632E+02 -0.10473646260E+00  0.27677393739E+02  0.51100000000E-03 0. -1.
        -11    1    3    3    0    0 -0.43923187769E-01 -0.44362483856E+01 -0.11094312735E+02  0.11948472886E+02  0.51100000000E-03 0.  1.
        -12    1    3    3    0    0 -0.78290681959E+01  0.16405964080E+02  0.75298373602E+01  0.19676087438E+02  0.00000000000E+00 0.  1.
</event>
<event>
 7    1  0.7012292E-013  0.5930191E+02  0.7816164E-02  0.1266605E+00
        -11   -1    0    0    0    0  0.00000000000E+00  0.00000000000E+00  0.45593999997E+02  0.45594000000E+02  0.51100000000E-03 0. -1.
         11   -1    0    0    0    0 -0.00000000000E+00 -0.00000000000E+00 -0.45593999997E+02  0.45594000000E+02  0.51100000000E-03 0.  1.
    9900012    2    1    2    0    0  0.11544391931E+02 -0.19390559576E+02 -0.22526777489E+02  0.59301913853E+02  0.49999944969E+02 0.  0.
         12    1    1    2    0    0 -0.11544391931E+02  0.19390559576E+02  0.22526777489E+02  0.31886086147E+02  0.00000000000E+00 0. -1.
         11    1    3    3    0    0 -0.24176616806E+01  0.16338118399E+01 -0.16341903021E+01  0.33443993982E+01  0.51100000000E-03 0. -1.
        -11    1    3    3    0    0  0.39646872823E+01  0.71377451171E+01 -0.24529811852E+02  0.25853004088E+02  0.51100000000E-03 0.  1.
         12    1    3    3    0    0  0.99973663297E+01 -0.28162116533E+02  0.36372246655E+01  0.30104510367E+02  0.00000000000E+00 0. -1.
</event>
<event>
 7    1  0.7012292E-013  0.5930194E+02  0.7816164E-02  0.1266605E+00
        -11   -1    0    0    0    0  0.00000000000E+00  0.00000000000E+00  0.45593999997E+02  0.45594000000E+02  0.51100000000E-03 0.  1.
         11   -1    0    0    0    0 -0.00000000000E+00 -0.00000000000E+00 -0.45593999997E+02  0.45594000000E+02  0.51100000000E-03 0. -1.
    9900012    2    1    2    0    0 -0.14643014428E+02  0.95747088568E+00  0.28308763823E+02  0.59301941428E+02  0.49999995259E+02 0.  0.
         12    1    1    2    0    0  0.14643014428E+02 -0.95747088568E+00 -0.28308763823E+02  0.31886058572E+02  0.00000000000E+00 0. -1.
         11    1    3    3    0    0  0.17685050442E+01 -0.15566037054E+01  0.17106691307E+02  0.17268164723E+02  0.51100000000E-03 0. -1.
        -11    1    3    3    0    0 -0.89671560206E+01 -0.61318944712E+01  0.23113910655E+02  0.25539437796E+02  0.51100000000E-03 0.  1.
         12    1    3    3    0    0 -0.74443634512E+01  0.86459690623E+01 -0.11911838138E+02  0.16494338909E+02  0.00000000000E+00 0. -1.
</event>
<event>
 7    1  0.7012292E-013  0.5930196E+02  0.7816164E-02  0.1266605E+00
        -11   -1    0    0    0    0  0.00000000000E+00  0.00000000000E+00  0.45593999997E+02  0.45594000000E+02  0.51100000000E-03 0.  1.
         11   -1    0    0    0    0 -0.00000000000E+00 -0.00000000000E+00 -0.45593999997E+02  0.45594000000E+02  0.51100000000E-03 0. -1.
    9900012    2    1    2    0    0  0.26733725096E+02 -0.15768630518E+02  0.73060140948E+01  0.59301959044E+02  0.50000027386E+02 0.  0.
         12    1    1    2    0    0 -0.26733725096E+02  0.15768630518E+02 -0.73060140948E+01  0.31886040956E+02  0.00000000000E+00 0. -1.
         11    1    3    3    0    0  0.20577864120E+02 -0.89412264246E+01 -0.92803052607E+01  0.24279993569E+02  0.51100000000E-03 0. -1.
        -11    1    3    3    0    0 -0.34146333155E+01 -0.15348808556E+02  0.24020352190E+01  0.15906458381E+02  0.51100000000E-03 0.  1.
        -12    1    3    3    0    0  0.95704942913E+01  0.85214044631E+01  0.14184284137E+02  0.19115507094E+02  0.00000000000E+00 0.  1.
</event>
<event>
 7    1  0.7012292E-013  0.5930196E+02  0.7816164E-02  0.1266605E+00
        -11   -1    0    0    0    0  0.00000000000E+00  0.00000000000E+00  0.45593999997E+02  0.45594000000E+02  0.51100000000E-03 0.  1.
         11   -1    0    0    0    0 -0.00000000000E+00 -0.00000000000E+00 -0.45593999997E+02  0.45594000000E+02  0.51100000000E-03 0. -1.
    9900012    2    1    2    0    0  0.44941749511E+01 -0.95250119695E+01  0.30096446414E+02  0.59301959979E+02  0.50000029091E+02 0.  0.
         12    1    1    2    0    0 -0.44941749511E+01  0.95250119695E+01 -0.30096446414E+02  0.31886040021E+02  0.00000000000E+00 0. -1.
         11    1    3    3    0    0  0.29747298720E+01  0.19721865301E+01 -0.62365991113E-01  0.35696536665E+01  0.51100000000E-03 0. -1.
        -11    1    3    3    0    0 -0.30005078636E+00 -0.17900719536E+02 -0.60644136819E+01  0.18902457616E+02  0.51100000000E-03 0.  1.
        -12    1    3    3    0    0  0.18194958654E+01  0.64035210360E+01  0.36223226087E+02  0.36829848696E+02  0.00000000000E+00 0.  1.
</event>
<event>
 7    1  0.7012292E-013  0.5930192E+02  0.7816164E-02  0.1266605E+00
        -11   -1    0    0    0    0  0.00000000000E+00  0.00000000000E+00  0.45593999997E+02  0.45594000000E+02  0.51100000000E-03 0. -1.
         11   -1    0    0    0    0 -0.00000000000E+00 -0.00000000000E+00 -0.45593999997E+02  0.45594000000E+02  0.51100000000E-03 0.  1.
    9900012    2    1    2    0    0  0.26362708493E+02 -0.15918767442E+02  0.82657289975E+01  0.59301924170E+02  0.49999963784E+02 0.  0.
         12    1    1    2    0    0 -0.26362708493E+02  0.15918767442E+02 -0.82657289975E+01  0.31886075830E+02  0.00000000000E+00 0. -1.
         11    1    3    3    0    0 -0.90100963006E+00  0.20663256914E+01  0.39342206780E+00  0.22882966156E+01  0.51100000000E-03 0. -1.
        -11    1    3    3    0    0  0.18153096726E+02  0.13483322727E+02  0.87359474728E+01  0.24241528232E+02  0.51100000000E-03 0.  1.
        -12    1    3    3    0    0  0.91106213975E+01 -0.31468415861E+02 -0.86364054304E+00  0.32772099323E+02  0.00000000000E+00 0.  1.
</event>
<event>
 7    1  0.7012292E-013  0.5930193E+02  0.7816164E-02  0.1266605E+00
        -11   -1    0    0    0    0  0.00000000000E+00  0.00000000000E+00  0.45593999997E+02  0.45594000000E+02  0.51100000000E-03 0.  1.
         11   -1    0    0    0    0 -0.00000000000E+00 -0.00000000000E+00 -0.45593999997E+02  0.45594000000E+02  0.51100000000E-03 0. -1.
    9900012    2    1    2    0    0  0.18512990839E+02 -0.13610396967E+02  0.22107637476E+02  0.59301931409E+02  0.49999976987E+02 0.  0.
         12    1    1    2    0    0 -0.18512990839E+02  0.13610396967E+02 -0.22107637476E+02  0.31886068591E+02  0.00000000000E+00 0. -1.
         11    1    3    3    0    0 -0.97899692496E+01 -0.77733954934E+01 -0.76318822984E+01  0.14646323876E+02  0.51100000000E-03 0. -1.
        -11    1    3    3    0    0  0.16206820216E+01  0.44142365725E+01  0.36052563025E+01  0.59253664867E+01  0.51100000000E-03 0.  1.
        -12    1    3    3    0    0  0.26682278067E+02 -0.10251238046E+02  0.26134263472E+02  0.38730241047E+02  0.00000000000E+00 0.  1.
</event>
<event>
 7    1  0.7012292E-013  0.5930193E+02  0.7816164E-02  0.1266605E+00
        -11   -1    0    0    0    0  0.00000000000E+00  0.00000000000E+00  0.45593999997E+02  0.45594000000E+02  0.51100000000E-03 0.  1.
         11   -1    0    0    0    0 -0.00000000000E+00 -0.00000000000E+00 -0.45593999997E+02  0.45594000000E+02  0.51100000000E-03 0. -1.
    9900012    2    1    2    0    0 -0.15892429454E+02 -0.23283897256E+02  0.14900068705E+02  0.59301933563E+02  0.49999980916E+02 0.  0.
         12    1    1    2    0    0  0.15892429454E+02  0.23283897256E+02 -0.14900068705E+02  0.31886066437E+02  0.00000000000E+00 0. -1.
         11    1    3    3    0    0  0.44292052729E+01 -0.17966904337E+02  0.12869412744E+02  0.22539948878E+02  0.51100000000E-03 0. -1.
        -11    1    3    3    0    0 -0.15126259014E+02 -0.15575563723E+02 -0.62478541700E+01  0.22592865667E+02  0.51100000000E-03 0.  1.
         12    1    3    3    0    0 -0.51953757126E+01  0.10258570804E+02  0.82785101317E+01  0.14169119018E+02  0.00000000000E+00 0. -1.
</event>
<event>
 7    1  0.7012292E-013  0.5930193E+02  0.7816164E-02  0.1266605E+00
        -11   -1    0    0    0    0  0.00000000000E+00  0.00000000000E+00  0.45593999997E+02  0.45594000000E+02  0.51100000000E-03 0. -1.
         11   -1    0    0    0    0 -0.00000000000E+00 -0.00000000000E+00 -0.45593999997E+02  0.45594000000E+02  0.51100000000E-03 0.  1.
    9900012    2    1    2    0    0 -0.34969143522E+01  0.27668004132E+02 -0.15458799940E+02  0.59301931597E+02  0.49999977330E+02 0.  0.
         12    1    1    2    0    0  0.34969143522E+01 -0.27668004132E+02  0.15458799940E+02  0.31886068403E+02  0.00000000000E+00 0. -1.
         11    1    3    3    0    0  0.28940873324E+00 -0.47530866743E+01  0.29913359495E+01  0.56234936981E+01  0.51100000000E-03 0. -1.
        -11    1    3    3    0    0  0.21186156599E+01  0.38203196930E+02 -0.22592307328E+02  0.44434053818E+02  0.51100000000E-03 0.  1.
         12    1    3    3    0    0 -0.59049387454E+01 -0.57821061240E+01  0.41421714390E+01  0.92443840815E+01  0.00000000000E+00 0. -1.
</event>
<event>
 7    1  0.7012292E-013  0.5930191E+02  0.7816164E-02  0.1266605E+00
        -11   -1    0    0    0    0  0.00000000000E+00  0.00000000000E+00  0.45593999997E+02  0.45594000000E+02  0.51100000000E-03 0.  1.
         11   -1    0    0    0    0 -0.00000000000E+00 -0.00000000000E+00 -0.45593999997E+02  0.45594000000E+02  0.51100000000E-03 0. -1.
    9900012    2    1    2    0    0 -0.95530190707E+01  0.18201695799E+02  0.24375419794E+02  0.59301905955E+02  0.49999930564E+02 0.  0.
         12    1    1    2    0    0  0.95530190707E+01 -0.18201695799E+02 -0.24375419794E+02  0.31886094045E+02  0.00000000000E+00 0. -1.
         11    1    3    3    0    0 -0.17944832102E+02  0.69693036999E+01  0.27273598574E+01  0.19442908354E+02  0.51100000000E-03 0.  1.
        -11    1    3    3    0    0 -0.36463886003E+01  0.17710021583E+01 -0.65900040931E+01  0.77369730953E+01  0.51100000000E-03 0. -1.
        -12    1    3    3    0    0  0.12038201631E+02  0.94613899412E+01  0.28238064030E+02  0.32122024505E+02  0.00000000000E+00 0.  1.
</event>
<event>
 7    1  0.7012292E-013  0.5930229E+02  0.7816164E-02  0.1266604E+00
        -11   -1    0    0    0    0  0.00000000000E+00  0.00000000000E+00  0.45593999997E+02  0.45594000000E+02  0.51100000000E-03 0. -1.
         11   -1    0    0    0    0 -0.00000000000E+00 -0.00000000000E+00 -0.45593999997E+02  0.45594000000E+02  0.51100000000E-03 0.  1.
    9900012    2    1    2    0    0  0.11470292986E+02 -0.16872958018E+02 -0.24503756416E+02  0.59302291415E+02  0.50000633547E+02 0.  0.
         12    1    1    2    0    0 -0.11470292986E+02  0.16872958018E+02  0.24503756416E+02  0.31885708585E+02  0.00000000000E+00 0. -1.
         11    1    3    3    0    0 -0.34501900068E+01  0.11132621964E+01  0.45384068862E+01  0.58086402133E+01  0.51100000000E-03 0. -1.
        -11    1    3    3    0    0  0.42099107045E+01 -0.22092016334E+00  0.91259261359E+01  0.10052595782E+02  0.51100000000E-03 0.  1.
        -12    1    3    3    0    0  0.10710572289E+02 -0.17765300051E+02 -0.38168089438E+02  0.43441055420E+02  0.00000000000E+00 0.  1.
</event>
<event>
 7    1  0.7012292E-013  0.5930195E+02  0.7816164E-02  0.1266605E+00
        -11   -1    0    0    0    0  0.00000000000E+00  0.00000000000E+00  0.45593999997E+02  0.45594000000E+02  0.51100000000E-03 0.  1.
         11   -1    0    0    0    0 -0.00000000000E+00 -0.00000000000E+00 -0.45593999997E+02  0.45594000000E+02  0.51100000000E-03 0. -1.
    9900012    2    1    2    0    0  0.21031097537E+02  0.23474605100E+02  0.48327764957E+01  0.59301954825E+02  0.50000019692E+02 0.  0.
         12    1    1    2    0    0 -0.21031097537E+02 -0.23474605100E+02 -0.48327764957E+01  0.31886045175E+02  0.00000000000E+00 0. -1.
         11    1    3    3    0    0  0.76947324941E+01  0.31255657557E+00 -0.50131939078E+01  0.91890539876E+01  0.51100000000E-03 0.  1.
        -11    1    3    3    0    0  0.50746034370E+01  0.16439281820E+02 -0.15161269473E+02  0.22931761361E+02  0.51100000000E-03 0. -1.
         12    1    3    3    0    0  0.82617616064E+01  0.67227667046E+01  0.25007239877E+02  0.27181139477E+02  0.00000000000E+00 0. -1.
</event>
<event>
 7    1  0.7012292E-013  0.5930199E+02  0.7816164E-02  0.1266605E+00
        -11   -1    0    0    0    0  0.00000000000E+00  0.00000000000E+00  0.45593999997E+02  0.45594000000E+02  0.51100000000E-03 0. -1.
         11   -1    0    0    0    0 -0.00000000000E+00 -0.00000000000E+00 -0.45593999997E+02  0.45594000000E+02  0.51100000000E-03 0.  1.
    9900012    2    1    2    0    0 -0.12184468014E+02 -0.24850293371E+02 -0.15834121688E+02  0.59301988160E+02  0.50000080487E+02 0.  0.
         12    1    1    2    0    0  0.12184468014E+02  0.24850293371E+02  0.15834121688E+02  0.31886011840E+02  0.00000000000E+00 0. -1.
         11    1    3    3    0    0 -0.56052564227E+01  0.59716600563E+01  0.19421793841E+01  0.84173442613E+01  0.51100000000E-03 0. -1.
        -11    1    3    3    0    0 -0.12173694549E+02 -0.19129207450E+02 -0.26789307829E+02  0.35096900587E+02  0.51100000000E-03 0.  1.
         12    1    3    3    0    0  0.55944829575E+01 -0.11692745978E+02  0.90130067568E+01  0.15787743311E+02  0.00000000000E+00 0. -1.
</event>
<event>
 7    1  0.7012292E-013  0.5930198E+02  0.7816164E-02  0.1266605E+00
        -11   -1    0    0    0    0  0.00000000000E+00  0.00000000000E+00  0.45593999997E+02  0.45594000000E+02  0.51100000000E-03 0.  1.
         11   -1    0    0    0    0 -0.00000000000E+00 -0.00000000000E+00 -0.45593999997E+02  0.45594000000E+02  0.51100000000E-03 0. -1.
    9900012    2    1    2    0    0  0.81642005122E+01  0.94640790765E+01  0.29334205032E+02  0.59301975669E+02  0.50000057707E+02 0.  0.
         12    1    1    2    0    0 -0.81642005122E+01 -0.94640790765E+01 -0.29334205032E+02  0.31886024331E+02  0.00000000000E+00 0. -1.
         11    1    3    3    0    0 -0.70683594497E+01  0.69758287637E+00 -0.94206700126E+01  0.11798192697E+02  0.51100000000E-03 0. -1.
        -11    1    3    3    0    0  0.35080013874E+01  0.64617769921E+01  0.43644796442E+00  0.73655361459E+01  0.51100000000E-03 0.  1.
        -12    1    3    3    0    0  0.11724558575E+02  0.23047192081E+01  0.38318427080E+02  0.40138246826E+02  0.00000000000E+00 0.  1.
</event>
<event>
 7    1  0.7997757E-013  0.5930194E+02  0.7816164E-02  0.1266605E+00
        -11   -1    0    0    0    0  0.00000000000E+00  0.00000000000E+00  0.45593999997E+02  0.45594000000E+02  0.51100000000E-03 0. -1.
         11   -1    0    0    0    0 -0.00000000000E+00 -0.00000000000E+00 -0.45593999997E+02  0.45594000000E+02  0.51100000000E-03 0.  1.
    9900012    2    1    2    0    0  0.11452787963E+02 -0.15245451155E+02 -0.25556421205E+02  0.59301940383E+02  0.49999993353E+02 0.  0.
         12    1    1    2    0    0 -0.11452787963E+02  0.15245451155E+02  0.25556421205E+02  0.31886059617E+02  0.00000000000E+00 0. -1.
         11    1    3    3    0    0 -0.19536744962E+01  0.34400968615E+01 -0.96657368229E+01  0.10444021210E+02  0.51100000000E-03 0. -1.
        -11    1    3    3    0    0  0.47983302431E+01 -0.13948158297E+02 -0.28964129687E+02  0.32503782884E+02  0.51100000000E-03 0.  1.
         12    1    3    3    0    0  0.86081322158E+01 -0.47373897201E+01  0.13073445305E+02  0.16354136288E+02  0.00000000000E+00 0. -1.
</event>
<event>
 7    1  0.7012292E-013  0.5930194E+02  0.7816164E-02  0.1266605E+00
        -11   -1    0    0    0    0  0.00000000000E+00  0.00000000000E+00  0.45593999997E+02  0.45594000000E+02  0.51100000000E-03 0. -1.
         11   -1    0    0    0    0 -0.00000000000E+00 -0.00000000000E+00 -0.45593999997E+02  0.45594000000E+02  0.51100000000E-03 0.  1.
    9900012    2    1    2    0    0 -0.15586669422E+02  0.18987626161E+02  0.20328466934E+02  0.59301940683E+02  0.49999993900E+02 0.  0.
         12    1    1    2    0    0  0.15586669422E+02 -0.18987626161E+02 -0.20328466934E+02  0.31886059317E+02  0.00000000000E+00 0. -1.
         11    1    3    3    0    0  0.12115197427E+02  0.13845600300E+02  0.47887941641E+01  0.19010818135E+02  0.51100000000E-03 0. -1.
        -11    1    3    3    0    0  0.56110167272E+00  0.84899816500E+01  0.54041255709E+01  0.10079642700E+02  0.51100000000E-03 0.  1.
        -12    1    3    3    0    0 -0.28262968521E+02 -0.33479557886E+01  0.10135547199E+02  0.30211479848E+02  0.00000000000E+00 0.  1.
</event>
<event>
 7    1  0.1029766E-012  0.5930199E+02  0.7816164E-02  0.1266605E+00
        -11   -1    0    0    0    0  0.00000000000E+00  0.00000000000E+00  0.45593999997E+02  0.45594000000E+02  0.51100000000E-03 0. -1.
         11   -1    0    0    0    0 -0.00000000000E+00 -0.00000000000E+00 -0.45593999997E+02  0.45594000000E+02  0.51100000000E-03 0.  1.
    9900012    2    1    2    0    0  0.13311981537E+02 -0.12698166638E+02 -0.26043522639E+02  0.59301994295E+02  0.50000091675E+02 0.  0.
         12    1    1    2    0    0 -0.13311981537E+02  0.12698166638E+02  0.26043522639E+02  0.31886005705E+02  0.00000000000E+00 0. -1.
         11    1    3    3    0    0 -0.18492740390E+01 -0.62276149432E+01 -0.15279918775E+02  0.16603581553E+02  0.51100000000E-03 0. -1.
        -11    1    3    3    0    0  0.19291679834E+02 -0.98785418950E+01 -0.21607412307E+02  0.30604489338E+02  0.51100000000E-03 0.  1.
         12    1    3    3    0    0 -0.41304242583E+01  0.34079902000E+01  0.10843808443E+02  0.12093923404E+02  0.00000000000E+00 0. -1.
</event>
<event>
 7    1  0.7012292E-013  0.5930195E+02  0.7816164E-02  0.1266605E+00
        -11   -1    0    0    0    0  0.00000000000E+00  0.00000000000E+00  0.45593999997E+02  0.45594000000E+02  0.51100000000E-03 0. -1.
         11   -1    0    0    0    0 -0.00000000000E+00 -0.00000000000E+00 -0.45593999997E+02  0.45594000000E+02  0.51100000000E-03 0.  1.
    9900012    2    1    2    0    0 -0.39909039031E+01 -0.17960918420E+02 -0.26042242168E+02  0.59301948479E+02  0.50000008118E+02 0.  0.
         12    1    1    2    0    0  0.39909039031E+01  0.17960918420E+02  0.26042242168E+02  0.31886051521E+02  0.00000000000E+00 0. -1.
         11    1    3    3    0    0  0.56501606621E+00  0.15937435654E+02 -0.10379042352E+02  0.19027496387E+02  0.51100000000E-03 0. -1.
        -11    1    3    3    0    0 -0.15801831609E+01 -0.18472528417E+02 -0.66107840259E+00  0.18551773765E+02  0.51100000000E-03 0.  1.
        -12    1    3    3    0    0 -0.29757368084E+01 -0.15425825657E+02 -0.15002121414E+02  0.21722678326E+02  0.00000000000E+00 0.  1.
</event>
<event>
 7    1  0.7012292E-013  0.5930194E+02  0.7816164E-02  0.1266605E+00
        -11   -1    0    0    0    0  0.00000000000E+00  0.00000000000E+00  0.45593999997E+02  0.45594000000E+02  0.51100000000E-03 0. -1.
         11   -1    0    0    0    0 -0.00000000000E+00 -0.00000000000E+00 -0.45593999997E+02  0.45594000000E+02  0.51100000000E-03 0.  1.
    9900012    2    1    2    0    0 -0.31428710152E+02  0.29924940293E+00  0.53728272848E+01  0.59301942780E+02  0.49999997724E+02 0.  0.
         12    1    1    2    0    0  0.31428710152E+02 -0.29924940293E+00 -0.53728272848E+01  0.31886057220E+02  0.00000000000E+00 0. -1.
         11    1    3    3    0    0 -0.12846010184E+02 -0.12028868233E+02  0.70919152828E+01  0.18973900792E+02  0.51100000000E-03 0. -1.
        -11    1    3    3    0    0 -0.23578351532E+02 -0.11336357838E+01 -0.76185296054E+01  0.24804551692E+02  0.51100000000E-03 0.  1.
         12    1    3    3    0    0  0.49956515634E+01  0.13461753420E+02  0.58994416073E+01  0.15523490296E+02  0.00000000000E+00 0. -1.
</event>
<event>
 7    1  0.7012292E-013  0.5930195E+02  0.7816164E-02  0.1266605E+00
        -11   -1    0    0    0    0  0.00000000000E+00  0.00000000000E+00  0.45593999997E+02  0.45594000000E+02  0.51100000000E-03 0.  1.
         11   -1    0    0    0    0 -0.00000000000E+00 -0.00000000000E+00 -0.45593999997E+02  0.45594000000E+02  0.51100000000E-03 0. -1.
    9900012    2    1    2    0    0 -0.25131099467E+02 -0.18629516229E+02  0.61716582242E+01  0.59301946613E+02  0.50000004715E+02 0.  0.
         12    1    1    2    0    0  0.25131099467E+02  0.18629516229E+02 -0.61716582242E+01  0.31886053387E+02  0.00000000000E+00 0. -1.
         11    1    3    3    0    0 -0.50210448782E+01  0.44553757902E+01 -0.11473036623E+02  0.13292548090E+02  0.51100000000E-03 0. -1.
        -11    1    3    3    0    0  0.30221864608E+01 -0.11713315536E+02  0.16165786948E+02  0.20190790964E+02  0.51100000000E-03 0.  1.
        -12    1    3    3    0    0 -0.23132241050E+02 -0.11371576483E+02  0.14789078999E+01  0.25818607559E+02  0.00000000000E+00 0.  1.
</event>
<event>
 7    1  0.7012292E-013  0.5930188E+02  0.7816164E-02  0.1266605E+00
        -11   -1    0    0    0    0  0.00000000000E+00  0.00000000000E+00  0.45593999997E+02  0.45594000000E+02  0.51100000000E-03 0.  1.
         11   -1    0    0    0    0 -0.00000000000E+00 -0.00000000000E+00 -0.45593999997E+02  0.45594000000E+02  0.51100000000E-03 0. -1.
    9900012    2    1    2    0    0 -0.29150203271E+02  0.40080027102E+01  0.12285211286E+02  0.59301876798E+02  0.49999877390E+02 0.  0.
         12    1    1    2    0    0  0.29150203271E+02 -0.40080027102E+01 -0.12285211286E+02  0.31886123202E+02  0.00000000000E+00 0. -1.
         11    1    3    3    0    0 -0.31493705691E+00 -0.20053476165E+01 -0.66108567828E+01  0.69154921789E+01  0.51100000000E-03 0. -1.
        -11    1    3    3    0    0 -0.28147559873E+02 -0.12335396745E+01 -0.39119600547E+01  0.28444862078E+02  0.51100000000E-03 0.  1.
        -12    1    3    3    0    0 -0.68770634162E+00  0.72468900012E+01  0.22808028124E+02  0.23941522541E+02  0.00000000000E+00 0.  1.
</event>
<event>
 7    1  0.7012292E-013  0.5930198E+02  0.7816164E-02  0.1266605E+00
        -11   -1    0    0    0    0  0.00000000000E+00  0.00000000000E+00  0.45593999997E+02  0.45594000000E+02  0.51100000000E-03 0. -1.
         11   -1    0    0    0    0 -0.00000000000E+00 -0.00000000000E+00 -0.45593999997E+02  0.45594000000E+02  0.51100000000E-03 0.  1.
    9900012    2    1    2    0    0  0.19444598346E+02  0.14649941693E+01 -0.25228554234E+02  0.59301975452E+02  0.50000057310E+02 0.  0.
         12    1    1    2    0    0 -0.19444598346E+02 -0.14649941693E+01  0.25228554234E+02  0.31886024548E+02  0.00000000000E+00 0. -1.
         11    1    3    3    0    0  0.13058590211E+02 -0.13787407756E+02 -0.95632444704E+01  0.21262056250E+02  0.51100000000E-03 0. -1.
        -11    1    3    3    0    0 -0.10505471568E+02  0.52026128742E+01 -0.14079309503E+02  0.18321000789E+02  0.51100000000E-03 0.  1.
        -12    1    3    3    0    0  0.16891479703E+02  0.10049789051E+02 -0.15860002608E+01  0.19718918413E+02  0.00000000000E+00 0.  1.
</event>
<event>
 7    1  0.7012292E-013  0.5930195E+02  0.7816164E-02  0.1266605E+00
        -11   -1    0    0    0    0  0.00000000000E+00  0.00000000000E+00  0.45593999997E+02  0.45594000000E+02  0.51100000000E-03 0. -1.
         11   -1    0    0    0    0 -0.00000000000E+00 -0.00000000000E+00 -0.45593999997E+02  0.45594000000E+02  0.51100000000E-03 0.  1.
    9900012    2    1    2    0    0  0.17623669262E+02 -0.26353577201E+02 -0.34081762369E+01  0.59301946390E+02  0.50000004309E+02 0.  0.
         12    1    1    2    0    0 -0.17623669262E+02  0.26353577201E+02  0.34081762369E+01  0.31886053610E+02  0.00000000000E+00 0. -1.
         11    1    3    3    0    0 -0.31401888502E+01 -0.10664221113E+01 -0.58551439167E+01  0.67290974641E+01  0.51100000000E-03 0. -1.
        -11    1    3    3    0    0  0.29321048580E+01 -0.13494781539E+02 -0.18203926462E+02  0.22849273655E+02  0.51100000000E-03 0.  1.
         12    1    3    3    0    0  0.17831753254E+02 -0.11792373551E+02  0.20650894141E+02  0.29723575271E+02  0.00000000000E+00 0. -1.
</event>
<event>
 7    1  0.7012292E-013  0.5930195E+02  0.7816164E-02  0.1266605E+00
        -11   -1    0    0    0    0  0.00000000000E+00  0.00000000000E+00  0.45593999997E+02  0.45594000000E+02  0.51100000000E-03 0.  1.
         11   -1    0    0    0    0 -0.00000000000E+00 -0.00000000000E+00 -0.45593999997E+02  0.45594000000E+02  0.51100000000E-03 0. -1.
    9900012    2    1    2    0    0 -0.19572095880E+02 -0.92196576542E+01  0.23423309533E+02  0.59301945778E+02  0.50000003192E+02 0.  0.
         12    1    1    2    0    0  0.19572095880E+02  0.92196576542E+01 -0.23423309533E+02  0.31886054222E+02  0.00000000000E+00 0. -1.
         11    1    3    3    0    0 -0.13027248344E+02 -0.22606302382E+02  0.11878087673E+02  0.28667805528E+02  0.51100000000E-03 0. -1.
        -11    1    3    3    0    0 -0.88027637575E-01 -0.69814277435E+01  0.22802751779E+01  0.73449123446E+01  0.51100000000E-03 0.  1.
        -12    1    3    3    0    0 -0.64568198983E+01  0.20368072471E+02  0.92649466826E+01  0.23289227905E+02  0.00000000000E+00 0.  1.
</event>
<event>
 7    1  0.7012292E-013  0.5930193E+02  0.7816164E-02  0.1266605E+00
        -11   -1    0    0    0    0  0.00000000000E+00  0.00000000000E+00  0.45593999997E+02  0.45594000000E+02  0.51100000000E-03 0. -1.
         11   -1    0    0    0    0 -0.00000000000E+00 -0.00000000000E+00 -0.45593999997E+02  0.45594000000E+02  0.51100000000E-03 0.  1.
    9900012    2    1    2    0    0  0.11415887433E+02  0.81608499952E+01 -0.28632139560E+02  0.59301931344E+02  0.49999976868E+02 0.  0.
         12    1    1    2    0    0 -0.11415887433E+02 -0.81608499952E+01  0.28632139560E+02  0.31886068656E+02  0.00000000000E+00 0. -1.
         11    1    3    3    0    0 -0.75022550618E+01 -0.11934857221E+02 -0.16534015228E+02  0.21727823354E+02  0.51100000000E-03 0. -1.
        -11    1    3    3    0    0  0.13138314064E+01  0.10793730855E+02 -0.13824913821E+02  0.17588604867E+02  0.51100000000E-03 0.  1.
         12    1    3    3    0    0  0.17604311089E+02  0.93019763612E+01  0.17267894888E+01  0.19985503123E+02  0.00000000000E+00 0. -1.
</event>
<event>
 7    1  0.7012292E-013  0.5930199E+02  0.7816164E-02  0.1266605E+00
        -11   -1    0    0    0    0  0.00000000000E+00  0.00000000000E+00  0.45593999997E+02  0.45594000000E+02  0.51100000000E-03 0. -1.
         11   -1    0    0    0    0 -0.00000000000E+00 -0.00000000000E+00 -0.45593999997E+02  0.45594000000E+02  0.51100000000E-03 0.  1.
    9900012    2    1    2    0    0  0.59848968311E+01 -0.10136760223E+02 -0.29633511937E+02  0.59301985392E+02  0.50000075438E+02 0.  0.
         12    1    1    2    0    0 -0.59848968311E+01  0.10136760223E+02  0.29633511937E+02  0.31886014608E+02  0.00000000000E+00 0. -1.
         11    1    3    3    0    0  0.51833425152E+01 -0.54770834857E+01 -0.12658117912E+02  0.14734090827E+02  0.51100000000E-03 0.  1.
        -11    1    3    3    0    0 -0.13788015285E+02 -0.16267661053E+02 -0.36102197618E+01  0.21628218803E+02  0.51100000000E-03 0. -1.
         12    1    3    3    0    0  0.14589569600E+02  0.11607984315E+02 -0.13365174263E+02  0.22939675762E+02  0.00000000000E+00 0. -1.
</event>
<event>
 7    1  0.7041799E-013  0.5930195E+02  0.7816164E-02  0.1266605E+00
        -11   -1    0    0    0    0  0.00000000000E+00  0.00000000000E+00  0.45593999997E+02  0.45594000000E+02  0.51100000000E-03 0.  1.
         11   -1    0    0    0    0 -0.00000000000E+00 -0.00000000000E+00 -0.45593999997E+02  0.45594000000E+02  0.51100000000E-03 0. -1.
    9900012    2    1    2    0    0  0.20353259098E+02 -0.21486088987E+02  0.11866474500E+02  0.59301946733E+02  0.50000004934E+02 0.  0.
         12    1    1    2    0    0 -0.20353259098E+02  0.21486088987E+02 -0.11866474500E+02  0.31886053267E+02  0.00000000000E+00 0. -1.
         11    1    3    3    0    0 -0.47052812527E+01 -0.42583239616E+01 -0.20031009017E+01  0.66547282523E+01  0.51100000000E-03 0. -1.
        -11    1    3    3    0    0  0.14242065171E+02 -0.22891722987E+02  0.24521534038E+02  0.36444108351E+02  0.51100000000E-03 0.  1.
         12    1    3    3    0    0  0.10816475179E+02  0.56639579612E+01 -0.10651958636E+02  0.16203110130E+02  0.00000000000E+00 0. -1.
</event>
<event>
 7    1  0.7012292E-013  0.5930195E+02  0.7816164E-02  0.1266605E+00
        -11   -1    0    0    0    0  0.00000000000E+00  0.00000000000E+00  0.45593999997E+02  0.45594000000E+02  0.51100000000E-03 0. -1.
         11   -1    0    0    0    0 -0.00000000000E+00 -0.00000000000E+00 -0.45593999997E+02  0.45594000000E+02  0.51100000000E-03 0.  1.
    9900012    2    1    2    0    0  0.19273750802E+01 -0.20255058260E+02 -0.24550727068E+02  0.59301947260E+02  0.50000005894E+02 0.  0.
         12    1    1    2    0    0 -0.19273750802E+01  0.20255058260E+02  0.24550727068E+02  0.31886052740E+02  0.00000000000E+00 0. -1.
         11    1    3    3    0    0 -0.12207434855E+01  0.36547330229E+00  0.16740974438E+01  0.21038982639E+01  0.51100000000E-03 0.  1.
        -11    1    3    3    0    0  0.10433523964E+02 -0.12637412279E+02  0.10133181573E+02  0.19267692661E+02  0.51100000000E-03 0. -1.
        -12    1    3    3    0    0 -0.72854053981E+01 -0.79831192830E+01 -0.36358006084E+02  0.37930356335E+02  0.00000000000E+00 0.  1.
</event>
<event>
 7    1  0.7012292E-013  0.5930196E+02  0.7816164E-02  0.1266605E+00
        -11   -1    0    0    0    0  0.00000000000E+00  0.00000000000E+00  0.45593999997E+02  0.45594000000E+02  0.51100000000E-03 0.  1.
         11   -1    0    0    0    0 -0.00000000000E+00 -0.00000000000E+00 -0.45593999997E+02  0.45594000000E+02  0.51100000000E-03 0. -1.
    9900012    2    1    2    0    0  0.23116624163E+02 -0.84714475520E+01  0.20262671977E+02  0.59301958979E+02  0.50000027268E+02 0.  0.
         12    1    1    2    0    0 -0.23116624163E+02  0.84714475520E+01 -0.20262671977E+02  0.31886041021E+02  0.00000000000E+00 0. -1.
         11    1    3    3    0    0  0.25622469189E+02  0.60087936664E+01 -0.18362693080E+00  0.26318249330E+02  0.51100000000E-03 0. -1.
        -11    1    3    3    0    0  0.31690875121E+01 -0.99021233327E-01 -0.33458972556E+01  0.46095498230E+01  0.51100000000E-03 0.  1.
        -12    1    3    3    0    0 -0.56749325380E+01 -0.14381219985E+02  0.23792196164E+02  0.28374159827E+02  0.00000000000E+00 0.  1.
</event>
<event>
 7    1  0.7012292E-013  0.5930194E+02  0.7816164E-02  0.1266605E+00
        -11   -1    0    0    0    0  0.00000000000E+00  0.00000000000E+00  0.45593999997E+02  0.45594000000E+02  0.51100000000E-03 0.  1.
         11   -1    0    0    0    0 -0.00000000000E+00 -0.00000000000E+00 -0.45593999997E+02  0.45594000000E+02  0.51100000000E-03 0. -1.
    9900012    2    1    2    0    0  0.22385814401E+01  0.19604831161E+02  0.25047153223E+02  0.59301944485E+02  0.50000000835E+02 0.  0.
         12    1    1    2    0    0 -0.22385814401E+01 -0.19604831161E+02 -0.25047153223E+02  0.31886055515E+02  0.00000000000E+00 0. -1.
         11    1    3    3    0    0 -0.80427332749E+00  0.25084846217E+02  0.67228272258E+01  0.25982547440E+02  0.51100000000E-03 0. -1.
        -11    1    3    3    0    0  0.12937421861E+02 -0.28376264845E+00  0.17961366267E+02  0.22137481431E+02  0.51100000000E-03 0.  1.
         12    1    3    3    0    0 -0.98945670936E+01 -0.51962524070E+01  0.36295972952E+00  0.11181915615E+02  0.00000000000E+00 0. -1.
</event>
<event>
 7    1  0.7012292E-013  0.5930194E+02  0.7816164E-02  0.1266605E+00
        -11   -1    0    0    0    0  0.00000000000E+00  0.00000000000E+00  0.45593999997E+02  0.45594000000E+02  0.51100000000E-03 0. -1.
         11   -1    0    0    0    0 -0.00000000000E+00 -0.00000000000E+00 -0.45593999997E+02  0.45594000000E+02  0.51100000000E-03 0.  1.
    9900012    2    1    2    0    0  0.19903972147E+02 -0.14947210915E+02 -0.19928217351E+02  0.59301936146E+02  0.49999985625E+02 0.  0.
         12    1    1    2    0    0 -0.19903972147E+02  0.14947210915E+02  0.19928217351E+02  0.31886063854E+02  0.00000000000E+00 0. -1.
         11    1    3    3    0    0  0.48485567034E+01 -0.16776657441E+02  0.74958673968E+01  0.19004019714E+02  0.51100000000E-03 0. -1.
        -11    1    3    3    0    0  0.67920660729E+01  0.67010662155E+01  0.16494159805E+01  0.96828210404E+01  0.51100000000E-03 0.  1.
         12    1    3    3    0    0  0.82633493704E+01 -0.48716196895E+01 -0.29073500728E+02  0.30615095391E+02  0.00000000000E+00 0. -1.
</event>
<event>
 7    1  0.7012292E-013  0.5930199E+02  0.7816164E-02  0.1266605E+00
        -11   -1    0    0    0    0  0.00000000000E+00  0.00000000000E+00  0.45593999997E+02  0.45594000000E+02  0.51100000000E-03 0. -1.
         11   -1    0    0    0    0 -0.00000000000E+00 -0.00000000000E+00 -0.45593999997E+02  0.45594000000E+02  0.51100000000E-03 0.  1.
    9900012    2    1    2    0    0  0.91576037102E+01 -0.59490522392E+01 -0.29957718417E+02  0.59301987063E+02  0.50000078486E+02 0.  0.
         12    1    1    2    0    0 -0.91576037102E+01  0.59490522392E+01  0.29957718417E+02  0.31886012937E+02  0.00000000000E+00 0. -1.
         11    1    3    3    0    0 -0.86223281154E+01 -0.42903798889E+01 -0.10555209671E+02  0.14288609211E+02  0.51100000000E-03 0. -1.
        -11    1    3    3    0    0 -0.81223802812E+01 -0.73582504518E+01 -0.14280445628E+02  0.18001334360E+02  0.51100000000E-03 0.  1.
         12    1    3    3    0    0  0.25902312107E+02  0.56995781016E+01 -0.51220631180E+01  0.27012043492E+02  0.00000000000E+00 0. -1.
</event>
<event>
 7    1  0.7012292E-013  0.5930195E+02  0.7816164E-02  0.1266605E+00
        -11   -1    0    0    0    0  0.00000000000E+00  0.00000000000E+00  0.45593999997E+02  0.45594000000E+02  0.51100000000E-03 0.  1.
         11   -1    0    0    0    0 -0.00000000000E+00 -0.00000000000E+00 -0.45593999997E+02  0.45594000000E+02  0.51100000000E-03 0. -1.
    9900012    2    1    2    0    0  0.16959122574E+02 -0.25528288317E+02  0.87985582349E+01  0.59301953367E+02  0.50000017032E+02 0.  0.
         12    1    1    2    0    0 -0.16959122574E+02  0.25528288317E+02 -0.87985582349E+01  0.31886046633E+02  0.00000000000E+00 0. -1.
         11    1    3    3    0    0  0.57954332431E+01  0.80734076978E+01  0.38316949154E+01  0.10651236760E+02  0.51100000000E-03 0. -1.
        -11    1    3    3    0    0 -0.96655167673E+01 -0.13308852407E+02 -0.60898865241E+01  0.17539512106E+02  0.51100000000E-03 0.  1.
        -12    1    3    3    0    0  0.20829206099E+02 -0.20292843608E+02  0.11056749844E+02  0.31111204501E+02  0.00000000000E+00 0.  1.
</event>
<event>
 7    1  0.7012292E-013  0.5930192E+02  0.7816164E-02  0.1266605E+00
        -11   -1    0    0    0    0  0.00000000000E+00  0.00000000000E+00  0.45593999997E+02  0.45594000000E+02  0.51100000000E-03 0.  1.
         11   -1    0    0    0    0 -0.00000000000E+00 -0.00000000000E+00 -0.45593999997E+02  0.45594000000E+02  0.51100000000E-03 0. -1.
    9900012    2    1    2    0    0 -0.14561216974E+02  0.26972287406E+02  0.87857299145E+01  0.59301915609E+02  0.49999948171E+02 0.  0.
         12    1    1    2    0    0  0.14561216974E+02 -0.26972287406E+02 -0.87857299145E+01  0.31886084391E+02  0.00000000000E+00 0. -1.
         11    1    3    3    0    0 -0.25728847331E+02  0.12103473793E+02 -0.54810154592E+01  0.28957023216E+02  0.51100000000E-03 0. -1.
        -11    1    3    3    0    0 -0.19975469994E+01 -0.11661214023E+01 -0.26915771524E+01  0.35488901037E+01  0.51100000000E-03 0.  1.
        -12    1    3    3    0    0  0.13165177356E+02  0.16034935016E+02  0.16958322526E+02  0.26796002289E+02  0.00000000000E+00 0.  1.
</event>
<event>
 7    1  0.7012292E-013  0.5930195E+02  0.7816164E-02  0.1266605E+00
        -11   -1    0    0    0    0  0.00000000000E+00  0.00000000000E+00  0.45593999997E+02  0.45594000000E+02  0.51100000000E-03 0.  1.
         11   -1    0    0    0    0 -0.00000000000E+00 -0.00000000000E+00 -0.45593999997E+02  0.45594000000E+02  0.51100000000E-03 0. -1.
    9900012    2    1    2    0    0 -0.29691062194E+02  0.11594999274E+02 -0.84664146793E+00  0.59301953143E+02  0.50000016624E+02 0.  0.
         12    1    1    2    0    0  0.29691062194E+02 -0.11594999274E+02  0.84664146793E+00  0.31886046857E+02  0.00000000000E+00 0. -1.
         11    1    3    3    0    0  0.11550193502E+02 -0.35775246434E+01 -0.38594558626E+01  0.12692558935E+02  0.51100000000E-03 0. -1.
        -11    1    3    3    0    0 -0.22903598902E+02  0.75955128453E+01  0.92017770873E+01  0.25825169116E+02  0.51100000000E-03 0.  1.
        -12    1    3    3    0    0 -0.18337656794E+02  0.75770110717E+01 -0.61889626926E+01  0.20784225092E+02  0.00000000000E+00 0.  1.
</event>
<event>
 7    1  0.7012292E-013  0.5930194E+02  0.7816164E-02  0.1266605E+00
        -11   -1    0    0    0    0  0.00000000000E+00  0.00000000000E+00  0.45593999997E+02  0.45594000000E+02  0.51100000000E-03 0.  1.
         11   -1    0    0    0    0 -0.00000000000E+00 -0.00000000000E+00 -0.45593999997E+02  0.45594000000E+02  0.51100000000E-03 0. -1.
    9900012    2    1    2    0    0 -0.21097163763E+02 -0.52642874477E+01  0.23322042831E+02  0.59301941558E+02  0.49999995495E+02 0.  0.
         12    1    1    2    0    0  0.21097163763E+02  0.52642874477E+01 -0.23322042831E+02  0.31886058442E+02  0.00000000000E+00 0. -1.
         11    1    3    3    0    0 -0.30097648057E+01  0.93591979822E+01  0.12325996048E+02  0.15766529418E+02  0.51100000000E-03 0. -1.
        -11    1    3    3    0    0  0.95933129287E+01  0.14898577273E+01  0.11653754497E+00  0.97090118063E+01  0.51100000000E-03 0.  1.
        -12    1    3    3    0    0 -0.27680711886E+02 -0.16113343157E+02  0.10879509238E+02  0.33826400333E+02  0.00000000000E+00 0.  1.
</event>
<event>
 7    1  0.7012292E-013  0.5930195E+02  0.7816164E-02  0.1266605E+00
        -11   -1    0    0    0    0  0.00000000000E+00  0.00000000000E+00  0.45593999997E+02  0.45594000000E+02  0.51100000000E-03 0.  1.
         11   -1    0    0    0    0 -0.00000000000E+00 -0.00000000000E+00 -0.45593999997E+02  0.45594000000E+02  0.51100000000E-03 0. -1.
    9900012    2    1    2    0    0  0.22066229601E+02 -0.74534568281E+01  0.21777233200E+02  0.59301946727E+02  0.50000004922E+02 0.  0.
         12    1    1    2    0    0 -0.22066229601E+02  0.74534568281E+01 -0.21777233200E+02  0.31886053273E+02  0.00000000000E+00 0. -1.
         11    1    3    3    0    0  0.10938063358E+02 -0.22707265080E+02 -0.38374936343E+01  0.25494851933E+02  0.51100000000E-03 0. -1.
        -11    1    3    3    0    0 -0.67603447492E+00 -0.11542902075E+00 -0.79504862691E+00  0.10499757380E+01  0.51100000000E-03 0.  1.
        -12    1    3    3    0    0  0.11804200718E+02  0.15369237272E+02  0.26409775461E+02  0.32757119056E+02  0.00000000000E+00 0.  1.
</event>
<event>
 7    1  0.7012292E-013  0.5930192E+02  0.7816164E-02  0.1266605E+00
        -11   -1    0    0    0    0  0.00000000000E+00  0.00000000000E+00  0.45593999997E+02  0.45594000000E+02  0.51100000000E-03 0.  1.
         11   -1    0    0    0    0 -0.00000000000E+00 -0.00000000000E+00 -0.45593999997E+02  0.45594000000E+02  0.51100000000E-03 0. -1.
    9900012    2    1    2    0    0 -0.17257767745E+02 -0.23808711963E+02  0.12330308496E+02  0.59301924348E+02  0.49999964108E+02 0.  0.
         12    1    1    2    0    0  0.17257767745E+02  0.23808711963E+02 -0.12330308496E+02  0.31886075652E+02  0.00000000000E+00 0. -1.
         11    1    3    3    0    0 -0.28337554931E+01 -0.19248197489E+02  0.35994669163E+01  0.19785839358E+02  0.51100000000E-03 0. -1.
        -11    1    3    3    0    0  0.49067901556E+01 -0.14379408253E+02 -0.19994754565E+01  0.15324551338E+02  0.51100000000E-03 0.  1.
         12    1    3    3    0    0 -0.19330802407E+02  0.98188937783E+01  0.10730317036E+02  0.24191533652E+02  0.00000000000E+00 0. -1.
</event>
<event>
 7    1  0.7012292E-013  0.5930195E+02  0.7816164E-02  0.1266605E+00
        -11   -1    0    0    0    0  0.00000000000E+00  0.00000000000E+00  0.45593999997E+02  0.45594000000E+02  0.51100000000E-03 0. -1.
         11   -1    0    0    0    0 -0.00000000000E+00 -0.00000000000E+00 -0.45593999997E+02  0.45594000000E+02  0.51100000000E-03 0.  1.
    9900012    2    1    2    0    0 -0.22897034801E+02  0.22059625843E+02 -0.24122186124E+01  0.59301951426E+02  0.50000013493E+02 0.  0.
         12    1    1    2    0    0  0.22897034801E+02 -0.22059625843E+02  0.24122186124E+01  0.31886048574E+02  0.00000000000E+00 0. -1.
         11    1    3    3    0    0 -0.17884428317E+02 -0.67804207568E+01  0.94864856788E+01  0.21349948306E+02  0.51100000000E-03 0. -1.
        -11    1    3    3    0    0 -0.92704804544E+01  0.14563987361E+02  0.22454072444E+01  0.17409577527E+02  0.51100000000E-03 0.  1.
         12    1    3    3    0    0  0.42578739700E+01  0.14276059238E+02 -0.14144111536E+02  0.20542425593E+02  0.00000000000E+00 0. -1.
</event>
<event>
 7    1  0.7012292E-013  0.5930193E+02  0.7816164E-02  0.1266605E+00
        -11   -1    0    0    0    0  0.00000000000E+00  0.00000000000E+00  0.45593999997E+02  0.45594000000E+02  0.51100000000E-03 0.  1.
         11   -1    0    0    0    0 -0.00000000000E+00 -0.00000000000E+00 -0.45593999997E+02  0.45594000000E+02  0.51100000000E-03 0. -1.
    9900012    2    1    2    0    0  0.21840346569E+02 -0.20798700159E+02  0.10350607585E+02  0.59301925548E+02  0.49999966298E+02 0.  0.
         12    1    1    2    0    0 -0.21840346569E+02  0.20798700159E+02 -0.10350607585E+02  0.31886074452E+02  0.00000000000E+00 0. -1.
         11    1    3    3    0    0  0.14183434513E+02  0.27721690685E+00  0.26605577778E+01  0.14433476080E+02  0.51100000000E-03 0. -1.
        -11    1    3    3    0    0  0.15351379919E+02  0.47936720919E+01  0.78101371433E+01  0.17878545802E+02  0.51100000000E-03 0.  1.
         12    1    3    3    0    0 -0.76944678636E+01 -0.25869589158E+02 -0.12008733655E+00  0.26989903666E+02  0.00000000000E+00 0. -1.
</event>
<event>
 7    1  0.7012292E-013  0.5930192E+02  0.7816164E-02  0.1266605E+00
        -11   -1    0    0    0    0  0.00000000000E+00  0.00000000000E+00  0.45593999997E+02  0.45594000000E+02  0.51100000000E-03 0.  1.
         11   -1    0    0    0    0 -0.00000000000E+00 -0.00000000000E+00 -0.45593999997E+02  0.45594000000E+02  0.51100000000E-03 0. -1.
    9900012    2    1    2    0    0 -0.22358150223E+02 -0.14592058104E+02  0.17432936367E+02  0.59301916649E+02  0.49999950067E+02 0.  0.
         12    1    1    2    0    0  0.22358150223E+02  0.14592058104E+02 -0.17432936367E+02  0.31886083351E+02  0.00000000000E+00 0. -1.
         11    1    3    3    0    0 -0.10440513303E+02 -0.14041320181E+02  0.26864315430E+01  0.17702539511E+02  0.51100000000E-03 0. -1.
        -11    1    3    3    0    0 -0.24425837932E+02 -0.61375097658E+01  0.90235411939E+01  0.26752848086E+02  0.51100000000E-03 0.  1.
        -12    1    3    3    0    0  0.12508201011E+02  0.55867718430E+01  0.57229636298E+01  0.14846529051E+02  0.00000000000E+00 0.  1.
</event>
<event>
 7    1  0.7012292E-013  0.5930198E+02  0.7816164E-02  0.1266605E+00
        -11   -1    0    0    0    0  0.00000000000E+00  0.00000000000E+00  0.45593999997E+02  0.45594000000E+02  0.51100000000E-03 0.  1.
         11   -1    0    0    0    0 -0.00000000000E+00 -0.00000000000E+00 -0.45593999997E+02  0.45594000000E+02  0.51100000000E-03 0. -1.
    9900012    2    1    2    0    0  0.36099187347E+01  0.16475683739E+02  0.27059902121E+02  0.59301984715E+02  0.50000074204E+02 0.  0.
         12    1    1    2    0    0 -0.36099187347E+01 -0.16475683739E+02 -0.27059902121E+02  0.31886015285E+02  0.00000000000E+00 0. -1.
         11    1    3    3    0    0  0.10282800147E+02  0.25030762959E+01 -0.82139595120E+01  0.13396660066E+02  0.51100000000E-03 0. -1.
        -11    1    3    3    0    0  0.69944193350E+01 -0.28062024450E+01  0.68780882463E+01  0.10203174613E+02  0.51100000000E-03 0.  1.
        -12    1    3    3    0    0 -0.13667300747E+02  0.16778809888E+02  0.28395773387E+02  0.35702150036E+02  0.00000000000E+00 0.  1.
</event>
<event>
 7    1  0.7012292E-013  0.5930194E+02  0.7816164E-02  0.1266605E+00
        -11   -1    0    0    0    0  0.00000000000E+00  0.00000000000E+00  0.45593999997E+02  0.45594000000E+02  0.51100000000E-03 0.  1.
         11   -1    0    0    0    0 -0.00000000000E+00 -0.00000000000E+00 -0.45593999997E+02  0.45594000000E+02  0.51100000000E-03 0. -1.
    9900012    2    1    2    0    0 -0.22740020178E+02  0.19403085994E+02  0.11096497920E+02  0.59301944586E+02  0.50000001018E+02 0.  0.
         12    1    1    2    0    0  0.22740020178E+02 -0.19403085994E+02 -0.11096497920E+02  0.31886055414E+02  0.00000000000E+00 0. -1.
         11    1    3    3    0    0  0.62549047295E+01  0.22458174506E+01 -0.11277204580E+01  0.67408666274E+01  0.51100000000E-03 0. -1.
        -11    1    3    3    0    0 -0.12098904768E+02  0.27871965572E+02  0.11662992511E+02  0.32546203404E+02  0.51100000000E-03 0.  1.
        -12    1    3    3    0    0 -0.16896020139E+02 -0.10714697028E+02  0.56122586747E+00  0.20014874555E+02  0.00000000000E+00 0.  1.
</event>
<event>
 7    1  0.7012292E-013  0.5930195E+02  0.7816164E-02  0.1266605E+00
        -11   -1    0    0    0    0  0.00000000000E+00  0.00000000000E+00  0.45593999997E+02  0.45594000000E+02  0.51100000000E-03 0.  1.
         11   -1    0    0    0    0 -0.00000000000E+00 -0.00000000000E+00 -0.45593999997E+02  0.45594000000E+02  0.51100000000E-03 0. -1.
    9900012    2    1    2    0    0  0.20982738478E+02  0.38696050112E+01 -0.23695382660E+02  0.59301947933E+02  0.50000007123E+02 0.  0.
         12    1    1    2    0    0 -0.20982738478E+02 -0.38696050112E+01  0.23695382660E+02  0.31886052067E+02  0.00000000000E+00 0. -1.
         11    1    3    3    0    0 -0.61544036351E+01  0.28959274232E+01 -0.13154074468E+02  0.14808536562E+02  0.51100000000E-03 0. -1.
        -11    1    3    3    0    0  0.39075656636E+01 -0.80329763574E+00  0.11652693855E+02  0.12316640404E+02  0.51100000000E-03 0.  1.
        -12    1    3    3    0    0  0.23229576450E+02  0.17769752237E+01 -0.22194002047E+02  0.32176770967E+02  0.00000000000E+00 0.  1.
</event>
<event>
 7    1  0.7012292E-013  0.5930193E+02  0.7816164E-02  0.1266605E+00
        -11   -1    0    0    0    0  0.00000000000E+00  0.00000000000E+00  0.45593999997E+02  0.45594000000E+02  0.51100000000E-03 0. -1.
         11   -1    0    0    0    0 -0.00000000000E+00 -0.00000000000E+00 -0.45593999997E+02  0.45594000000E+02  0.51100000000E-03 0.  1.
    9900012    2    1    2    0    0  0.80279458796E+01  0.30753079776E+02 -0.25537033455E+01  0.59301933584E+02  0.49999980952E+02 0.  0.
         12    1    1    2    0    0 -0.80279458796E+01 -0.30753079776E+02  0.25537033455E+01  0.31886066416E+02  0.00000000000E+00 0. -1.
         11    1    3    3    0    0  0.90410325199E+01 -0.62589924600E+01 -0.40201496738E+00  0.11003493624E+02  0.51100000000E-03 0. -1.
        -11    1    3    3    0    0  0.24852216489E+01 -0.25842549668E+01 -0.73806743060E+01  0.82054283161E+01  0.51100000000E-03 0.  1.
        -12    1    3    3    0    0 -0.34983082892E+01  0.39596327202E+02  0.52289859278E+01  0.40093011643E+02  0.00000000000E+00 0.  1.
</event>
<event>
 7    1  0.7012292E-013  0.5930195E+02  0.7816164E-02  0.1266605E+00
        -11   -1    0    0    0    0  0.00000000000E+00  0.00000000000E+00  0.45593999997E+02  0.45594000000E+02  0.51100000000E-03 0.  1.
         11   -1    0    0    0    0 -0.00000000000E+00 -0.00000000000E+00 -0.45593999997E+02  0.45594000000E+02  0.51100000000E-03 0. -1.
    9900012    2    1    2    0    0 -0.56061508512E+01  0.18057222556E+02  0.25675433053E+02  0.59301951699E+02  0.50000013991E+02 0.  0.
         12    1    1    2    0    0  0.56061508512E+01 -0.18057222556E+02 -0.25675433053E+02  0.31886048301E+02  0.00000000000E+00 0. -1.
         11    1    3    3    0    0  0.23749254673E+01 -0.22366354812E+01  0.14090562895E+02  0.14463290504E+02  0.51100000000E-03 0. -1.
        -11    1    3    3    0    0  0.14451637787E+02  0.61714216971E+01  0.92346274827E+01  0.18226755759E+02  0.51100000000E-03 0.  1.
         12    1    3    3    0    0 -0.22432714105E+02  0.14122436340E+02  0.23502426751E+01  0.26611905436E+02  0.00000000000E+00 0. -1.
</event>
<event>
 7    1  0.7012292E-013  0.5930194E+02  0.7816164E-02  0.1266605E+00
        -11   -1    0    0    0    0  0.00000000000E+00  0.00000000000E+00  0.45593999997E+02  0.45594000000E+02  0.51100000000E-03 0.  1.
         11   -1    0    0    0    0 -0.00000000000E+00 -0.00000000000E+00 -0.45593999997E+02  0.45594000000E+02  0.51100000000E-03 0. -1.
    9900012    2    1    2    0    0 -0.17265033905E+01 -0.29677714740E+02  0.11531401535E+02  0.59301940545E+02  0.49999993649E+02 0.  0.
         12    1    1    2    0    0  0.17265033905E+01  0.29677714740E+02 -0.11531401535E+02  0.31886059455E+02  0.00000000000E+00 0. -1.
         11    1    3    3    0    0 -0.58445726960E+01  0.15237051687E+01  0.25158698990E+01  0.65429587382E+01  0.51100000000E-03 0. -1.
        -11    1    3    3    0    0  0.81384314792E+01 -0.98017311468E+01  0.23413441741E+02  0.26655154377E+02  0.51100000000E-03 0.  1.
         12    1    3    3    0    0 -0.40203621737E+01 -0.21399688762E+02 -0.14397910105E+02  0.26103827431E+02  0.00000000000E+00 0. -1.
</event>
<event>
 7    1  0.7012292E-013  0.5930199E+02  0.7816164E-02  0.1266605E+00
        -11   -1    0    0    0    0  0.00000000000E+00  0.00000000000E+00  0.45593999997E+02  0.45594000000E+02  0.51100000000E-03 0. -1.
         11   -1    0    0    0    0 -0.00000000000E+00 -0.00000000000E+00 -0.45593999997E+02  0.45594000000E+02  0.51100000000E-03 0.  1.
    9900012    2    1    2    0    0 -0.27765945009E+02 -0.15095200385E+02  0.42314186534E+01  0.59301989263E+02  0.50000082498E+02 0.  0.
         12    1    1    2    0    0  0.27765945009E+02  0.15095200385E+02 -0.42314186534E+01  0.31886010737E+02  0.00000000000E+00 0. -1.
         11    1    3    3    0    0 -0.59744282565E+01 -0.38790834570E+01 -0.10135504527E+02  0.12388282114E+02  0.51100000000E-03 0. -1.
        -11    1    3    3    0    0 -0.33983140997E+01 -0.10904035808E+02 -0.10814259256E+02  0.15728786957E+02  0.51100000000E-03 0.  1.
         12    1    3    3    0    0 -0.18393202653E+02 -0.31208112015E+00  0.25181182437E+02  0.31184920192E+02  0.00000000000E+00 0. -1.
</event>
<event>
 7    1  0.7012292E-013  0.5930194E+02  0.7816164E-02  0.1266605E+00
        -11   -1    0    0    0    0  0.00000000000E+00  0.00000000000E+00  0.45593999997E+02  0.45594000000E+02  0.51100000000E-03 0.  1.
         11   -1    0    0    0    0 -0.00000000000E+00 -0.00000000000E+00 -0.45593999997E+02  0.45594000000E+02  0.51100000000E-03 0. -1.
    9900012    2    1    2    0    0  0.12133866129E+02  0.27071689950E+02  0.11688192092E+02  0.59301938181E+02  0.49999989336E+02 0.  0.
         12    1    1    2    0    0 -0.12133866129E+02 -0.27071689950E+02 -0.11688192092E+02  0.31886061819E+02  0.00000000000E+00 0. -1.
         11    1    3    3    0    0 -0.12652608443E+02  0.31493430188E+01  0.21051068868E+01  0.13207510633E+02  0.51100000000E-03 0. -1.
        -11    1    3    3    0    0  0.14944761616E+02  0.27159888264E+02  0.14960770434E+02  0.34421360846E+02  0.51100000000E-03 0.  1.
         12    1    3    3    0    0  0.98417129563E+01 -0.32375413331E+01 -0.53776852282E+01  0.11673066701E+02  0.00000000000E+00 0. -1.
</event>
<event>
 7    1  0.7012292E-013  0.5930191E+02  0.7816164E-02  0.1266605E+00
        -11   -1    0    0    0    0  0.00000000000E+00  0.00000000000E+00  0.45593999997E+02  0.45594000000E+02  0.51100000000E-03 0.  1.
         11   -1    0    0    0    0 -0.00000000000E+00 -0.00000000000E+00 -0.45593999997E+02  0.45594000000E+02  0.51100000000E-03 0. -1.
    9900012    2    1    2    0    0  0.31339246221E+02 -0.21118842369E+01 -0.54876332549E+01  0.59301913262E+02  0.49999943890E+02 0.  0.
         12    1    1    2    0    0 -0.31339246221E+02  0.21118842369E+01  0.54876332549E+01  0.31886086738E+02  0.00000000000E+00 0. -1.
         11    1    3    3    0    0  0.16198301558E+02 -0.89447489800E+01 -0.81009262879E+01  0.20199468178E+02  0.51100000000E-03 0. -1.
        -11    1    3    3    0    0  0.11574162534E+02 -0.84049332281E+01 -0.11248005520E+02  0.18196751616E+02  0.51100000000E-03 0.  1.
        -12    1    3    3    0    0  0.35667821289E+01  0.15237797971E+02  0.13861298553E+02  0.20905693467E+02  0.00000000000E+00 0.  1.
</event>
<event>
 7    1  0.7012292E-013  0.5930191E+02  0.7816164E-02  0.1266605E+00
        -11   -1    0    0    0    0  0.00000000000E+00  0.00000000000E+00  0.45593999997E+02  0.45594000000E+02  0.51100000000E-03 0. -1.
         11   -1    0    0    0    0 -0.00000000000E+00 -0.00000000000E+00 -0.45593999997E+02  0.45594000000E+02  0.51100000000E-03 0.  1.
    9900012    2    1    2    0    0 -0.10213174121E+02  0.17159821991E+02 -0.24858685515E+02  0.59301911153E+02  0.49999940045E+02 0.  0.
         12    1    1    2    0    0  0.10213174121E+02 -0.17159821991E+02  0.24858685515E+02  0.31886088847E+02  0.00000000000E+00 0. -1.
         11    1    3    3    0    0  0.10326184548E+02  0.55490279810E+01  0.41573128041E+01  0.12438048434E+02  0.51100000000E-03 0. -1.
        -11    1    3    3    0    0  0.34430009237E+01  0.78059988063E+01  0.61563389785E+00  0.85537639716E+01  0.51100000000E-03 0.  1.
        -12    1    3    3    0    0 -0.23982359593E+02  0.38047952039E+01 -0.29631632217E+02  0.38310098747E+02  0.00000000000E+00 0.  1.
</event>
<event>
 7    1  0.7012292E-013  0.5930186E+02  0.7816164E-02  0.1266605E+00
        -11   -1    0    0    0    0  0.00000000000E+00  0.00000000000E+00  0.45593999997E+02  0.45594000000E+02  0.51100000000E-03 0.  1.
         11   -1    0    0    0    0 -0.00000000000E+00 -0.00000000000E+00 -0.45593999997E+02  0.45594000000E+02  0.51100000000E-03 0. -1.
    9900012    2    1    2    0    0 -0.26768751342E+02 -0.97555394642E+00  0.17297628221E+02  0.59301863576E+02  0.49999853276E+02 0.  0.
         12    1    1    2    0    0  0.26768751342E+02  0.97555394642E+00 -0.17297628221E+02  0.31886136424E+02  0.00000000000E+00 0. -1.
         11    1    3    3    0    0  0.44316289015E+01  0.60096128830E+01 -0.80459718549E+01  0.10976905077E+02  0.51100000000E-03 0. -1.
        -11    1    3    3    0    0 -0.74068792110E+01  0.87865457583E+01  0.12629910262E+02  0.17075710219E+02  0.51100000000E-03 0.  1.
        -12    1    3    3    0    0 -0.23793501033E+02 -0.15771712588E+02  0.12713689814E+02  0.31249248280E+02  0.00000000000E+00 0.  1.
</event>
<event>
 7    1  0.7012292E-013  0.5930192E+02  0.7816164E-02  0.1266605E+00
        -11   -1    0    0    0    0  0.00000000000E+00  0.00000000000E+00  0.45593999997E+02  0.45594000000E+02  0.51100000000E-03 0.  1.
         11   -1    0    0    0    0 -0.00000000000E+00 -0.00000000000E+00 -0.45593999997E+02  0.45594000000E+02  0.51100000000E-03 0. -1.
    9900012    2    1    2    0    0 -0.12782665089E+02 -0.18903167962E+02  0.22270962603E+02  0.59301920576E+02  0.49999957231E+02 0.  0.
         12    1    1    2    0    0  0.12782665089E+02  0.18903167962E+02 -0.22270962603E+02  0.31886079424E+02  0.00000000000E+00 0. -1.
         11    1    3    3    0    0 -0.16168794959E+02 -0.34925015125E+01 -0.77085366447E+01  0.18249631084E+02  0.51100000000E-03 0. -1.
        -11    1    3    3    0    0 -0.91616204954E+01 -0.75004842362E+01  0.19773085790E+02  0.23047070872E+02  0.51100000000E-03 0.  1.
         12    1    3    3    0    0  0.12547750366E+02 -0.79101822131E+01  0.10206413458E+02  0.18005218620E+02  0.00000000000E+00 0. -1.
</event>
<event>
 7    1  0.7012292E-013  0.5930196E+02  0.7816164E-02  0.1266605E+00
        -11   -1    0    0    0    0  0.00000000000E+00  0.00000000000E+00  0.45593999997E+02  0.45594000000E+02  0.51100000000E-03 0.  1.
         11   -1    0    0    0    0 -0.00000000000E+00 -0.00000000000E+00 -0.45593999997E+02  0.45594000000E+02  0.51100000000E-03 0. -1.
    9900012    2    1    2    0    0 -0.54746067229E+01 -0.39257987377E+01  0.31166272788E+02  0.59301956439E+02  0.50000022635E+02 0.  0.
         12    1    1    2    0    0  0.54746067229E+01  0.39257987377E+01 -0.31166272788E+02  0.31886043561E+02  0.00000000000E+00 0. -1.
         11    1    3    3    0    0  0.16911421348E+01  0.90026756713E+00 -0.79023218740E+01  0.81312443496E+01  0.51100000000E-03 0. -1.
        -11    1    3    3    0    0 -0.77258148366E+01  0.12485892069E+02  0.11667557726E+02  0.18754136055E+02  0.51100000000E-03 0.  1.
        -12    1    3    3    0    0  0.56006597883E+00 -0.17311958373E+02  0.27401036936E+02  0.32416576034E+02  0.00000000000E+00 0.  1.
</event>
<event>
 7    1  0.7012292E-013  0.5930193E+02  0.7816164E-02  0.1266605E+00
        -11   -1    0    0    0    0  0.00000000000E+00  0.00000000000E+00  0.45593999997E+02  0.45594000000E+02  0.51100000000E-03 0. -1.
         11   -1    0    0    0    0 -0.00000000000E+00 -0.00000000000E+00 -0.45593999997E+02  0.45594000000E+02  0.51100000000E-03 0.  1.
    9900012    2    1    2    0    0 -0.12310325177E+02  0.93607612404E+01 -0.27884649464E+02  0.59301927293E+02  0.49999969480E+02 0.  0.
         12    1    1    2    0    0  0.12310325177E+02 -0.93607612404E+01  0.27884649464E+02  0.31886072707E+02  0.00000000000E+00 0. -1.
         11    1    3    3    0    0  0.69451386234E+00  0.11457256064E+02  0.37148703450E+01  0.12064465507E+02  0.51100000000E-03 0. -1.
        -11    1    3    3    0    0  0.47874132473E+01  0.73606021865E+01  0.10786385048E+01  0.88465389522E+01  0.51100000000E-03 0.  1.
        -12    1    3    3    0    0 -0.17792252286E+02 -0.94570970103E+01 -0.32678158314E+02  0.38390922834E+02  0.00000000000E+00 0.  1.
</event>
<event>
 7    1  0.7012292E-013  0.5930193E+02  0.7816164E-02  0.1266605E+00
        -11   -1    0    0    0    0  0.00000000000E+00  0.00000000000E+00  0.45593999997E+02  0.45594000000E+02  0.51100000000E-03 0. -1.
         11   -1    0    0    0    0 -0.00000000000E+00 -0.00000000000E+00 -0.45593999997E+02  0.45594000000E+02  0.51100000000E-03 0.  1.
    9900012    2    1    2    0    0  0.50039175531E+01  0.75501067554E+01 -0.30572504104E+02  0.59301932352E+02  0.49999978705E+02 0.  0.
         12    1    1    2    0    0 -0.50039175531E+01 -0.75501067554E+01  0.30572504104E+02  0.31886067648E+02  0.00000000000E+00 0. -1.
         11    1    3    3    0    0 -0.69521161830E+01 -0.81487280981E+01 -0.32046185609E+01  0.11180486100E+02  0.51100000000E-03 0. -1.
        -11    1    3    3    0    0  0.23001264567E+02  0.16266913536E+02 -0.16672122500E+02  0.32735765099E+02  0.51100000000E-03 0.  1.
         12    1    3    3    0    0 -0.11045230831E+02 -0.56807868258E+00 -0.10695763043E+02  0.15385681153E+02  0.00000000000E+00 0. -1.
</event>
<event>
 7    1  0.7012292E-013  0.5930194E+02  0.7816164E-02  0.1266605E+00
        -11   -1    0    0    0    0  0.00000000000E+00  0.00000000000E+00  0.45593999997E+02  0.45594000000E+02  0.51100000000E-03 0.  1.
         11   -1    0    0    0    0 -0.00000000000E+00 -0.00000000000E+00 -0.45593999997E+02  0.45594000000E+02  0.51100000000E-03 0. -1.
    9900012    2    1    2    0    0 -0.25937880782E+02 -0.16358407357E+02  0.87378201078E+01  0.59301942687E+02  0.49999997556E+02 0.  0.
         12    1    1    2    0    0  0.25937880782E+02  0.16358407357E+02 -0.87378201078E+01  0.31886057313E+02  0.00000000000E+00 0. -1.
         11    1    3    3    0    0 -0.15240014311E+02 -0.29441323069E+02 -0.23096038334E+01  0.33232270617E+02  0.51100000000E-03 0. -1.
        -11    1    3    3    0    0 -0.14653870682E+02  0.69663893046E+01  0.87335197965E+01  0.18426634912E+02  0.51100000000E-03 0.  1.
        -12    1    3    3    0    0  0.39560042111E+01  0.61165264071E+01  0.23139041446E+01  0.76430371579E+01  0.00000000000E+00 0.  1.
</event>
<event>
 7    1  0.7012292E-013  0.5930195E+02  0.7816164E-02  0.1266605E+00
        -11   -1    0    0    0    0  0.00000000000E+00  0.00000000000E+00  0.45593999997E+02  0.45594000000E+02  0.51100000000E-03 0. -1.
         11   -1    0    0    0    0 -0.00000000000E+00 -0.00000000000E+00 -0.45593999997E+02  0.45594000000E+02  0.51100000000E-03 0.  1.
    9900012    2    1    2    0    0  0.31829049794E+02 -0.73190654993E+00 -0.17596424706E+01  0.59301946002E+02  0.50000003600E+02 0.  0.
         12    1    1    2    0    0 -0.31829049794E+02  0.73190654993E+00  0.17596424706E+01  0.31886053998E+02  0.00000000000E+00 0. -1.
         11    1    3    3    0    0  0.22487919517E+02 -0.15200823801E+02 -0.43780181085E+00  0.27147066860E+02  0.51100000000E-03 0. -1.
        -11    1    3    3    0    0 -0.51334124819E+01 -0.53540567607E+01 -0.16879323957E+01  0.76070338201E+01  0.51100000000E-03 0.  1.
        -12    1    3    3    0    0  0.14474542758E+02  0.19822974012E+02  0.36609173601E+00  0.24547845321E+02  0.00000000000E+00 0.  1.
</event>
<event>
 7    1  0.7012292E-013  0.5930197E+02  0.7816164E-02  0.1266605E+00
        -11   -1    0    0    0    0  0.00000000000E+00  0.00000000000E+00  0.45593999997E+02  0.45594000000E+02  0.51100000000E-03 0. -1.
         11   -1    0    0    0    0 -0.00000000000E+00 -0.00000000000E+00 -0.45593999997E+02  0.45594000000E+02  0.51100000000E-03 0.  1.
    9900012    2    1    2    0    0  0.30154266240E+02  0.10245856414E+02  0.15690093879E+01  0.59301966434E+02  0.50000040863E+02 0.  0.
         12    1    1    2    0    0 -0.30154266240E+02 -0.10245856414E+02 -0.15690093879E+01  0.31886033566E+02  0.00000000000E+00 0. -1.
         11    1    3    3    0    0  0.77371466619E+01  0.43513777116E+00 -0.15879093760E+02  0.17669136998E+02  0.51100000000E-03 0. -1.
        -11    1    3    3    0    0 -0.10167490210E+01  0.44291923033E+01 -0.63463224114E+01  0.78055961619E+01  0.51100000000E-03 0.  1.
        -12    1    3    3    0    0  0.23433868599E+02  0.53815263395E+01  0.23794425560E+02  0.33827233274E+02  0.00000000000E+00 0.  1.
</event>
<event>
 7    1  0.7012292E-013  0.5930188E+02  0.7816164E-02  0.1266605E+00
        -11   -1    0    0    0    0  0.00000000000E+00  0.00000000000E+00  0.45593999997E+02  0.45594000000E+02  0.51100000000E-03 0. -1.
         11   -1    0    0    0    0 -0.00000000000E+00 -0.00000000000E+00 -0.45593999997E+02  0.45594000000E+02  0.51100000000E-03 0.  1.
    9900012    2    1    2    0    0  0.24141752177E+01 -0.30462248491E+02  0.91075654450E+01  0.59301881179E+02  0.49999885379E+02 0.  0.
         12    1    1    2    0    0 -0.24141752177E+01  0.30462248491E+02 -0.91075654450E+01  0.31886118821E+02  0.00000000000E+00 0. -1.
         11    1    3    3    0    0  0.87353040170E+01 -0.25458755254E+02  0.99817964490E+01  0.28706968073E+02  0.51100000000E-03 0. -1.
        -11    1    3    3    0    0  0.55544201211E+01  0.43486532102E+01  0.98109231188E+01  0.12083732053E+02  0.51100000000E-03 0.  1.
        -12    1    3    3    0    0 -0.11875548920E+02 -0.93521464480E+01 -0.10685154123E+02  0.18511181053E+02  0.00000000000E+00 0.  1.
</event>
<event>
 7    1  0.7012292E-013  0.5930195E+02  0.7816164E-02  0.1266605E+00
        -11   -1    0    0    0    0  0.00000000000E+00  0.00000000000E+00  0.45593999997E+02  0.45594000000E+02  0.51100000000E-03 0.  1.
         11   -1    0    0    0    0 -0.00000000000E+00 -0.00000000000E+00 -0.45593999997E+02  0.45594000000E+02  0.51100000000E-03 0. -1.
    9900012    2    1    2    0    0 -0.36422909633E+01 -0.82833180975E+01  0.30575157567E+02  0.59301954425E+02  0.50000018962E+02 0.  0.
         12    1    1    2    0    0  0.36422909633E+01  0.82833180975E+01 -0.30575157567E+02  0.31886045575E+02  0.00000000000E+00 0. -1.
         11    1    3    3    0    0  0.11393566764E+02 -0.13979422137E+02  0.91954708513E+01  0.20243376481E+02  0.51100000000E-03 0.  1.
        -11    1    3    3    0    0 -0.70390542724E+01 -0.37095867490E+01  0.24965426828E+02  0.26202707033E+02  0.51100000000E-03 0. -1.
         12    1    3    3    0    0 -0.79968034551E+01  0.94056907888E+01 -0.35857401123E+01  0.12855870910E+02  0.00000000000E+00 0. -1.
</event>
<event>
 7    1  0.7012292E-013  0.5930193E+02  0.7816164E-02  0.1266605E+00
        -11   -1    0    0    0    0  0.00000000000E+00  0.00000000000E+00  0.45593999997E+02  0.45594000000E+02  0.51100000000E-03 0.  1.
         11   -1    0    0    0    0 -0.00000000000E+00 -0.00000000000E+00 -0.45593999997E+02  0.45594000000E+02  0.51100000000E-03 0. -1.
    9900012    2    1    2    0    0 -0.19519469119E+02 -0.64414933071E+00  0.25205090259E+02  0.59301934423E+02  0.49999982483E+02 0.  0.
         12    1    1    2    0    0  0.19519469119E+02  0.64414933071E+00 -0.25205090259E+02  0.31886065577E+02  0.00000000000E+00 0. -1.
         11    1    3    3    0    0 -0.14569338531E+02  0.22045089630E+02  0.17364350008E+02  0.31619175408E+02  0.51100000000E-03 0. -1.
        -11    1    3    3    0    0 -0.23949589855E+01 -0.40406852753E+00  0.43492545336E+01  0.49814772082E+01  0.51100000000E-03 0.  1.
         12    1    3    3    0    0 -0.25551716024E+01 -0.22285170433E+02  0.34914857173E+01  0.22701281806E+02  0.00000000000E+00 0. -1.
</event>
<event>
 7    1  0.7012292E-013  0.5930195E+02  0.7816164E-02  0.1266605E+00
        -11   -1    0    0    0    0  0.00000000000E+00  0.00000000000E+00  0.45593999997E+02  0.45594000000E+02  0.51100000000E-03 0.  1.
         11   -1    0    0    0    0 -0.00000000000E+00 -0.00000000000E+00 -0.45593999997E+02  0.45594000000E+02  0.51100000000E-03 0. -1.
    9900012    2    1    2    0    0 -0.12415053870E+02 -0.18377587689E+02  0.22909630756E+02  0.59301945474E+02  0.50000002638E+02 0.  0.
         12    1    1    2    0    0  0.12415053870E+02  0.18377587689E+02 -0.22909630756E+02  0.31886054526E+02  0.00000000000E+00 0. -1.
         11    1    3    3    0    0  0.18311674676E+01 -0.77097375044E+01 -0.20968003775E+01  0.81969383776E+01  0.51100000000E-03 0. -1.
        -11    1    3    3    0    0  0.36009854115E+01 -0.19717788780E+02  0.13055697293E+01  0.20086383520E+02  0.51100000000E-03 0.  1.
         12    1    3    3    0    0 -0.17847206749E+02  0.90499385956E+01  0.23700861404E+02  0.31018623577E+02  0.00000000000E+00 0. -1.
</event>
<event>
 7    1  0.7012292E-013  0.5930190E+02  0.7816164E-02  0.1266605E+00
        -11   -1    0    0    0    0  0.00000000000E+00  0.00000000000E+00  0.45593999997E+02  0.45594000000E+02  0.51100000000E-03 0.  1.
         11   -1    0    0    0    0 -0.00000000000E+00 -0.00000000000E+00 -0.45593999997E+02  0.45594000000E+02  0.51100000000E-03 0. -1.
    9900012    2    1    2    0    0  0.14091029553E+02  0.20117485580E+02  0.20333537401E+02  0.59301904548E+02  0.49999927999E+02 0.  0.
         12    1    1    2    0    0 -0.14091029553E+02 -0.20117485580E+02 -0.20333537401E+02  0.31886095452E+02  0.00000000000E+00 0. -1.
         11    1    3    3    0    0  0.11349157129E+02  0.15977907158E+02  0.49340992655E+01  0.20209953501E+02  0.51100000000E-03 0. -1.
        -11    1    3    3    0    0  0.11259073909E+02 -0.60753599120E+01  0.21056883772E+02  0.24638772247E+02  0.51100000000E-03 0.  1.
         12    1    3    3    0    0 -0.85172014853E+01  0.10214938334E+02 -0.56574456371E+01  0.14453178801E+02  0.00000000000E+00 0. -1.
</event>
<event>
 7    1  0.7012292E-013  0.5930198E+02  0.7816164E-02  0.1266605E+00
        -11   -1    0    0    0    0  0.00000000000E+00  0.00000000000E+00  0.45593999997E+02  0.45594000000E+02  0.51100000000E-03 0.  1.
         11   -1    0    0    0    0 -0.00000000000E+00 -0.00000000000E+00 -0.45593999997E+02  0.45594000000E+02  0.51100000000E-03 0. -1.
    9900012    2    1    2    0    0 -0.11001580669E+02  0.20130102414E+02  0.22146393086E+02  0.59301975991E+02  0.50000058292E+02 0.  0.
         12    1    1    2    0    0  0.11001580669E+02 -0.20130102414E+02 -0.22146393086E+02  0.31886024009E+02  0.00000000000E+00 0. -1.
         11    1    3    3    0    0 -0.15491803035E+02 -0.80691524607E+01 -0.39823788854E+01  0.17915538634E+02  0.51100000000E-03 0. -1.
        -11    1    3    3    0    0 -0.43696102037E+01  0.15509142856E+02  0.16977258564E+02  0.23406287917E+02  0.51100000000E-03 0.  1.
        -12    1    3    3    0    0  0.88598325694E+01  0.12690112019E+02  0.91515134069E+01  0.17980149439E+02  0.00000000000E+00 0.  1.
</event>
<event>
 7    1  0.7012292E-013  0.5930199E+02  0.7816164E-02  0.1266605E+00
        -11   -1    0    0    0    0  0.00000000000E+00  0.00000000000E+00  0.45593999997E+02  0.45594000000E+02  0.51100000000E-03 0.  1.
         11   -1    0    0    0    0 -0.00000000000E+00 -0.00000000000E+00 -0.45593999997E+02  0.45594000000E+02  0.51100000000E-03 0. -1.
    9900012    2    1    2    0    0 -0.98852964528E+01  0.17816103847E+02  0.24527224535E+02  0.59301993891E+02  0.50000090938E+02 0.  0.
         12    1    1    2    0    0  0.98852964528E+01 -0.17816103847E+02 -0.24527224535E+02  0.31886006109E+02  0.00000000000E+00 0. -1.
         11    1    3    3    0    0  0.21422861355E+01 -0.38943159138E-01  0.13957167003E+02  0.14120673407E+02  0.51100000000E-03 0. -1.
        -11    1    3    3    0    0 -0.20593691817E+01  0.24610432996E+02  0.18417988697E+02  0.30808062607E+02  0.51100000000E-03 0.  1.
        -12    1    3    3    0    0 -0.99682134066E+01 -0.67553859898E+01 -0.78479311661E+01  0.14373257876E+02  0.00000000000E+00 0.  1.
</event>
<event>
 7    1  0.7012292E-013  0.5930218E+02  0.7816164E-02  0.1266604E+00
        -11   -1    0    0    0    0  0.00000000000E+00  0.00000000000E+00  0.45593999997E+02  0.45594000000E+02  0.51100000000E-03 0.  1.
         11   -1    0    0    0    0 -0.00000000000E+00 -0.00000000000E+00 -0.45593999997E+02  0.45594000000E+02  0.51100000000E-03 0. -1.
    9900012    2    1    2    0    0 -0.12727585211E+02 -0.19202287938E+02  0.22045098912E+02  0.59302177549E+02  0.50000425884E+02 0.  0.
         12    1    1    2    0    0  0.12727585211E+02  0.19202287938E+02 -0.22045098912E+02  0.31885822451E+02  0.00000000000E+00 0. -1.
         11    1    3    3    0    0  0.41518399752E+01 -0.15939781748E+02  0.71232869199E+01  0.17945908563E+02  0.51100000000E-03 0. -1.
        -11    1    3    3    0    0  0.33181131604E+01 -0.82380782105E+01 -0.68714912049E+01  0.11229122815E+02  0.51100000000E-03 0.  1.
         12    1    3    3    0    0 -0.20197538346E+02  0.49755720197E+01  0.21793303197E+02  0.30127146171E+02  0.00000000000E+00 0. -1.
</event>
<event>
 7    1  0.7012292E-013  0.5930195E+02  0.7816164E-02  0.1266605E+00
        -11   -1    0    0    0    0  0.00000000000E+00  0.00000000000E+00  0.45593999997E+02  0.45594000000E+02  0.51100000000E-03 0.  1.
         11   -1    0    0    0    0 -0.00000000000E+00 -0.00000000000E+00 -0.45593999997E+02  0.45594000000E+02  0.51100000000E-03 0. -1.
    9900012    2    1    2    0    0 -0.28816735960E+01  0.26006792199E+02  0.18222601319E+02  0.59301945336E+02  0.50000002387E+02 0.  0.
         12    1    1    2    0    0  0.28816735960E+01 -0.26006792199E+02 -0.18222601319E+02  0.31886054664E+02  0.00000000000E+00 0. -1.
         11    1    3    3    0    0  0.58843985072E+01 -0.67926895847E+01  0.14359279839E+02  0.16939766685E+02  0.51100000000E-03 0. -1.
        -11    1    3    3    0    0 -0.10127324074E+02  0.18260541535E+01  0.47771008435E+01  0.11345389346E+02  0.51100000000E-03 0.  1.
         12    1    3    3    0    0  0.13612519709E+01  0.30973427630E+02 -0.91377936423E+00  0.31016789305E+02  0.00000000000E+00 0. -1.
</event>
<event>
 7    1  0.7012292E-013  0.5930195E+02  0.7816164E-02  0.1266605E+00
        -11   -1    0    0    0    0  0.00000000000E+00  0.00000000000E+00  0.45593999997E+02  0.45594000000E+02  0.51100000000E-03 0. -1.
         11   -1    0    0    0    0 -0.00000000000E+00 -0.00000000000E+00 -0.45593999997E+02  0.45594000000E+02  0.51100000000E-03 0.  1.
    9900012    2    1    2    0    0 -0.18059739236E+01  0.11298364308E+02 -0.29762487312E+02  0.59301949306E+02  0.50000009626E+02 0.  0.
         12    1    1    2    0    0  0.18059739236E+01 -0.11298364308E+02  0.29762487312E+02  0.31886050694E+02  0.00000000000E+00 0. -1.
         11    1    3    3    0    0 -0.49958153144E+01  0.15743835199E+02 -0.13565062201E+02  0.21373755642E+02  0.51100000000E-03 0. -1.
        -11    1    3    3    0    0  0.15402647976E+02  0.69837050060E+01 -0.11836121151E+02  0.20642370611E+02  0.51100000000E-03 0.  1.
         12    1    3    3    0    0 -0.12212806585E+02 -0.11429175898E+02 -0.43613039596E+01  0.17285823053E+02  0.00000000000E+00 0. -1.
</event>
<event>
 7    1  0.7012292E-013  0.5930196E+02  0.7816164E-02  0.1266605E+00
        -11   -1    0    0    0    0  0.00000000000E+00  0.00000000000E+00  0.45593999997E+02  0.45594000000E+02  0.51100000000E-03 0.  1.
         11   -1    0    0    0    0 -0.00000000000E+00 -0.00000000000E+00 -0.45593999997E+02  0.45594000000E+02  0.51100000000E-03 0. -1.
    9900012    2    1    2    0    0  0.12116098253E+02  0.17405322580E+02  0.23811230106E+02  0.59301956499E+02  0.50000022746E+02 0.  0.
         12    1    1    2    0    0 -0.12116098253E+02 -0.17405322580E+02 -0.23811230106E+02  0.31886043501E+02  0.00000000000E+00 0. -1.
         11    1    3    3    0    0  0.47095061739E+01  0.19014675803E+02  0.81646794873E+01  0.21222613781E+02  0.51100000000E-03 0. -1.
        -11    1    3    3    0    0 -0.75245636371E+01  0.11972715901E+02  0.92825502747E+01  0.16915399015E+02  0.51100000000E-03 0.  1.
         12    1    3    3    0    0  0.14931155716E+02 -0.13582069124E+02  0.63640003436E+01  0.21163943704E+02  0.00000000000E+00 0. -1.
</event>
<event>
 7    1  0.7012292E-013  0.5930196E+02  0.7816164E-02  0.1266605E+00
        -11   -1    0    0    0    0  0.00000000000E+00  0.00000000000E+00  0.45593999997E+02  0.45594000000E+02  0.51100000000E-03 0. -1.
         11   -1    0    0    0    0 -0.00000000000E+00 -0.00000000000E+00 -0.45593999997E+02  0.45594000000E+02  0.51100000000E-03 0.  1.
    9900012    2    1    2    0    0 -0.18633135741E+02 -0.23606171371E+02 -0.10595978766E+02  0.59301955398E+02  0.50000020736E+02 0.  0.
         12    1    1    2    0    0  0.18633135741E+02  0.23606171371E+02  0.10595978766E+02  0.31886044602E+02  0.00000000000E+00 0. -1.
         11    1    3    3    0    0  0.75701050106E+01  0.43479742050E+01 -0.69161396471E+01  0.11137520255E+02  0.51100000000E-03 0. -1.
        -11    1    3    3    0    0  0.58754217658E+01 -0.20723574250E+01 -0.30620430180E+01  0.69419992746E+01  0.51100000000E-03 0.  1.
        -12    1    3    3    0    0 -0.32078662518E+02 -0.25881788151E+02 -0.61779610121E+00  0.41222435868E+02  0.00000000000E+00 0.  1.
</event>
<event>
 7    1  0.7012292E-013  0.5930191E+02  0.7816164E-02  0.1266605E+00
        -11   -1    0    0    0    0  0.00000000000E+00  0.00000000000E+00  0.45593999997E+02  0.45594000000E+02  0.51100000000E-03 0.  1.
         11   -1    0    0    0    0 -0.00000000000E+00 -0.00000000000E+00 -0.45593999997E+02  0.45594000000E+02  0.51100000000E-03 0. -1.
    9900012    2    1    2    0    0 -0.19642569717E+02  0.18401227871E+02  0.17096403286E+02  0.59301909968E+02  0.49999937883E+02 0.  0.
         12    1    1    2    0    0  0.19642569717E+02 -0.18401227871E+02 -0.17096403286E+02  0.31886090032E+02  0.00000000000E+00 0. -1.
         11    1    3    3    0    0 -0.16464466410E+02  0.20038817429E+01  0.75153950056E+01  0.18209210816E+02  0.51100000000E-03 0.  1.
        -11    1    3    3    0    0 -0.11751496444E+02  0.10096464539E+02 -0.10257611700E+02  0.18581035033E+02  0.51100000000E-03 0. -1.
        -12    1    3    3    0    0  0.85733931368E+01  0.63008815887E+01  0.19838619980E+02  0.22511664118E+02  0.00000000000E+00 0.  1.
</event>
<event>
 7    1  0.7012292E-013  0.5930197E+02  0.7816164E-02  0.1266605E+00
        -11   -1    0    0    0    0  0.00000000000E+00  0.00000000000E+00  0.45593999997E+02  0.45594000000E+02  0.51100000000E-03 0.  1.
         11   -1    0    0    0    0 -0.00000000000E+00 -0.00000000000E+00 -0.45593999997E+02  0.45594000000E+02  0.51100000000E-03 0. -1.
    9900012    2    1    2    0    0 -0.22878316343E+02 -0.18133243994E+02  0.12825259232E+02  0.59301965897E+02  0.50000039885E+02 0.  0.
         12    1    1    2    0    0  0.22878316343E+02  0.18133243994E+02 -0.12825259232E+02  0.31886034103E+02  0.00000000000E+00 0. -1.
         11    1    3    3    0    0  0.30784654587E+01 -0.12292676849E+00 -0.79803477919E+01  0.85544147498E+01  0.51100000000E-03 0. -1.
        -11    1    3    3    0    0 -0.23596770025E+01  0.72958576381E+01  0.13284375220E+02  0.15338586619E+02  0.51100000000E-03 0.  1.
         12    1    3    3    0    0 -0.23597104799E+02 -0.25306174863E+02  0.75212318046E+01  0.35408964528E+02  0.00000000000E+00 0. -1.
</event>
<event>
 7    1  0.7012292E-013  0.5930194E+02  0.7816164E-02  0.1266605E+00
        -11   -1    0    0    0    0  0.00000000000E+00  0.00000000000E+00  0.45593999997E+02  0.45594000000E+02  0.51100000000E-03 0.  1.
         11   -1    0    0    0    0 -0.00000000000E+00 -0.00000000000E+00 -0.45593999997E+02  0.45594000000E+02  0.51100000000E-03 0. -1.
    9900012    2    1    2    0    0  0.20531562054E+02 -0.17413399801E+02  0.17086515297E+02  0.59301944458E+02  0.50000000785E+02 0.  0.
         12    1    1    2    0    0 -0.20531562054E+02  0.17413399801E+02 -0.17086515297E+02  0.31886055542E+02  0.00000000000E+00 0. -1.
         11    1    3    3    0    0 -0.36876476741E+01  0.20391405412E+01  0.19123583673E+02  0.19582346444E+02  0.51100000000E-03 0. -1.
        -11    1    3    3    0    0  0.95210967873E+01 -0.15463138697E+02  0.96111433041E+01  0.20545900279E+02  0.51100000000E-03 0.  1.
        -12    1    3    3    0    0  0.14698112941E+02 -0.39894016459E+01 -0.11648211680E+02  0.19173697735E+02  0.00000000000E+00 0.  1.
</event>
<event>
 7    1  0.7012292E-013  0.5930194E+02  0.7816164E-02  0.1266605E+00
        -11   -1    0    0    0    0  0.00000000000E+00  0.00000000000E+00  0.45593999997E+02  0.45594000000E+02  0.51100000000E-03 0.  1.
         11   -1    0    0    0    0 -0.00000000000E+00 -0.00000000000E+00 -0.45593999997E+02  0.45594000000E+02  0.51100000000E-03 0. -1.
    9900012    2    1    2    0    0 -0.11053709073E+02  0.49536846863E+01  0.29495720641E+02  0.59301937020E+02  0.49999987219E+02 0.  0.
         12    1    1    2    0    0  0.11053709073E+02 -0.49536846863E+01 -0.29495720641E+02  0.31886062980E+02  0.00000000000E+00 0. -1.
         11    1    3    3    0    0 -0.88151986087E+00  0.46144913045E+01 -0.77786725451E+01  0.90872632893E+01  0.51100000000E-03 0. -1.
        -11    1    3    3    0    0  0.46686823945E+01 -0.92264249540E+01  0.16722818065E+01  0.10474733382E+02  0.51100000000E-03 0.  1.
        -12    1    3    3    0    0 -0.14840871607E+02  0.95656183359E+01  0.35602111379E+02  0.39739940348E+02  0.00000000000E+00 0.  1.
</event>
<event>
 7    1  0.7012292E-013  0.5930205E+02  0.7816164E-02  0.1266604E+00
        -11   -1    0    0    0    0  0.00000000000E+00  0.00000000000E+00  0.45593999997E+02  0.45594000000E+02  0.51100000000E-03 0.  1.
         11   -1    0    0    0    0 -0.00000000000E+00 -0.00000000000E+00 -0.45593999997E+02  0.45594000000E+02  0.51100000000E-03 0. -1.
    9900012    2    1    2    0    0  0.24027712488E+01  0.28415605729E+02  0.14265126707E+02  0.59302050138E+02  0.50000193519E+02 0.  0.
         12    1    1    2    0    0 -0.24027712488E+01 -0.28415605729E+02 -0.14265126707E+02  0.31885949862E+02  0.00000000000E+00 0. -1.
         11    1    3    3    0    0 -0.71699510103E+01  0.21036130795E+01  0.52423100079E+01  0.91277160319E+01  0.51100000000E-03 0. -1.
        -11    1    3    3    0    0 -0.42069716870E+01  0.32741557153E+02  0.11100536756E+02  0.34827145908E+02  0.51100000000E-03 0.  1.
         12    1    3    3    0    0  0.13779693946E+02 -0.64295645032E+01 -0.20777200559E+01  0.15347188198E+02  0.00000000000E+00 0. -1.
</event>
<event>
 7    1  0.7012292E-013  0.5930194E+02  0.7816164E-02  0.1266605E+00
        -11   -1    0    0    0    0  0.00000000000E+00  0.00000000000E+00  0.45593999997E+02  0.45594000000E+02  0.51100000000E-03 0.  1.
         11   -1    0    0    0    0 -0.00000000000E+00 -0.00000000000E+00 -0.45593999997E+02  0.45594000000E+02  0.51100000000E-03 0. -1.
    9900012    2    1    2    0    0 -0.25552006170E+02  0.15932551971E+02 -0.10486633153E+02  0.59301941816E+02  0.49999995967E+02 0.  0.
         12    1    1    2    0    0  0.25552006170E+02 -0.15932551971E+02  0.10486633153E+02  0.31886058184E+02  0.00000000000E+00 0. -1.
         11    1    3    3    0    0 -0.11581145795E+02 -0.18936579245E+01 -0.33147634047E+00  0.11739623294E+02  0.51100000000E-03 0. -1.
        -11    1    3    3    0    0 -0.23818392906E+02  0.24506075419E+02 -0.10196989549E+02  0.35662896253E+02  0.51100000000E-03 0.  1.
         12    1    3    3    0    0  0.98475325309E+01 -0.66798655238E+01  0.41832735913E-01  0.11899422269E+02  0.00000000000E+00 0. -1.
</event>
<event>
 7    1  0.7012292E-013  0.5930193E+02  0.7816164E-02  0.1266605E+00
        -11   -1    0    0    0    0  0.00000000000E+00  0.00000000000E+00  0.45593999997E+02  0.45594000000E+02  0.51100000000E-03 0.  1.
         11   -1    0    0    0    0 -0.00000000000E+00 -0.00000000000E+00 -0.45593999997E+02  0.45594000000E+02  0.51100000000E-03 0. -1.
    9900012    2    1    2    0    0 -0.45855914424E+01  0.88703708288E+01  0.30282181914E+02  0.59301926724E+02  0.49999968442E+02 0.  0.
         12    1    1    2    0    0  0.45855914424E+01 -0.88703708288E+01 -0.30282181914E+02  0.31886073276E+02  0.00000000000E+00 0. -1.
         11    1    3    3    0    0  0.71471194287E+01 -0.82543543912E+01  0.13351030049E+02  0.17247193574E+02  0.51100000000E-03 0. -1.
        -11    1    3    3    0    0  0.29729035522E+01 -0.31588615076E+01 -0.64585081018E+01  0.77800314085E+01  0.51100000000E-03 0.  1.
        -12    1    3    3    0    0 -0.14705614423E+02  0.20283586728E+02  0.23389659966E+02  0.34274701741E+02  0.00000000000E+00 0.  1.
</event>
<event>
 7    1  0.7012292E-013  0.5930195E+02  0.7816164E-02  0.1266605E+00
        -11   -1    0    0    0    0  0.00000000000E+00  0.00000000000E+00  0.45593999997E+02  0.45594000000E+02  0.51100000000E-03 0.  1.
         11   -1    0    0    0    0 -0.00000000000E+00 -0.00000000000E+00 -0.45593999997E+02  0.45594000000E+02  0.51100000000E-03 0. -1.
    9900012    2    1    2    0    0  0.22318328208E+02 -0.22325057288E+02  0.44948928845E+01  0.59301952597E+02  0.50000015629E+02 0.  0.
         12    1    1    2    0    0 -0.22318328208E+02  0.22325057288E+02 -0.44948928845E+01  0.31886047403E+02  0.00000000000E+00 0. -1.
         11    1    3    3    0    0  0.24182412409E+01 -0.12813818378E+01 -0.15885354700E+02  0.16119377293E+02  0.51100000000E-03 0. -1.
        -11    1    3    3    0    0  0.16994584246E+02 -0.56528185813E+01  0.55750283157E+00  0.17918734924E+02  0.51100000000E-03 0.  1.
         12    1    3    3    0    0  0.29055027209E+01 -0.15390856869E+02  0.19822744753E+02  0.25263840380E+02  0.00000000000E+00 0. -1.
</event>
<event>
 7    1  0.7012292E-013  0.5930190E+02  0.7816164E-02  0.1266605E+00
        -11   -1    0    0    0    0  0.00000000000E+00  0.00000000000E+00  0.45593999997E+02  0.45594000000E+02  0.51100000000E-03 0.  1.
         11   -1    0    0    0    0 -0.00000000000E+00 -0.00000000000E+00 -0.45593999997E+02  0.45594000000E+02  0.51100000000E-03 0. -1.
    9900012    2    1    2    0    0 -0.23083350708E+02  0.15991851476E+02  0.15104408990E+02  0.59301897000E+02  0.49999914233E+02 0.  0.
         12    1    1    2    0    0  0.23083350708E+02 -0.15991851476E+02 -0.15104408990E+02  0.31886103000E+02  0.00000000000E+00 0. -1.
         11    1    3    3    0    0 -0.80843430205E+01 -0.38071970286E+01  0.94905205697E+01  0.13035387690E+02  0.51100000000E-03 0.  1.
        -11    1    3    3    0    0  0.15067150417E+01  0.26555456963E+02 -0.24150416377E+01  0.26707581529E+02  0.51100000000E-03 0. -1.
         12    1    3    3    0    0 -0.16505722729E+02 -0.67564084585E+01  0.80289300583E+01  0.19558927781E+02  0.00000000000E+00 0. -1.
</event>
<event>
 7    1  0.7012292E-013  0.5930193E+02  0.7816164E-02  0.1266605E+00
        -11   -1    0    0    0    0  0.00000000000E+00  0.00000000000E+00  0.45593999997E+02  0.45594000000E+02  0.51100000000E-03 0. -1.
         11   -1    0    0    0    0 -0.00000000000E+00 -0.00000000000E+00 -0.45593999997E+02  0.45594000000E+02  0.51100000000E-03 0.  1.
    9900012    2    1    2    0    0  0.21442574201E+02 -0.19421224150E+02 -0.13407216549E+02  0.59301931076E+02  0.49999976378E+02 0.  0.
         12    1    1    2    0    0 -0.21442574201E+02  0.19421224150E+02  0.13407216549E+02  0.31886068924E+02  0.00000000000E+00 0. -1.
         11    1    3    3    0    0 -0.63448675042E+00 -0.59554995705E+01  0.54115060946E+01  0.80718614361E+01  0.51100000000E-03 0. -1.
        -11    1    3    3    0    0  0.12158643620E+02 -0.64036982637E+01  0.11905094334E+02  0.18181618121E+02  0.51100000000E-03 0.  1.
        -12    1    3    3    0    0  0.99184173308E+01 -0.70620263162E+01 -0.30723816978E+02  0.33048451518E+02  0.00000000000E+00 0.  1.
</event>
<event>
 7    1  0.7012292E-013  0.5930190E+02  0.7816164E-02  0.1266605E+00
        -11   -1    0    0    0    0  0.00000000000E+00  0.00000000000E+00  0.45593999997E+02  0.45594000000E+02  0.51100000000E-03 0. -1.
         11   -1    0    0    0    0 -0.00000000000E+00 -0.00000000000E+00 -0.45593999997E+02  0.45594000000E+02  0.51100000000E-03 0.  1.
    9900012    2    1    2    0    0 -0.29212307578E+02 -0.38801118291E+01 -0.12178220993E+02  0.59301901958E+02  0.49999923274E+02 0.  0.
         12    1    1    2    0    0  0.29212307578E+02  0.38801118291E+01  0.12178220993E+02  0.31886098042E+02  0.00000000000E+00 0. -1.
         11    1    3    3    0    0 -0.23309384184E+02  0.68341273940E+01  0.71114053901E+01  0.25310171378E+02  0.51100000000E-03 0. -1.
        -11    1    3    3    0    0 -0.15597695550E+02 -0.37242763784E+01 -0.10976083330E+02  0.19432775060E+02  0.51100000000E-03 0.  1.
         12    1    3    3    0    0  0.96947721564E+01 -0.69899628447E+01 -0.83135430531E+01  0.14558955520E+02  0.00000000000E+00 0. -1.
</event>
<event>
 7    1  0.7012292E-013  0.5930196E+02  0.7816164E-02  0.1266605E+00
        -11   -1    0    0    0    0  0.00000000000E+00  0.00000000000E+00  0.45593999997E+02  0.45594000000E+02  0.51100000000E-03 0.  1.
         11   -1    0    0    0    0 -0.00000000000E+00 -0.00000000000E+00 -0.45593999997E+02  0.45594000000E+02  0.51100000000E-03 0. -1.
    9900012    2    1    2    0    0 -0.93071453129E+01 -0.19754790545E+02  0.23234558896E+02  0.59301961826E+02  0.50000032460E+02 0.  0.
         12    1    1    2    0    0  0.93071453129E+01  0.19754790545E+02 -0.23234558896E+02  0.31886038174E+02  0.00000000000E+00 0. -1.
         11    1    3    3    0    0 -0.22189012686E+02 -0.16059006456E+02  0.34650140002E+01  0.27608880720E+02  0.51100000000E-03 0. -1.
        -11    1    3    3    0    0  0.20062946312E+01 -0.11288628209E+02  0.10087449925E+02  0.15271378171E+02  0.51100000000E-03 0.  1.
         12    1    3    3    0    0  0.10875572741E+02  0.75928441204E+01  0.96820949702E+01  0.16421702936E+02  0.00000000000E+00 0. -1.
</event>
<event>
 7    1  0.7012292E-013  0.5930200E+02  0.7816164E-02  0.1266605E+00
        -11   -1    0    0    0    0  0.00000000000E+00  0.00000000000E+00  0.45593999997E+02  0.45594000000E+02  0.51100000000E-03 0. -1.
         11   -1    0    0    0    0 -0.00000000000E+00 -0.00000000000E+00 -0.45593999997E+02  0.45594000000E+02  0.51100000000E-03 0.  1.
    9900012    2    1    2    0    0  0.31256600568E+02  0.15688642609E+01 -0.61057909215E+01  0.59301998418E+02  0.50000099194E+02 0.  0.
         12    1    1    2    0    0 -0.31256600568E+02 -0.15688642609E+01  0.61057909215E+01  0.31886001582E+02  0.00000000000E+00 0. -1.
         11    1    3    3    0    0 -0.82145810941E+00  0.77135335499E+01 -0.58825200588E+01  0.97353703450E+01  0.51100000000E-03 0. -1.
        -11    1    3    3    0    0 -0.65807186399E+00 -0.14087174735E+02  0.59735718884E+01  0.15315518665E+02  0.51100000000E-03 0.  1.
         12    1    3    3    0    0  0.32736130541E+02  0.79425054464E+01 -0.61968427511E+01  0.34251109408E+02  0.00000000000E+00 0. -1.
</event>
<event>
 7    1  0.7012292E-013  0.5930193E+02  0.7816164E-02  0.1266605E+00
        -11   -1    0    0    0    0  0.00000000000E+00  0.00000000000E+00  0.45593999997E+02  0.45594000000E+02  0.51100000000E-03 0. -1.
         11   -1    0    0    0    0 -0.00000000000E+00 -0.00000000000E+00 -0.45593999997E+02  0.45594000000E+02  0.51100000000E-03 0.  1.
    9900012    2    1    2    0    0  0.26755105208E+02 -0.93538487306E+01  0.14607909564E+02  0.59301934664E+02  0.49999982924E+02 0.  0.
         12    1    1    2    0    0 -0.26755105208E+02  0.93538487306E+01 -0.14607909564E+02  0.31886065336E+02  0.00000000000E+00 0. -1.
         11    1    3    3    0    0 -0.12516527118E+02 -0.39131260260E+01  0.10166653246E+02  0.16593277098E+02  0.51100000000E-03 0. -1.
        -11    1    3    3    0    0  0.37384540832E+01 -0.30137333058E+01  0.52086890735E+01  0.70844244294E+01  0.51100000000E-03 0.  1.
        -12    1    3    3    0    0  0.35533178242E+02 -0.24269893988E+01 -0.76743275568E+00  0.35624233137E+02  0.00000000000E+00 0.  1.
</event>
<event>
 7    1  0.7012292E-013  0.5930197E+02  0.7816164E-02  0.1266605E+00
        -11   -1    0    0    0    0  0.00000000000E+00  0.00000000000E+00  0.45593999997E+02  0.45594000000E+02  0.51100000000E-03 0. -1.
         11   -1    0    0    0    0 -0.00000000000E+00 -0.00000000000E+00 -0.45593999997E+02  0.45594000000E+02  0.51100000000E-03 0.  1.
    9900012    2    1    2    0    0 -0.16231123024E+02 -0.14914609255E+02  0.23039622082E+02  0.59301966858E+02  0.50000041638E+02 0.  0.
         12    1    1    2    0    0  0.16231123024E+02  0.14914609255E+02 -0.23039622082E+02  0.31886033142E+02  0.00000000000E+00 0. -1.
         11    1    3    3    0    0  0.60808062144E+01 -0.13308110679E+01  0.82107535813E+01  0.10303578842E+02  0.51100000000E-03 0. -1.
        -11    1    3    3    0    0  0.10679487826E+02 -0.67280628175E+01  0.13044066759E+01  0.12689356427E+02  0.51100000000E-03 0.  1.
        -12    1    3    3    0    0 -0.32991417064E+02 -0.68557353691E+01  0.13524461825E+02  0.36309031590E+02  0.00000000000E+00 0.  1.
</event>
<event>
 7    1  0.7012292E-013  0.5930193E+02  0.7816164E-02  0.1266605E+00
        -11   -1    0    0    0    0  0.00000000000E+00  0.00000000000E+00  0.45593999997E+02  0.45594000000E+02  0.51100000000E-03 0.  1.
         11   -1    0    0    0    0 -0.00000000000E+00 -0.00000000000E+00 -0.45593999997E+02  0.45594000000E+02  0.51100000000E-03 0. -1.
    9900012    2    1    2    0    0  0.73535690897E+01  0.98632351137E+01  0.29417059123E+02  0.59301925410E+02  0.49999966046E+02 0.  0.
         12    1    1    2    0    0 -0.73535690897E+01 -0.98632351137E+01 -0.29417059123E+02  0.31886074590E+02  0.00000000000E+00 0. -1.
         11    1    3    3    0    0 -0.51514744220E+01 -0.10486879679E+02  0.87913654454E+01  0.14621916454E+02  0.51100000000E-03 0. -1.
        -11    1    3    3    0    0  0.48393782815E+01  0.86417183334E+01  0.27397696044E+02  0.29133016093E+02  0.51100000000E-03 0.  1.
         12    1    3    3    0    0  0.76656652302E+01  0.11708396459E+02 -0.67720023656E+01  0.15546992864E+02  0.00000000000E+00 0. -1.
</event>
<event>
 7    1  0.7012292E-013  0.5930194E+02  0.7816164E-02  0.1266605E+00
        -11   -1    0    0    0    0  0.00000000000E+00  0.00000000000E+00  0.45593999997E+02  0.45594000000E+02  0.51100000000E-03 0.  1.
         11   -1    0    0    0    0 -0.00000000000E+00 -0.00000000000E+00 -0.45593999997E+02  0.45594000000E+02  0.51100000000E-03 0. -1.
    9900012    2    1    2    0    0 -0.24049968108E+02 -0.20348134207E+02  0.49268000410E+01  0.59301938933E+02  0.49999990709E+02 0.  0.
         12    1    1    2    0    0  0.24049968108E+02  0.20348134207E+02 -0.49268000410E+01  0.31886061067E+02  0.00000000000E+00 0. -1.
         11    1    3    3    0    0 -0.88647640377E+01 -0.25067938611E+02  0.68838877630E+01  0.27465860602E+02  0.51100000000E-03 0. -1.
        -11    1    3    3    0    0 -0.87476857715E+01 -0.10333167501E+02  0.44559185277E+01  0.14253124820E+02  0.51100000000E-03 0.  1.
        -12    1    3    3    0    0 -0.64375182991E+01  0.15052971904E+02 -0.64130062496E+01  0.17582953511E+02  0.00000000000E+00 0.  1.
</event>
<event>
 7    1  0.7012292E-013  0.5930195E+02  0.7816164E-02  0.1266605E+00
        -11   -1    0    0    0    0  0.00000000000E+00  0.00000000000E+00  0.45593999997E+02  0.45594000000E+02  0.51100000000E-03 0.  1.
         11   -1    0    0    0    0 -0.00000000000E+00 -0.00000000000E+00 -0.45593999997E+02  0.45594000000E+02  0.51100000000E-03 0. -1.
    9900012    2    1    2    0    0 -0.30861826039E+01  0.89174338739E+01  0.30457755912E+02  0.59301952186E+02  0.50000014879E+02 0.  0.
         12    1    1    2    0    0  0.30861826039E+01 -0.89174338739E+01 -0.30457755912E+02  0.31886047814E+02  0.00000000000E+00 0. -1.
         11    1    3    3    0    0 -0.62957702715E+01  0.15889706568E+02  0.16568657975E+02  0.23804199744E+02  0.51100000000E-03 0. -1.
        -11    1    3    3    0    0  0.17217075635E+02 -0.15039890635E+01  0.48387402756E+01  0.17947230545E+02  0.51100000000E-03 0.  1.
         12    1    3    3    0    0 -0.14007487968E+02 -0.54682836308E+01  0.90503576620E+01  0.17550521897E+02  0.00000000000E+00 0. -1.
</event>
<event>
 7    1  0.7012292E-013  0.5930196E+02  0.7816164E-02  0.1266605E+00
        -11   -1    0    0    0    0  0.00000000000E+00  0.00000000000E+00  0.45593999997E+02  0.45594000000E+02  0.51100000000E-03 0.  1.
         11   -1    0    0    0    0 -0.00000000000E+00 -0.00000000000E+00 -0.45593999997E+02  0.45594000000E+02  0.51100000000E-03 0. -1.
    9900012    2    1    2    0    0 -0.11760698295E+01 -0.17742805306E+02  0.26467516401E+02  0.59301957524E+02  0.50000024614E+02 0.  0.
         12    1    1    2    0    0  0.11760698295E+01  0.17742805306E+02 -0.26467516401E+02  0.31886042476E+02  0.00000000000E+00 0. -1.
         11    1    3    3    0    0 -0.28059057504E+01  0.78769734896E+01  0.19520345796E+02  0.21235906355E+02  0.51100000000E-03 0. -1.
        -11    1    3    3    0    0 -0.10237263558E+02 -0.12858129480E+01  0.26623841817E+01  0.10655663747E+02  0.51100000000E-03 0.  1.
        -12    1    3    3    0    0  0.11867099479E+02 -0.24333965848E+02  0.42847864225E+01  0.27410387422E+02  0.00000000000E+00 0.  1.
</event>
<event>
 7    1  0.7012292E-013  0.5930197E+02  0.7816164E-02  0.1266605E+00
        -11   -1    0    0    0    0  0.00000000000E+00  0.00000000000E+00  0.45593999997E+02  0.45594000000E+02  0.51100000000E-03 0.  1.
         11   -1    0    0    0    0 -0.00000000000E+00 -0.00000000000E+00 -0.45593999997E+02  0.45594000000E+02  0.51100000000E-03 0. -1.
    9900012    2    1    2    0    0 -0.12365012940E+02 -0.19690879813E+02  0.21819585947E+02  0.59301974476E+02  0.50000055530E+02 0.  0.
         12    1    1    2    0    0  0.12365012940E+02  0.19690879813E+02 -0.21819585947E+02  0.31886025524E+02  0.00000000000E+00 0. -1.
         11    1    3    3    0    0 -0.58978313875E+00  0.40139051357E+01 -0.96989329281E+00  0.41713273487E+01  0.51100000000E-03 0. -1.
        -11    1    3    3    0    0 -0.21172582673E+01  0.82513376614E+01 -0.65033830927E+01  0.10717338647E+02  0.51100000000E-03 0.  1.
        -12    1    3    3    0    0 -0.96579715344E+01 -0.31956122611E+02  0.29292862333E+02  0.44413308479E+02  0.00000000000E+00 0.  1.
</event>
<event>
 7    1  0.7012292E-013  0.5930195E+02  0.7816164E-02  0.1266605E+00
        -11   -1    0    0    0    0  0.00000000000E+00  0.00000000000E+00  0.45593999997E+02  0.45594000000E+02  0.51100000000E-03 0.  1.
         11   -1    0    0    0    0 -0.00000000000E+00 -0.00000000000E+00 -0.45593999997E+02  0.45594000000E+02  0.51100000000E-03 0. -1.
    9900012    2    1    2    0    0  0.26690974456E+02 -0.88460470997E+01  0.15035282691E+02  0.59301946744E+02  0.50000004953E+02 0.  0.
         12    1    1    2    0    0 -0.26690974456E+02  0.88460470997E+01 -0.15035282691E+02  0.31886053256E+02  0.00000000000E+00 0. -1.
         11    1    3    3    0    0  0.20625525422E+02  0.45657359465E+01 -0.34893526194E+01  0.21411067830E+02  0.51100000000E-03 0. -1.
        -11    1    3    3    0    0 -0.41049056873E+01  0.75851146570E+01  0.96170139561E+01  0.12917862546E+02  0.51100000000E-03 0.  1.
         12    1    3    3    0    0  0.10170354721E+02 -0.20996897703E+02  0.89076213541E+01  0.24973016368E+02  0.00000000000E+00 0. -1.
</event>
<event>
 7    1  0.7012292E-013  0.5930195E+02  0.7816164E-02  0.1266605E+00
        -11   -1    0    0    0    0  0.00000000000E+00  0.00000000000E+00  0.45593999997E+02  0.45594000000E+02  0.51100000000E-03 0.  1.
         11   -1    0    0    0    0 -0.00000000000E+00 -0.00000000000E+00 -0.45593999997E+02  0.45594000000E+02  0.51100000000E-03 0. -1.
    9900012    2    1    2    0    0  0.24991670854E+02 -0.18336193205E+01  0.19717360315E+02  0.59301951802E+02  0.50000014179E+02 0.  0.
         12    1    1    2    0    0 -0.24991670854E+02  0.18336193205E+01 -0.19717360315E+02  0.31886048198E+02  0.00000000000E+00 0. -1.
         11    1    3    3    0    0  0.10554619852E+02  0.52979035136E+01  0.13249183801E+02  0.17748483133E+02  0.51100000000E-03 0. -1.
        -11    1    3    3    0    0  0.26537135479E+02 -0.59620685148E+01 -0.11224381746E+01  0.27221787012E+02  0.51100000000E-03 0.  1.
         12    1    3    3    0    0 -0.12100084478E+02 -0.11694543194E+01  0.75906146885E+01  0.14331681657E+02  0.00000000000E+00 0. -1.
</event>
<event>
 7    1  0.7012292E-013  0.5930199E+02  0.7816164E-02  0.1266605E+00
        -11   -1    0    0    0    0  0.00000000000E+00  0.00000000000E+00  0.45593999997E+02  0.45594000000E+02  0.51100000000E-03 0. -1.
         11   -1    0    0    0    0 -0.00000000000E+00 -0.00000000000E+00 -0.45593999997E+02  0.45594000000E+02  0.51100000000E-03 0.  1.
    9900012    2    1    2    0    0  0.13767058546E+02  0.26593456115E+02 -0.10953250793E+02  0.59301991908E+02  0.50000087322E+02 0.  0.
         12    1    1    2    0    0 -0.13767058546E+02 -0.26593456115E+02  0.10953250793E+02  0.31886008092E+02  0.00000000000E+00 0. -1.
         11    1    3    3    0    0  0.51288511561E+01  0.84727545247E+01 -0.24425985281E+01  0.10200929921E+02  0.51100000000E-03 0. -1.
        -11    1    3    3    0    0  0.21462481341E+02  0.25666380916E+02 -0.65560546473E+01  0.34093739417E+02  0.51100000000E-03 0.  1.
         12    1    3    3    0    0 -0.12824273951E+02 -0.75456793261E+01 -0.19545976171E+01  0.15007322570E+02  0.00000000000E+00 0. -1.
</event>
<event>
 7    1  0.7012292E-013  0.5930199E+02  0.7816164E-02  0.1266605E+00
        -11   -1    0    0    0    0  0.00000000000E+00  0.00000000000E+00  0.45593999997E+02  0.45594000000E+02  0.51100000000E-03 0. -1.
         11   -1    0    0    0    0 -0.00000000000E+00 -0.00000000000E+00 -0.45593999997E+02  0.45594000000E+02  0.51100000000E-03 0.  1.
    9900012    2    1    2    0    0 -0.15323225874E+02  0.27634049178E+02 -0.42749733977E+01  0.59301994877E+02  0.50000092736E+02 0.  0.
         12    1    1    2    0    0  0.15323225874E+02 -0.27634049178E+02  0.42749733977E+01  0.31886005123E+02  0.00000000000E+00 0. -1.
         11    1    3    3    0    0  0.10759219469E+02 -0.65445573756E+00  0.56165347104E+01  0.12154611401E+02  0.51100000000E-03 0. -1.
        -11    1    3    3    0    0 -0.59410138807E+01  0.24006116940E+02 -0.10921949725E+01  0.24754437716E+02  0.51100000000E-03 0.  1.
        -12    1    3    3    0    0 -0.20141431463E+02  0.42823879750E+01 -0.87993131355E+01  0.22392945760E+02  0.00000000000E+00 0.  1.
</event>
<event>
 7    1  0.7012292E-013  0.5930156E+02  0.7816164E-02  0.1266606E+00
        -11   -1    0    0    0    0  0.00000000000E+00  0.00000000000E+00  0.45593999997E+02  0.45594000000E+02  0.51100000000E-03 0. -1.
         11   -1    0    0    0    0 -0.00000000000E+00 -0.00000000000E+00 -0.45593999997E+02  0.45594000000E+02  0.51100000000E-03 0.  1.
    9900012    2    1    2    0    0 -0.29509055500E+02 -0.12051941533E+02  0.84326551101E+00  0.59301564829E+02  0.49999308427E+02 0.  0.
         12    1    1    2    0    0  0.29509055500E+02  0.12051941533E+02 -0.84326551101E+00  0.31886435171E+02  0.00000000000E+00 0. -1.
         11    1    3    3    0    0 -0.66012238837E+01 -0.94762825769E+01  0.66220210723E+01  0.13312672594E+02  0.51100000000E-03 0. -1.
        -11    1    3    3    0    0  0.11311026385E+02 -0.45140618611E+00 -0.85299391069E+00  0.11352122458E+02  0.51100000000E-03 0.  1.
         12    1    3    3    0    0 -0.34218858001E+02 -0.21242527704E+01 -0.49257616506E+01  0.34636769777E+02  0.00000000000E+00 0. -1.
</event>
<event>
 7    1  0.7012292E-013  0.5930195E+02  0.7816164E-02  0.1266605E+00
        -11   -1    0    0    0    0  0.00000000000E+00  0.00000000000E+00  0.45593999997E+02  0.45594000000E+02  0.51100000000E-03 0.  1.
         11   -1    0    0    0    0 -0.00000000000E+00 -0.00000000000E+00 -0.45593999997E+02  0.45594000000E+02  0.51100000000E-03 0. -1.
    9900012    2    1    2    0    0  0.17337014214E+02  0.33843989202E+01  0.26546069501E+02  0.59301952520E+02  0.50000015488E+02 0.  0.
         12    1    1    2    0    0 -0.17337014214E+02 -0.33843989202E+01 -0.26546069501E+02  0.31886047480E+02  0.00000000000E+00 0. -1.
         11    1    3    3    0    0  0.28050263926E+01 -0.12593167850E+02 -0.23939344159E+01  0.13122003346E+02  0.51100000000E-03 0. -1.
        -11    1    3    3    0    0  0.13847134929E+02 -0.24801084460E+01  0.22659309200E+02  0.26670927568E+02  0.51100000000E-03 0.  1.
        -12    1    3    3    0    0  0.68485289231E+00  0.18457675216E+02  0.62806947171E+01  0.19509021606E+02  0.00000000000E+00 0.  1.
</event>
<event>
 7    1  0.7012292E-013  0.5930194E+02  0.7816164E-02  0.1266605E+00
        -11   -1    0    0    0    0  0.00000000000E+00  0.00000000000E+00  0.45593999997E+02  0.45594000000E+02  0.51100000000E-03 0. -1.
         11   -1    0    0    0    0 -0.00000000000E+00 -0.00000000000E+00 -0.45593999997E+02  0.45594000000E+02  0.51100000000E-03 0.  1.
    9900012    2    1    2    0    0 -0.23970989097E+02 -0.16463998734E+02 -0.13078572642E+02  0.59301942938E+02  0.49999998013E+02 0.  0.
         12    1    1    2    0    0  0.23970989097E+02  0.16463998734E+02  0.13078572642E+02  0.31886057062E+02  0.00000000000E+00 0. -1.
         11    1    3    3    0    0  0.23447133623E+01 -0.41194100937E+01 -0.15744348596E+01  0.49946036539E+01  0.51100000000E-03 0.  1.
        -11    1    3    3    0    0 -0.16273720791E+02  0.11506459805E+01  0.15492816027E+02  0.22498562693E+02  0.51100000000E-03 0. -1.
        -12    1    3    3    0    0 -0.10041981668E+02 -0.13495234620E+02 -0.26996953809E+02  0.31808776591E+02  0.00000000000E+00 0.  1.
</event>
<event>
 7    1  0.7012292E-013  0.5930199E+02  0.7816164E-02  0.1266605E+00
        -11   -1    0    0    0    0  0.00000000000E+00  0.00000000000E+00  0.45593999997E+02  0.45594000000E+02  0.51100000000E-03 0. -1.
         11   -1    0    0    0    0 -0.00000000000E+00 -0.00000000000E+00 -0.45593999997E+02  0.45594000000E+02  0.51100000000E-03 0.  1.
    9900012    2    1    2    0    0 -0.31867101080E+02 -0.48186027467E+00  0.98656826164E+00  0.59301989941E+02  0.50000083734E+02 0.  0.
         12    1    1    2    0    0  0.31867101080E+02  0.48186027467E+00 -0.98656826164E+00  0.31886010059E+02  0.00000000000E+00 0. -1.
         11    1    3    3    0    0 -0.21167692287E+01 -0.45512121396E+01 -0.64073414577E+01  0.81393039459E+01  0.51100000000E-03 0.  1.
        -11    1    3    3    0    0  0.94839727286E+00 -0.39714077210E+01  0.17412247780E+02  0.17884571834E+02  0.51100000000E-03 0. -1.
         12    1    3    3    0    0 -0.30698729124E+02  0.80407595860E+01 -0.10018338061E+02  0.33278114160E+02  0.00000000000E+00 0. -1.
</event>
<event>
 7    1  0.7012292E-013  0.5930197E+02  0.7816164E-02  0.1266605E+00
        -11   -1    0    0    0    0  0.00000000000E+00  0.00000000000E+00  0.45593999997E+02  0.45594000000E+02  0.51100000000E-03 0. -1.
         11   -1    0    0    0    0 -0.00000000000E+00 -0.00000000000E+00 -0.45593999997E+02  0.45594000000E+02  0.51100000000E-03 0.  1.
    9900012    2    1    2    0    0 -0.30579119522E+02  0.71477791832E+01  0.55268345953E+01  0.59301965460E+02  0.50000039088E+02 0.  0.
         12    1    1    2    0    0  0.30579119522E+02 -0.71477791832E+01 -0.55268345953E+01  0.31886034540E+02  0.00000000000E+00 0. -1.
         11    1    3    3    0    0 -0.23681081826E+02  0.40742156842E+01  0.66672499073E+00  0.24038248530E+02  0.51100000000E-03 0. -1.
        -11    1    3    3    0    0 -0.19501937216E+02 -0.47761969935E+01  0.28815029024E+01  0.20284000398E+02  0.51100000000E-03 0.  1.
         12    1    3    3    0    0  0.12603899520E+02  0.78497604925E+01  0.19786067021E+01  0.14979716532E+02  0.00000000000E+00 0. -1.
</event>
<event>
 7    1  0.7012292E-013  0.5930194E+02  0.7816164E-02  0.1266605E+00
        -11   -1    0    0    0    0  0.00000000000E+00  0.00000000000E+00  0.45593999997E+02  0.45594000000E+02  0.51100000000E-03 0. -1.
         11   -1    0    0    0    0 -0.00000000000E+00 -0.00000000000E+00 -0.45593999997E+02  0.45594000000E+02  0.51100000000E-03 0.  1.
    9900012    2    1    2    0    0 -0.37312957065E+01 -0.20055493256E+02 -0.24506638685E+02  0.59301941651E+02  0.49999995666E+02 0.  0.
         12    1    1    2    0    0  0.37312957065E+01  0.20055493256E+02  0.24506638685E+02  0.31886058349E+02  0.00000000000E+00 0. -1.
         11    1    3    3    0    0  0.89986586114E+01  0.84417285245E+01  0.13240419219E+01  0.12409340214E+02  0.51100000000E-03 0. -1.
        -11    1    3    3    0    0  0.42959587438E+01 -0.18783709296E+02 -0.10076026445E+02  0.21744178660E+02  0.51100000000E-03 0.  1.
         12    1    3    3    0    0 -0.17025913062E+02 -0.97135124852E+01 -0.15754654162E+02  0.25148422777E+02  0.00000000000E+00 0. -1.
</event>
<event>
 7    1  0.7012292E-013  0.5930194E+02  0.7816164E-02  0.1266605E+00
        -11   -1    0    0    0    0  0.00000000000E+00  0.00000000000E+00  0.45593999997E+02  0.45594000000E+02  0.51100000000E-03 0. -1.
         11   -1    0    0    0    0 -0.00000000000E+00 -0.00000000000E+00 -0.45593999997E+02  0.45594000000E+02  0.51100000000E-03 0.  1.
    9900012    2    1    2    0    0  0.19244718193E+02  0.25417217044E+02 -0.57171244633E+00  0.59301937909E+02  0.49999988840E+02 0.  0.
         12    1    1    2    0    0 -0.19244718193E+02 -0.25417217044E+02  0.57171244633E+00  0.31886062091E+02  0.00000000000E+00 0. -1.
         11    1    3    3    0    0 -0.98566116058E+01  0.85057527587E+01  0.24569105599E+01  0.13249038912E+02  0.51100000000E-03 0. -1.
        -11    1    3    3    0    0  0.11518737561E+02  0.24287667857E+02 -0.21183127496E+01  0.26964038535E+02  0.51100000000E-03 0.  1.
         12    1    3    3    0    0  0.17582592238E+02 -0.73762035725E+01 -0.91031025665E+00  0.19088860462E+02  0.00000000000E+00 0. -1.
</event>
<event>
 7    1  0.7012292E-013  0.5930191E+02  0.7816164E-02  0.1266605E+00
        -11   -1    0    0    0    0  0.00000000000E+00  0.00000000000E+00  0.45593999997E+02  0.45594000000E+02  0.51100000000E-03 0.  1.
         11   -1    0    0    0    0 -0.00000000000E+00 -0.00000000000E+00 -0.45593999997E+02  0.45594000000E+02  0.51100000000E-03 0. -1.
    9900012    2    1    2    0    0 -0.22975442062E+02 -0.51782681552E+01  0.21495050386E+02  0.59301912279E+02  0.49999942098E+02 0.  0.
         12    1    1    2    0    0  0.22975442062E+02  0.51782681552E+01 -0.21495050386E+02  0.31886087721E+02  0.00000000000E+00 0. -1.
         11    1    3    3    0    0  0.14407606492E+01 -0.14221561536E+01  0.13966355202E+02  0.14112313675E+02  0.51100000000E-03 0. -1.
        -11    1    3    3    0    0 -0.16039887350E+02 -0.18111307630E+02  0.13285223543E+02  0.27600627079E+02  0.51100000000E-03 0.  1.
        -12    1    3    3    0    0 -0.83763153617E+01  0.14355195629E+02 -0.57565283589E+01  0.17588971526E+02  0.00000000000E+00 0.  1.
</event>
<event>
 7    1  0.7012292E-013  0.5930186E+02  0.7816164E-02  0.1266605E+00
        -11   -1    0    0    0    0  0.00000000000E+00  0.00000000000E+00  0.45593999997E+02  0.45594000000E+02  0.51100000000E-03 0. -1.
         11   -1    0    0    0    0 -0.00000000000E+00 -0.00000000000E+00 -0.45593999997E+02  0.45594000000E+02  0.51100000000E-03 0.  1.
    9900012    2    1    2    0    0 -0.10513632075E+02 -0.14103697267E+02 -0.26594643906E+02  0.59301861624E+02  0.49999849716E+02 0.  0.
         12    1    1    2    0    0  0.10513632075E+02  0.14103697267E+02  0.26594643906E+02  0.31886138376E+02  0.00000000000E+00 0. -1.
         11    1    3    3    0    0 -0.10954471490E+02  0.10480222419E+02 -0.49678688315E+01  0.15953533419E+02  0.51100000000E-03 0. -1.
        -11    1    3    3    0    0 -0.28023587677E+01  0.50620499019E+01 -0.95645722052E+01  0.11178488520E+02  0.51100000000E-03 0.  1.
        -12    1    3    3    0    0  0.32431981820E+01 -0.29645969588E+02 -0.12062202870E+02  0.32169839685E+02  0.00000000000E+00 0.  1.
</event>
<event>
 7    1  0.7012292E-013  0.5930194E+02  0.7816164E-02  0.1266605E+00
        -11   -1    0    0    0    0  0.00000000000E+00  0.00000000000E+00  0.45593999997E+02  0.45594000000E+02  0.51100000000E-03 0.  1.
         11   -1    0    0    0    0 -0.00000000000E+00 -0.00000000000E+00 -0.45593999997E+02  0.45594000000E+02  0.51100000000E-03 0. -1.
    9900012    2    1    2    0    0  0.26270475638E+01  0.31607084973E+02 -0.32881204968E+01  0.59301938221E+02  0.49999989409E+02 0.  0.
         12    1    1    2    0    0 -0.26270475638E+01 -0.31607084973E+02  0.32881204968E+01  0.31886061779E+02  0.00000000000E+00 0. -1.
         11    1    3    3    0    0 -0.15762401643E+01  0.22269016220E+02  0.14354249561E+02  0.26541252743E+02  0.51100000000E-03 0. -1.
        -11    1    3    3    0    0  0.41332241837E+01  0.50903123852E+01  0.59105035850E+01  0.88277333003E+01  0.51100000000E-03 0.  1.
         12    1    3    3    0    0  0.70063544424E-01  0.42477563683E+01 -0.23552873643E+02  0.23932952177E+02  0.00000000000E+00 0. -1.
</event>
<event>
 7    1  0.7012292E-013  0.5930197E+02  0.7816164E-02  0.1266605E+00
        -11   -1    0    0    0    0  0.00000000000E+00  0.00000000000E+00  0.45593999997E+02  0.45594000000E+02  0.51100000000E-03 0. -1.
         11   -1    0    0    0    0 -0.00000000000E+00 -0.00000000000E+00 -0.45593999997E+02  0.45594000000E+02  0.51100000000E-03 0.  1.
    9900012    2    1    2    0    0 -0.43090382952E+01 -0.31358452055E+02 -0.38469017008E+01  0.59301968905E+02  0.50000045370E+02 0.  0.
         12    1    1    2    0    0  0.43090382952E+01  0.31358452055E+02  0.38469017008E+01  0.31886031095E+02  0.00000000000E+00 0. -1.
         11    1    3    3    0    0  0.78940619473E+01 -0.30601574901E+01  0.63651877152E+01  0.10592279868E+02  0.51100000000E-03 0. -1.
        -11    1    3    3    0    0  0.77292149113E+01  0.37862402627E+01  0.23185098597E+01  0.89135776601E+01  0.51100000000E-03 0.  1.
        -12    1    3    3    0    0 -0.19932315154E+02 -0.32084534828E+02 -0.12530599276E+02  0.39796111377E+02  0.00000000000E+00 0.  1.
</event>
<event>
 7    1  0.7012292E-013  0.5930200E+02  0.7816164E-02  0.1266605E+00
        -11   -1    0    0    0    0  0.00000000000E+00  0.00000000000E+00  0.45593999997E+02  0.45594000000E+02  0.51100000000E-03 0. -1.
         11   -1    0    0    0    0 -0.00000000000E+00 -0.00000000000E+00 -0.45593999997E+02  0.45594000000E+02  0.51100000000E-03 0.  1.
    9900012    2    1    2    0    0  0.30825554593E+02 -0.73634777362E+01 -0.35044424619E+01  0.59302004057E+02  0.50000109479E+02 0.  0.
         12    1    1    2    0    0 -0.30825554593E+02  0.73634777362E+01  0.35044424619E+01  0.31885995943E+02  0.00000000000E+00 0. -1.
         11    1    3    3    0    0  0.11960824022E+02  0.64577346564E+01  0.66590126307E+01  0.15136251110E+02  0.51100000000E-03 0. -1.
        -11    1    3    3    0    0 -0.18050004039E+01  0.10609855801E+02 -0.65933453950E+00  0.10782476009E+02  0.51100000000E-03 0.  1.
        -12    1    3    3    0    0  0.20669730974E+02 -0.24431068194E+02 -0.95041205530E+01  0.33383276938E+02  0.00000000000E+00 0.  1.
</event>
<event>
 7    1  0.7012292E-013  0.5930194E+02  0.7816164E-02  0.1266605E+00
        -11   -1    0    0    0    0  0.00000000000E+00  0.00000000000E+00  0.45593999997E+02  0.45594000000E+02  0.51100000000E-03 0.  1.
         11   -1    0    0    0    0 -0.00000000000E+00 -0.00000000000E+00 -0.45593999997E+02  0.45594000000E+02  0.51100000000E-03 0. -1.
    9900012    2    1    2    0    0  0.26453370925E+02 -0.54242139025E+01  0.16956352226E+02  0.59301940184E+02  0.49999992991E+02 0.  0.
         12    1    1    2    0    0 -0.26453370925E+02  0.54242139025E+01 -0.16956352226E+02  0.31886059816E+02  0.00000000000E+00 0. -1.
         11    1    3    3    0    0  0.37360777092E+01  0.10094031370E+02  0.17213359483E+02  0.20301415983E+02  0.51100000000E-03 0. -1.
        -11    1    3    3    0    0  0.91086655855E+01  0.10528055940E+01 -0.11564846620E+02  0.14758789448E+02  0.51100000000E-03 0.  1.
        -12    1    3    3    0    0  0.13608627630E+02 -0.16571050867E+02  0.11307839363E+02  0.24241734754E+02  0.00000000000E+00 0.  1.
</event>
<event>
 7    1  0.7012292E-013  0.5930195E+02  0.7816164E-02  0.1266605E+00
        -11   -1    0    0    0    0  0.00000000000E+00  0.00000000000E+00  0.45593999997E+02  0.45594000000E+02  0.51100000000E-03 0.  1.
         11   -1    0    0    0    0 -0.00000000000E+00 -0.00000000000E+00 -0.45593999997E+02  0.45594000000E+02  0.51100000000E-03 0. -1.
    9900012    2    1    2    0    0  0.18975450922E+02  0.25206699527E+02  0.46124357435E+01  0.59301952860E+02  0.50000016108E+02 0.  0.
         12    1    1    2    0    0 -0.18975450922E+02 -0.25206699527E+02 -0.46124357435E+01  0.31886047140E+02  0.00000000000E+00 0. -1.
         11    1    3    3    0    0 -0.54320987650E+01 -0.57822577250E+00 -0.24119035596E+01  0.59715426046E+01  0.51100000000E-03 0. -1.
        -11    1    3    3    0    0  0.27310542647E+02  0.56426859923E+00  0.15539066697E+01  0.27360532979E+02  0.51100000000E-03 0.  1.
         12    1    3    3    0    0 -0.29029929600E+01  0.25220656701E+02  0.54704326334E+01  0.25969877276E+02  0.00000000000E+00 0. -1.
</event>
<event>
 7    1  0.7012292E-013  0.5930194E+02  0.7816164E-02  0.1266605E+00
        -11   -1    0    0    0    0  0.00000000000E+00  0.00000000000E+00  0.45593999997E+02  0.45594000000E+02  0.51100000000E-03 0. -1.
         11   -1    0    0    0    0 -0.00000000000E+00 -0.00000000000E+00 -0.45593999997E+02  0.45594000000E+02  0.51100000000E-03 0.  1.
    9900012    2    1    2    0    0  0.48492252524E+01 -0.62125204073E+01 -0.30896774613E+02  0.59301936009E+02  0.49999985375E+02 0.  0.
         12    1    1    2    0    0 -0.48492252524E+01  0.62125204073E+01  0.30896774613E+02  0.31886063991E+02  0.00000000000E+00 0. -1.
         11    1    3    3    0    0  0.76957538700E+01 -0.14327063951E+01 -0.85440363323E+01  0.11587831219E+02  0.51100000000E-03 0. -1.
        -11    1    3    3    0    0  0.13765294663E+02  0.37555442180E+01 -0.25065198404E+02  0.28841838028E+02  0.51100000000E-03 0.  1.
        -12    1    3    3    0    0 -0.16611823281E+02 -0.85353582302E+01  0.27124601225E+01  0.18872266762E+02  0.00000000000E+00 0.  1.
</event>
<event>
 7    1  0.7012292E-013  0.5930178E+02  0.7816164E-02  0.1266605E+00
        -11   -1    0    0    0    0  0.00000000000E+00  0.00000000000E+00  0.45593999997E+02  0.45594000000E+02  0.51100000000E-03 0.  1.
         11   -1    0    0    0    0 -0.00000000000E+00 -0.00000000000E+00 -0.45593999997E+02  0.45594000000E+02  0.51100000000E-03 0. -1.
    9900012    2    1    2    0    0 -0.20471716904E+02  0.24426075105E+02 -0.10032846676E+01  0.59301781690E+02  0.49999703934E+02 0.  0.
         12    1    1    2    0    0  0.20471716904E+02 -0.24426075105E+02  0.10032846676E+01  0.31886218310E+02  0.00000000000E+00 0. -1.
         11    1    3    3    0    0 -0.11894544160E+02  0.17644316500E+02 -0.85517274560E+01  0.22933253765E+02  0.51100000000E-03 0.  1.
        -11    1    3    3    0    0  0.91844688734E+01 -0.29887435186E+01  0.12209566654E+02  0.15567934174E+02  0.51100000000E-03 0. -1.
         12    1    3    3    0    0 -0.17761641617E+02  0.97705021232E+01 -0.46611238659E+01  0.20800593750E+02  0.00000000000E+00 0. -1.
</event>
<event>
 7    1  0.7012292E-013  0.5930194E+02  0.7816164E-02  0.1266605E+00
        -11   -1    0    0    0    0  0.00000000000E+00  0.00000000000E+00  0.45593999997E+02  0.45594000000E+02  0.51100000000E-03 0. -1.
         11   -1    0    0    0    0 -0.00000000000E+00 -0.00000000000E+00 -0.45593999997E+02  0.45594000000E+02  0.51100000000E-03 0.  1.
    9900012    2    1    2    0    0  0.64398393083E+01 -0.13039835755E+02 -0.28376260085E+02  0.59301937477E+02  0.49999988053E+02 0.  0.
         12    1    1    2    0    0 -0.64398393083E+01  0.13039835755E+02  0.28376260085E+02  0.31886062523E+02  0.00000000000E+00 0. -1.
         11    1    3    3    0    0  0.86964676655E+01 -0.26677155324E+02 -0.77782644121E+01  0.29117015018E+02  0.51100000000E-03 0. -1.
        -11    1    3    3    0    0  0.50759910158E+01 -0.99076846623E+00 -0.23672389970E+01  0.56878051721E+01  0.51100000000E-03 0.  1.
        -12    1    3    3    0    0 -0.73326193729E+01  0.14628088034E+02 -0.18230756676E+02  0.24497117287E+02  0.00000000000E+00 0.  1.
</event>
<event>
 7    1  0.7012292E-013  0.5930195E+02  0.7816164E-02  0.1266605E+00
        -11   -1    0    0    0    0  0.00000000000E+00  0.00000000000E+00  0.45593999997E+02  0.45594000000E+02  0.51100000000E-03 0.  1.
         11   -1    0    0    0    0 -0.00000000000E+00 -0.00000000000E+00 -0.45593999997E+02  0.45594000000E+02  0.51100000000E-03 0. -1.
    9900012    2    1    2    0    0  0.12440293993E+02 -0.22370221210E+02  0.19014010360E+02  0.59301948165E+02  0.50000007546E+02 0.  0.
         12    1    1    2    0    0 -0.12440293993E+02  0.22370221210E+02 -0.19014010360E+02  0.31886051835E+02  0.00000000000E+00 0. -1.
         11    1    3    3    0    0  0.41390554350E+01  0.13441298802E+01  0.44292433436E+01  0.62094010893E+01  0.51100000000E-03 0.  1.
        -11    1    3    3    0    0  0.15307652228E+02  0.30994485226E+01 -0.78090801348E+01  0.17461744778E+02  0.51100000000E-03 0. -1.
        -12    1    3    3    0    0 -0.70064136695E+01 -0.26813799613E+02  0.22393847151E+02  0.35630802298E+02  0.00000000000E+00 0.  1.
</event>
<event>
 7    1  0.7012292E-013  0.5930195E+02  0.7816164E-02  0.1266605E+00
        -11   -1    0    0    0    0  0.00000000000E+00  0.00000000000E+00  0.45593999997E+02  0.45594000000E+02  0.51100000000E-03 0.  1.
         11   -1    0    0    0    0 -0.00000000000E+00 -0.00000000000E+00 -0.45593999997E+02  0.45594000000E+02  0.51100000000E-03 0. -1.
    9900012    2    1    2    0    0 -0.19662665945E+02  0.11537067940E+02  0.22293403509E+02  0.59301949621E+02  0.50000010202E+02 0.  0.
         12    1    1    2    0    0  0.19662665945E+02 -0.11537067940E+02 -0.22293403509E+02  0.31886050379E+02  0.00000000000E+00 0. -1.
         11    1    3    3    0    0 -0.13973593750E+02 -0.55527317225E+01  0.23138692960E+02  0.27595167404E+02  0.51100000000E-03 0. -1.
        -11    1    3    3    0    0 -0.92926432998E+01  0.44053796076E+01  0.10215713297E+02  0.14495564405E+02  0.51100000000E-03 0.  1.
         12    1    3    3    0    0  0.36035711050E+01  0.12684420055E+02 -0.11061002747E+02  0.17211217813E+02  0.00000000000E+00 0. -1.
</event>
<event>
 7    1  0.7012292E-013  0.5930197E+02  0.7816164E-02  0.1266605E+00
        -11   -1    0    0    0    0  0.00000000000E+00  0.00000000000E+00  0.45593999997E+02  0.45594000000E+02  0.51100000000E-03 0. -1.
         11   -1    0    0    0    0 -0.00000000000E+00 -0.00000000000E+00 -0.45593999997E+02  0.45594000000E+02  0.51100000000E-03 0.  1.
    9900012    2    1    2    0    0  0.27769161310E+02 -0.43049070230E+01 -0.15068521315E+02  0.59301970473E+02  0.50000048230E+02 0.  0.
         12    1    1    2    0    0 -0.27769161310E+02  0.43049070230E+01  0.15068521315E+02  0.31886029527E+02  0.00000000000E+00 0. -1.
         11    1    3    3    0    0 -0.10418669402E+01 -0.92141099636E+01 -0.26436460850E+01  0.96423116537E+01  0.51100000000E-03 0. -1.
        -11    1    3    3    0    0  0.21899665407E+02 -0.15290017735E+02 -0.61564470718E+01  0.27409520756E+02  0.51100000000E-03 0.  1.
         12    1    3    3    0    0  0.69113628439E+01  0.20199220676E+02 -0.62684281587E+01  0.22250138064E+02  0.00000000000E+00 0. -1.
</event>
<event>
 7    1  0.7012292E-013  0.5930186E+02  0.7816164E-02  0.1266605E+00
        -11   -1    0    0    0    0  0.00000000000E+00  0.00000000000E+00  0.45593999997E+02  0.45594000000E+02  0.51100000000E-03 0.  1.
         11   -1    0    0    0    0 -0.00000000000E+00 -0.00000000000E+00 -0.45593999997E+02  0.45594000000E+02  0.51100000000E-03 0. -1.
    9900012    2    1    2    0    0 -0.28326856463E+02 -0.14583310460E+02 -0.12813654825E+01  0.59301864477E+02  0.49999854919E+02 0.  0.
         12    1    1    2    0    0  0.28326856463E+02  0.14583310460E+02  0.12813654825E+01  0.31886135523E+02  0.00000000000E+00 0. -1.
         11    1    3    3    0    0  0.66752954186E+00 -0.29205295255E+01 -0.67089332299E+01  0.73474399449E+01  0.51100000000E-03 0. -1.
        -11    1    3    3    0    0  0.23548497478E+01 -0.50031297381E+01 -0.13601138591E+02  0.14682220395E+02  0.51100000000E-03 0.  1.
        -12    1    3    3    0    0 -0.31349235753E+02 -0.66596511960E+01  0.19028706338E+02  0.37272204137E+02  0.00000000000E+00 0.  1.
</event>
<event>
 7    1  0.7012292E-013  0.5930191E+02  0.7816164E-02  0.1266605E+00
        -11   -1    0    0    0    0  0.00000000000E+00  0.00000000000E+00  0.45593999997E+02  0.45594000000E+02  0.51100000000E-03 0.  1.
         11   -1    0    0    0    0 -0.00000000000E+00 -0.00000000000E+00 -0.45593999997E+02  0.45594000000E+02  0.51100000000E-03 0. -1.
    9900012    2    1    2    0    0 -0.16709561936E+01  0.24458677355E+02  0.20388807941E+02  0.59301913978E+02  0.49999945197E+02 0.  0.
         12    1    1    2    0    0  0.16709561936E+01 -0.24458677355E+02 -0.20388807941E+02  0.31886086022E+02  0.00000000000E+00 0. -1.
         11    1    3    3    0    0  0.82843461247E+01  0.14037554063E+02 -0.31590107173E+01  0.16603091994E+02  0.51100000000E-03 0. -1.
        -11    1    3    3    0    0  0.71974299531E+01 -0.66130605969E+01  0.13147167007E+02  0.16382416457E+02  0.51100000000E-03 0.  1.
        -12    1    3    3    0    0 -0.17152732271E+02  0.17034183888E+02  0.10400651651E+02  0.26316405527E+02  0.00000000000E+00 0.  1.
</event>
<event>
 7    1  0.7012292E-013  0.5930192E+02  0.7816164E-02  0.1266605E+00
        -11   -1    0    0    0    0  0.00000000000E+00  0.00000000000E+00  0.45593999997E+02  0.45594000000E+02  0.51100000000E-03 0.  1.
         11   -1    0    0    0    0 -0.00000000000E+00 -0.00000000000E+00 -0.45593999997E+02  0.45594000000E+02  0.51100000000E-03 0. -1.
    9900012    2    1    2    0    0  0.23317133339E+02  0.10006385059E+01  0.21726306849E+02  0.59301915357E+02  0.49999947711E+02 0.  0.
         12    1    1    2    0    0 -0.23317133339E+02 -0.10006385059E+01 -0.21726306849E+02  0.31886084643E+02  0.00000000000E+00 0. -1.
         11    1    3    3    0    0 -0.64045044538E+01 -0.23558787174E+01  0.20638016158E+01  0.71293140764E+01  0.51100000000E-03 0. -1.
        -11    1    3    3    0    0 -0.21714515314E+01  0.52123822547E+01  0.19420403734E+02  0.20224643680E+02  0.51100000000E-03 0.  1.
        -12    1    3    3    0    0  0.31893089325E+02 -0.18558650314E+01  0.24210149863E+00  0.31947957600E+02  0.00000000000E+00 0.  1.
</event>
<event>
 7    1  0.7012292E-013  0.5930198E+02  0.7816164E-02  0.1266605E+00
        -11   -1    0    0    0    0  0.00000000000E+00  0.00000000000E+00  0.45593999997E+02  0.45594000000E+02  0.51100000000E-03 0.  1.
         11   -1    0    0    0    0 -0.00000000000E+00 -0.00000000000E+00 -0.45593999997E+02  0.45594000000E+02  0.51100000000E-03 0. -1.
    9900012    2    1    2    0    0 -0.19335205973E+02 -0.23557652289E+02  0.93757875553E+01  0.59301975418E+02  0.50000057248E+02 0.  0.
         12    1    1    2    0    0  0.19335205973E+02  0.23557652289E+02 -0.93757875553E+01  0.31886024582E+02  0.00000000000E+00 0. -1.
         11    1    3    3    0    0 -0.15344496017E+02 -0.20026910729E+02  0.33460172964E+01  0.25450472360E+02  0.51100000000E-03 0. -1.
        -11    1    3    3    0    0 -0.68009337594E+00  0.14430197977E+02  0.58537308849E+01  0.15587151959E+02  0.51100000000E-03 0.  1.
         12    1    3    3    0    0 -0.33106165807E+01 -0.17960939537E+02  0.17603937402E+00  0.18264351098E+02  0.00000000000E+00 0. -1.
</event>
<event>
 7    1  0.7012292E-013  0.5930196E+02  0.7816164E-02  0.1266605E+00
        -11   -1    0    0    0    0  0.00000000000E+00  0.00000000000E+00  0.45593999997E+02  0.45594000000E+02  0.51100000000E-03 0.  1.
         11   -1    0    0    0    0 -0.00000000000E+00 -0.00000000000E+00 -0.45593999997E+02  0.45594000000E+02  0.51100000000E-03 0. -1.
    9900012    2    1    2    0    0  0.68994184306E+01 -0.17354840465E+02  0.25844290841E+02  0.59301955539E+02  0.50000020994E+02 0.  0.
         12    1    1    2    0    0 -0.68994184306E+01  0.17354840465E+02 -0.25844290841E+02  0.31886044461E+02  0.00000000000E+00 0. -1.
         11    1    3    3    0    0 -0.34671016979E+01 -0.22843854247E+02  0.10040521442E+01  0.23127269445E+02  0.51100000000E-03 0. -1.
        -11    1    3    3    0    0  0.13022109764E+02  0.30245713163E+01  0.25723191083E+01  0.13613970773E+02  0.51100000000E-03 0.  1.
        -12    1    3    3    0    0 -0.26555896354E+01  0.24644424654E+01  0.22267919589E+02  0.22560715321E+02  0.00000000000E+00 0.  1.
</event>
<event>
 7    1  0.7012292E-013  0.5930193E+02  0.7816164E-02  0.1266605E+00
        -11   -1    0    0    0    0  0.00000000000E+00  0.00000000000E+00  0.45593999997E+02  0.45594000000E+02  0.51100000000E-03 0.  1.
         11   -1    0    0    0    0 -0.00000000000E+00 -0.00000000000E+00 -0.45593999997E+02  0.45594000000E+02  0.51100000000E-03 0. -1.
    9900012    2    1    2    0    0  0.11368801095E+02 -0.26775314508E+02 -0.13059643426E+02  0.59301931071E+02  0.49999976370E+02 0.  0.
         12    1    1    2    0    0 -0.11368801095E+02  0.26775314508E+02  0.13059643426E+02  0.31886068929E+02  0.00000000000E+00 0. -1.
         11    1    3    3    0    0 -0.29114719699E+01 -0.25437431674E+02 -0.81363823042E+00  0.25616432356E+02  0.51100000000E-03 0. -1.
        -11    1    3    3    0    0 -0.76609051364E+01 -0.40771851221E+01 -0.61132606254E+00  0.86998060809E+01  0.51100000000E-03 0.  1.
        -12    1    3    3    0    0  0.21941178201E+02  0.27393022885E+01 -0.11634679133E+02  0.24985692634E+02  0.00000000000E+00 0.  1.
</event>
<event>
 7    1  0.7012292E-013  0.5930184E+02  0.7816164E-02  0.1266605E+00
        -11   -1    0    0    0    0  0.00000000000E+00  0.00000000000E+00  0.45593999997E+02  0.45594000000E+02  0.51100000000E-03 0. -1.
         11   -1    0    0    0    0 -0.00000000000E+00 -0.00000000000E+00 -0.45593999997E+02  0.45594000000E+02  0.51100000000E-03 0.  1.
    9900012    2    1    2    0    0 -0.21034372429E+02  0.22904144523E+02  0.70485826354E+01  0.59301840353E+02  0.49999810923E+02 0.  0.
         12    1    1    2    0    0  0.21034372429E+02 -0.22904144523E+02 -0.70485826354E+01  0.31886159647E+02  0.00000000000E+00 0. -1.
         11    1    3    3    0    0 -0.42140783501E+01  0.14729939629E+02 -0.14861013813E+02  0.21344303915E+02  0.51100000000E-03 0. -1.
        -11    1    3    3    0    0 -0.24833417045E+00 -0.54686029008E+01 -0.19981800261E+01  0.58275218768E+01  0.51100000000E-03 0.  1.
         12    1    3    3    0    0 -0.16571959909E+02  0.13642807795E+02  0.23907776475E+02  0.32130014561E+02  0.00000000000E+00 0. -1.
</event>
<event>
 7    1  0.7012292E-013  0.5930195E+02  0.7816164E-02  0.1266605E+00
        -11   -1    0    0    0    0  0.00000000000E+00  0.00000000000E+00  0.45593999997E+02  0.45594000000E+02  0.51100000000E-03 0.  1.
         11   -1    0    0    0    0 -0.00000000000E+00 -0.00000000000E+00 -0.45593999997E+02  0.45594000000E+02  0.51100000000E-03 0. -1.
    9900012    2    1    2    0    0  0.77230618326E+01  0.80288622198E+01  0.29876611611E+02  0.59301949226E+02  0.50000009480E+02 0.  0.
         12    1    1    2    0    0 -0.77230618326E+01 -0.80288622198E+01 -0.29876611611E+02  0.31886050774E+02  0.00000000000E+00 0. -1.
         11    1    3    3    0    0  0.12370098366E+02  0.56526901094E+01  0.23012195496E+02  0.26730757207E+02  0.51100000000E-03 0.  1.
        -11    1    3    3    0    0 -0.11946853911E+02 -0.10890674907E+02  0.65017207152E+01  0.17424307471E+02  0.51100000000E-03 0. -1.
         12    1    3    3    0    0  0.72998173783E+01  0.13266847018E+02  0.36269539941E+00  0.15146884548E+02  0.00000000000E+00 0. -1.
</event>
<event>
 7    1  0.7012292E-013  0.5930194E+02  0.7816164E-02  0.1266605E+00
        -11   -1    0    0    0    0  0.00000000000E+00  0.00000000000E+00  0.45593999997E+02  0.45594000000E+02  0.51100000000E-03 0.  1.
         11   -1    0    0    0    0 -0.00000000000E+00 -0.00000000000E+00 -0.45593999997E+02  0.45594000000E+02  0.51100000000E-03 0. -1.
    9900012    2    1    2    0    0 -0.21726999807E+02 -0.54760150784E+01  0.22686378543E+02  0.59301936694E+02  0.49999986625E+02 0.  0.
         12    1    1    2    0    0  0.21726999807E+02  0.54760150784E+01 -0.22686378543E+02  0.31886063306E+02  0.00000000000E+00 0. -1.
         11    1    3    3    0    0  0.18084124401E+01  0.59790602091E+01  0.63948798101E+01  0.89394633275E+01  0.51100000000E-03 0.  1.
        -11    1    3    3    0    0 -0.19863570043E+02  0.11185395679E+02  0.10435083570E+01  0.22820241044E+02  0.51100000000E-03 0. -1.
         12    1    3    3    0    0 -0.36718422037E+01 -0.22640470967E+02  0.15247990376E+02  0.27542232322E+02  0.00000000000E+00 0. -1.
</event>
<event>
 7    1  0.7012292E-013  0.5930194E+02  0.7816164E-02  0.1266605E+00
        -11   -1    0    0    0    0  0.00000000000E+00  0.00000000000E+00  0.45593999997E+02  0.45594000000E+02  0.51100000000E-03 0.  1.
         11   -1    0    0    0    0 -0.00000000000E+00 -0.00000000000E+00 -0.45593999997E+02  0.45594000000E+02  0.51100000000E-03 0. -1.
    9900012    2    1    2    0    0  0.83351329401E+01  0.27056482575E+02 -0.14669460365E+02  0.59301941010E+02  0.49999994497E+02 0.  0.
         12    1    1    2    0    0 -0.83351329401E+01 -0.27056482575E+02  0.14669460365E+02  0.31886058990E+02  0.00000000000E+00 0. -1.
         11    1    3    3    0    0  0.21066241898E+02  0.24569935049E+00 -0.79405158057E+01  0.22514411105E+02  0.51100000000E-03 0. -1.
        -11    1    3    3    0    0  0.26361995685E+01  0.85460372941E+01  0.49414594028E+01  0.10217745489E+02  0.51100000000E-03 0.  1.
        -12    1    3    3    0    0 -0.15367308526E+02  0.18264745931E+02 -0.11670403963E+02  0.26569784416E+02  0.00000000000E+00 0.  1.
</event>
<event>
 7    1  0.7012292E-013  0.5930193E+02  0.7816164E-02  0.1266605E+00
        -11   -1    0    0    0    0  0.00000000000E+00  0.00000000000E+00  0.45593999997E+02  0.45594000000E+02  0.51100000000E-03 0.  1.
         11   -1    0    0    0    0 -0.00000000000E+00 -0.00000000000E+00 -0.45593999997E+02  0.45594000000E+02  0.51100000000E-03 0. -1.
    9900012    2    1    2    0    0 -0.11368581992E+02 -0.28376501591E+02 -0.90692236489E+01  0.59301932249E+02  0.49999978518E+02 0.  0.
         12    1    1    2    0    0  0.11368581992E+02  0.28376501591E+02  0.90692236489E+01  0.31886067751E+02  0.00000000000E+00 0. -1.
         11    1    3    3    0    0 -0.82392967473E+01  0.81621714216E+01 -0.31951145855E+01  0.12029788472E+02  0.51100000000E-03 0.  1.
        -11    1    3    3    0    0  0.28288416363E+01 -0.27565280990E+01 -0.11815214130E+02  0.12457932306E+02  0.51100000000E-03 0. -1.
        -12    1    3    3    0    0 -0.59581268813E+01 -0.33782144913E+02  0.59411050663E+01  0.34814211470E+02  0.00000000000E+00 0.  1.
</event>
<event>
 7    1  0.7012292E-013  0.5930194E+02  0.7816164E-02  0.1266605E+00
        -11   -1    0    0    0    0  0.00000000000E+00  0.00000000000E+00  0.45593999997E+02  0.45594000000E+02  0.51100000000E-03 0.  1.
         11   -1    0    0    0    0 -0.00000000000E+00 -0.00000000000E+00 -0.45593999997E+02  0.45594000000E+02  0.51100000000E-03 0. -1.
    9900012    2    1    2    0    0  0.57474481597E+00  0.30878639700E+02  0.79309615200E+01  0.59301939221E+02  0.49999991234E+02 0.  0.
         12    1    1    2    0    0 -0.57474481597E+00 -0.30878639700E+02 -0.79309615200E+01  0.31886060779E+02  0.00000000000E+00 0. -1.
         11    1    3    3    0    0 -0.14235582321E+01  0.13127804044E+02 -0.11154981113E+02  0.17285813865E+02  0.51100000000E-03 0. -1.
        -11    1    3    3    0    0 -0.89821712890E+00  0.27335339996E+02  0.12830727958E+02  0.30210183496E+02  0.51100000000E-03 0.  1.
        -12    1    3    3    0    0  0.28965201769E+01 -0.95845043397E+01  0.62552146750E+01  0.11805941860E+02  0.00000000000E+00 0.  1.
</event>
<event>
 7    1  0.7012292E-013  0.5930202E+02  0.7816164E-02  0.1266605E+00
        -11   -1    0    0    0    0  0.00000000000E+00  0.00000000000E+00  0.45593999997E+02  0.45594000000E+02  0.51100000000E-03 0. -1.
         11   -1    0    0    0    0 -0.00000000000E+00 -0.00000000000E+00 -0.45593999997E+02  0.45594000000E+02  0.51100000000E-03 0.  1.
    9900012    2    1    2    0    0 -0.49663443796E+01  0.13034427477E+02 -0.28673247955E+02  0.59302015235E+02  0.50000129864E+02 0.  0.
         12    1    1    2    0    0  0.49663443796E+01 -0.13034427477E+02  0.28673247955E+02  0.31885984765E+02  0.00000000000E+00 0. -1.
         11    1    3    3    0    0 -0.16927878181E+02  0.17400926936E+02 -0.80992312908E+01  0.25591851549E+02  0.51100000000E-03 0.  1.
        -11    1    3    3    0    0 -0.25831729777E+01  0.79182839573E+00 -0.17832742512E+02  0.18036254617E+02  0.51100000000E-03 0. -1.
         12    1    3    3    0    0  0.14544706779E+02 -0.51583278540E+01 -0.27412741523E+01  0.15673909069E+02  0.00000000000E+00 0. -1.
</event>
<event>
 7    1  0.7012292E-013  0.5930194E+02  0.7816164E-02  0.1266605E+00
        -11   -1    0    0    0    0  0.00000000000E+00  0.00000000000E+00  0.45593999997E+02  0.45594000000E+02  0.51100000000E-03 0.  1.
         11   -1    0    0    0    0 -0.00000000000E+00 -0.00000000000E+00 -0.45593999997E+02  0.45594000000E+02  0.51100000000E-03 0. -1.
    9900012    2    1    2    0    0  0.25886853191E+02 -0.16108873099E+02  0.93325300671E+01  0.59301935989E+02  0.49999985339E+02 0.  0.
         12    1    1    2    0    0 -0.25886853191E+02  0.16108873099E+02 -0.93325300671E+01  0.31886064011E+02  0.00000000000E+00 0. -1.
         11    1    3    3    0    0  0.26414482566E+00  0.70530916680E+01 -0.42869976663E+01  0.82579794029E+01  0.51100000000E-03 0. -1.
        -11    1    3    3    0    0  0.17659579031E+02  0.25643237949E+01  0.16054169837E+02  0.24003600927E+02  0.51100000000E-03 0.  1.
        -12    1    3    3    0    0  0.79631293342E+01 -0.25726288562E+02 -0.24346421032E+01  0.27040355659E+02  0.00000000000E+00 0.  1.
</event>
<event>
 7    1  0.7012292E-013  0.5930194E+02  0.7816164E-02  0.1266605E+00
        -11   -1    0    0    0    0  0.00000000000E+00  0.00000000000E+00  0.45593999997E+02  0.45594000000E+02  0.51100000000E-03 0. -1.
         11   -1    0    0    0    0 -0.00000000000E+00 -0.00000000000E+00 -0.45593999997E+02  0.45594000000E+02  0.51100000000E-03 0.  1.
    9900012    2    1    2    0    0  0.16056383927E+02 -0.15049564778E+02 -0.23074313784E+02  0.59301940014E+02  0.49999992679E+02 0.  0.
         12    1    1    2    0    0 -0.16056383927E+02  0.15049564778E+02  0.23074313784E+02  0.31886059986E+02  0.00000000000E+00 0. -1.
         11    1    3    3    0    0  0.13476348710E+02 -0.58489804733E+01  0.17961859375E+01  0.14800298352E+02  0.51100000000E-03 0. -1.
        -11    1    3    3    0    0  0.15459282036E+02 -0.20858687766E+01  0.61406613440E-02  0.15599368179E+02  0.51100000000E-03 0.  1.
        -12    1    3    3    0    0 -0.12879246819E+02 -0.71147155285E+01 -0.24876640383E+02  0.28902273482E+02  0.00000000000E+00 0.  1.
</event>
<event>
 7    1  0.7012292E-013  0.5930195E+02  0.7816164E-02  0.1266605E+00
        -11   -1    0    0    0    0  0.00000000000E+00  0.00000000000E+00  0.45593999997E+02  0.45594000000E+02  0.51100000000E-03 0.  1.
         11   -1    0    0    0    0 -0.00000000000E+00 -0.00000000000E+00 -0.45593999997E+02  0.45594000000E+02  0.51100000000E-03 0. -1.
    9900012    2    1    2    0    0  0.71736449497E+01 -0.31017494670E+02  0.17816143261E+01  0.59301948080E+02  0.50000007390E+02 0.  0.
         12    1    1    2    0    0 -0.71736449497E+01  0.31017494670E+02 -0.17816143261E+01  0.31886051920E+02  0.00000000000E+00 0. -1.
         11    1    3    3    0    0  0.68480641754E+01  0.43566623254E+00  0.28545861278E+01  0.74319883099E+01  0.51100000000E-03 0. -1.
        -11    1    3    3    0    0  0.20461426514E+01  0.96436258658E+01  0.35504107163E+01  0.10478150414E+02  0.51100000000E-03 0.  1.
        -12    1    3    3    0    0 -0.17205618772E+01 -0.41096786768E+02 -0.46233825180E+01  0.41391809356E+02  0.00000000000E+00 0.  1.
</event>
<event>
 7    1  0.7012292E-013  0.5930194E+02  0.7816164E-02  0.1266605E+00
        -11   -1    0    0    0    0  0.00000000000E+00  0.00000000000E+00  0.45593999997E+02  0.45594000000E+02  0.51100000000E-03 0.  1.
         11   -1    0    0    0    0 -0.00000000000E+00 -0.00000000000E+00 -0.45593999997E+02  0.45594000000E+02  0.51100000000E-03 0. -1.
    9900012    2    1    2    0    0  0.23119712724E+02  0.53968196279E+01  0.21285529949E+02  0.59301944055E+02  0.50000000049E+02 0.  0.
         12    1    1    2    0    0 -0.23119712724E+02 -0.53968196279E+01 -0.21285529949E+02  0.31886055945E+02  0.00000000000E+00 0. -1.
         11    1    3    3    0    0  0.14668590092E+02 -0.12616981699E+02  0.17304252063E+01  0.19425502160E+02  0.51100000000E-03 0. -1.
        -11    1    3    3    0    0  0.14151133850E+02  0.66751227336E+01 -0.10446335971E+01  0.15681298172E+02  0.51100000000E-03 0.  1.
        -12    1    3    3    0    0 -0.57000112179E+01  0.11338678594E+02  0.20599738340E+02  0.24195143723E+02  0.00000000000E+00 0.  1.
</event>
<event>
 7    1  0.7012292E-013  0.5930202E+02  0.7816164E-02  0.1266604E+00
        -11   -1    0    0    0    0  0.00000000000E+00  0.00000000000E+00  0.45593999997E+02  0.45594000000E+02  0.51100000000E-03 0. -1.
         11   -1    0    0    0    0 -0.00000000000E+00 -0.00000000000E+00 -0.45593999997E+02  0.45594000000E+02  0.51100000000E-03 0.  1.
    9900012    2    1    2    0    0 -0.86191123418E+01  0.31443870937E+01 -0.30537504704E+02  0.59302024065E+02  0.50000145969E+02 0.  0.
         12    1    1    2    0    0  0.86191123418E+01 -0.31443870937E+01  0.30537504704E+02  0.31885975935E+02  0.00000000000E+00 0. -1.
         11    1    3    3    0    0 -0.45370465548E+01 -0.16773386650E+02 -0.42898220608E+01  0.17897873190E+02  0.51100000000E-03 0. -1.
        -11    1    3    3    0    0  0.57354578575E+01 -0.11655944628E+01 -0.13879121322E+02  0.15062672280E+02  0.51100000000E-03 0.  1.
         12    1    3    3    0    0 -0.98175236446E+01  0.21083368206E+02 -0.12368561321E+02  0.26341478595E+02  0.00000000000E+00 0. -1.
</event>
<event>
 7    1  0.7012292E-013  0.5930195E+02  0.7816164E-02  0.1266605E+00
        -11   -1    0    0    0    0  0.00000000000E+00  0.00000000000E+00  0.45593999997E+02  0.45594000000E+02  0.51100000000E-03 0. -1.
         11   -1    0    0    0    0 -0.00000000000E+00 -0.00000000000E+00 -0.45593999997E+02  0.45594000000E+02  0.51100000000E-03 0.  1.
    9900012    2    1    2    0    0 -0.16560143630E+02  0.11823693012E+02 -0.24549582218E+02  0.59301951945E+02  0.50000014440E+02 0.  0.
         12    1    1    2    0    0  0.16560143630E+02 -0.11823693012E+02  0.24549582218E+02  0.31886048055E+02  0.00000000000E+00 0. -1.
         11    1    3    3    0    0 -0.35505524899E+00 -0.75685174973E+01  0.19890823368E+01  0.78335796504E+01  0.51100000000E-03 0. -1.
        -11    1    3    3    0    0 -0.42317989001E+01 -0.86583263211E+01 -0.16948938621E+02  0.19497211525E+02  0.51100000000E-03 0.  1.
        -12    1    3    3    0    0 -0.11973289481E+02  0.28050536830E+02 -0.95897259330E+01  0.31971160769E+02  0.00000000000E+00 0.  1.
</event>
<event>
 7    1  0.7012292E-013  0.5930194E+02  0.7816164E-02  0.1266605E+00
        -11   -1    0    0    0    0  0.00000000000E+00  0.00000000000E+00  0.45593999997E+02  0.45594000000E+02  0.51100000000E-03 0. -1.
         11   -1    0    0    0    0 -0.00000000000E+00 -0.00000000000E+00 -0.45593999997E+02  0.45594000000E+02  0.51100000000E-03 0.  1.
    9900012    2    1    2    0    0  0.24327461720E+02  0.20481212738E+02 -0.23270578374E+01  0.59301942434E+02  0.49999997093E+02 0.  0.
         12    1    1    2    0    0 -0.24327461720E+02 -0.20481212738E+02  0.23270578374E+01  0.31886057566E+02  0.00000000000E+00 0. -1.
         11    1    3    3    0    0  0.92823440591E+01 -0.10150475336E+02 -0.14871510601E-01  0.13754791246E+02  0.51100000000E-03 0. -1.
        -11    1    3    3    0    0  0.22198215045E+02  0.14474030175E+02  0.39648975686E+01  0.26795124812E+02  0.51100000000E-03 0.  1.
         12    1    3    3    0    0 -0.71530973849E+01  0.16157657899E+02 -0.62770838953E+01  0.18752026376E+02  0.00000000000E+00 0. -1.
</event>
<event>
 7    1  0.7012292E-013  0.5930195E+02  0.7816164E-02  0.1266605E+00
        -11   -1    0    0    0    0  0.00000000000E+00  0.00000000000E+00  0.45593999997E+02  0.45594000000E+02  0.51100000000E-03 0.  1.
         11   -1    0    0    0    0 -0.00000000000E+00 -0.00000000000E+00 -0.45593999997E+02  0.45594000000E+02  0.51100000000E-03 0. -1.
    9900012    2    1    2    0    0  0.29775160625E+01 -0.23724137368E+02  0.21095497267E+02  0.59301948179E+02  0.50000007571E+02 0.  0.
         12    1    1    2    0    0 -0.29775160625E+01  0.23724137368E+02 -0.21095497267E+02  0.31886051821E+02  0.00000000000E+00 0. -1.
         11    1    3    3    0    0  0.45500403454E+01  0.24838752765E+01  0.17400339597E+01  0.54681095432E+01  0.51100000000E-03 0. -1.
        -11    1    3    3    0    0  0.15289199495E+02  0.34792416790E+01  0.93506927342E+01  0.18256511133E+02  0.51100000000E-03 0.  1.
         12    1    3    3    0    0 -0.16861723778E+02 -0.29687254324E+02  0.10004770573E+02  0.35577327503E+02  0.00000000000E+00 0. -1.
</event>
<event>
 7    1  0.9798983E-013  0.5930196E+02  0.7816164E-02  0.1266605E+00
        -11   -1    0    0    0    0  0.00000000000E+00  0.00000000000E+00  0.45593999997E+02  0.45594000000E+02  0.51100000000E-03 0. -1.
         11   -1    0    0    0    0 -0.00000000000E+00 -0.00000000000E+00 -0.45593999997E+02  0.45594000000E+02  0.51100000000E-03 0.  1.
    9900012    2    1    2    0    0  0.30702143428E+02 -0.80679154795E+01 -0.30011553653E+01  0.59301955956E+02  0.50000021754E+02 0.  0.
         12    1    1    2    0    0 -0.30702143428E+02  0.80679154795E+01  0.30011553653E+01  0.31886044044E+02  0.00000000000E+00 0. -1.
         11    1    3    3    0    0 -0.19519017569E+01 -0.76759983226E+01 -0.76912595764E+01  0.11040214891E+02  0.51100000000E-03 0. -1.
        -11    1    3    3    0    0  0.15040243950E+02 -0.10770531237E+02  0.16382426797E+02  0.24710264856E+02  0.51100000000E-03 0.  1.
         12    1    3    3    0    0  0.17613801234E+02  0.10378614080E+02 -0.11692322586E+02  0.23551476209E+02  0.00000000000E+00 0. -1.
</event>
<event>
 7    1  0.7012292E-013  0.5930193E+02  0.7816164E-02  0.1266605E+00
        -11   -1    0    0    0    0  0.00000000000E+00  0.00000000000E+00  0.45593999997E+02  0.45594000000E+02  0.51100000000E-03 0. -1.
         11   -1    0    0    0    0 -0.00000000000E+00 -0.00000000000E+00 -0.45593999997E+02  0.45594000000E+02  0.51100000000E-03 0.  1.
    9900012    2    1    2    0    0  0.17971555495E+02  0.49423554411E+01 -0.25871171973E+02  0.59301933710E+02  0.49999981183E+02 0.  0.
         12    1    1    2    0    0 -0.17971555495E+02 -0.49423554411E+01  0.25871171973E+02  0.31886066290E+02  0.00000000000E+00 0. -1.
         11    1    3    3    0    0 -0.55056105019E+01  0.11346664042E+02  0.19366536975E+01  0.12759669263E+02  0.51100000000E-03 0. -1.
        -11    1    3    3    0    0  0.49198465621E+01 -0.73041384299E+01 -0.26491091173E+02  0.27916540620E+02  0.51100000000E-03 0.  1.
        -12    1    3    3    0    0  0.18557319435E+02  0.89982982856E+00 -0.13167344970E+01  0.18625723827E+02  0.00000000000E+00 0.  1.
</event>
<event>
 7    1  0.7012292E-013  0.5930196E+02  0.7816164E-02  0.1266605E+00
        -11   -1    0    0    0    0  0.00000000000E+00  0.00000000000E+00  0.45593999997E+02  0.45594000000E+02  0.51100000000E-03 0.  1.
         11   -1    0    0    0    0 -0.00000000000E+00 -0.00000000000E+00 -0.45593999997E+02  0.45594000000E+02  0.51100000000E-03 0. -1.
    9900012    2    1    2    0    0  0.15377756898E+02  0.21103013085E+02  0.18300470739E+02  0.59301956067E+02  0.50000021956E+02 0.  0.
         12    1    1    2    0    0 -0.15377756898E+02 -0.21103013085E+02 -0.18300470739E+02  0.31886043933E+02  0.00000000000E+00 0. -1.
         11    1    3    3    0    0  0.61787709704E+01  0.19442782983E+02 -0.16123452536E+01  0.20464571296E+02  0.51100000000E-03 0. -1.
        -11    1    3    3    0    0  0.69351024963E+01 -0.16356331833E+01 -0.79576628984E+01  0.10681542099E+02  0.51100000000E-03 0.  1.
        -12    1    3    3    0    0  0.22638834311E+01  0.32958632845E+01  0.27870478891E+02  0.28155842672E+02  0.00000000000E+00 0.  1.
</event>
<event>
 7    1  0.7012292E-013  0.5930194E+02  0.7816164E-02  0.1266605E+00
        -11   -1    0    0    0    0  0.00000000000E+00  0.00000000000E+00  0.45593999997E+02  0.45594000000E+02  0.51100000000E-03 0.  1.
         11   -1    0    0    0    0 -0.00000000000E+00 -0.00000000000E+00 -0.45593999997E+02  0.45594000000E+02  0.51100000000E-03 0. -1.
    9900012    2    1    2    0    0  0.41347606397E+01 -0.24012434733E+02  0.20567631405E+02  0.59301941464E+02  0.49999995324E+02 0.  0.
         12    1    1    2    0    0 -0.41347606397E+01  0.24012434733E+02 -0.20567631405E+02  0.31886058536E+02  0.00000000000E+00 0. -1.
         11    1    3    3    0    0 -0.58363822137E+01 -0.66442485671E+00  0.23600210133E+02  0.24320253624E+02  0.51100000000E-03 0. -1.
        -11    1    3    3    0    0  0.65493301061E+01 -0.12784591965E+02  0.10266784012E+02  0.17656340809E+02  0.51100000000E-03 0.  1.
         12    1    3    3    0    0  0.34218127472E+01 -0.10563417911E+02 -0.13299362740E+02  0.17325347031E+02  0.00000000000E+00 0. -1.
</event>
<event>
 7    1  0.7012292E-013  0.5930194E+02  0.7816164E-02  0.1266605E+00
        -11   -1    0    0    0    0  0.00000000000E+00  0.00000000000E+00  0.45593999997E+02  0.45594000000E+02  0.51100000000E-03 0. -1.
         11   -1    0    0    0    0 -0.00000000000E+00 -0.00000000000E+00 -0.45593999997E+02  0.45594000000E+02  0.51100000000E-03 0.  1.
    9900012    2    1    2    0    0  0.16189889011E+02  0.22645891131E+02 -0.15549025443E+02  0.59301935904E+02  0.49999985184E+02 0.  0.
         12    1    1    2    0    0 -0.16189889011E+02 -0.22645891131E+02  0.15549025443E+02  0.31886064096E+02  0.00000000000E+00 0. -1.
         11    1    3    3    0    0  0.14628133165E+01  0.23993359183E+02  0.66416708560E+01  0.24938582552E+02  0.51100000000E-03 0. -1.
        -11    1    3    3    0    0 -0.54851882610E+01 -0.21199069466E+01 -0.64889909968E+01  0.87571856289E+01  0.51100000000E-03 0.  1.
         12    1    3    3    0    0  0.20212263956E+02  0.77243889501E+00 -0.15701705302E+02  0.25606167723E+02  0.00000000000E+00 0. -1.
</event>
<event>
 7    1  0.7012292E-013  0.5930196E+02  0.7816164E-02  0.1266605E+00
        -11   -1    0    0    0    0  0.00000000000E+00  0.00000000000E+00  0.45593999997E+02  0.45594000000E+02  0.51100000000E-03 0. -1.
         11   -1    0    0    0    0 -0.00000000000E+00 -0.00000000000E+00 -0.45593999997E+02  0.45594000000E+02  0.51100000000E-03 0.  1.
    9900012    2    1    2    0    0  0.68042663415E+01  0.47738602558E+01 -0.30783633127E+02  0.59301955236E+02  0.50000020441E+02 0.  0.
         12    1    1    2    0    0 -0.68042663415E+01 -0.47738602558E+01  0.30783633127E+02  0.31886044764E+02  0.00000000000E+00 0. -1.
         11    1    3    3    0    0  0.21095045177E+01  0.20040945435E+02 -0.70971871995E+01  0.21364914454E+02  0.51100000000E-03 0. -1.
        -11    1    3    3    0    0 -0.10335010986E+02 -0.55315115060E+01 -0.90542614099E+01  0.14811810205E+02  0.51100000000E-03 0.  1.
         12    1    3    3    0    0  0.15029772810E+02 -0.97355736728E+01 -0.14632184518E+02  0.23125230576E+02  0.00000000000E+00 0. -1.
</event>
<event>
 7    1  0.7012292E-013  0.5930193E+02  0.7816164E-02  0.1266605E+00
        -11   -1    0    0    0    0  0.00000000000E+00  0.00000000000E+00  0.45593999997E+02  0.45594000000E+02  0.51100000000E-03 0. -1.
         11   -1    0    0    0    0 -0.00000000000E+00 -0.00000000000E+00 -0.45593999997E+02  0.45594000000E+02  0.51100000000E-03 0.  1.
    9900012    2    1    2    0    0 -0.24488139905E+02  0.95106836131E+01  0.18072054621E+02  0.59301933184E+02  0.49999980223E+02 0.  0.
         12    1    1    2    0    0  0.24488139905E+02 -0.95106836131E+01 -0.18072054621E+02  0.31886066816E+02  0.00000000000E+00 0. -1.
         11    1    3    3    0    0 -0.21525587348E+02  0.78624015095E+01 -0.19160947658E+01  0.22996514684E+02  0.51100000000E-03 0. -1.
        -11    1    3    3    0    0 -0.52021379286E+01 -0.90137427887E+01 -0.30298810325E+01  0.10839279377E+02  0.51100000000E-03 0.  1.
         12    1    3    3    0    0  0.22395853717E+01  0.10662024892E+02  0.23018030419E+02  0.25466139123E+02  0.00000000000E+00 0. -1.
</event>
<event>
 7    1  0.7012292E-013  0.5930193E+02  0.7816164E-02  0.1266605E+00
        -11   -1    0    0    0    0  0.00000000000E+00  0.00000000000E+00  0.45593999997E+02  0.45594000000E+02  0.51100000000E-03 0. -1.
         11   -1    0    0    0    0 -0.00000000000E+00 -0.00000000000E+00 -0.45593999997E+02  0.45594000000E+02  0.51100000000E-03 0.  1.
    9900012    2    1    2    0    0  0.59296030203E+01 -0.30631297412E+02 -0.65791038703E+01  0.59301934377E+02  0.49999982400E+02 0.  0.
         12    1    1    2    0    0 -0.59296030203E+01  0.30631297412E+02  0.65791038703E+01  0.31886065623E+02  0.00000000000E+00 0. -1.
         11    1    3    3    0    0  0.64273990490E+01  0.77088217727E+00  0.79274054398E+01  0.10234719104E+02  0.51100000000E-03 0. -1.
        -11    1    3    3    0    0  0.88241893170E+01 -0.16667301035E+02  0.80939208330E+01  0.20522592322E+02  0.51100000000E-03 0.  1.
        -12    1    3    3    0    0 -0.93219853458E+01 -0.14734878555E+02 -0.22600430143E+02  0.28544622952E+02  0.00000000000E+00 0.  1.
</event>
<event>
 7    1  0.7012292E-013  0.5930182E+02  0.7816164E-02  0.1266605E+00
        -11   -1    0    0    0    0  0.00000000000E+00  0.00000000000E+00  0.45593999997E+02  0.45594000000E+02  0.51100000000E-03 0.  1.
         11   -1    0    0    0    0 -0.00000000000E+00 -0.00000000000E+00 -0.45593999997E+02  0.45594000000E+02  0.51100000000E-03 0. -1.
    9900012    2    1    2    0    0  0.19504505867E+02 -0.60860987497E+01  0.24479834385E+02  0.59301817435E+02  0.49999769124E+02 0.  0.
         12    1    1    2    0    0 -0.19504505867E+02  0.60860987497E+01 -0.24479834385E+02  0.31886182565E+02  0.00000000000E+00 0. -1.
         11    1    3    3    0    0  0.10325408921E+02  0.11382801662E+02  0.30087645526E+02  0.33785331975E+02  0.51100000000E-03 0. -1.
        -11    1    3    3    0    0 -0.38206473550E+01 -0.19185297897E+01  0.60359869041E+00  0.43176885489E+01  0.51100000000E-03 0.  1.
         12    1    3    3    0    0  0.12999744301E+02 -0.15550370622E+02 -0.62114098321E+01  0.21198796911E+02  0.00000000000E+00 0. -1.
</event>
<event>
 7    1  0.7012292E-013  0.5930195E+02  0.7816164E-02  0.1266605E+00
        -11   -1    0    0    0    0  0.00000000000E+00  0.00000000000E+00  0.45593999997E+02  0.45594000000E+02  0.51100000000E-03 0.  1.
         11   -1    0    0    0    0 -0.00000000000E+00 -0.00000000000E+00 -0.45593999997E+02  0.45594000000E+02  0.51100000000E-03 0. -1.
    9900012    2    1    2    0    0  0.29902930227E+02 -0.10836964234E+02 -0.22572959025E+01  0.59301946391E+02  0.50000004309E+02 0.  0.
         12    1    1    2    0    0 -0.29902930227E+02  0.10836964234E+02  0.22572959025E+01  0.31886053609E+02  0.00000000000E+00 0. -1.
         11    1    3    3    0    0 -0.22776640331E+01 -0.12528090943E+02  0.50809726590E+00  0.12743585807E+02  0.51100000000E-03 0. -1.
        -11    1    3    3    0    0  0.58438325385E+00  0.72448936090E+01  0.97171979303E+01  0.12134822746E+02  0.51100000000E-03 0.  1.
         12    1    3    3    0    0  0.31596211007E+02 -0.55537668998E+01 -0.12482591099E+02  0.34423537838E+02  0.00000000000E+00 0. -1.
</event>
<event>
 7    1  0.7012292E-013  0.5930198E+02  0.7816164E-02  0.1266605E+00
        -11   -1    0    0    0    0  0.00000000000E+00  0.00000000000E+00  0.45593999997E+02  0.45594000000E+02  0.51100000000E-03 0. -1.
         11   -1    0    0    0    0 -0.00000000000E+00 -0.00000000000E+00 -0.45593999997E+02  0.45594000000E+02  0.51100000000E-03 0.  1.
    9900012    2    1    2    0    0 -0.23155272931E+02 -0.21920843171E+02 -0.16836934403E+00  0.59301978328E+02  0.50000062555E+02 0.  0.
         12    1    1    2    0    0  0.23155272931E+02  0.21920843171E+02  0.16836934403E+00  0.31886021672E+02  0.00000000000E+00 0. -1.
         11    1    3    3    0    0  0.10193756764E+01 -0.27829387549E+02 -0.21098814321E+01  0.27927863113E+02  0.51100000000E-03 0. -1.
        -11    1    3    3    0    0 -0.89942110430E+00 -0.43764529841E+01 -0.30935821057E+01  0.54343858486E+01  0.51100000000E-03 0.  1.
         12    1    3    3    0    0 -0.23275227503E+02  0.10284997363E+02  0.50350941938E+01  0.25939729367E+02  0.00000000000E+00 0. -1.
</event>
<event>
 7    1  0.7012292E-013  0.5930196E+02  0.7816164E-02  0.1266605E+00
        -11   -1    0    0    0    0  0.00000000000E+00  0.00000000000E+00  0.45593999997E+02  0.45594000000E+02  0.51100000000E-03 0. -1.
         11   -1    0    0    0    0 -0.00000000000E+00 -0.00000000000E+00 -0.45593999997E+02  0.45594000000E+02  0.51100000000E-03 0.  1.
    9900012    2    1    2    0    0 -0.24749409159E+02 -0.11995189317E+02  0.16133873667E+02  0.59301957599E+02  0.50000024751E+02 0.  0.
         12    1    1    2    0    0  0.24749409159E+02  0.11995189317E+02 -0.16133873667E+02  0.31886042401E+02  0.00000000000E+00 0. -1.
         11    1    3    3    0    0 -0.70899871220E+01 -0.25038722942E+02  0.12312430130E+02  0.28788912795E+02  0.51100000000E-03 0.  1.
        -11    1    3    3    0    0  0.68611085458E+00  0.59266544670E+01  0.84063158008E+01  0.10308352287E+02  0.51100000000E-03 0. -1.
        -12    1    3    3    0    0 -0.18345532892E+02  0.71168791583E+01 -0.45848722630E+01  0.20204692517E+02  0.00000000000E+00 0.  1.
</event>
<event>
 7    1  0.7012292E-013  0.5930153E+02  0.7816164E-02  0.1266606E+00
        -11   -1    0    0    0    0  0.00000000000E+00  0.00000000000E+00  0.45593999997E+02  0.45594000000E+02  0.51100000000E-03 0. -1.
         11   -1    0    0    0    0 -0.00000000000E+00 -0.00000000000E+00 -0.45593999997E+02  0.45594000000E+02  0.51100000000E-03 0.  1.
    9900012    2    1    2    0    0  0.13049612830E+02  0.59144233996E+00 -0.29087876588E+02  0.59301533224E+02  0.49999250787E+02 0.  0.
         12    1    1    2    0    0 -0.13049612830E+02 -0.59144233996E+00  0.29087876588E+02  0.31886466776E+02  0.00000000000E+00 0. -1.
         11    1    3    3    0    0 -0.90603770688E-01 -0.39002721782E+01  0.10305497112E+02  0.11019237864E+02  0.51100000000E-03 0. -1.
        -11    1    3    3    0    0  0.12628867872E+01  0.42694621220E+01  0.22422877832E+01  0.49850822072E+01  0.51100000000E-03 0.  1.
        -12    1    3    3    0    0  0.11877329814E+02  0.22225239617E+00 -0.41635661483E+02  0.43297213153E+02  0.00000000000E+00 0.  1.
</event>
<event>
 7    1  0.7012292E-013  0.5930197E+02  0.7816164E-02  0.1266605E+00
        -11   -1    0    0    0    0  0.00000000000E+00  0.00000000000E+00  0.45593999997E+02  0.45594000000E+02  0.51100000000E-03 0. -1.
         11   -1    0    0    0    0 -0.00000000000E+00 -0.00000000000E+00 -0.45593999997E+02  0.45594000000E+02  0.51100000000E-03 0.  1.
    9900012    2    1    2    0    0  0.55404496719E+01  0.26892178935E+02 -0.16212116859E+02  0.59301974793E+02  0.50000056109E+02 0.  0.
         12    1    1    2    0    0 -0.55404496719E+01 -0.26892178935E+02  0.16212116859E+02  0.31886025207E+02  0.00000000000E+00 0. -1.
         11    1    3    3    0    0  0.14552380604E+01 -0.38966926114E+01 -0.55560958063E+01  0.69406146695E+01  0.51100000000E-03 0. -1.
        -11    1    3    3    0    0  0.13640521035E+02  0.26987108397E+02 -0.21739281733E+02  0.37241968319E+02  0.51100000000E-03 0.  1.
        -12    1    3    3    0    0 -0.95553094235E+01  0.38017631494E+01  0.11083260681E+02  0.15119391805E+02  0.00000000000E+00 0.  1.
</event>
<event>
 7    1  0.7012292E-013  0.5930194E+02  0.7816164E-02  0.1266605E+00
        -11   -1    0    0    0    0  0.00000000000E+00  0.00000000000E+00  0.45593999997E+02  0.45594000000E+02  0.51100000000E-03 0. -1.
         11   -1    0    0    0    0 -0.00000000000E+00 -0.00000000000E+00 -0.45593999997E+02  0.45594000000E+02  0.51100000000E-03 0.  1.
    9900012    2    1    2    0    0 -0.75905934212E+01 -0.29594187301E+02 -0.91262077710E+01  0.59301941937E+02  0.49999996188E+02 0.  0.
         12    1    1    2    0    0  0.75905934212E+01  0.29594187301E+02  0.91262077710E+01  0.31886058063E+02  0.00000000000E+00 0. -1.
         11    1    3    3    0    0 -0.14661052102E+02 -0.14773497976E+02 -0.23847416894E+01  0.20949694135E+02  0.51100000000E-03 0. -1.
        -11    1    3    3    0    0  0.12364204510E+01 -0.15590805845E+02  0.11352333795E+02  0.19325564552E+02  0.51100000000E-03 0.  1.
        -12    1    3    3    0    0  0.58340382297E+01  0.77011651966E+00 -0.18093799876E+02  0.19026683250E+02  0.00000000000E+00 0.  1.
</event>
<event>
 7    1  0.7012292E-013  0.5930195E+02  0.7816164E-02  0.1266605E+00
        -11   -1    0    0    0    0  0.00000000000E+00  0.00000000000E+00  0.45593999997E+02  0.45594000000E+02  0.51100000000E-03 0. -1.
         11   -1    0    0    0    0 -0.00000000000E+00 -0.00000000000E+00 -0.45593999997E+02  0.45594000000E+02  0.51100000000E-03 0.  1.
    9900012    2    1    2    0    0  0.11021777149E+01  0.21893544535E+02 -0.23155523128E+02  0.59301947574E+02  0.50000006467E+02 0.  0.
         12    1    1    2    0    0 -0.11021777149E+01 -0.21893544535E+02  0.23155523128E+02  0.31886052426E+02  0.00000000000E+00 0. -1.
         11    1    3    3    0    0  0.12247456534E+01  0.32035877153E+01 -0.64302786831E+00  0.34894786524E+01  0.51100000000E-03 0. -1.
        -11    1    3    3    0    0  0.22955736782E+02  0.15517523079E+02 -0.10804817568E+02  0.29740602829E+02  0.51100000000E-03 0.  1.
        -12    1    3    3    0    0 -0.23078304720E+02  0.31724337407E+01 -0.11707677691E+02  0.26071866092E+02  0.00000000000E+00 0.  1.
</event>
<event>
 7    1  0.7012292E-013  0.5930194E+02  0.7816164E-02  0.1266605E+00
        -11   -1    0    0    0    0  0.00000000000E+00  0.00000000000E+00  0.45593999997E+02  0.45594000000E+02  0.51100000000E-03 0.  1.
         11   -1    0    0    0    0 -0.00000000000E+00 -0.00000000000E+00 -0.45593999997E+02  0.45594000000E+02  0.51100000000E-03 0. -1.
    9900012    2    1    2    0    0 -0.78805242363E+01 -0.96419671954E+01  0.29353881660E+02  0.59301944080E+02  0.50000000095E+02 0.  0.
         12    1    1    2    0    0  0.78805242363E+01  0.96419671954E+01 -0.29353881660E+02  0.31886055920E+02  0.00000000000E+00 0. -1.
         11    1    3    3    0    0 -0.84155862063E+01  0.89920539207E+01  0.15496263342E+02  0.19794274493E+02  0.51100000000E-03 0. -1.
        -11    1    3    3    0    0 -0.36423272227E+01 -0.11222594600E+02  0.23714160358E+02  0.26487253140E+02  0.51100000000E-03 0.  1.
         12    1    3    3    0    0  0.41773891928E+01 -0.74114265160E+01 -0.98565420397E+01  0.13020416447E+02  0.00000000000E+00 0. -1.
</event>
<event>
 7    1  0.7012292E-013  0.5930198E+02  0.7816164E-02  0.1266605E+00
        -11   -1    0    0    0    0  0.00000000000E+00  0.00000000000E+00  0.45593999997E+02  0.45594000000E+02  0.51100000000E-03 0.  1.
         11   -1    0    0    0    0 -0.00000000000E+00 -0.00000000000E+00 -0.45593999997E+02  0.45594000000E+02  0.51100000000E-03 0. -1.
    9900012    2    1    2    0    0 -0.26312463448E+02 -0.17550516966E+02 -0.40437408927E+01  0.59301980825E+02  0.50000067109E+02 0.  0.
         12    1    1    2    0    0  0.26312463448E+02  0.17550516966E+02  0.40437408927E+01  0.31886019175E+02  0.00000000000E+00 0. -1.
         11    1    3    3    0    0  0.35901942965E+01 -0.16645324419E+02  0.95497512114E+01  0.19523167482E+02  0.51100000000E-03 0. -1.
        -11    1    3    3    0    0 -0.32157109202E+01 -0.79472241870E+01  0.87199960071E+00  0.86173982480E+01  0.51100000000E-03 0.  1.
         12    1    3    3    0    0 -0.26686946824E+02  0.70420316400E+01 -0.14465491705E+02  0.31161415094E+02  0.00000000000E+00 0. -1.
</event>
<event>
 7    1  0.7012292E-013  0.5930154E+02  0.7816164E-02  0.1266606E+00
        -11   -1    0    0    0    0  0.00000000000E+00  0.00000000000E+00  0.45593999997E+02  0.45594000000E+02  0.51100000000E-03 0.  1.
         11   -1    0    0    0    0 -0.00000000000E+00 -0.00000000000E+00 -0.45593999997E+02  0.45594000000E+02  0.51100000000E-03 0. -1.
    9900012    2    1    2    0    0  0.26420687596E+02 -0.13601422323E+02  0.11562656810E+02  0.59301538064E+02  0.49999259615E+02 0.  0.
         12    1    1    2    0    0 -0.26420687596E+02  0.13601422323E+02 -0.11562656810E+02  0.31886461936E+02  0.00000000000E+00 0. -1.
         11    1    3    3    0    0  0.11310040024E+02 -0.73356039546E+01  0.12043222270E+01  0.13534344573E+02  0.51100000000E-03 0. -1.
        -11    1    3    3    0    0  0.68496951763E+01 -0.23755264241E+02  0.23566986856E+01  0.24835155166E+02  0.51100000000E-03 0.  1.
         12    1    3    3    0    0  0.82609523956E+01  0.17489445873E+02  0.80016358974E+01  0.20932038325E+02  0.00000000000E+00 0. -1.
</event>
<event>
 7    1  0.7012292E-013  0.5930196E+02  0.7816164E-02  0.1266605E+00
        -11   -1    0    0    0    0  0.00000000000E+00  0.00000000000E+00  0.45593999997E+02  0.45594000000E+02  0.51100000000E-03 0.  1.
         11   -1    0    0    0    0 -0.00000000000E+00 -0.00000000000E+00 -0.45593999997E+02  0.45594000000E+02  0.51100000000E-03 0. -1.
    9900012    2    1    2    0    0  0.24682908787E+02  0.19079738028E+02  0.65906966044E+01  0.59301958052E+02  0.50000025576E+02 0.  0.
         12    1    1    2    0    0 -0.24682908787E+02 -0.19079738028E+02 -0.65906966044E+01  0.31886041948E+02  0.00000000000E+00 0. -1.
         11    1    3    3    0    0  0.15360218547E+02  0.28893276752E+02 -0.98243028054E+01  0.34165401815E+02  0.51100000000E-03 0. -1.
        -11    1    3    3    0    0 -0.47143870488E+00 -0.67816606166E+01  0.13770698734E+01  0.69361009846E+01  0.51100000000E-03 0.  1.
        -12    1    3    3    0    0  0.97941289453E+01 -0.30318781077E+01  0.15037929537E+02  0.18200455253E+02  0.00000000000E+00 0.  1.
</event>
<event>
 7    1  0.7012292E-013  0.5930193E+02  0.7816164E-02  0.1266605E+00
        -11   -1    0    0    0    0  0.00000000000E+00  0.00000000000E+00  0.45593999997E+02  0.45594000000E+02  0.51100000000E-03 0.  1.
         11   -1    0    0    0    0 -0.00000000000E+00 -0.00000000000E+00 -0.45593999997E+02  0.45594000000E+02  0.51100000000E-03 0. -1.
    9900012    2    1    2    0    0 -0.16352882674E+02  0.10600151378E+01  0.27352900762E+02  0.59301928057E+02  0.49999970874E+02 0.  0.
         12    1    1    2    0    0  0.16352882674E+02 -0.10600151378E+01 -0.27352900762E+02  0.31886071943E+02  0.00000000000E+00 0. -1.
         11    1    3    3    0    0 -0.10706972584E+02  0.75306026262E+01  0.10380345501E+02  0.16706310508E+02  0.51100000000E-03 0. -1.
        -11    1    3    3    0    0 -0.20813178536E+02 -0.83774665457E+01  0.15433521045E+02  0.27231671241E+02  0.51100000000E-03 0.  1.
         12    1    3    3    0    0  0.15167268445E+02  0.19068790573E+01  0.15390342160E+01  0.15363946308E+02  0.00000000000E+00 0. -1.
</event>
<event>
 7    1  0.7012292E-013  0.5930200E+02  0.7816164E-02  0.1266605E+00
        -11   -1    0    0    0    0  0.00000000000E+00  0.00000000000E+00  0.45593999997E+02  0.45594000000E+02  0.51100000000E-03 0. -1.
         11   -1    0    0    0    0 -0.00000000000E+00 -0.00000000000E+00 -0.45593999997E+02  0.45594000000E+02  0.51100000000E-03 0.  1.
    9900012    2    1    2    0    0 -0.67932133262E+01 -0.12054525035E+02 -0.28727302137E+02  0.59301996657E+02  0.50000095983E+02 0.  0.
         12    1    1    2    0    0  0.67932133262E+01  0.12054525035E+02  0.28727302137E+02  0.31886003343E+02  0.00000000000E+00 0. -1.
         11    1    3    3    0    0 -0.70674530948E+01  0.12255995634E+02 -0.84184570862E+01  0.16462950592E+02  0.51100000000E-03 0. -1.
        -11    1    3    3    0    0 -0.33993535465E+01  0.55452166365E+01 -0.80670987472E+01  0.10362582426E+02  0.51100000000E-03 0.  1.
        -12    1    3    3    0    0  0.36735933152E+01 -0.29855737306E+02 -0.12241746304E+02  0.32476463639E+02  0.00000000000E+00 0.  1.
</event>
<event>
 7    1  0.7012292E-013  0.5930195E+02  0.7816164E-02  0.1266605E+00
        -11   -1    0    0    0    0  0.00000000000E+00  0.00000000000E+00  0.45593999997E+02  0.45594000000E+02  0.51100000000E-03 0. -1.
         11   -1    0    0    0    0 -0.00000000000E+00 -0.00000000000E+00 -0.45593999997E+02  0.45594000000E+02  0.51100000000E-03 0.  1.
    9900012    2    1    2    0    0  0.12329132338E+01  0.21887844669E+02 -0.23154311014E+02  0.59301953870E+02  0.50000017949E+02 0.  0.
         12    1    1    2    0    0 -0.12329132338E+01 -0.21887844669E+02  0.23154311014E+02  0.31886046130E+02  0.00000000000E+00 0. -1.
         11    1    3    3    0    0  0.14876213613E+02  0.16560992198E+02 -0.17361096967E+02  0.28230761276E+02  0.51100000000E-03 0. -1.
        -11    1    3    3    0    0 -0.10234851514E+02  0.63835896593E+01 -0.16126731316E+02  0.20138864557E+02  0.51100000000E-03 0.  1.
         12    1    3    3    0    0 -0.34084488653E+01 -0.10567371889E+01  0.10333517269E+02  0.10932328037E+02  0.00000000000E+00 0. -1.
</event>
<event>
 7    1  0.7012292E-013  0.5930194E+02  0.7816164E-02  0.1266605E+00
        -11   -1    0    0    0    0  0.00000000000E+00  0.00000000000E+00  0.45593999997E+02  0.45594000000E+02  0.51100000000E-03 0. -1.
         11   -1    0    0    0    0 -0.00000000000E+00 -0.00000000000E+00 -0.45593999997E+02  0.45594000000E+02  0.51100000000E-03 0.  1.
    9900012    2    1    2    0    0 -0.24557607328E+02 -0.41845596056E+00 -0.20333949089E+02  0.59301942410E+02  0.49999997050E+02 0.  0.
         12    1    1    2    0    0  0.24557607328E+02  0.41845596056E+00  0.20333949089E+02  0.31886057590E+02  0.00000000000E+00 0. -1.
         11    1    3    3    0    0 -0.21717803714E+02  0.66371989453E+01 -0.23690266597E+02  0.32816827082E+02  0.51100000000E-03 0. -1.
        -11    1    3    3    0    0 -0.48685791040E+01 -0.70019029307E+00 -0.10228975079E+02  0.11350121602E+02  0.51100000000E-03 0.  1.
        -12    1    3    3    0    0  0.20287754907E+01 -0.63554646128E+01  0.13585292587E+02  0.15134993727E+02  0.00000000000E+00 0.  1.
</event>
<event>
 7    1  0.7012292E-013  0.5930189E+02  0.7816164E-02  0.1266605E+00
        -11   -1    0    0    0    0  0.00000000000E+00  0.00000000000E+00  0.45593999997E+02  0.45594000000E+02  0.51100000000E-03 0.  1.
         11   -1    0    0    0    0 -0.00000000000E+00 -0.00000000000E+00 -0.45593999997E+02  0.45594000000E+02  0.51100000000E-03 0. -1.
    9900012    2    1    2    0    0 -0.15705959307E+02 -0.35137810618E+00  0.27747497403E+02  0.59301886463E+02  0.49999895017E+02 0.  0.
         12    1    1    2    0    0  0.15705959307E+02  0.35137810618E+00 -0.27747497403E+02  0.31886113537E+02  0.00000000000E+00 0. -1.
         11    1    3    3    0    0 -0.16765661009E+02 -0.17414730447E+02  0.23263513370E+02  0.33549236656E+02  0.51100000000E-03 0.  1.
        -11    1    3    3    0    0 -0.85245405265E+01  0.56094279478E+01  0.34894977313E+01  0.10784714543E+02  0.51100000000E-03 0. -1.
         12    1    3    3    0    0  0.95842422279E+01  0.11453924393E+02  0.99448630172E+00  0.14967935265E+02  0.00000000000E+00 0. -1.
</event>
<event>
 7    1  0.7012292E-013  0.5930197E+02  0.7816164E-02  0.1266605E+00
        -11   -1    0    0    0    0  0.00000000000E+00  0.00000000000E+00  0.45593999997E+02  0.45594000000E+02  0.51100000000E-03 0. -1.
         11   -1    0    0    0    0 -0.00000000000E+00 -0.00000000000E+00 -0.45593999997E+02  0.45594000000E+02  0.51100000000E-03 0.  1.
    9900012    2    1    2    0    0  0.55918626726E+01 -0.70920536654E+01 -0.30580262464E+02  0.59301974759E+02  0.50000056046E+02 0.  0.
         12    1    1    2    0    0 -0.55918626726E+01  0.70920536654E+01  0.30580262464E+02  0.31886025241E+02  0.00000000000E+00 0. -1.
         11    1    3    3    0    0  0.81644973210E+01  0.75048564448E+01  0.34031429092E+01  0.11600140891E+02  0.51100000000E-03 0. -1.
        -11    1    3    3    0    0 -0.71978811437E+01 -0.34958987684E+01  0.32030085101E+01  0.86191684595E+01  0.51100000000E-03 0.  1.
        -12    1    3    3    0    0  0.46252464953E+01 -0.11101011342E+02 -0.37186413883E+02  0.39082665408E+02  0.00000000000E+00 0.  1.
</event>
<event>
 7    1  0.7012292E-013  0.5930196E+02  0.7816164E-02  0.1266605E+00
        -11   -1    0    0    0    0  0.00000000000E+00  0.00000000000E+00  0.45593999997E+02  0.45594000000E+02  0.51100000000E-03 0.  1.
         11   -1    0    0    0    0 -0.00000000000E+00 -0.00000000000E+00 -0.45593999997E+02  0.45594000000E+02  0.51100000000E-03 0. -1.
    9900012    2    1    2    0    0  0.25176874132E+02  0.11433532261E+02  0.15878260592E+02  0.59301955867E+02  0.50000021592E+02 0.  0.
         12    1    1    2    0    0 -0.25176874132E+02 -0.11433532261E+02 -0.15878260592E+02  0.31886044133E+02  0.00000000000E+00 0. -1.
         11    1    3    3    0    0  0.21907903630E+02  0.26134029810E+02 -0.19370210470E+01  0.34156929113E+02  0.51100000000E-03 0. -1.
        -11    1    3    3    0    0  0.32422862769E+01 -0.23743224876E+00  0.27132145432E+01  0.42344217779E+01  0.51100000000E-03 0.  1.
        -12    1    3    3    0    0  0.26684224906E-01 -0.14463065300E+02  0.15102067096E+02  0.20910604977E+02  0.00000000000E+00 0.  1.
</event>
<event>
 7    1  0.7012292E-013  0.5930195E+02  0.7816164E-02  0.1266605E+00
        -11   -1    0    0    0    0  0.00000000000E+00  0.00000000000E+00  0.45593999997E+02  0.45594000000E+02  0.51100000000E-03 0. -1.
         11   -1    0    0    0    0 -0.00000000000E+00 -0.00000000000E+00 -0.45593999997E+02  0.45594000000E+02  0.51100000000E-03 0.  1.
    9900012    2    1    2    0    0 -0.20054323028E+02  0.24321496134E+02  0.47967690417E+01  0.59301952275E+02  0.50000015040E+02 0.  0.
         12    1    1    2    0    0  0.20054323028E+02 -0.24321496134E+02 -0.47967690417E+01  0.31886047725E+02  0.00000000000E+00 0. -1.
         11    1    3    3    0    0 -0.44051278585E+00 -0.17246020673E+01  0.24864720550E+01  0.30579155231E+01  0.51100000000E-03 0. -1.
        -11    1    3    3    0    0 -0.89475874505E+01 -0.11867966490E+02 -0.59354438750E+01  0.16004294550E+02  0.51100000000E-03 0.  1.
         12    1    3    3    0    0 -0.10666222792E+02  0.37914064691E+02  0.82457408617E+01  0.40239742201E+02  0.00000000000E+00 0. -1.
</event>
<event>
 7    1  0.7012292E-013  0.5930188E+02  0.7816164E-02  0.1266605E+00
        -11   -1    0    0    0    0  0.00000000000E+00  0.00000000000E+00  0.45593999997E+02  0.45594000000E+02  0.51100000000E-03 0. -1.
         11   -1    0    0    0    0 -0.00000000000E+00 -0.00000000000E+00 -0.45593999997E+02  0.45594000000E+02  0.51100000000E-03 0.  1.
    9900012    2    1    2    0    0  0.15044630832E+02 -0.43180941366E+01 -0.27780173945E+02  0.59301875773E+02  0.49999875519E+02 0.  0.
         12    1    1    2    0    0 -0.15044630832E+02  0.43180941366E+01  0.27780173945E+02  0.31886124227E+02  0.00000000000E+00 0. -1.
         11    1    3    3    0    0 -0.89504445283E+01 -0.40743148476E+01 -0.91517553844E+01  0.13433730889E+02  0.51100000000E-03 0. -1.
        -11    1    3    3    0    0 -0.31817679562E+01  0.11743645454E+02 -0.63843213934E+01  0.13740320804E+02  0.51100000000E-03 0.  1.
        -12    1    3    3    0    0  0.27176843317E+02 -0.11987424743E+02 -0.12244097167E+02  0.32127824079E+02  0.00000000000E+00 0.  1.
</event>
<event>
 7    1  0.7012292E-013  0.5930191E+02  0.7816164E-02  0.1266605E+00
        -11   -1    0    0    0    0  0.00000000000E+00  0.00000000000E+00  0.45593999997E+02  0.45594000000E+02  0.51100000000E-03 0.  1.
         11   -1    0    0    0    0 -0.00000000000E+00 -0.00000000000E+00 -0.45593999997E+02  0.45594000000E+02  0.51100000000E-03 0. -1.
    9900012    2    1    2    0    0  0.20112709089E+02 -0.17890177711E+02  0.17092195504E+02  0.59301910987E+02  0.49999939741E+02 0.  0.
         12    1    1    2    0    0 -0.20112709089E+02  0.17890177711E+02 -0.17092195504E+02  0.31886089013E+02  0.00000000000E+00 0. -1.
         11    1    3    3    0    0 -0.52157181296E+01  0.52611063163E+01  0.16502972886E+01  0.75898904261E+01  0.51100000000E-03 0. -1.
        -11    1    3    3    0    0  0.82358643548E+01  0.92267138696E+01  0.67170040806E+01  0.14074084502E+02  0.51100000000E-03 0.  1.
         12    1    3    3    0    0  0.17092562864E+02 -0.32377997897E+02  0.87248941351E+01  0.37637936058E+02  0.00000000000E+00 0. -1.
</event>
<event>
 7    1  0.7012292E-013  0.5930195E+02  0.7816164E-02  0.1266605E+00
        -11   -1    0    0    0    0  0.00000000000E+00  0.00000000000E+00  0.45593999997E+02  0.45594000000E+02  0.51100000000E-03 0.  1.
         11   -1    0    0    0    0 -0.00000000000E+00 -0.00000000000E+00 -0.45593999997E+02  0.45594000000E+02  0.51100000000E-03 0. -1.
    9900012    2    1    2    0    0 -0.28837475282E+02  0.13549075327E+02 -0.12421629171E+01  0.59301946755E+02  0.50000004974E+02 0.  0.
         12    1    1    2    0    0  0.28837475282E+02 -0.13549075327E+02  0.12421629171E+01  0.31886053245E+02  0.00000000000E+00 0. -1.
         11    1    3    3    0    0 -0.21762693305E+02 -0.32415925784E+01  0.64812532597E+01  0.22937510467E+02  0.51100000000E-03 0. -1.
        -11    1    3    3    0    0  0.10335646366E+02  0.77698618344E+01  0.39795752462E+01  0.13528982154E+02  0.51100000000E-03 0.  1.
         12    1    3    3    0    0 -0.17410428343E+02  0.90208060708E+01 -0.11702991423E+02  0.22835454134E+02  0.00000000000E+00 0. -1.
</event>
<event>
 7    1  0.7012292E-013  0.5930190E+02  0.7816164E-02  0.1266605E+00
        -11   -1    0    0    0    0  0.00000000000E+00  0.00000000000E+00  0.45593999997E+02  0.45594000000E+02  0.51100000000E-03 0. -1.
         11   -1    0    0    0    0 -0.00000000000E+00 -0.00000000000E+00 -0.45593999997E+02  0.45594000000E+02  0.51100000000E-03 0.  1.
    9900012    2    1    2    0    0 -0.18814963569E+02 -0.14694181985E+02 -0.21137685483E+02  0.59301896665E+02  0.49999913622E+02 0.  0.
         12    1    1    2    0    0  0.18814963569E+02  0.14694181985E+02  0.21137685483E+02  0.31886103335E+02  0.00000000000E+00 0. -1.
         11    1    3    3    0    0  0.11676686177E+01  0.11059168475E+02 -0.79891248518E+01  0.13692873092E+02  0.51100000000E-03 0. -1.
        -11    1    3    3    0    0 -0.13429579145E+02  0.21866737250E+01  0.94048515518E+00  0.13638902103E+02  0.51100000000E-03 0.  1.
         12    1    3    3    0    0 -0.65530530411E+01 -0.27940024185E+02 -0.14089045787E+02  0.31970121470E+02  0.00000000000E+00 0. -1.
</event>
<event>
 7    1  0.7012292E-013  0.5930195E+02  0.7816164E-02  0.1266605E+00
        -11   -1    0    0    0    0  0.00000000000E+00  0.00000000000E+00  0.45593999997E+02  0.45594000000E+02  0.51100000000E-03 0.  1.
         11   -1    0    0    0    0 -0.00000000000E+00 -0.00000000000E+00 -0.45593999997E+02  0.45594000000E+02  0.51100000000E-03 0. -1.
    9900012    2    1    2    0    0 -0.24324925113E+02 -0.10398418387E+02  0.17801440978E+02  0.59301946817E+02  0.50000005086E+02 0.  0.
         12    1    1    2    0    0  0.24324925113E+02  0.10398418387E+02 -0.17801440978E+02  0.31886053183E+02  0.00000000000E+00 0. -1.
         11    1    3    3    0    0  0.21248863608E+01 -0.29134860107E+01  0.12224360283E+02  0.12745137401E+02  0.51100000000E-03 0. -1.
        -11    1    3    3    0    0  0.52615010350E+01 -0.11656308018E+02 -0.35926423336E+01  0.13283824334E+02  0.51100000000E-03 0.  1.
        -12    1    3    3    0    0 -0.31711312509E+02  0.41713756414E+01  0.91697230284E+01  0.33272985081E+02  0.00000000000E+00 0.  1.
</event>
<event>
 7    1  0.7012292E-013  0.5930196E+02  0.7816164E-02  0.1266605E+00
        -11   -1    0    0    0    0  0.00000000000E+00  0.00000000000E+00  0.45593999997E+02  0.45594000000E+02  0.51100000000E-03 0. -1.
         11   -1    0    0    0    0 -0.00000000000E+00 -0.00000000000E+00 -0.45593999997E+02  0.45594000000E+02  0.51100000000E-03 0.  1.
    9900012    2    1    2    0    0 -0.76748137106E+01  0.24457564472E+02 -0.18964291142E+02  0.59301959733E+02  0.50000028642E+02 0.  0.
         12    1    1    2    0    0  0.76748137106E+01 -0.24457564472E+02  0.18964291142E+02  0.31886040267E+02  0.00000000000E+00 0. -1.
         11    1    3    3    0    0 -0.18101420491E+02  0.11111553867E+02 -0.16719816695E+02  0.27031099195E+02  0.51100000000E-03 0. -1.
        -11    1    3    3    0    0  0.48840273771E+01 -0.67563821886E+01 -0.69966468429E+01  0.10883725971E+02  0.51100000000E-03 0.  1.
         12    1    3    3    0    0  0.55425794038E+01  0.20102392794E+02  0.47521723954E+01  0.21387134567E+02  0.00000000000E+00 0. -1.
</event>
<event>
 7    1  0.7012292E-013  0.5930198E+02  0.7816164E-02  0.1266605E+00
        -11   -1    0    0    0    0  0.00000000000E+00  0.00000000000E+00  0.45593999997E+02  0.45594000000E+02  0.51100000000E-03 0. -1.
         11   -1    0    0    0    0 -0.00000000000E+00 -0.00000000000E+00 -0.45593999997E+02  0.45594000000E+02  0.51100000000E-03 0.  1.
    9900012    2    1    2    0    0  0.13838766931E+02 -0.20650646166E+02 -0.19968920602E+02  0.59301977243E+02  0.50000060577E+02 0.  0.
         12    1    1    2    0    0 -0.13838766931E+02  0.20650646166E+02  0.19968920602E+02  0.31886022757E+02  0.00000000000E+00 0. -1.
         11    1    3    3    0    0 -0.36898937618E+01 -0.10706618299E+01  0.72384839756E+01  0.81949547438E+01  0.51100000000E-03 0. -1.
        -11    1    3    3    0    0 -0.50851086948E+01 -0.19862530209E+02 -0.10858782002E+02  0.23201111688E+02  0.51100000000E-03 0.  1.
        -12    1    3    3    0    0  0.22613769388E+02  0.28254587300E+00 -0.16348622575E+02  0.27905910811E+02  0.00000000000E+00 0.  1.
</event>
<event>
 7    1  0.7012292E-013  0.5930194E+02  0.7816164E-02  0.1266605E+00
        -11   -1    0    0    0    0  0.00000000000E+00  0.00000000000E+00  0.45593999997E+02  0.45594000000E+02  0.51100000000E-03 0.  1.
         11   -1    0    0    0    0 -0.00000000000E+00 -0.00000000000E+00 -0.45593999997E+02  0.45594000000E+02  0.51100000000E-03 0. -1.
    9900012    2    1    2    0    0  0.10157650905E+02 -0.20892194907E+02  0.21841689749E+02  0.59301935786E+02  0.49999984969E+02 0.  0.
         12    1    1    2    0    0 -0.10157650905E+02  0.20892194907E+02 -0.21841689749E+02  0.31886064214E+02  0.00000000000E+00 0. -1.
         11    1    3    3    0    0 -0.20098698894E+01 -0.40815670560E+01 -0.35288846250E+01  0.57577594221E+01  0.51100000000E-03 0. -1.
        -11    1    3    3    0    0  0.12811232997E+01 -0.29313282547E+02  0.21883915397E+02  0.36603491145E+02  0.51100000000E-03 0.  1.
        -12    1    3    3    0    0  0.10886397495E+02  0.12502654696E+02  0.34866589773E+01  0.16940685219E+02  0.00000000000E+00 0.  1.
</event>
<event>
 7    1  0.7012292E-013  0.5930195E+02  0.7816164E-02  0.1266605E+00
        -11   -1    0    0    0    0  0.00000000000E+00  0.00000000000E+00  0.45593999997E+02  0.45594000000E+02  0.51100000000E-03 0.  1.
         11   -1    0    0    0    0 -0.00000000000E+00 -0.00000000000E+00 -0.45593999997E+02  0.45594000000E+02  0.51100000000E-03 0. -1.
    9900012    2    1    2    0    0  0.74924647066E+01 -0.28754816547E+02  0.11564772413E+02  0.59301945634E+02  0.50000002930E+02 0.  0.
         12    1    1    2    0    0 -0.74924647066E+01  0.28754816547E+02 -0.11564772413E+02  0.31886054366E+02  0.00000000000E+00 0. -1.
         11    1    3    3    0    0 -0.83246352943E+00  0.19646453916E+01 -0.45620139602E+01  0.50363477518E+01  0.51100000000E-03 0. -1.
        -11    1    3    3    0    0 -0.30118361232E+01 -0.37720423176E+02  0.15602862973E+02  0.40931049517E+02  0.51100000000E-03 0.  1.
         12    1    3    3    0    0  0.11336764359E+02  0.70009612364E+01  0.52392340025E+00  0.13334548365E+02  0.00000000000E+00 0. -1.
</event>
<event>
 7    1  0.7012292E-013  0.5930195E+02  0.7816164E-02  0.1266605E+00
        -11   -1    0    0    0    0  0.00000000000E+00  0.00000000000E+00  0.45593999997E+02  0.45594000000E+02  0.51100000000E-03 0.  1.
         11   -1    0    0    0    0 -0.00000000000E+00 -0.00000000000E+00 -0.45593999997E+02  0.45594000000E+02  0.51100000000E-03 0. -1.
    9900012    2    1    2    0    0 -0.20173549676E+02 -0.12850228370E+02  0.21086012548E+02  0.59301946608E+02  0.50000004706E+02 0.  0.
         12    1    1    2    0    0  0.20173549676E+02  0.12850228370E+02 -0.21086012548E+02  0.31886053392E+02  0.00000000000E+00 0. -1.
         11    1    3    3    0    0 -0.46062235321E+01 -0.70932739105E+01  0.64791835733E+01  0.10654184626E+02  0.51100000000E-03 0. -1.
        -11    1    3    3    0    0  0.84296430436E-01 -0.20664053443E+02  0.17189713629E+02  0.26879294364E+02  0.51100000000E-03 0.  1.
         12    1    3    3    0    0 -0.15651622575E+02  0.14907098983E+02 -0.25828846546E+01  0.21768467619E+02  0.00000000000E+00 0. -1.
</event>
<event>
 7    1  0.7012292E-013  0.5930190E+02  0.7816164E-02  0.1266605E+00
        -11   -1    0    0    0    0  0.00000000000E+00  0.00000000000E+00  0.45593999997E+02  0.45594000000E+02  0.51100000000E-03 0.  1.
         11   -1    0    0    0    0 -0.00000000000E+00 -0.00000000000E+00 -0.45593999997E+02  0.45594000000E+02  0.51100000000E-03 0. -1.
    9900012    2    1    2    0    0  0.21698565747E+02 -0.22448044661E+02  0.64792509470E+01  0.59301903383E+02  0.49999925875E+02 0.  0.
         12    1    1    2    0    0 -0.21698565747E+02  0.22448044661E+02 -0.64792509470E+01  0.31886096617E+02  0.00000000000E+00 0. -1.
         11    1    3    3    0    0  0.11502791871E+02  0.83560986534E+01  0.10714558298E+02  0.17802819028E+02  0.51100000000E-03 0. -1.
        -11    1    3    3    0    0  0.54273239922E+01 -0.38651444952E+01 -0.11412828221E+02  0.13215439302E+02  0.51100000000E-03 0.  1.
        -12    1    3    3    0    0  0.47684498834E+01 -0.26938998820E+02  0.71775208697E+01  0.28283645054E+02  0.00000000000E+00 0.  1.
</event>
<event>
 7    1  0.7012292E-013  0.5930187E+02  0.7816164E-02  0.1266605E+00
        -11   -1    0    0    0    0  0.00000000000E+00  0.00000000000E+00  0.45593999997E+02  0.45594000000E+02  0.51100000000E-03 0.  1.
         11   -1    0    0    0    0 -0.00000000000E+00 -0.00000000000E+00 -0.45593999997E+02  0.45594000000E+02  0.51100000000E-03 0. -1.
    9900012    2    1    2    0    0 -0.25708235811E+01  0.18283587298E+02  0.25996669568E+02  0.59301866227E+02  0.49999858110E+02 0.  0.
         12    1    1    2    0    0  0.25708235811E+01 -0.18283587298E+02 -0.25996669568E+02  0.31886133773E+02  0.00000000000E+00 0. -1.
         11    1    3    3    0    0  0.14927416566E+01  0.60039268602E+01 -0.11830561065E+02  0.13350565185E+02  0.51100000000E-03 0. -1.
        -11    1    3    3    0    0 -0.97689707599E+01  0.58213242807E+01  0.57622039581E+01  0.12748474450E+02  0.51100000000E-03 0.  1.
        -12    1    3    3    0    0  0.57054055223E+01  0.64583361570E+01  0.32065026674E+02  0.33202826592E+02  0.00000000000E+00 0.  1.
</event>
<event>
 7    1  0.9426203E-013  0.5930195E+02  0.7816164E-02  0.1266605E+00
        -11   -1    0    0    0    0  0.00000000000E+00  0.00000000000E+00  0.45593999997E+02  0.45594000000E+02  0.51100000000E-03 0. -1.
         11   -1    0    0    0    0 -0.00000000000E+00 -0.00000000000E+00 -0.45593999997E+02  0.45594000000E+02  0.51100000000E-03 0.  1.
    9900012    2    1    2    0    0  0.12401975920E+01 -0.28229509014E+02 -0.14774194154E+02  0.59301951606E+02  0.50000013821E+02 0.  0.
         12    1    1    2    0    0 -0.12401975920E+01  0.28229509014E+02  0.14774194154E+02  0.31886048394E+02  0.00000000000E+00 0. -1.
         11    1    3    3    0    0  0.47060881955E+01 -0.24136568591E+02 -0.14864497911E+01  0.24635964415E+02  0.51100000000E-03 0. -1.
        -11    1    3    3    0    0 -0.83137168827E+01 -0.13372539040E+02 -0.17355368823E+02  0.23433982078E+02  0.51100000000E-03 0.  1.
         12    1    3    3    0    0  0.48478262792E+01  0.92795986160E+01  0.40676244602E+01  0.11232005113E+02  0.00000000000E+00 0. -1.
</event>
<event>
 7    1  0.7012292E-013  0.5930193E+02  0.7816164E-02  0.1266605E+00
        -11   -1    0    0    0    0  0.00000000000E+00  0.00000000000E+00  0.45593999997E+02  0.45594000000E+02  0.51100000000E-03 0.  1.
         11   -1    0    0    0    0 -0.00000000000E+00 -0.00000000000E+00 -0.45593999997E+02  0.45594000000E+02  0.51100000000E-03 0. -1.
    9900012    2    1    2    0    0 -0.19573501180E+02  0.19345702640E+02  0.16104136621E+02  0.59301931328E+02  0.49999976839E+02 0.  0.
         12    1    1    2    0    0  0.19573501180E+02 -0.19345702640E+02 -0.16104136621E+02  0.31886068672E+02  0.00000000000E+00 0. -1.
         11    1    3    3    0    0 -0.24798887508E+01 -0.24000973195E+01  0.18315526108E+01  0.39070321968E+01  0.51100000000E-03 0. -1.
        -11    1    3    3    0    0 -0.16414487552E+02 -0.47126439832E+01  0.21974154819E+02  0.27829981947E+02  0.51100000000E-03 0.  1.
         12    1    3    3    0    0 -0.67912487659E+00  0.26458443942E+02 -0.77015708089E+01  0.27564917184E+02  0.00000000000E+00 0. -1.
</event>
<event>
 7    1  0.7012292E-013  0.5930194E+02  0.7816164E-02  0.1266605E+00
        -11   -1    0    0    0    0  0.00000000000E+00  0.00000000000E+00  0.45593999997E+02  0.45594000000E+02  0.51100000000E-03 0. -1.
         11   -1    0    0    0    0 -0.00000000000E+00 -0.00000000000E+00 -0.45593999997E+02  0.45594000000E+02  0.51100000000E-03 0.  1.
    9900012    2    1    2    0    0 -0.14488532602E+02  0.18559256996E+02 -0.21502488443E+02  0.59301943385E+02  0.49999998828E+02 0.  0.
         12    1    1    2    0    0  0.14488532602E+02 -0.18559256996E+02  0.21502488443E+02  0.31886056615E+02  0.00000000000E+00 0. -1.
         11    1    3    3    0    0  0.28535114305E+01 -0.38627177376E+01 -0.10045447728E+01  0.49063455102E+01  0.51100000000E-03 0. -1.
        -11    1    3    3    0    0 -0.48611581848E+01  0.95558840483E+00  0.12298831428E+02  0.13259157698E+02  0.51100000000E-03 0.  1.
        -12    1    3    3    0    0 -0.12480885848E+02  0.21466386329E+02 -0.32796775098E+02  0.41136440177E+02  0.00000000000E+00 0.  1.
</event>
<event>
 7    1  0.7012292E-013  0.5930195E+02  0.7816164E-02  0.1266605E+00
        -11   -1    0    0    0    0  0.00000000000E+00  0.00000000000E+00  0.45593999997E+02  0.45594000000E+02  0.51100000000E-03 0. -1.
         11   -1    0    0    0    0 -0.00000000000E+00 -0.00000000000E+00 -0.45593999997E+02  0.45594000000E+02  0.51100000000E-03 0.  1.
    9900012    2    1    2    0    0 -0.18461745406E+02  0.23787386215E+02 -0.10490216663E+02  0.59301946120E+02  0.50000003816E+02 0.  0.
         12    1    1    2    0    0  0.18461745406E+02 -0.23787386215E+02  0.10490216663E+02  0.31886053880E+02  0.00000000000E+00 0. -1.
         11    1    3    3    0    0  0.48804674415E+01  0.17001991766E+02  0.50536262427E+01  0.18396353577E+02  0.51100000000E-03 0. -1.
        -11    1    3    3    0    0 -0.19534073536E+02  0.10696014590E+02  0.21639461792E+01  0.22375598771E+02  0.51100000000E-03 0.  1.
        -12    1    3    3    0    0 -0.38081393112E+01 -0.39106201412E+01 -0.17707789085E+02  0.18529993772E+02  0.00000000000E+00 0.  1.
</event>
<event>
 7    1  0.7012292E-013  0.5930192E+02  0.7816164E-02  0.1266605E+00
        -11   -1    0    0    0    0  0.00000000000E+00  0.00000000000E+00  0.45593999997E+02  0.45594000000E+02  0.51100000000E-03 0. -1.
         11   -1    0    0    0    0 -0.00000000000E+00 -0.00000000000E+00 -0.45593999997E+02  0.45594000000E+02  0.51100000000E-03 0.  1.
    9900012    2    1    2    0    0  0.13325084064E+02 -0.25554809154E+02 -0.13642438911E+02  0.59301917211E+02  0.49999951093E+02 0.  0.
         12    1    1    2    0    0 -0.13325084064E+02  0.25554809154E+02  0.13642438911E+02  0.31886082789E+02  0.00000000000E+00 0. -1.
         11    1    3    3    0    0  0.72892072955E+01  0.44595864012E+01  0.10205624265E+02  0.13310718266E+02  0.51100000000E-03 0. -1.
        -11    1    3    3    0    0  0.10195053826E+02 -0.58417919851E+01  0.44013854201E-01  0.11750216746E+02  0.51100000000E-03 0.  1.
        -12    1    3    3    0    0 -0.41591770573E+01 -0.24172603570E+02 -0.23892077029E+02  0.34240982199E+02  0.00000000000E+00 0.  1.
</event>
<event>
 7    1  0.7162775E-013  0.5930195E+02  0.7816164E-02  0.1266605E+00
        -11   -1    0    0    0    0  0.00000000000E+00  0.00000000000E+00  0.45593999997E+02  0.45594000000E+02  0.51100000000E-03 0. -1.
         11   -1    0    0    0    0 -0.00000000000E+00 -0.00000000000E+00 -0.45593999997E+02  0.45594000000E+02  0.51100000000E-03 0.  1.
    9900012    2    1    2    0    0 -0.87964499786E+01  0.13488147411E+01 -0.30619000889E+02  0.59301952129E+02  0.50000014774E+02 0.  0.
         12    1    1    2    0    0  0.87964499786E+01 -0.13488147411E+01  0.30619000889E+02  0.31886047871E+02  0.00000000000E+00 0. -1.
         11    1    3    3    0    0  0.65441209728E+01 -0.82502626916E+01 -0.53099837071E+01  0.11793569477E+02  0.51100000000E-03 0. -1.
        -11    1    3    3    0    0 -0.25418432517E+02  0.13426667667E+01 -0.22941762960E+02  0.34266951333E+02  0.51100000000E-03 0.  1.
         12    1    3    3    0    0  0.10077861565E+02  0.82564106660E+01 -0.23672542212E+01  0.13241431319E+02  0.00000000000E+00 0. -1.
</event>
<event>
 7    1  0.7012292E-013  0.5930193E+02  0.7816164E-02  0.1266605E+00
        -11   -1    0    0    0    0  0.00000000000E+00  0.00000000000E+00  0.45593999997E+02  0.45594000000E+02  0.51100000000E-03 0.  1.
         11   -1    0    0    0    0 -0.00000000000E+00 -0.00000000000E+00 -0.45593999997E+02  0.45594000000E+02  0.51100000000E-03 0. -1.
    9900012    2    1    2    0    0 -0.29706710954E+02 -0.76777349115E+00 -0.11560406569E+02  0.59301934832E+02  0.49999983229E+02 0.  0.
         12    1    1    2    0    0  0.29706710954E+02  0.76777349115E+00  0.11560406569E+02  0.31886065168E+02  0.00000000000E+00 0. -1.
         11    1    3    3    0    0 -0.62022859234E+01  0.10575789964E+02 -0.78252714757E+01  0.14544777687E+02  0.51100000000E-03 0. -1.
        -11    1    3    3    0    0 -0.26223912001E+02 -0.11389355860E+02 -0.15610355897E+02  0.32574440886E+02  0.51100000000E-03 0.  1.
        -12    1    3    3    0    0  0.27194869696E+01  0.45792404462E-01  0.11875220803E+02  0.12182716259E+02  0.00000000000E+00 0.  1.
</event>
<event>
 7    1  0.7012292E-013  0.5930194E+02  0.7816164E-02  0.1266605E+00
        -11   -1    0    0    0    0  0.00000000000E+00  0.00000000000E+00  0.45593999997E+02  0.45594000000E+02  0.51100000000E-03 0. -1.
         11   -1    0    0    0    0 -0.00000000000E+00 -0.00000000000E+00 -0.45593999997E+02  0.45594000000E+02  0.51100000000E-03 0.  1.
    9900012    2    1    2    0    0  0.18261961532E+02 -0.21109742668E+02 -0.15414283604E+02  0.59301943274E+02  0.49999998626E+02 0.  0.
         12    1    1    2    0    0 -0.18261961532E+02  0.21109742668E+02  0.15414283604E+02  0.31886056726E+02  0.00000000000E+00 0. -1.
         11    1    3    3    0    0  0.14134272731E+02 -0.85096777780E+01  0.12549469334E+01  0.16545911084E+02  0.51100000000E-03 0. -1.
        -11    1    3    3    0    0  0.15452681981E+02 -0.18419061166E+02 -0.32562209430E+01  0.24262113877E+02  0.51100000000E-03 0.  1.
        -12    1    3    3    0    0 -0.11324993181E+02  0.58189962766E+01 -0.13413009595E+02  0.18493918314E+02  0.00000000000E+00 0.  1.
</event>
<event>
 7    1  0.7012292E-013  0.5930193E+02  0.7816164E-02  0.1266605E+00
        -11   -1    0    0    0    0  0.00000000000E+00  0.00000000000E+00  0.45593999997E+02  0.45594000000E+02  0.51100000000E-03 0.  1.
         11   -1    0    0    0    0 -0.00000000000E+00 -0.00000000000E+00 -0.45593999997E+02  0.45594000000E+02  0.51100000000E-03 0. -1.
    9900012    2    1    2    0    0 -0.30900552673E+02  0.39863258050E+01 -0.67813142771E+01  0.59301934513E+02  0.49999982647E+02 0.  0.
         12    1    1    2    0    0  0.30900552673E+02 -0.39863258050E+01  0.67813142771E+01  0.31886065487E+02  0.00000000000E+00 0. -1.
         11    1    3    3    0    0 -0.22659178251E+02 -0.40154744291E+01  0.73406721855E+01  0.24154665435E+02  0.51100000000E-03 0. -1.
        -11    1    3    3    0    0 -0.15218710877E+02  0.22004415403E+01  0.30950659736E+01  0.15685360607E+02  0.51100000000E-03 0.  1.
         12    1    3    3    0    0  0.69773364548E+01  0.58013586939E+01 -0.17217052436E+02  0.19461908470E+02  0.00000000000E+00 0. -1.
</event>
<event>
 7    1  0.7012292E-013  0.5930189E+02  0.7816164E-02  0.1266605E+00
        -11   -1    0    0    0    0  0.00000000000E+00  0.00000000000E+00  0.45593999997E+02  0.45594000000E+02  0.51100000000E-03 0. -1.
         11   -1    0    0    0    0 -0.00000000000E+00 -0.00000000000E+00 -0.45593999997E+02  0.45594000000E+02  0.51100000000E-03 0.  1.
    9900012    2    1    2    0    0 -0.30520862783E+02 -0.91246629454E+01 -0.13934101193E+01  0.59301888123E+02  0.49999898043E+02 0.  0.
         12    1    1    2    0    0  0.30520862783E+02  0.91246629454E+01  0.13934101193E+01  0.31886111877E+02  0.00000000000E+00 0. -1.
         11    1    3    3    0    0  0.43768052582E+01  0.22937781241E+01  0.26885830568E+01  0.56255063297E+01  0.51100000000E-03 0. -1.
        -11    1    3    3    0    0 -0.63128850262E+01 -0.22012653500E+02 -0.36458468216E+01  0.23188394312E+02  0.51100000000E-03 0.  1.
        -12    1    3    3    0    0 -0.28584783015E+02  0.10594212430E+02 -0.43614635456E+00  0.30487987481E+02  0.00000000000E+00 0.  1.
</event>
<event>
 7    1  0.7012292E-013  0.5930191E+02  0.7816164E-02  0.1266605E+00
        -11   -1    0    0    0    0  0.00000000000E+00  0.00000000000E+00  0.45593999997E+02  0.45594000000E+02  0.51100000000E-03 0.  1.
         11   -1    0    0    0    0 -0.00000000000E+00 -0.00000000000E+00 -0.45593999997E+02  0.45594000000E+02  0.51100000000E-03 0. -1.
    9900012    2    1    2    0    0  0.25752728179E+02 -0.18119120232E+02 -0.50216802782E+01  0.59301908997E+02  0.49999936112E+02 0.  0.
         12    1    1    2    0    0 -0.25752728179E+02  0.18119120232E+02  0.50216802782E+01  0.31886091003E+02  0.00000000000E+00 0. -1.
         11    1    3    3    0    0  0.11031758790E+01 -0.47615926802E+01  0.65181185076E+01  0.81471240946E+01  0.51100000000E-03 0. -1.
        -11    1    3    3    0    0 -0.46750272972E+01 -0.14788310552E+02  0.63666383944E+01  0.16765562738E+02  0.51100000000E-03 0.  1.
        -12    1    3    3    0    0  0.29324579597E+02  0.14307830005E+01 -0.17906437180E+02  0.34389222164E+02  0.00000000000E+00 0.  1.
</event>
<event>
 7    1  0.7012292E-013  0.5930193E+02  0.7816164E-02  0.1266605E+00
        -11   -1    0    0    0    0  0.00000000000E+00  0.00000000000E+00  0.45593999997E+02  0.45594000000E+02  0.51100000000E-03 0.  1.
         11   -1    0    0    0    0 -0.00000000000E+00 -0.00000000000E+00 -0.45593999997E+02  0.45594000000E+02  0.51100000000E-03 0. -1.
    9900012    2    1    2    0    0 -0.24642285236E+02  0.20046267625E+01  0.20136052103E+02  0.59301931814E+02  0.49999977724E+02 0.  0.
         12    1    1    2    0    0  0.24642285236E+02 -0.20046267625E+01 -0.20136052103E+02  0.31886068186E+02  0.00000000000E+00 0. -1.
         11    1    3    3    0    0  0.68638922188E+01 -0.85431327005E+01  0.22344678524E+01  0.11184407878E+02  0.51100000000E-03 0. -1.
        -11    1    3    3    0    0 -0.24920313886E+01 -0.90490402720E+01  0.17008073185E+01  0.95387680589E+01  0.51100000000E-03 0.  1.
         12    1    3    3    0    0 -0.29014146066E+02  0.19596799735E+02  0.16200776932E+02  0.38578755877E+02  0.00000000000E+00 0. -1.
</event>
<event>
 7    1  0.7012292E-013  0.5930200E+02  0.7816164E-02  0.1266605E+00
        -11   -1    0    0    0    0  0.00000000000E+00  0.00000000000E+00  0.45593999997E+02  0.45594000000E+02  0.51100000000E-03 0. -1.
         11   -1    0    0    0    0 -0.00000000000E+00 -0.00000000000E+00 -0.45593999997E+02  0.45594000000E+02  0.51100000000E-03 0.  1.
    9900012    2    1    2    0    0 -0.13122267429E+02 -0.23406760835E+02 -0.17223439922E+02  0.59301996205E+02  0.50000095159E+02 0.  0.
         12    1    1    2    0    0  0.13122267429E+02  0.23406760835E+02  0.17223439922E+02  0.31886003795E+02  0.00000000000E+00 0. -1.
         11    1    3    3    0    0  0.98155969992E+01 -0.14775067317E+01 -0.11357401500E+02  0.15083750850E+02  0.51100000000E-03 0.  1.
        -11    1    3    3    0    0 -0.12219019228E+02 -0.24099798277E+02  0.64170581436E+01  0.27771988466E+02  0.51100000000E-03 0. -1.
         12    1    3    3    0    0 -0.10718845200E+02  0.21705441738E+01 -0.12283096565E+02  0.16446256889E+02  0.00000000000E+00 0. -1.
</event>
<event>
 7    1  0.7012292E-013  0.5930190E+02  0.7816164E-02  0.1266605E+00
        -11   -1    0    0    0    0  0.00000000000E+00  0.00000000000E+00  0.45593999997E+02  0.45594000000E+02  0.51100000000E-03 0.  1.
         11   -1    0    0    0    0 -0.00000000000E+00 -0.00000000000E+00 -0.45593999997E+02  0.45594000000E+02  0.51100000000E-03 0. -1.
    9900012    2    1    2    0    0  0.17953680719E+02  0.90453703414E+01  0.24750157116E+02  0.59301895609E+02  0.49999911697E+02 0.  0.
         12    1    1    2    0    0 -0.17953680719E+02 -0.90453703414E+01 -0.24750157116E+02  0.31886104391E+02  0.00000000000E+00 0. -1.
         11    1    3    3    0    0 -0.14871378407E+00  0.10297540690E+02  0.11759943946E+01  0.10365540175E+02  0.51100000000E-03 0. -1.
        -11    1    3    3    0    0 -0.93426541905E+01 -0.10049811878E+02  0.47853202870E+01  0.14532143566E+02  0.51100000000E-03 0.  1.
         12    1    3    3    0    0  0.27445048693E+02  0.87976415297E+01  0.18788842434E+02  0.34404211868E+02  0.00000000000E+00 0. -1.
</event>
<event>
 7    1  0.7012292E-013  0.5930190E+02  0.7816164E-02  0.1266605E+00
        -11   -1    0    0    0    0  0.00000000000E+00  0.00000000000E+00  0.45593999997E+02  0.45594000000E+02  0.51100000000E-03 0.  1.
         11   -1    0    0    0    0 -0.00000000000E+00 -0.00000000000E+00 -0.45593999997E+02  0.45594000000E+02  0.51100000000E-03 0. -1.
    9900012    2    1    2    0    0  0.25897135955E+02 -0.91254491831E+01  0.16210736793E+02  0.59301898626E+02  0.49999917198E+02 0.  0.
         12    1    1    2    0    0 -0.25897135955E+02  0.91254491831E+01 -0.16210736793E+02  0.31886101374E+02  0.00000000000E+00 0. -1.
         11    1    3    3    0    0  0.85965754708E+00  0.56046379734E+01  0.12365571174E+02  0.13603614543E+02  0.51100000000E-03 0. -1.
        -11    1    3    3    0    0 -0.23275139478E+01  0.42566893915E+01 -0.88188136495E+01  0.10065197474E+02  0.51100000000E-03 0.  1.
        -12    1    3    3    0    0  0.27364992356E+02 -0.18986776548E+02  0.12663979268E+02  0.35633086608E+02  0.00000000000E+00 0.  1.
</event>
<event>
 7    1  0.7012292E-013  0.5930195E+02  0.7816164E-02  0.1266605E+00
        -11   -1    0    0    0    0  0.00000000000E+00  0.00000000000E+00  0.45593999997E+02  0.45594000000E+02  0.51100000000E-03 0.  1.
         11   -1    0    0    0    0 -0.00000000000E+00 -0.00000000000E+00 -0.45593999997E+02  0.45594000000E+02  0.51100000000E-03 0. -1.
    9900012    2    1    2    0    0 -0.10961987294E+02  0.17028935667E+01  0.29894067563E+02  0.59301948388E+02  0.50000007952E+02 0.  0.
         12    1    1    2    0    0  0.10961987294E+02 -0.17028935667E+01 -0.29894067563E+02  0.31886051612E+02  0.00000000000E+00 0. -1.
         11    1    3    3    0    0  0.67798383236E+01  0.80395400347E+01  0.46269343094E+01  0.11489514047E+02  0.51100000000E-03 0. -1.
        -11    1    3    3    0    0 -0.71007648313E+01  0.12084234642E+02  0.22291657037E+02  0.26331873495E+02  0.51100000000E-03 0.  1.
         12    1    3    3    0    0 -0.10641060786E+02 -0.18420881110E+02  0.29754762170E+01  0.21480560846E+02  0.00000000000E+00 0. -1.
</event>
<event>
 7    1  0.7012292E-013  0.5930194E+02  0.7816164E-02  0.1266605E+00
        -11   -1    0    0    0    0  0.00000000000E+00  0.00000000000E+00  0.45593999997E+02  0.45594000000E+02  0.51100000000E-03 0.  1.
         11   -1    0    0    0    0 -0.00000000000E+00 -0.00000000000E+00 -0.45593999997E+02  0.45594000000E+02  0.51100000000E-03 0. -1.
    9900012    2    1    2    0    0  0.12326550431E+02  0.25023897776E+01  0.29300427545E+02  0.59301939496E+02  0.49999991735E+02 0.  0.
         12    1    1    2    0    0 -0.12326550431E+02 -0.25023897776E+01 -0.29300427545E+02  0.31886060504E+02  0.00000000000E+00 0. -1.
         11    1    3    3    0    0  0.11588600097E+02 -0.99847221597E+01  0.20151134531E+02  0.25299378490E+02  0.51100000000E-03 0. -1.
        -11    1    3    3    0    0  0.18970461648E+01 -0.51947008520E+01  0.14478528078E+02  0.15498757261E+02  0.51100000000E-03 0.  1.
         12    1    3    3    0    0 -0.11590958307E+01  0.17681812789E+02 -0.53292350631E+01  0.18503803745E+02  0.00000000000E+00 0. -1.
</event>
<event>
 7    1  0.7012292E-013  0.5930195E+02  0.7816164E-02  0.1266605E+00
        -11   -1    0    0    0    0  0.00000000000E+00  0.00000000000E+00  0.45593999997E+02  0.45594000000E+02  0.51100000000E-03 0. -1.
         11   -1    0    0    0    0 -0.00000000000E+00 -0.00000000000E+00 -0.45593999997E+02  0.45594000000E+02  0.51100000000E-03 0.  1.
    9900012    2    1    2    0    0  0.11207893592E+02 -0.29100855365E+02  0.66516018697E+01  0.59301945538E+02  0.50000002755E+02 0.  0.
         12    1    1    2    0    0 -0.11207893592E+02  0.29100855365E+02 -0.66516018697E+01  0.31886054462E+02  0.00000000000E+00 0. -1.
         11    1    3    3    0    0  0.24434544682E+02 -0.18396803169E+02  0.15226889631E+02  0.34166467607E+02  0.51100000000E-03 0. -1.
        -11    1    3    3    0    0  0.45334849553E+00 -0.98919546860E+01 -0.30750637594E+01  0.10368814289E+02  0.51100000000E-03 0.  1.
        -12    1    3    3    0    0 -0.13679999586E+02 -0.81209750946E+00 -0.55002240021E+01  0.14766663642E+02  0.00000000000E+00 0.  1.
</event>
<event>
 7    1  0.7012292E-013  0.5930195E+02  0.7816164E-02  0.1266605E+00
        -11   -1    0    0    0    0  0.00000000000E+00  0.00000000000E+00  0.45593999997E+02  0.45594000000E+02  0.51100000000E-03 0.  1.
         11   -1    0    0    0    0 -0.00000000000E+00 -0.00000000000E+00 -0.45593999997E+02  0.45594000000E+02  0.51100000000E-03 0. -1.
    9900012    2    1    2    0    0  0.19908607155E+02  0.87770453740E+01  0.23309462752E+02  0.59301949475E+02  0.50000009934E+02 0.  0.
         12    1    1    2    0    0 -0.19908607155E+02 -0.87770453740E+01 -0.23309462752E+02  0.31886050525E+02  0.00000000000E+00 0. -1.
         11    1    3    3    0    0  0.18316287507E+02 -0.47166169761E+01  0.60669468162E+01  0.19863048801E+02  0.51100000000E-03 0. -1.
        -11    1    3    3    0    0  0.11635867236E+02 -0.62737985842E+01  0.77141540069E+01  0.15305624042E+02  0.51100000000E-03 0.  1.
         12    1    3    3    0    0 -0.10043547588E+02  0.19767460934E+02  0.95283619287E+01  0.24133276632E+02  0.00000000000E+00 0. -1.
</event>
<event>
 7    1  0.7012292E-013  0.5930194E+02  0.7816164E-02  0.1266605E+00
        -11   -1    0    0    0    0  0.00000000000E+00  0.00000000000E+00  0.45593999997E+02  0.45594000000E+02  0.51100000000E-03 0. -1.
         11   -1    0    0    0    0 -0.00000000000E+00 -0.00000000000E+00 -0.45593999997E+02  0.45594000000E+02  0.51100000000E-03 0.  1.
    9900012    2    1    2    0    0 -0.27742575944E+02 -0.15497888583E+02  0.26240328769E+01  0.59301943188E+02  0.49999998468E+02 0.  0.
         12    1    1    2    0    0  0.27742575944E+02  0.15497888583E+02 -0.26240328769E+01  0.31886056812E+02  0.00000000000E+00 0. -1.
         11    1    3    3    0    0  0.54999401944E+01  0.91615186407E+00 -0.69267180906E+00  0.56185826395E+01  0.51100000000E-03 0. -1.
        -11    1    3    3    0    0  0.31190000096E+01  0.41195070610E+01  0.10130784122E+02  0.11372391422E+02  0.51100000000E-03 0.  1.
         12    1    3    3    0    0 -0.36361516148E+02 -0.20533547508E+02 -0.68140794357E+01  0.42310969126E+02  0.00000000000E+00 0. -1.
</event>
<event>
 7    1  0.7012292E-013  0.5930194E+02  0.7816164E-02  0.1266605E+00
        -11   -1    0    0    0    0  0.00000000000E+00  0.00000000000E+00  0.45593999997E+02  0.45594000000E+02  0.51100000000E-03 0.  1.
         11   -1    0    0    0    0 -0.00000000000E+00 -0.00000000000E+00 -0.45593999997E+02  0.45594000000E+02  0.51100000000E-03 0. -1.
    9900012    2    1    2    0    0  0.30011700637E+02  0.65924149198E+01  0.85181228482E+01  0.59301944640E+02  0.50000001116E+02 0.  0.
         12    1    1    2    0    0 -0.30011700637E+02 -0.65924149198E+01 -0.85181228482E+01  0.31886055360E+02  0.00000000000E+00 0. -1.
         11    1    3    3    0    0 -0.51981317044E+00 -0.76081805096E+01 -0.41901069018E+01  0.87012420095E+01  0.51100000000E-03 0. -1.
        -11    1    3    3    0    0  0.25158167790E+02 -0.62867651411E+01  0.13832891308E+02  0.29390571698E+02  0.51100000000E-03 0.  1.
         12    1    3    3    0    0  0.53733460169E+01  0.20487360570E+02 -0.11246615582E+01  0.21210130933E+02  0.00000000000E+00 0. -1.
</event>
<event>
 7    1  0.7012292E-013  0.5930191E+02  0.7816164E-02  0.1266605E+00
        -11   -1    0    0    0    0  0.00000000000E+00  0.00000000000E+00  0.45593999997E+02  0.45594000000E+02  0.51100000000E-03 0. -1.
         11   -1    0    0    0    0 -0.00000000000E+00 -0.00000000000E+00 -0.45593999997E+02  0.45594000000E+02  0.51100000000E-03 0.  1.
    9900012    2    1    2    0    0 -0.17656621566E+02  0.65169118790E+01 -0.25738997869E+02  0.59301914683E+02  0.49999946482E+02 0.  0.
         12    1    1    2    0    0  0.17656621566E+02 -0.65169118790E+01  0.25738997869E+02  0.31886085317E+02  0.00000000000E+00 0. -1.
         11    1    3    3    0    0 -0.74665750424E+01  0.99937644198E+01 -0.17072700695E+02  0.21144790834E+02  0.51100000000E-03 0. -1.
        -11    1    3    3    0    0  0.89102143806E+01 -0.88616808059E+01 -0.12743909608E+02  0.17897724419E+02  0.51100000000E-03 0.  1.
         12    1    3    3    0    0 -0.19100260905E+02  0.53848282652E+01  0.40776124346E+01  0.20259399429E+02  0.00000000000E+00 0. -1.
</event>
<event>
 7    1  0.7012292E-013  0.5930196E+02  0.7816164E-02  0.1266605E+00
        -11   -1    0    0    0    0  0.00000000000E+00  0.00000000000E+00  0.45593999997E+02  0.45594000000E+02  0.51100000000E-03 0.  1.
         11   -1    0    0    0    0 -0.00000000000E+00 -0.00000000000E+00 -0.45593999997E+02  0.45594000000E+02  0.51100000000E-03 0. -1.
    9900012    2    1    2    0    0 -0.18991130249E+02  0.80953660102E+01  0.24300644817E+02  0.59301963597E+02  0.50000035690E+02 0.  0.
         12    1    1    2    0    0  0.18991130249E+02 -0.80953660102E+01 -0.24300644817E+02  0.31886036403E+02  0.00000000000E+00 0. -1.
         11    1    3    3    0    0 -0.22637942020E+01 -0.10661416020E+02  0.26378703527E+02  0.28541663507E+02  0.51100000000E-03 0. -1.
        -11    1    3    3    0    0  0.28206531223E+01 -0.22318240518E+00  0.16259025498E+01  0.32633500862E+01  0.51100000000E-03 0.  1.
        -12    1    3    3    0    0 -0.19547989169E+02  0.18979964435E+02 -0.37039612597E+01  0.27496950004E+02  0.00000000000E+00 0.  1.
</event>
<event>
 7    1  0.7012292E-013  0.5930198E+02  0.7816164E-02  0.1266605E+00
        -11   -1    0    0    0    0  0.00000000000E+00  0.00000000000E+00  0.45593999997E+02  0.45594000000E+02  0.51100000000E-03 0.  1.
         11   -1    0    0    0    0 -0.00000000000E+00 -0.00000000000E+00 -0.45593999997E+02  0.45594000000E+02  0.51100000000E-03 0. -1.
    9900012    2    1    2    0    0  0.19141637189E+02 -0.64298312559E+01  0.24677383406E+02  0.59301980242E+02  0.50000066046E+02 0.  0.
         12    1    1    2    0    0 -0.19141637189E+02  0.64298312559E+01 -0.24677383406E+02  0.31886019758E+02  0.00000000000E+00 0. -1.
         11    1    3    3    0    0 -0.88887838576E+01 -0.15209674019E+02  0.14508920134E+02  0.22822213432E+02  0.51100000000E-03 0. -1.
        -11    1    3    3    0    0  0.11893763440E+02  0.97368938600E+01  0.12923117177E+02  0.20081724742E+02  0.51100000000E-03 0.  1.
        -12    1    3    3    0    0  0.16136657607E+02 -0.95705109726E+00 -0.27546539048E+01  0.16398042068E+02  0.00000000000E+00 0.  1.
</event>
<event>
 7    1  0.7012292E-013  0.5930194E+02  0.7816164E-02  0.1266605E+00
        -11   -1    0    0    0    0  0.00000000000E+00  0.00000000000E+00  0.45593999997E+02  0.45594000000E+02  0.51100000000E-03 0. -1.
         11   -1    0    0    0    0 -0.00000000000E+00 -0.00000000000E+00 -0.45593999997E+02  0.45594000000E+02  0.51100000000E-03 0.  1.
    9900012    2    1    2    0    0 -0.10721791294E+02  0.16116808558E+02 -0.25337965498E+02  0.59301940001E+02  0.49999992657E+02 0.  0.
         12    1    1    2    0    0  0.10721791294E+02 -0.16116808558E+02  0.25337965498E+02  0.31886059999E+02  0.00000000000E+00 0. -1.
         11    1    3    3    0    0 -0.12639748457E+02 -0.22925711803E+00  0.25361180663E+01  0.12893707573E+02  0.51100000000E-03 0. -1.
        -11    1    3    3    0    0  0.68805566552E+01  0.25618279066E+02 -0.21148184398E+02  0.33924681071E+02  0.51100000000E-03 0.  1.
         12    1    3    3    0    0 -0.49625994924E+01 -0.92722133903E+01 -0.67258991669E+01  0.12483551357E+02  0.00000000000E+00 0. -1.
</event>
<event>
 7    1  0.7012292E-013  0.5930196E+02  0.7816164E-02  0.1266605E+00
        -11   -1    0    0    0    0  0.00000000000E+00  0.00000000000E+00  0.45593999997E+02  0.45594000000E+02  0.51100000000E-03 0. -1.
         11   -1    0    0    0    0 -0.00000000000E+00 -0.00000000000E+00 -0.45593999997E+02  0.45594000000E+02  0.51100000000E-03 0.  1.
    9900012    2    1    2    0    0 -0.26168698502E+02  0.10945862457E+02 -0.14563897818E+02  0.59301955939E+02  0.50000021724E+02 0.  0.
         12    1    1    2    0    0  0.26168698502E+02 -0.10945862457E+02  0.14563897818E+02  0.31886044061E+02  0.00000000000E+00 0. -1.
         11    1    3    3    0    0 -0.20417709808E+02  0.81689169966E+00 -0.17008176157E+02  0.26586241598E+02  0.51100000000E-03 0. -1.
        -11    1    3    3    0    0 -0.16922925883E+02  0.32202338243E+01 -0.45730443362E+01  0.17823244965E+02  0.51100000000E-03 0.  1.
         12    1    3    3    0    0  0.11171937189E+02  0.69087369326E+01  0.70173226759E+01  0.14892469376E+02  0.00000000000E+00 0. -1.
</event>
<event>
 7    1  0.9231822E-013  0.5930191E+02  0.7816164E-02  0.1266605E+00
        -11   -1    0    0    0    0  0.00000000000E+00  0.00000000000E+00  0.45593999997E+02  0.45594000000E+02  0.51100000000E-03 0.  1.
         11   -1    0    0    0    0 -0.00000000000E+00 -0.00000000000E+00 -0.45593999997E+02  0.45594000000E+02  0.51100000000E-03 0. -1.
    9900012    2    1    2    0    0 -0.16116675197E+02  0.23744606346E+02  0.13898530012E+02  0.59301910769E+02  0.49999939344E+02 0.  0.
         12    1    1    2    0    0  0.16116675197E+02 -0.23744606346E+02 -0.13898530012E+02  0.31886089231E+02  0.00000000000E+00 0. -1.
         11    1    3    3    0    0 -0.13546232411E+02  0.32750713010E+00  0.10616485130E+02  0.17213873190E+02  0.51100000000E-03 0. -1.
        -11    1    3    3    0    0 -0.16878941064E+02  0.19842135011E+02 -0.26644163436E+01  0.26186028488E+02  0.51100000000E-03 0.  1.
         12    1    3    3    0    0  0.14308498277E+02  0.35749642049E+01  0.59464612260E+01  0.15902009091E+02  0.00000000000E+00 0. -1.
</event>
<event>
 7    1  0.8250557E-013  0.5930174E+02  0.7816164E-02  0.1266605E+00
        -11   -1    0    0    0    0  0.00000000000E+00  0.00000000000E+00  0.45593999997E+02  0.45594000000E+02  0.51100000000E-03 0. -1.
         11   -1    0    0    0    0 -0.00000000000E+00 -0.00000000000E+00 -0.45593999997E+02  0.45594000000E+02  0.51100000000E-03 0.  1.
    9900012    2    1    2    0    0  0.50042958306E+01  0.20039604105E+02 -0.24292067676E+02  0.59301744945E+02  0.49999636920E+02 0.  0.
         12    1    1    2    0    0 -0.50042958306E+01 -0.20039604105E+02  0.24292067676E+02  0.31886255055E+02  0.00000000000E+00 0. -1.
         11    1    3    3    0    0 -0.78233126352E+01  0.45242768723E+01 -0.81134051426E+01  0.12144984359E+02  0.51100000000E-03 0. -1.
        -11    1    3    3    0    0  0.23339136934E+01  0.14807620349E+02 -0.27737495960E+02  0.31529057327E+02  0.51100000000E-03 0.  1.
         12    1    3    3    0    0  0.10493694772E+02  0.70770688301E+00  0.11558833426E+02  0.15627703260E+02  0.00000000000E+00 0. -1.
</event>
<event>
 7    1  0.7012292E-013  0.5930194E+02  0.7816164E-02  0.1266605E+00
        -11   -1    0    0    0    0  0.00000000000E+00  0.00000000000E+00  0.45593999997E+02  0.45594000000E+02  0.51100000000E-03 0. -1.
         11   -1    0    0    0    0 -0.00000000000E+00 -0.00000000000E+00 -0.45593999997E+02  0.45594000000E+02  0.51100000000E-03 0.  1.
    9900012    2    1    2    0    0  0.19091867511E+02 -0.60489638202E+01  0.24811925324E+02  0.59301937110E+02  0.49999987384E+02 0.  0.
         12    1    1    2    0    0 -0.19091867511E+02  0.60489638202E+01 -0.24811925324E+02  0.31886062890E+02  0.00000000000E+00 0. -1.
         11    1    3    3    0    0  0.38885319401E+01 -0.27379453036E+01 -0.34549135725E+01  0.58782185387E+01  0.51100000000E-03 0. -1.
        -11    1    3    3    0    0  0.12562916589E+02 -0.22106344834E+02  0.10784332272E+02  0.27619181341E+02  0.51100000000E-03 0.  1.
         12    1    3    3    0    0  0.26404189811E+01  0.18795326317E+02  0.17482506625E+02  0.25804537230E+02  0.00000000000E+00 0. -1.
</event>
<event>
 7    1  0.7012292E-013  0.5930190E+02  0.7816164E-02  0.1266605E+00
        -11   -1    0    0    0    0  0.00000000000E+00  0.00000000000E+00  0.45593999997E+02  0.45594000000E+02  0.51100000000E-03 0. -1.
         11   -1    0    0    0    0 -0.00000000000E+00 -0.00000000000E+00 -0.45593999997E+02  0.45594000000E+02  0.51100000000E-03 0.  1.
    9900012    2    1    2    0    0  0.45227235599E+00 -0.20971508996E+02 -0.24014877530E+02  0.59301904557E+02  0.49999928014E+02 0.  0.
         12    1    1    2    0    0 -0.45227235599E+00  0.20971508996E+02  0.24014877530E+02  0.31886095443E+02  0.00000000000E+00 0. -1.
         11    1    3    3    0    0 -0.10299954321E+02 -0.18582731208E+02  0.36773524621E+00  0.21249522057E+02  0.51100000000E-03 0. -1.
        -11    1    3    3    0    0 -0.41794378301E+00 -0.53105022219E+01 -0.25868436393E+02  0.26411211872E+02  0.51100000000E-03 0.  1.
         12    1    3    3    0    0  0.11170170460E+02  0.29217244343E+01  0.14858236172E+01  0.11641170628E+02  0.00000000000E+00 0. -1.
</event>
<event>
 7    1  0.7012292E-013  0.5930194E+02  0.7816164E-02  0.1266605E+00
        -11   -1    0    0    0    0  0.00000000000E+00  0.00000000000E+00  0.45593999997E+02  0.45594000000E+02  0.51100000000E-03 0. -1.
         11   -1    0    0    0    0 -0.00000000000E+00 -0.00000000000E+00 -0.45593999997E+02  0.45594000000E+02  0.51100000000E-03 0.  1.
    9900012    2    1    2    0    0 -0.30546636490E+02 -0.62288586812E+00  0.91233664431E+01  0.59301940304E+02  0.49999993209E+02 0.  0.
         12    1    1    2    0    0  0.30546636490E+02  0.62288586812E+00 -0.91233664431E+01  0.31886059696E+02  0.00000000000E+00 0. -1.
         11    1    3    3    0    0 -0.16171590793E+02 -0.39009734970E+00  0.15101683237E+02  0.22129920054E+02  0.51100000000E-03 0. -1.
        -11    1    3    3    0    0 -0.11097121897E+02 -0.14876752218E+02  0.42133711445E+01  0.19031982756E+02  0.51100000000E-03 0.  1.
         12    1    3    3    0    0 -0.32779237998E+01  0.14643963699E+02 -0.10191687939E+02  0.18140037495E+02  0.00000000000E+00 0. -1.
</event>
<event>
 7    1  0.7012292E-013  0.5930194E+02  0.7816164E-02  0.1266605E+00
        -11   -1    0    0    0    0  0.00000000000E+00  0.00000000000E+00  0.45593999997E+02  0.45594000000E+02  0.51100000000E-03 0.  1.
         11   -1    0    0    0    0 -0.00000000000E+00 -0.00000000000E+00 -0.45593999997E+02  0.45594000000E+02  0.51100000000E-03 0. -1.
    9900012    2    1    2    0    0 -0.22323988643E+02  0.22575793652E+02  0.29485182692E+01  0.59301942108E+02  0.49999996498E+02 0.  0.
         12    1    1    2    0    0  0.22323988643E+02 -0.22575793652E+02 -0.29485182692E+01  0.31886057892E+02  0.00000000000E+00 0. -1.
         11    1    3    3    0    0  0.33568011309E+01 -0.10628275072E+01  0.53714709009E+01  0.64226486781E+01  0.51100000000E-03 0. -1.
        -11    1    3    3    0    0 -0.30641388851E+01  0.16799555253E+02 -0.17816814877E+02  0.24678997071E+02  0.51100000000E-03 0.  1.
         12    1    3    3    0    0 -0.22616650888E+02  0.68390659058E+01  0.15393862245E+02  0.28200296358E+02  0.00000000000E+00 0. -1.
</event>
<event>
 7    1  0.7012292E-013  0.5930194E+02  0.7816164E-02  0.1266605E+00
        -11   -1    0    0    0    0  0.00000000000E+00  0.00000000000E+00  0.45593999997E+02  0.45594000000E+02  0.51100000000E-03 0. -1.
         11   -1    0    0    0    0 -0.00000000000E+00 -0.00000000000E+00 -0.45593999997E+02  0.45594000000E+02  0.51100000000E-03 0.  1.
    9900012    2    1    2    0    0 -0.19487770407E+02 -0.24802840321E+02  0.46654688073E+01  0.59301942190E+02  0.49999996649E+02 0.  0.
         12    1    1    2    0    0  0.19487770407E+02  0.24802840321E+02 -0.46654688073E+01  0.31886057810E+02  0.00000000000E+00 0. -1.
         11    1    3    3    0    0 -0.88233781674E+01 -0.57346921604E+01  0.18761170261E+02  0.21510932251E+02  0.51100000000E-03 0. -1.
        -11    1    3    3    0    0  0.87762708853E+01 -0.94706556187E+01 -0.23194892007E+01  0.13118547134E+02  0.51100000000E-03 0.  1.
        -12    1    3    3    0    0 -0.19440663125E+02 -0.95974925423E+01 -0.11776212253E+02  0.24672462805E+02  0.00000000000E+00 0.  1.
</event>
<event>
 7    1  0.7012292E-013  0.5930195E+02  0.7816164E-02  0.1266605E+00
        -11   -1    0    0    0    0  0.00000000000E+00  0.00000000000E+00  0.45593999997E+02  0.45594000000E+02  0.51100000000E-03 0.  1.
         11   -1    0    0    0    0 -0.00000000000E+00 -0.00000000000E+00 -0.45593999997E+02  0.45594000000E+02  0.51100000000E-03 0. -1.
    9900012    2    1    2    0    0  0.17950051916E+02 -0.55573422890E+01  0.25761055036E+02  0.59301947035E+02  0.50000005485E+02 0.  0.
         12    1    1    2    0    0 -0.17950051916E+02  0.55573422890E+01 -0.25761055036E+02  0.31886052965E+02  0.00000000000E+00 0. -1.
         11    1    3    3    0    0  0.11747074502E+02 -0.19747648201E+02  0.29411505817E+02  0.37322915796E+02  0.51100000000E-03 0. -1.
        -11    1    3    3    0    0 -0.26462254196E+01  0.28082436074E+01  0.40836121906E+01  0.56182408202E+01  0.51100000000E-03 0.  1.
         12    1    3    3    0    0  0.88492028331E+01  0.11382062304E+02 -0.77340629718E+01  0.16360790419E+02  0.00000000000E+00 0. -1.
</event>
<event>
 7    1  0.7012292E-013  0.5930195E+02  0.7816164E-02  0.1266605E+00
        -11   -1    0    0    0    0  0.00000000000E+00  0.00000000000E+00  0.45593999997E+02  0.45594000000E+02  0.51100000000E-03 0. -1.
         11   -1    0    0    0    0 -0.00000000000E+00 -0.00000000000E+00 -0.45593999997E+02  0.45594000000E+02  0.51100000000E-03 0.  1.
    9900012    2    1    2    0    0 -0.21139705826E+02 -0.17669971983E+02 -0.16050080049E+02  0.59301950670E+02  0.50000012114E+02 0.  0.
         12    1    1    2    0    0  0.21139705826E+02  0.17669971983E+02  0.16050080049E+02  0.31886049330E+02  0.00000000000E+00 0. -1.
         11    1    3    3    0    0 -0.56523337513E+01  0.11311619684E+02  0.39847899288E+01  0.13258211333E+02  0.51100000000E-03 0.  1.
        -11    1    3    3    0    0 -0.41696099819E+00  0.35252676985E+00  0.47552679926E+01  0.47865128790E+01  0.51100000000E-03 0. -1.
        -12    1    3    3    0    0 -0.15070411077E+02 -0.29334118436E+02 -0.24790137970E+02  0.41257226458E+02  0.00000000000E+00 0.  1.
</event>
<event>
 7    1  0.7012292E-013  0.5930195E+02  0.7816164E-02  0.1266605E+00
        -11   -1    0    0    0    0  0.00000000000E+00  0.00000000000E+00  0.45593999997E+02  0.45594000000E+02  0.51100000000E-03 0.  1.
         11   -1    0    0    0    0 -0.00000000000E+00 -0.00000000000E+00 -0.45593999997E+02  0.45594000000E+02  0.51100000000E-03 0. -1.
    9900012    2    1    2    0    0  0.49157555878E+01  0.23223227068E+02  0.21289365306E+02  0.59301952838E+02  0.50000016068E+02 0.  0.
         12    1    1    2    0    0 -0.49157555878E+01 -0.23223227068E+02 -0.21289365306E+02  0.31886047162E+02  0.00000000000E+00 0. -1.
         11    1    3    3    0    0  0.10265712395E+02  0.14786696926E+02  0.60097810616E+01  0.18977584821E+02  0.51100000000E-03 0. -1.
        -11    1    3    3    0    0 -0.15051375950E+02  0.78753440332E+00  0.21685007584E+02  0.26408401743E+02  0.51100000000E-03 0.  1.
         12    1    3    3    0    0  0.97014191424E+01  0.76489957388E+01 -0.64054233394E+01  0.13915966274E+02  0.00000000000E+00 0. -1.
</event>
<event>
 7    1  0.7012292E-013  0.5930191E+02  0.7816164E-02  0.1266605E+00
        -11   -1    0    0    0    0  0.00000000000E+00  0.00000000000E+00  0.45593999997E+02  0.45594000000E+02  0.51100000000E-03 0.  1.
         11   -1    0    0    0    0 -0.00000000000E+00 -0.00000000000E+00 -0.45593999997E+02  0.45594000000E+02  0.51100000000E-03 0. -1.
    9900012    2    1    2    0    0 -0.24787133977E+02  0.46141481069E+01  0.19519992841E+02  0.59301913786E+02  0.49999944846E+02 0.  0.
         12    1    1    2    0    0  0.24787133977E+02 -0.46141481069E+01 -0.19519992841E+02  0.31886086214E+02  0.00000000000E+00 0. -1.
         11    1    3    3    0    0 -0.17242626037E+02  0.10461745693E+02 -0.19511805775E+01  0.20262363670E+02  0.51100000000E-03 0. -1.
        -11    1    3    3    0    0 -0.76607901381E+01 -0.17993526963E+02  0.86678807003E+01  0.21391280331E+02  0.51100000000E-03 0.  1.
         12    1    3    3    0    0  0.11628219822E+00  0.12145929377E+02  0.12803292718E+02  0.17648269785E+02  0.00000000000E+00 0. -1.
</event>
<event>
 7    1  0.7012292E-013  0.5930192E+02  0.7816164E-02  0.1266605E+00
        -11   -1    0    0    0    0  0.00000000000E+00  0.00000000000E+00  0.45593999997E+02  0.45594000000E+02  0.51100000000E-03 0.  1.
         11   -1    0    0    0    0 -0.00000000000E+00 -0.00000000000E+00 -0.45593999997E+02  0.45594000000E+02  0.51100000000E-03 0. -1.
    9900012    2    1    2    0    0 -0.31847106907E+01  0.99849588530E+01  0.30114452472E+02  0.59301921013E+02  0.49999958027E+02 0.  0.
         12    1    1    2    0    0  0.31847106907E+01 -0.99849588530E+01 -0.30114452472E+02  0.31886078987E+02  0.00000000000E+00 0. -1.
         11    1    3    3    0    0  0.56658126671E+01 -0.21754764211E+01  0.25783669209E+02  0.26488331940E+02  0.51100000000E-03 0. -1.
        -11    1    3    3    0    0  0.13529917289E+01  0.10313371882E+02  0.14792579434E+02  0.18083601211E+02  0.51100000000E-03 0.  1.
         12    1    3    3    0    0 -0.10203515087E+02  0.18470633924E+01 -0.10461796171E+02  0.14729987862E+02  0.00000000000E+00 0. -1.
</event>
<event>
 7    1  0.7012292E-013  0.5930191E+02  0.7816164E-02  0.1266605E+00
        -11   -1    0    0    0    0  0.00000000000E+00  0.00000000000E+00  0.45593999997E+02  0.45594000000E+02  0.51100000000E-03 0. -1.
         11   -1    0    0    0    0 -0.00000000000E+00 -0.00000000000E+00 -0.45593999997E+02  0.45594000000E+02  0.51100000000E-03 0.  1.
    9900012    2    1    2    0    0  0.27436003414E+02 -0.37838421963E+01 -0.15800986063E+02  0.59301907331E+02  0.49999933075E+02 0.  0.
         12    1    1    2    0    0 -0.27436003414E+02  0.37838421963E+01  0.15800986063E+02  0.31886092669E+02  0.00000000000E+00 0. -1.
         11    1    3    3    0    0 -0.33045836062E+01 -0.68561462763E+01  0.28319761910E+01  0.81207822271E+01  0.51100000000E-03 0. -1.
        -11    1    3    3    0    0  0.46874139702E+01 -0.12685280504E+02  0.29727243016E+01  0.13846489852E+02  0.51100000000E-03 0.  1.
        -12    1    3    3    0    0  0.26053173050E+02  0.15757584584E+02 -0.21605686556E+02  0.37334635252E+02  0.00000000000E+00 0.  1.
</event>
<event>
 7    1  0.7012292E-013  0.5930194E+02  0.7816164E-02  0.1266605E+00
        -11   -1    0    0    0    0  0.00000000000E+00  0.00000000000E+00  0.45593999997E+02  0.45594000000E+02  0.51100000000E-03 0.  1.
         11   -1    0    0    0    0 -0.00000000000E+00 -0.00000000000E+00 -0.45593999997E+02  0.45594000000E+02  0.51100000000E-03 0. -1.
    9900012    2    1    2    0    0 -0.21855537840E+02  0.13716461148E+01  0.23177027037E+02  0.59301944590E+02  0.50000001026E+02 0.  0.
         12    1    1    2    0    0  0.21855537840E+02 -0.13716461148E+01 -0.23177027037E+02  0.31886055410E+02  0.00000000000E+00 0. -1.
         11    1    3    3    0    0 -0.78850338916E+01 -0.15414616967E+02  0.22546603780E+02  0.28427689283E+02  0.51100000000E-03 0. -1.
        -11    1    3    3    0    0 -0.80342363775E+00 -0.49930970337E+01  0.18748301205E+01  0.53936532862E+01  0.51100000000E-03 0.  1.
        -12    1    3    3    0    0 -0.13167080310E+02  0.21779360115E+02 -0.12444068631E+01  0.25480602021E+02  0.00000000000E+00 0.  1.
</event>
<event>
 7    1  0.7012292E-013  0.5930195E+02  0.7816164E-02  0.1266605E+00
        -11   -1    0    0    0    0  0.00000000000E+00  0.00000000000E+00  0.45593999997E+02  0.45594000000E+02  0.51100000000E-03 0.  1.
         11   -1    0    0    0    0 -0.00000000000E+00 -0.00000000000E+00 -0.45593999997E+02  0.45594000000E+02  0.51100000000E-03 0. -1.
    9900012    2    1    2    0    0  0.15628537823E+01  0.31464158347E+02  0.49279151674E+01  0.59301951008E+02  0.50000012730E+02 0.  0.
         12    1    1    2    0    0 -0.15628537823E+01 -0.31464158347E+02 -0.49279151674E+01  0.31886048992E+02  0.00000000000E+00 0. -1.
         11    1    3    3    0    0 -0.41496916823E+01  0.16814951531E+02 -0.19097415735E+02  0.25781268860E+02  0.51100000000E-03 0. -1.
        -11    1    3    3    0    0  0.21645328256E+01  0.20114923788E+01 -0.25353524483E+01  0.38934966600E+01  0.51100000000E-03 0.  1.
        -12    1    3    3    0    0  0.35480126390E+01  0.12637714437E+02  0.26560683350E+02  0.29627185487E+02  0.00000000000E+00 0.  1.
</event>
<event>
 7    1  0.7012292E-013  0.5930194E+02  0.7816164E-02  0.1266605E+00
        -11   -1    0    0    0    0  0.00000000000E+00  0.00000000000E+00  0.45593999997E+02  0.45594000000E+02  0.51100000000E-03 0.  1.
         11   -1    0    0    0    0 -0.00000000000E+00 -0.00000000000E+00 -0.45593999997E+02  0.45594000000E+02  0.51100000000E-03 0. -1.
    9900012    2    1    2    0    0 -0.26400557471E+02 -0.14823718484E+00  0.17880420323E+02  0.59301939723E+02  0.49999992150E+02 0.  0.
         12    1    1    2    0    0  0.26400557471E+02  0.14823718484E+00 -0.17880420323E+02  0.31886060277E+02  0.00000000000E+00 0. -1.
         11    1    3    3    0    0 -0.97138581148E+00 -0.34106667182E+01  0.14236886789E+02  0.14671918196E+02  0.51100000000E-03 0. -1.
        -11    1    3    3    0    0  0.41443540715E+01 -0.70651628949E+01  0.97305796835E+01  0.12719134351E+02  0.51100000000E-03 0.  1.
         12    1    3    3    0    0 -0.29573525731E+02  0.10327592428E+02 -0.60870461496E+01  0.31910887176E+02  0.00000000000E+00 0. -1.
</event>
<event>
 7    1  0.7012292E-013  0.5930196E+02  0.7816164E-02  0.1266605E+00
        -11   -1    0    0    0    0  0.00000000000E+00  0.00000000000E+00  0.45593999997E+02  0.45594000000E+02  0.51100000000E-03 0.  1.
         11   -1    0    0    0    0 -0.00000000000E+00 -0.00000000000E+00 -0.45593999997E+02  0.45594000000E+02  0.51100000000E-03 0. -1.
    9900012    2    1    2    0    0 -0.12011971910E+01 -0.14187079934E+02  0.28530741747E+02  0.59301963301E+02  0.50000035150E+02 0.  0.
         12    1    1    2    0    0  0.12011971910E+01  0.14187079934E+02 -0.28530741747E+02  0.31886036699E+02  0.00000000000E+00 0. -1.
         11    1    3    3    0    0  0.98961856795E+00 -0.32946172442E+01  0.32721674597E+01  0.47477287034E+01  0.51100000000E-03 0.  1.
        -11    1    3    3    0    0 -0.45732228174E+01  0.17232061489E+02  0.19236414739E+01  0.17932058077E+02  0.51100000000E-03 0. -1.
         12    1    3    3    0    0  0.23824070584E+01 -0.28124524179E+02  0.23334932813E+02  0.36622176520E+02  0.00000000000E+00 0. -1.
</event>
<event>
 7    1  0.7012292E-013  0.5930195E+02  0.7816164E-02  0.1266605E+00
        -11   -1    0    0    0    0  0.00000000000E+00  0.00000000000E+00  0.45593999997E+02  0.45594000000E+02  0.51100000000E-03 0.  1.
         11   -1    0    0    0    0 -0.00000000000E+00 -0.00000000000E+00 -0.45593999997E+02  0.45594000000E+02  0.51100000000E-03 0. -1.
    9900012    2    1    2    0    0 -0.13927484337E+02  0.28648489042E+02  0.14176162610E+01  0.59301946932E+02  0.50000005297E+02 0.  0.
         12    1    1    2    0    0  0.13927484337E+02 -0.28648489042E+02 -0.14176162610E+01  0.31886053068E+02  0.00000000000E+00 0. -1.
         11    1    3    3    0    0 -0.14096667814E+02  0.22833059897E+02 -0.23575059581E+01  0.26937381133E+02  0.51100000000E-03 0. -1.
        -11    1    3    3    0    0 -0.85319384181E+01  0.90191157777E+01  0.13898819769E+02  0.18636405604E+02  0.51100000000E-03 0.  1.
         12    1    3    3    0    0  0.87011218949E+01 -0.32036866321E+01 -0.10123697550E+02  0.13728160196E+02  0.00000000000E+00 0. -1.
</event>
<event>
 7    1  0.7012292E-013  0.5930194E+02  0.7816164E-02  0.1266605E+00
        -11   -1    0    0    0    0  0.00000000000E+00  0.00000000000E+00  0.45593999997E+02  0.45594000000E+02  0.51100000000E-03 0.  1.
         11   -1    0    0    0    0 -0.00000000000E+00 -0.00000000000E+00 -0.45593999997E+02  0.45594000000E+02  0.51100000000E-03 0. -1.
    9900012    2    1    2    0    0  0.21294092155E+02 -0.22961763506E+02  0.60033476068E+01  0.59301935231E+02  0.49999983957E+02 0.  0.
         12    1    1    2    0    0 -0.21294092155E+02  0.22961763506E+02 -0.60033476068E+01  0.31886064769E+02  0.00000000000E+00 0. -1.
         11    1    3    3    0    0  0.10717418480E+01 -0.99891963285E+01 -0.41653152359E+01  0.10875776991E+02  0.51100000000E-03 0. -1.
        -11    1    3    3    0    0  0.21774595488E+01 -0.16076615664E+02 -0.11627524402E+02  0.19959915462E+02  0.51100000000E-03 0.  1.
        -12    1    3    3    0    0  0.18044890758E+02  0.31040484866E+01  0.21796187245E+02  0.28466242778E+02  0.00000000000E+00 0.  1.
</event>
<event>
 7    1  0.7012292E-013  0.5930201E+02  0.7816164E-02  0.1266605E+00
        -11   -1    0    0    0    0  0.00000000000E+00  0.00000000000E+00  0.45593999997E+02  0.45594000000E+02  0.51100000000E-03 0. -1.
         11   -1    0    0    0    0 -0.00000000000E+00 -0.00000000000E+00 -0.45593999997E+02  0.45594000000E+02  0.51100000000E-03 0.  1.
    9900012    2    1    2    0    0 -0.81739264895E+01  0.50665513655E+01 -0.30401208434E+02  0.59302007915E+02  0.50000116515E+02 0.  0.
         12    1    1    2    0    0  0.81739264895E+01 -0.50665513655E+01  0.30401208434E+02  0.31885992085E+02  0.00000000000E+00 0. -1.
         11    1    3    3    0    0 -0.58144435659E+01  0.93659555607E+01  0.74690421840E+01  0.13315985467E+02  0.51100000000E-03 0. -1.
        -11    1    3    3    0    0 -0.17001099696E+01  0.82481215557E+01 -0.30311761007E+01  0.89504140642E+01  0.51100000000E-03 0.  1.
        -12    1    3    3    0    0 -0.65937295398E+00 -0.12547525751E+02 -0.34839074517E+02  0.37035608384E+02  0.00000000000E+00 0.  1.
</event>
<event>
 7    1  0.7012292E-013  0.5930194E+02  0.7816164E-02  0.1266605E+00
        -11   -1    0    0    0    0  0.00000000000E+00  0.00000000000E+00  0.45593999997E+02  0.45594000000E+02  0.51100000000E-03 0.  1.
         11   -1    0    0    0    0 -0.00000000000E+00 -0.00000000000E+00 -0.45593999997E+02  0.45594000000E+02  0.51100000000E-03 0. -1.
    9900012    2    1    2    0    0  0.13754382320E+02  0.50398103360E+01  0.28322040146E+02  0.59301942243E+02  0.49999996745E+02 0.  0.
         12    1    1    2    0    0 -0.13754382320E+02 -0.50398103360E+01 -0.28322040146E+02  0.31886057757E+02  0.00000000000E+00 0. -1.
         11    1    3    3    0    0  0.30533375975E+01  0.59314015585E+01  0.20952431794E+02  0.21988833377E+02  0.51100000000E-03 0. -1.
        -11    1    3    3    0    0 -0.10832699062E+02  0.19496393731E+01  0.10686288524E+02  0.15340965593E+02  0.51100000000E-03 0.  1.
         12    1    3    3    0    0  0.21533743784E+02 -0.28412305956E+01 -0.33166801718E+01  0.21972143273E+02  0.00000000000E+00 0. -1.
</event>
<event>
 7    1  0.7012292E-013  0.5930193E+02  0.7816164E-02  0.1266605E+00
        -11   -1    0    0    0    0  0.00000000000E+00  0.00000000000E+00  0.45593999997E+02  0.45594000000E+02  0.51100000000E-03 0. -1.
         11   -1    0    0    0    0 -0.00000000000E+00 -0.00000000000E+00 -0.45593999997E+02  0.45594000000E+02  0.51100000000E-03 0.  1.
    9900012    2    1    2    0    0 -0.19302648682E+02 -0.25279924658E+02  0.22482981476E+01  0.59301926529E+02  0.49999968087E+02 0.  0.
         12    1    1    2    0    0  0.19302648682E+02  0.25279924658E+02 -0.22482981476E+01  0.31886073471E+02  0.00000000000E+00 0. -1.
         11    1    3    3    0    0  0.67764089363E-01 -0.59501791598E+00 -0.49388510913E-01  0.60089747734E+00  0.51100000000E-03 0. -1.
        -11    1    3    3    0    0 -0.15006215550E+02 -0.35684127969E+02 -0.11634575957E+02  0.40421613674E+02  0.51100000000E-03 0.  1.
         12    1    3    3    0    0 -0.43641972210E+01  0.10999221227E+02  0.13932262615E+02  0.18279415378E+02  0.00000000000E+00 0. -1.
</event>
<event>
 7    1  0.7012292E-013  0.5930193E+02  0.7816164E-02  0.1266605E+00
        -11   -1    0    0    0    0  0.00000000000E+00  0.00000000000E+00  0.45593999997E+02  0.45594000000E+02  0.51100000000E-03 0.  1.
         11   -1    0    0    0    0 -0.00000000000E+00 -0.00000000000E+00 -0.45593999997E+02  0.45594000000E+02  0.51100000000E-03 0. -1.
    9900012    2    1    2    0    0  0.28617414499E+02  0.97681112581E+01  0.10116766808E+02  0.59301931242E+02  0.49999976682E+02 0.  0.
         12    1    1    2    0    0 -0.28617414499E+02 -0.97681112581E+01 -0.10116766808E+02  0.31886068758E+02  0.00000000000E+00 0. -1.
         11    1    3    3    0    0 -0.30854821331E+01 -0.21989207686E+00 -0.69697454062E+00  0.31708557663E+01  0.51100000000E-03 0. -1.
        -11    1    3    3    0    0 -0.73329189739E+01  0.41820945300E+01  0.14201177198E+02  0.16520746031E+02  0.51100000000E-03 0.  1.
        -12    1    3    3    0    0  0.39035815606E+02  0.58059088050E+01 -0.33874358496E+01  0.39610329445E+02  0.00000000000E+00 0.  1.
</event>
<event>
 7    1  0.7012292E-013  0.5930196E+02  0.7816164E-02  0.1266605E+00
        -11   -1    0    0    0    0  0.00000000000E+00  0.00000000000E+00  0.45593999997E+02  0.45594000000E+02  0.51100000000E-03 0.  1.
         11   -1    0    0    0    0 -0.00000000000E+00 -0.00000000000E+00 -0.45593999997E+02  0.45594000000E+02  0.51100000000E-03 0. -1.
    9900012    2    1    2    0    0  0.15312842809E+02  0.27500328216E+02 -0.50959193476E+01  0.59301959154E+02  0.50000027586E+02 0.  0.
         12    1    1    2    0    0 -0.15312842809E+02 -0.27500328216E+02  0.50959193476E+01  0.31886040846E+02  0.00000000000E+00 0. -1.
         11    1    3    3    0    0  0.94028176719E+01  0.10835909549E+01 -0.76334539529E+01  0.12159636879E+02  0.51100000000E-03 0. -1.
        -11    1    3    3    0    0  0.69029125395E+01 -0.15731085668E+01 -0.13227261407E+02  0.15002843620E+02  0.51100000000E-03 0.  1.
         12    1    3    3    0    0 -0.99288740219E+00  0.27989845827E+02  0.15764796013E+02  0.32139478654E+02  0.00000000000E+00 0. -1.
</event>
<event>
 7    1  0.9464588E-013  0.5930195E+02  0.7816164E-02  0.1266605E+00
        -11   -1    0    0    0    0  0.00000000000E+00  0.00000000000E+00  0.45593999997E+02  0.45594000000E+02  0.51100000000E-03 0. -1.
         11   -1    0    0    0    0 -0.00000000000E+00 -0.00000000000E+00 -0.45593999997E+02  0.45594000000E+02  0.51100000000E-03 0.  1.
    9900012    2    1    2    0    0  0.28126376542E+02  0.72244446965E-01 -0.15020725878E+02  0.59301945328E+02  0.50000002372E+02 0.  0.
         12    1    1    2    0    0 -0.28126376542E+02 -0.72244446965E-01  0.15020725878E+02  0.31886054672E+02  0.00000000000E+00 0. -1.
         11    1    3    3    0    0  0.55765265611E+01 -0.88456365610E+01  0.56017372030E+01  0.11862647032E+02  0.51100000000E-03 0. -1.
        -11    1    3    3    0    0  0.25930670182E+02  0.57125184130E+01 -0.26314751447E+00  0.26553752458E+02  0.51100000000E-03 0.  1.
         12    1    3    3    0    0 -0.33808202018E+01  0.32053625950E+01 -0.20359315567E+02  0.20885545838E+02  0.00000000000E+00 0. -1.
</event>
<event>
 7    1  0.7012292E-013  0.5930188E+02  0.7816164E-02  0.1266605E+00
        -11   -1    0    0    0    0  0.00000000000E+00  0.00000000000E+00  0.45593999997E+02  0.45594000000E+02  0.51100000000E-03 0.  1.
         11   -1    0    0    0    0 -0.00000000000E+00 -0.00000000000E+00 -0.45593999997E+02  0.45594000000E+02  0.51100000000E-03 0. -1.
    9900012    2    1    2    0    0 -0.17041021602E+02 -0.25851381779E+02  0.76180299762E+01  0.59301878601E+02  0.49999880678E+02 0.  0.
         12    1    1    2    0    0  0.17041021602E+02  0.25851381779E+02 -0.76180299762E+01  0.31886121399E+02  0.00000000000E+00 0. -1.
         11    1    3    3    0    0 -0.17974057878E+01 -0.66030152295E+01  0.13771016747E+02  0.15377625961E+02  0.51100000000E-03 0. -1.
        -11    1    3    3    0    0 -0.16764324842E+00 -0.18170634016E+02 -0.17342235636E+02  0.25118781458E+02  0.51100000000E-03 0.  1.
         12    1    3    3    0    0 -0.15075972566E+02 -0.10777325336E+01  0.11189248866E+02  0.18805471182E+02  0.00000000000E+00 0. -1.
</event>
<event>
 7    1  0.7012292E-013  0.5930192E+02  0.7816164E-02  0.1266605E+00
        -11   -1    0    0    0    0  0.00000000000E+00  0.00000000000E+00  0.45593999997E+02  0.45594000000E+02  0.51100000000E-03 0. -1.
         11   -1    0    0    0    0 -0.00000000000E+00 -0.00000000000E+00 -0.45593999997E+02  0.45594000000E+02  0.51100000000E-03 0.  1.
    9900012    2    1    2    0    0 -0.22188068736E+00  0.23858340829E+01 -0.31795917797E+02  0.59301924295E+02  0.49999964013E+02 0.  0.
         12    1    1    2    0    0  0.22188068736E+00 -0.23858340829E+01  0.31795917797E+02  0.31886075705E+02  0.00000000000E+00 0. -1.
         11    1    3    3    0    0 -0.65636471351E+01  0.40090136751E+01 -0.19215199030E+02  0.20697283116E+02  0.51100000000E-03 0. -1.
        -11    1    3    3    0    0 -0.31757113177E+01  0.81924988304E+01 -0.20850303184E+02  0.22626031967E+02  0.51100000000E-03 0.  1.
         12    1    3    3    0    0  0.95174777655E+01 -0.98156784226E+01  0.82695844174E+01  0.15978609212E+02  0.00000000000E+00 0. -1.
</event>
<event>
 7    1  0.7012292E-013  0.5930195E+02  0.7816164E-02  0.1266605E+00
        -11   -1    0    0    0    0  0.00000000000E+00  0.00000000000E+00  0.45593999997E+02  0.45594000000E+02  0.51100000000E-03 0.  1.
         11   -1    0    0    0    0 -0.00000000000E+00 -0.00000000000E+00 -0.45593999997E+02  0.45594000000E+02  0.51100000000E-03 0. -1.
    9900012    2    1    2    0    0  0.26900056718E+02 -0.10151806599E+02  0.13785785386E+02  0.59301951211E+02  0.50000013101E+02 0.  0.
         12    1    1    2    0    0 -0.26900056718E+02  0.10151806599E+02 -0.13785785386E+02  0.31886048789E+02  0.00000000000E+00 0. -1.
         11    1    3    3    0    0  0.21815462443E+02 -0.36448920899E+01  0.37787610027E+01  0.22438330485E+02  0.51100000000E-03 0. -1.
        -11    1    3    3    0    0 -0.60512062103E+01  0.36929109825E+01  0.18307192471E+02  0.19631810527E+02  0.51100000000E-03 0.  1.
         12    1    3    3    0    0  0.11135800485E+02 -0.10199825492E+02 -0.83001680874E+01  0.17231810200E+02  0.00000000000E+00 0. -1.
</event>
<event>
 7    1  0.7012292E-013  0.5930196E+02  0.7816164E-02  0.1266605E+00
        -11   -1    0    0    0    0  0.00000000000E+00  0.00000000000E+00  0.45593999997E+02  0.45594000000E+02  0.51100000000E-03 0.  1.
         11   -1    0    0    0    0 -0.00000000000E+00 -0.00000000000E+00 -0.45593999997E+02  0.45594000000E+02  0.51100000000E-03 0. -1.
    9900012    2    1    2    0    0  0.82814836273E+01 -0.30252737358E+02  0.57365850614E+01  0.59301960784E+02  0.50000030560E+02 0.  0.
         12    1    1    2    0    0 -0.82814836273E+01  0.30252737358E+02 -0.57365850614E+01  0.31886039216E+02  0.00000000000E+00 0. -1.
         11    1    3    3    0    0  0.41006225847E+01 -0.22820159622E+02 -0.19340727397E+02  0.30193352368E+02  0.51100000000E-03 0. -1.
        -11    1    3    3    0    0  0.51603650070E+01 -0.19119522629E+01  0.28742753890E+01  0.62085737278E+01  0.51100000000E-03 0.  1.
        -12    1    3    3    0    0 -0.97950396439E+00 -0.55206254728E+01  0.22203037069E+02  0.22900034688E+02  0.00000000000E+00 0.  1.
</event>
<event>
 7    1  0.7012292E-013  0.5930196E+02  0.7816164E-02  0.1266605E+00
        -11   -1    0    0    0    0  0.00000000000E+00  0.00000000000E+00  0.45593999997E+02  0.45594000000E+02  0.51100000000E-03 0.  1.
         11   -1    0    0    0    0 -0.00000000000E+00 -0.00000000000E+00 -0.45593999997E+02  0.45594000000E+02  0.51100000000E-03 0. -1.
    9900012    2    1    2    0    0  0.22001086246E+02  0.31799726418E+00  0.23077487674E+02  0.59301962999E+02  0.50000034600E+02 0.  0.
         12    1    1    2    0    0 -0.22001086246E+02 -0.31799726418E+00 -0.23077487674E+02  0.31886037001E+02  0.00000000000E+00 0. -1.
         11    1    3    3    0    0 -0.44845282749E+01 -0.36050421531E+01 -0.61217779713E+01  0.84013980125E+01  0.51100000000E-03 0. -1.
        -11    1    3    3    0    0 -0.28374696488E+01 -0.43062609944E+01  0.17551218100E+02  0.18293178368E+02  0.51100000000E-03 0.  1.
        -12    1    3    3    0    0  0.29323084169E+02  0.82293004116E+01  0.11648047546E+02  0.32607386619E+02  0.00000000000E+00 0.  1.
</event>
<event>
 7    1  0.7012292E-013  0.5930193E+02  0.7816164E-02  0.1266605E+00
        -11   -1    0    0    0    0  0.00000000000E+00  0.00000000000E+00  0.45593999997E+02  0.45594000000E+02  0.51100000000E-03 0.  1.
         11   -1    0    0    0    0 -0.00000000000E+00 -0.00000000000E+00 -0.45593999997E+02  0.45594000000E+02  0.51100000000E-03 0. -1.
    9900012    2    1    2    0    0  0.19036817649E+02  0.14951333054E+02  0.20755212305E+02  0.59301927427E+02  0.49999969725E+02 0.  0.
         12    1    1    2    0    0 -0.19036817649E+02 -0.14951333054E+02 -0.20755212305E+02  0.31886072573E+02  0.00000000000E+00 0. -1.
         11    1    3    3    0    0  0.17309795374E+01  0.30404910987E+01 -0.19725526528E+01  0.40164462538E+01  0.51100000000E-03 0.  1.
        -11    1    3    3    0    0  0.12183341374E+02  0.26555196432E+02  0.18510697772E+01  0.29275223725E+02  0.51100000000E-03 0. -1.
        -12    1    3    3    0    0  0.51224967374E+01 -0.14644354477E+02  0.20876695181E+02  0.26010257448E+02  0.00000000000E+00 0.  1.
</event>
<event>
 7    1  0.7012292E-013  0.5930195E+02  0.7816164E-02  0.1266605E+00
        -11   -1    0    0    0    0  0.00000000000E+00  0.00000000000E+00  0.45593999997E+02  0.45594000000E+02  0.51100000000E-03 0.  1.
         11   -1    0    0    0    0 -0.00000000000E+00 -0.00000000000E+00 -0.45593999997E+02  0.45594000000E+02  0.51100000000E-03 0. -1.
    9900012    2    1    2    0    0 -0.95676716011E+01 -0.10308125313E+02  0.28616817018E+02  0.59301952839E+02  0.50000016069E+02 0.  0.
         12    1    1    2    0    0  0.95676716011E+01  0.10308125313E+02 -0.28616817018E+02  0.31886047161E+02  0.00000000000E+00 0. -1.
         11    1    3    3    0    0 -0.24928750735E+00  0.26847321922E+01 -0.10565592771E+02  0.10904204789E+02  0.51100000000E-03 0. -1.
        -11    1    3    3    0    0  0.11563452785E+01  0.43402166647E+01  0.23291556266E+00  0.44976510558E+01  0.51100000000E-03 0.  1.
        -12    1    3    3    0    0 -0.10474729372E+02 -0.17333074170E+02  0.38949494227E+02  0.43900096994E+02  0.00000000000E+00 0.  1.
</event>
<event>
 7    1  0.7012292E-013  0.5930192E+02  0.7816164E-02  0.1266605E+00
        -11   -1    0    0    0    0  0.00000000000E+00  0.00000000000E+00  0.45593999997E+02  0.45594000000E+02  0.51100000000E-03 0.  1.
         11   -1    0    0    0    0 -0.00000000000E+00 -0.00000000000E+00 -0.45593999997E+02  0.45594000000E+02  0.51100000000E-03 0. -1.
    9900012    2    1    2    0    0  0.26348338806E+02 -0.17950892410E+02 -0.50242007889E+00  0.59301922755E+02  0.49999961203E+02 0.  0.
         12    1    1    2    0    0 -0.26348338806E+02  0.17950892410E+02  0.50242007889E+00  0.31886077245E+02  0.00000000000E+00 0. -1.
         11    1    3    3    0    0  0.27208850135E+02  0.10608682807E+02 -0.63929964757E+01  0.29895419060E+02  0.51100000000E-03 0. -1.
        -11    1    3    3    0    0  0.13611694924E+01 -0.66069565694E+01  0.13690837362E+01  0.68832440052E+01  0.51100000000E-03 0.  1.
        -12    1    3    3    0    0 -0.22216808220E+01 -0.21952618648E+02  0.45214926606E+01  0.22523259690E+02  0.00000000000E+00 0.  1.
</event>
<event>
 7    1  0.7012292E-013  0.5930196E+02  0.7816164E-02  0.1266605E+00
        -11   -1    0    0    0    0  0.00000000000E+00  0.00000000000E+00  0.45593999997E+02  0.45594000000E+02  0.51100000000E-03 0.  1.
         11   -1    0    0    0    0 -0.00000000000E+00 -0.00000000000E+00 -0.45593999997E+02  0.45594000000E+02  0.51100000000E-03 0. -1.
    9900012    2    1    2    0    0 -0.24487044930E+02  0.10434928164E+02  0.17556098998E+02  0.59301957485E+02  0.50000024543E+02 0.  0.
         12    1    1    2    0    0  0.24487044930E+02 -0.10434928164E+02 -0.17556098998E+02  0.31886042515E+02  0.00000000000E+00 0. -1.
         11    1    3    3    0    0 -0.83422424295E+01 -0.82028911833E+01 -0.21259205877E+01  0.11891171983E+02  0.51100000000E-03 0. -1.
        -11    1    3    3    0    0 -0.18545625764E+02  0.42397146456E+01 -0.41427993119E+01  0.19469930705E+02  0.51100000000E-03 0.  1.
         12    1    3    3    0    0  0.24008232627E+01  0.14398104702E+02  0.23824818898E+02  0.27940854798E+02  0.00000000000E+00 0. -1.
</event>
<event>
 7    1  0.7012292E-013  0.5930195E+02  0.7816164E-02  0.1266605E+00
        -11   -1    0    0    0    0  0.00000000000E+00  0.00000000000E+00  0.45593999997E+02  0.45594000000E+02  0.51100000000E-03 0. -1.
         11   -1    0    0    0    0 -0.00000000000E+00 -0.00000000000E+00 -0.45593999997E+02  0.45594000000E+02  0.51100000000E-03 0.  1.
    9900012    2    1    2    0    0  0.19741405042E+02  0.15300504951E+02 -0.19821497893E+02  0.59301948135E+02  0.50000007491E+02 0.  0.
         12    1    1    2    0    0 -0.19741405042E+02 -0.15300504951E+02  0.19821497893E+02  0.31886051865E+02  0.00000000000E+00 0. -1.
         11    1    3    3    0    0 -0.10821336240E+02  0.90773855583E+00 -0.82110673747E+01  0.13614218119E+02  0.51100000000E-03 0. -1.
        -11    1    3    3    0    0  0.12339977723E+02 -0.81988642702E+01 -0.66602598501E+01  0.16243629122E+02  0.51100000000E-03 0.  1.
        -12    1    3    3    0    0  0.18222763558E+02  0.22591630665E+02 -0.49501706687E+01  0.29444100894E+02  0.00000000000E+00 0.  1.
</event>
<event>
 7    1  0.7012292E-013  0.5930195E+02  0.7816164E-02  0.1266605E+00
        -11   -1    0    0    0    0  0.00000000000E+00  0.00000000000E+00  0.45593999997E+02  0.45594000000E+02  0.51100000000E-03 0.  1.
         11   -1    0    0    0    0 -0.00000000000E+00 -0.00000000000E+00 -0.45593999997E+02  0.45594000000E+02  0.51100000000E-03 0. -1.
    9900012    2    1    2    0    0 -0.15806384993E+02 -0.24928909497E+02  0.12059349713E+02  0.59301948963E+02  0.50000009000E+02 0.  0.
         12    1    1    2    0    0  0.15806384993E+02  0.24928909497E+02 -0.12059349713E+02  0.31886051037E+02  0.00000000000E+00 0. -1.
         11    1    3    3    0    0 -0.10627336511E+02 -0.31751049831E+02  0.65264337953E+01  0.34112516545E+02  0.51100000000E-03 0. -1.
        -11    1    3    3    0    0  0.79843145810E+01  0.27433590141E+01  0.74704282814E+01  0.11273091722E+02  0.51100000000E-03 0.  1.
        -12    1    3    3    0    0 -0.13163363063E+02  0.40787813202E+01 -0.19375123633E+01  0.13916340696E+02  0.00000000000E+00 0.  1.
</event>
<event>
 7    1  0.7012292E-013  0.5930191E+02  0.7816164E-02  0.1266605E+00
        -11   -1    0    0    0    0  0.00000000000E+00  0.00000000000E+00  0.45593999997E+02  0.45594000000E+02  0.51100000000E-03 0. -1.
         11   -1    0    0    0    0 -0.00000000000E+00 -0.00000000000E+00 -0.45593999997E+02  0.45594000000E+02  0.51100000000E-03 0.  1.
    9900012    2    1    2    0    0 -0.13025093844E+02 -0.14785963157E+02 -0.25068809189E+02  0.59301906318E+02  0.49999931227E+02 0.  0.
         12    1    1    2    0    0  0.13025093844E+02  0.14785963157E+02  0.25068809189E+02  0.31886093682E+02  0.00000000000E+00 0. -1.
         11    1    3    3    0    0 -0.13438204037E+02 -0.14874997443E+02 -0.18492665207E+02  0.27273238594E+02  0.51100000000E-03 0. -1.
        -11    1    3    3    0    0  0.12365300510E+02  0.16912869495E+01 -0.13285996135E+02  0.18228516171E+02  0.51100000000E-03 0.  1.
         12    1    3    3    0    0 -0.11952190317E+02 -0.16022526635E+01  0.67098521534E+01  0.13800151553E+02  0.00000000000E+00 0. -1.
</event>
<event>
 7    1  0.7012292E-013  0.5930192E+02  0.7816164E-02  0.1266605E+00
        -11   -1    0    0    0    0  0.00000000000E+00  0.00000000000E+00  0.45593999997E+02  0.45594000000E+02  0.51100000000E-03 0. -1.
         11   -1    0    0    0    0 -0.00000000000E+00 -0.00000000000E+00 -0.45593999997E+02  0.45594000000E+02  0.51100000000E-03 0.  1.
    9900012    2    1    2    0    0 -0.24084357153E+02  0.17587516782E+02 -0.11284727433E+02  0.59301920289E+02  0.49999956707E+02 0.  0.
         12    1    1    2    0    0  0.24084357153E+02 -0.17587516782E+02  0.11284727433E+02  0.31886079711E+02  0.00000000000E+00 0. -1.
         11    1    3    3    0    0 -0.35089790802E+01  0.12490160880E+02  0.82203010858E+01  0.15358724009E+02  0.51100000000E-03 0. -1.
        -11    1    3    3    0    0 -0.14651276888E+02  0.11940000733E+02 -0.26468293766E+02  0.32523746818E+02  0.51100000000E-03 0.  1.
         12    1    3    3    0    0 -0.59241011848E+01 -0.68426448302E+01  0.69632652468E+01  0.11419449462E+02  0.00000000000E+00 0. -1.
</event>
<event>
 7    1  0.7012292E-013  0.5930197E+02  0.7816164E-02  0.1266605E+00
        -11   -1    0    0    0    0  0.00000000000E+00  0.00000000000E+00  0.45593999997E+02  0.45594000000E+02  0.51100000000E-03 0.  1.
         11   -1    0    0    0    0 -0.00000000000E+00 -0.00000000000E+00 -0.45593999997E+02  0.45594000000E+02  0.51100000000E-03 0. -1.
    9900012    2    1    2    0    0  0.17080622420E+02 -0.17554578769E+02  0.20415875929E+02  0.59301970333E+02  0.50000047975E+02 0.  0.
         12    1    1    2    0    0 -0.17080622420E+02  0.17554578769E+02 -0.20415875929E+02  0.31886029667E+02  0.00000000000E+00 0. -1.
         11    1    3    3    0    0  0.21640610475E+02 -0.12533449724E+02  0.15762708711E+01  0.25057693705E+02  0.51100000000E-03 0. -1.
        -11    1    3    3    0    0  0.10492190603E+02 -0.15703605936E+01  0.14928099073E+02  0.18313935629E+02  0.51100000000E-03 0.  1.
         12    1    3    3    0    0 -0.15052178658E+02 -0.34507684513E+01  0.39115059850E+01  0.15930340999E+02  0.00000000000E+00 0. -1.
</event>
<event>
 7    1  0.7012292E-013  0.5930186E+02  0.7816164E-02  0.1266605E+00
        -11   -1    0    0    0    0  0.00000000000E+00  0.00000000000E+00  0.45593999997E+02  0.45594000000E+02  0.51100000000E-03 0.  1.
         11   -1    0    0    0    0 -0.00000000000E+00 -0.00000000000E+00 -0.45593999997E+02  0.45594000000E+02  0.51100000000E-03 0. -1.
    9900012    2    1    2    0    0 -0.77015876543E+01  0.11305612325E+02  0.28802687784E+02  0.59301856520E+02  0.49999840407E+02 0.  0.
         12    1    1    2    0    0  0.77015876543E+01 -0.11305612325E+02 -0.28802687784E+02  0.31886143480E+02  0.00000000000E+00 0. -1.
         11    1    3    3    0    0 -0.30599147565E+01 -0.45760087591E+01  0.13838037583E+02  0.14892757263E+02  0.51100000000E-03 0. -1.
        -11    1    3    3    0    0  0.97570930732E+01  0.22756826781E+02  0.13952929054E+02  0.28421088295E+02  0.51100000000E-03 0.  1.
         12    1    3    3    0    0 -0.14398765971E+02 -0.68752056976E+01  0.10117211464E+01  0.15988010963E+02  0.00000000000E+00 0. -1.
</event>
<event>
 7    1  0.7012292E-013  0.5930194E+02  0.7816164E-02  0.1266605E+00
        -11   -1    0    0    0    0  0.00000000000E+00  0.00000000000E+00  0.45593999997E+02  0.45594000000E+02  0.51100000000E-03 0.  1.
         11   -1    0    0    0    0 -0.00000000000E+00 -0.00000000000E+00 -0.45593999997E+02  0.45594000000E+02  0.51100000000E-03 0. -1.
    9900012    2    1    2    0    0 -0.33246060432E+00 -0.47022183421E+01  0.31535683269E+02  0.59301941814E+02  0.49999995962E+02 0.  0.
         12    1    1    2    0    0  0.33246060432E+00  0.47022183421E+01 -0.31535683269E+02  0.31886058186E+02  0.00000000000E+00 0. -1.
         11    1    3    3    0    0 -0.18272968230E+01 -0.17494371665E+02  0.29088917748E+01  0.17828452127E+02  0.51100000000E-03 0. -1.
        -11    1    3    3    0    0  0.83006961484E+01  0.86550474155E+01  0.24426171927E+00  0.11994626562E+02  0.51100000000E-03 0.  1.
        -12    1    3    3    0    0 -0.68058599297E+01  0.41371059073E+01  0.28382529775E+02  0.29478863125E+02  0.00000000000E+00 0.  1.
</event>
<event>
 7    1  0.7012292E-013  0.5930196E+02  0.7816164E-02  0.1266605E+00
        -11   -1    0    0    0    0  0.00000000000E+00  0.00000000000E+00  0.45593999997E+02  0.45594000000E+02  0.51100000000E-03 0.  1.
         11   -1    0    0    0    0 -0.00000000000E+00 -0.00000000000E+00 -0.45593999997E+02  0.45594000000E+02  0.51100000000E-03 0. -1.
    9900012    2    1    2    0    0 -0.23162201065E+02  0.17943900697E+02  0.12579680368E+02  0.59301960914E+02  0.50000030797E+02 0.  0.
         12    1    1    2    0    0  0.23162201065E+02 -0.17943900697E+02 -0.12579680368E+02  0.31886039086E+02  0.00000000000E+00 0. -1.
         11    1    3    3    0    0  0.70567623225E+01 -0.97016180709E+01  0.41163148836E+01  0.12683191087E+02  0.51100000000E-03 0. -1.
        -11    1    3    3    0    0 -0.24315560398E+02  0.91669148791E+01  0.80906971696E+01  0.27216505779E+02  0.51100000000E-03 0.  1.
         12    1    3    3    0    0 -0.59034029899E+01  0.18478603889E+02  0.37266831471E+00  0.19402264048E+02  0.00000000000E+00 0. -1.
</event>
<event>
 7    1  0.7012292E-013  0.5930195E+02  0.7816164E-02  0.1266605E+00
        -11   -1    0    0    0    0  0.00000000000E+00  0.00000000000E+00  0.45593999997E+02  0.45594000000E+02  0.51100000000E-03 0.  1.
         11   -1    0    0    0    0 -0.00000000000E+00 -0.00000000000E+00 -0.45593999997E+02  0.45594000000E+02  0.51100000000E-03 0. -1.
    9900012    2    1    2    0    0 -0.95394318420E+01  0.10688405315E+02  0.28486445109E+02  0.59301947830E+02  0.50000006934E+02 0.  0.
         12    1    1    2    0    0  0.95394318420E+01 -0.10688405315E+02 -0.28486445109E+02  0.31886052170E+02  0.00000000000E+00 0. -1.
         11    1    3    3    0    0 -0.23534425129E+01  0.48030002674E+01  0.20757432230E+02  0.21435449524E+02  0.51100000000E-03 0. -1.
        -11    1    3    3    0    0  0.56289893228E+01  0.17838871824E+02 -0.18177884087E-01  0.18705913489E+02  0.51100000000E-03 0.  1.
         12    1    3    3    0    0 -0.12814978652E+02 -0.11953466777E+02  0.77471907626E+01  0.19160584817E+02  0.00000000000E+00 0. -1.
</event>
<event>
 7    1  0.8899825E-013  0.5930196E+02  0.7816164E-02  0.1266605E+00
        -11   -1    0    0    0    0  0.00000000000E+00  0.00000000000E+00  0.45593999997E+02  0.45594000000E+02  0.51100000000E-03 0. -1.
         11   -1    0    0    0    0 -0.00000000000E+00 -0.00000000000E+00 -0.45593999997E+02  0.45594000000E+02  0.51100000000E-03 0.  1.
    9900012    2    1    2    0    0  0.10234826840E+02  0.11182541153E+02 -0.28052072817E+02  0.59301957655E+02  0.50000024854E+02 0.  0.
         12    1    1    2    0    0 -0.10234826840E+02 -0.11182541153E+02  0.28052072817E+02  0.31886042345E+02  0.00000000000E+00 0. -1.
         11    1    3    3    0    0  0.15070717690E+02  0.27153716378E+01 -0.24515118927E+01  0.15508374694E+02  0.51100000000E-03 0. -1.
        -11    1    3    3    0    0 -0.40193025481E+01 -0.87949659865E+01 -0.24658200211E+02  0.26486469330E+02  0.51100000000E-03 0.  1.
         12    1    3    3    0    0 -0.81658830218E+00  0.17262135502E+02 -0.94236071325E+00  0.17307113631E+02  0.00000000000E+00 0. -1.
</event>
<event>
 7    1  0.7012292E-013  0.5930186E+02  0.7816164E-02  0.1266605E+00
        -11   -1    0    0    0    0  0.00000000000E+00  0.00000000000E+00  0.45593999997E+02  0.45594000000E+02  0.51100000000E-03 0. -1.
         11   -1    0    0    0    0 -0.00000000000E+00 -0.00000000000E+00 -0.45593999997E+02  0.45594000000E+02  0.51100000000E-03 0.  1.
    9900012    2    1    2    0    0 -0.22648826705E+02  0.15577954065E+02 -0.16158100772E+02  0.59301855289E+02  0.49999838162E+02 0.  0.
         12    1    1    2    0    0  0.22648826705E+02 -0.15577954065E+02  0.16158100772E+02  0.31886144711E+02  0.00000000000E+00 0. -1.
         11    1    3    3    0    0  0.49988529683E+01  0.87168522086E+01 -0.18131718798E+02  0.20729960691E+02  0.51100000000E-03 0. -1.
        -11    1    3    3    0    0 -0.25235407991E+00  0.29377114290E+01 -0.84881291049E+01  0.89856645266E+01  0.51100000000E-03 0.  1.
         12    1    3    3    0    0 -0.27395325594E+02  0.39233904272E+01  0.10461747131E+02  0.29586230072E+02  0.00000000000E+00 0. -1.
</event>
<event>
 7    1  0.7012292E-013  0.5930190E+02  0.7816164E-02  0.1266605E+00
        -11   -1    0    0    0    0  0.00000000000E+00  0.00000000000E+00  0.45593999997E+02  0.45594000000E+02  0.51100000000E-03 0.  1.
         11   -1    0    0    0    0 -0.00000000000E+00 -0.00000000000E+00 -0.45593999997E+02  0.45594000000E+02  0.51100000000E-03 0. -1.
    9900012    2    1    2    0    0  0.13133221017E+02 -0.58592446853E+01  0.28458932815E+02  0.59301904292E+02  0.49999927531E+02 0.  0.
         12    1    1    2    0    0 -0.13133221017E+02  0.58592446853E+01 -0.28458932815E+02  0.31886095708E+02  0.00000000000E+00 0. -1.
         11    1    3    3    0    0  0.83238374244E+01  0.16253965053E+02 -0.20768503989E+01  0.18379090218E+02  0.51100000000E-03 0. -1.
        -11    1    3    3    0    0 -0.39868071109E+00 -0.49820617895E+00 -0.16700605391E+01  0.17878082032E+01  0.51100000000E-03 0.  1.
        -12    1    3    3    0    0  0.52080643033E+01 -0.21615003559E+02  0.32205843753E+02  0.39135005870E+02  0.00000000000E+00 0.  1.
</event>
<event>
 7    1  0.7012292E-013  0.5930194E+02  0.7816164E-02  0.1266605E+00
        -11   -1    0    0    0    0  0.00000000000E+00  0.00000000000E+00  0.45593999997E+02  0.45594000000E+02  0.51100000000E-03 0.  1.
         11   -1    0    0    0    0 -0.00000000000E+00 -0.00000000000E+00 -0.45593999997E+02  0.45594000000E+02  0.51100000000E-03 0. -1.
    9900012    2    1    2    0    0 -0.20994170717E+01 -0.31207510876E+02 -0.61971638269E+01  0.59301935228E+02  0.49999983952E+02 0.  0.
         12    1    1    2    0    0  0.20994170717E+01  0.31207510876E+02  0.61971638269E+01  0.31886064772E+02  0.00000000000E+00 0. -1.
         11    1    3    3    0    0  0.51901970066E+01 -0.10201591267E+02 -0.12604720760E+02  0.17026144456E+02  0.51100000000E-03 0. -1.
        -11    1    3    3    0    0 -0.29524080933E+01 -0.30844646101E+02  0.38535712349E+01  0.31224332149E+02  0.51100000000E-03 0.  1.
         12    1    3    3    0    0 -0.43372059850E+01  0.98387264918E+01  0.25539856983E+01  0.11051458622E+02  0.00000000000E+00 0. -1.
</event>
<event>
 7    1  0.7012292E-013  0.5930194E+02  0.7816164E-02  0.1266605E+00
        -11   -1    0    0    0    0  0.00000000000E+00  0.00000000000E+00  0.45593999997E+02  0.45594000000E+02  0.51100000000E-03 0. -1.
         11   -1    0    0    0    0 -0.00000000000E+00 -0.00000000000E+00 -0.45593999997E+02  0.45594000000E+02  0.51100000000E-03 0.  1.
    9900012    2    1    2    0    0  0.14221376602E+02 -0.20402903634E+01 -0.28465951853E+02  0.59301941101E+02  0.49999994662E+02 0.  0.
         12    1    1    2    0    0 -0.14221376602E+02  0.20402903634E+01  0.28465951853E+02  0.31886058899E+02  0.00000000000E+00 0. -1.
         11    1    3    3    0    0  0.42995641778E+01 -0.10849101210E+02  0.76511690725E+01  0.13954556160E+02  0.51100000000E-03 0. -1.
        -11    1    3    3    0    0  0.89702176002E+01 -0.65838736655E+01 -0.97165634580E+01  0.14772400006E+02  0.51100000000E-03 0.  1.
        -12    1    3    3    0    0  0.95159482405E+00  0.15392684512E+02 -0.26400557467E+02  0.30574984935E+02  0.00000000000E+00 0.  1.
</event>
<event>
 7    1  0.7012292E-013  0.5930199E+02  0.7816164E-02  0.1266605E+00
        -11   -1    0    0    0    0  0.00000000000E+00  0.00000000000E+00  0.45593999997E+02  0.45594000000E+02  0.51100000000E-03 0. -1.
         11   -1    0    0    0    0 -0.00000000000E+00 -0.00000000000E+00 -0.45593999997E+02  0.45594000000E+02  0.51100000000E-03 0.  1.
    9900012    2    1    2    0    0 -0.18322443559E+02  0.25360903915E+02 -0.61506421937E+01  0.59301987632E+02  0.50000079523E+02 0.  0.
         12    1    1    2    0    0  0.18322443559E+02 -0.25360903915E+02  0.61506421937E+01  0.31886012368E+02  0.00000000000E+00 0. -1.
         11    1    3    3    0    0 -0.21123643145E+02  0.76725761153E+01  0.12185657812E+02  0.25564956103E+02  0.51100000000E-03 0. -1.
        -11    1    3    3    0    0 -0.89549609638E+01  0.11875104490E+02 -0.71640944335E+01  0.16508594181E+02  0.51100000000E-03 0.  1.
         12    1    3    3    0    0  0.11756160550E+02  0.58132233095E+01 -0.11172205572E+02  0.17228437348E+02  0.00000000000E+00 0. -1.
</event>
<event>
 7    1  0.7012292E-013  0.5930192E+02  0.7816164E-02  0.1266605E+00
        -11   -1    0    0    0    0  0.00000000000E+00  0.00000000000E+00  0.45593999997E+02  0.45594000000E+02  0.51100000000E-03 0. -1.
         11   -1    0    0    0    0 -0.00000000000E+00 -0.00000000000E+00 -0.45593999997E+02  0.45594000000E+02  0.51100000000E-03 0.  1.
    9900012    2    1    2    0    0  0.17110394014E+02 -0.11370056256E+02 -0.24386022562E+02  0.59301923745E+02  0.49999963009E+02 0.  0.
         12    1    1    2    0    0 -0.17110394014E+02  0.11370056256E+02  0.24386022562E+02  0.31886076255E+02  0.00000000000E+00 0. -1.
         11    1    3    3    0    0 -0.67225935003E+01 -0.19174325520E+02 -0.11325371483E+02  0.23261815535E+02  0.51100000000E-03 0. -1.
        -11    1    3    3    0    0  0.49822652932E+01  0.76143814500E+01  0.46106534199E+01  0.10200975323E+02  0.51100000000E-03 0.  1.
        -12    1    3    3    0    0  0.18850722221E+02  0.18988781425E+00 -0.17671304499E+02  0.25839132887E+02  0.00000000000E+00 0.  1.
</event>
<event>
 7    1  0.7012292E-013  0.5930192E+02  0.7816164E-02  0.1266605E+00
        -11   -1    0    0    0    0  0.00000000000E+00  0.00000000000E+00  0.45593999997E+02  0.45594000000E+02  0.51100000000E-03 0. -1.
         11   -1    0    0    0    0 -0.00000000000E+00 -0.00000000000E+00 -0.45593999997E+02  0.45594000000E+02  0.51100000000E-03 0.  1.
    9900012    2    1    2    0    0 -0.24716553747E+02 -0.11573942571E+02 -0.16488122772E+02  0.59301915757E+02  0.49999948442E+02 0.  0.
         12    1    1    2    0    0  0.24716553747E+02  0.11573942571E+02  0.16488122772E+02  0.31886084243E+02  0.00000000000E+00 0. -1.
         11    1    3    3    0    0 -0.15039260797E+00 -0.26582772112E+02 -0.92160756055E+01  0.28135430349E+02  0.51100000000E-03 0. -1.
        -11    1    3    3    0    0 -0.23994528035E+01  0.40589621244E+01 -0.40842795627E+01  0.62380996378E+01  0.51100000000E-03 0.  1.
        -12    1    3    3    0    0 -0.22166708336E+02  0.10949867416E+02 -0.31877676035E+01  0.24928385771E+02  0.00000000000E+00 0.  1.
</event>
<event>
 7    1  0.7012292E-013  0.5930195E+02  0.7816164E-02  0.1266605E+00
        -11   -1    0    0    0    0  0.00000000000E+00  0.00000000000E+00  0.45593999997E+02  0.45594000000E+02  0.51100000000E-03 0.  1.
         11   -1    0    0    0    0 -0.00000000000E+00 -0.00000000000E+00 -0.45593999997E+02  0.45594000000E+02  0.51100000000E-03 0. -1.
    9900012    2    1    2    0    0  0.49232639638E+01 -0.24323864376E+02  0.20020774691E+02  0.59301947792E+02  0.50000006864E+02 0.  0.
         12    1    1    2    0    0 -0.49232639638E+01  0.24323864376E+02 -0.20020774691E+02  0.31886052208E+02  0.00000000000E+00 0. -1.
         11    1    3    3    0    0 -0.58757041493E+01 -0.20537720516E+02  0.17282132908E+02  0.27477153807E+02  0.51100000000E-03 0. -1.
        -11    1    3    3    0    0  0.44969058253E+01 -0.14968466726E+02 -0.55040558197E+01  0.16570207870E+02  0.51100000000E-03 0.  1.
         12    1    3    3    0    0  0.63020622877E+01  0.11182322866E+02  0.82426976027E+01  0.15254586115E+02  0.00000000000E+00 0. -1.
</event>
<event>
 7    1  0.7012292E-013  0.5930195E+02  0.7816164E-02  0.1266605E+00
        -11   -1    0    0    0    0  0.00000000000E+00  0.00000000000E+00  0.45593999997E+02  0.45594000000E+02  0.51100000000E-03 0.  1.
         11   -1    0    0    0    0 -0.00000000000E+00 -0.00000000000E+00 -0.45593999997E+02  0.45594000000E+02  0.51100000000E-03 0. -1.
    9900012    2    1    2    0    0 -0.11628627105E+02 -0.88971246323E+01  0.28325541626E+02  0.59301951272E+02  0.50000013212E+02 0.  0.
         12    1    1    2    0    0  0.11628627105E+02  0.88971246323E+01 -0.28325541626E+02  0.31886048728E+02  0.00000000000E+00 0. -1.
         11    1    3    3    0    0 -0.71064270560E+01 -0.13936816353E+01 -0.31004091269E+01  0.78775751991E+01  0.51100000000E-03 0. -1.
        -11    1    3    3    0    0 -0.12667049621E+02  0.12788078552E+02  0.19424431534E+02  0.26482024843E+02  0.51100000000E-03 0.  1.
        -12    1    3    3    0    0  0.81448495716E+01 -0.20291521549E+02  0.12001519219E+02  0.24942351230E+02  0.00000000000E+00 0.  1.
</event>
<event>
 7    1  0.7012292E-013  0.5930194E+02  0.7816164E-02  0.1266605E+00
        -11   -1    0    0    0    0  0.00000000000E+00  0.00000000000E+00  0.45593999997E+02  0.45594000000E+02  0.51100000000E-03 0.  1.
         11   -1    0    0    0    0 -0.00000000000E+00 -0.00000000000E+00 -0.45593999997E+02  0.45594000000E+02  0.51100000000E-03 0. -1.
    9900012    2    1    2    0    0  0.73389180143E+01  0.88188152200E+00  0.31017470924E+02  0.59301938230E+02  0.49999989427E+02 0.  0.
         12    1    1    2    0    0 -0.73389180143E+01 -0.88188152200E+00 -0.31017470924E+02  0.31886061770E+02  0.00000000000E+00 0. -1.
         11    1    3    3    0    0  0.18601813125E+02 -0.70683723544E+01  0.10103285528E+02  0.22317386003E+02  0.51100000000E-03 0. -1.
        -11    1    3    3    0    0 -0.15670214442E+02 -0.30689060709E+01  0.19233880978E+02  0.24998319601E+02  0.51100000000E-03 0.  1.
         12    1    3    3    0    0  0.44073193312E+01  0.11019159947E+02  0.16803044177E+01  0.11986232626E+02  0.00000000000E+00 0. -1.
</event>
<event>
 7    1  0.7012292E-013  0.5930196E+02  0.7816164E-02  0.1266605E+00
        -11   -1    0    0    0    0  0.00000000000E+00  0.00000000000E+00  0.45593999997E+02  0.45594000000E+02  0.51100000000E-03 0.  1.
         11   -1    0    0    0    0 -0.00000000000E+00 -0.00000000000E+00 -0.45593999997E+02  0.45594000000E+02  0.51100000000E-03 0. -1.
    9900012    2    1    2    0    0 -0.69956323275E+01 -0.23082294311E+02  0.20856378975E+02  0.59301957187E+02  0.50000023999E+02 0.  0.
         12    1    1    2    0    0  0.69956323275E+01  0.23082294311E+02 -0.20856378975E+02  0.31886042813E+02  0.00000000000E+00 0. -1.
         11    1    3    3    0    0 -0.15256260147E+01 -0.14431190622E+01 -0.40112864378E+01  0.45277529208E+01  0.51100000000E-03 0. -1.
        -11    1    3    3    0    0  0.17570691648E+02 -0.15886594252E+02  0.59799766127E+01  0.24430988569E+02  0.51100000000E-03 0.  1.
        -12    1    3    3    0    0 -0.23040697960E+02 -0.57525809967E+01  0.18887688800E+02  0.30343215697E+02  0.00000000000E+00 0.  1.
</event>
<event>
 7    1  0.7012292E-013  0.5930193E+02  0.7816164E-02  0.1266605E+00
        -11   -1    0    0    0    0  0.00000000000E+00  0.00000000000E+00  0.45593999997E+02  0.45594000000E+02  0.51100000000E-03 0. -1.
         11   -1    0    0    0    0 -0.00000000000E+00 -0.00000000000E+00 -0.45593999997E+02  0.45594000000E+02  0.51100000000E-03 0.  1.
    9900012    2    1    2    0    0 -0.10275849938E+02 -0.11758841700E+02 -0.27800320901E+02  0.59301932630E+02  0.49999979214E+02 0.  0.
         12    1    1    2    0    0  0.10275849938E+02  0.11758841700E+02  0.27800320901E+02  0.31886067370E+02  0.00000000000E+00 0. -1.
         11    1    3    3    0    0  0.58807425540E+00  0.11589469046E+02 -0.46463268481E+01  0.12499999102E+02  0.51100000000E-03 0. -1.
        -11    1    3    3    0    0 -0.42768629769E+01 -0.11394120129E+02  0.67596443033E+01  0.13921577562E+02  0.51100000000E-03 0.  1.
         12    1    3    3    0    0 -0.65870612170E+01 -0.11954190617E+02 -0.29913638356E+02  0.32880355967E+02  0.00000000000E+00 0. -1.
</event>
<event>
 7    1  0.7012292E-013  0.5930193E+02  0.7816164E-02  0.1266605E+00
        -11   -1    0    0    0    0  0.00000000000E+00  0.00000000000E+00  0.45593999997E+02  0.45594000000E+02  0.51100000000E-03 0. -1.
         11   -1    0    0    0    0 -0.00000000000E+00 -0.00000000000E+00 -0.45593999997E+02  0.45594000000E+02  0.51100000000E-03 0.  1.
    9900012    2    1    2    0    0 -0.21891732907E+02 -0.15247825745E+02 -0.17463602487E+02  0.59301928253E+02  0.49999971231E+02 0.  0.
         12    1    1    2    0    0  0.21891732907E+02  0.15247825745E+02  0.17463602487E+02  0.31886071747E+02  0.00000000000E+00 0. -1.
         11    1    3    3    0    0 -0.15690987614E+02  0.29271819779E+01  0.42304315689E+01  0.16512784083E+02  0.51100000000E-03 0. -1.
        -11    1    3    3    0    0 -0.10683349498E+02  0.37784127132E+01 -0.16112017551E+02  0.19697905191E+02  0.51100000000E-03 0.  1.
        -12    1    3    3    0    0  0.44826042046E+01 -0.21953420436E+02 -0.55820165049E+01  0.23091238979E+02  0.00000000000E+00 0.  1.
</event>
<event>
 7    1  0.7012292E-013  0.5930197E+02  0.7816164E-02  0.1266605E+00
        -11   -1    0    0    0    0  0.00000000000E+00  0.00000000000E+00  0.45593999997E+02  0.45594000000E+02  0.51100000000E-03 0.  1.
         11   -1    0    0    0    0 -0.00000000000E+00 -0.00000000000E+00 -0.45593999997E+02  0.45594000000E+02  0.51100000000E-03 0. -1.
    9900012    2    1    2    0    0 -0.13349798421E+02 -0.23690427789E+02  0.16651295296E+02  0.59301966666E+02  0.50000041287E+02 0.  0.
         12    1    1    2    0    0  0.13349798421E+02  0.23690427789E+02 -0.16651295296E+02  0.31886033334E+02  0.00000000000E+00 0. -1.
         11    1    3    3    0    0 -0.15930895813E+02 -0.29114279034E+02  0.12867038730E+02  0.35594878438E+02  0.51100000000E-03 0. -1.
        -11    1    3    3    0    0 -0.44862506648E+01 -0.74354262270E+01  0.69302965372E+00  0.87116185963E+01  0.51100000000E-03 0.  1.
        -12    1    3    3    0    0  0.70673480571E+01  0.12859277472E+02  0.30912269117E+01  0.14995469632E+02  0.00000000000E+00 0.  1.
</event>
<event>
 7    1  0.7012292E-013  0.5930192E+02  0.7816164E-02  0.1266605E+00
        -11   -1    0    0    0    0  0.00000000000E+00  0.00000000000E+00  0.45593999997E+02  0.45594000000E+02  0.51100000000E-03 0.  1.
         11   -1    0    0    0    0 -0.00000000000E+00 -0.00000000000E+00 -0.45593999997E+02  0.45594000000E+02  0.51100000000E-03 0. -1.
    9900012    2    1    2    0    0  0.14088506511E+01 -0.32159640383E+01  0.31692189566E+02  0.59301918956E+02  0.49999954276E+02 0.  0.
         12    1    1    2    0    0 -0.14088506511E+01  0.32159640383E+01 -0.31692189566E+02  0.31886081044E+02  0.00000000000E+00 0. -1.
         11    1    3    3    0    0 -0.21935914963E+01 -0.42697882957E+01  0.29111276586E+02  0.29504395613E+02  0.51100000000E-03 0. -1.
        -11    1    3    3    0    0 -0.12343827116E+01  0.82510325991E+01  0.13490291285E+02  0.15861626615E+02  0.51100000000E-03 0.  1.
         12    1    3    3    0    0  0.48368248590E+01 -0.71972083417E+01 -0.10909378306E+02  0.13935896729E+02  0.00000000000E+00 0. -1.
</event>
<event>
 7    1  0.7012292E-013  0.5930168E+02  0.7816164E-02  0.1266606E+00
        -11   -1    0    0    0    0  0.00000000000E+00  0.00000000000E+00  0.45593999997E+02  0.45594000000E+02  0.51100000000E-03 0. -1.
         11   -1    0    0    0    0 -0.00000000000E+00 -0.00000000000E+00 -0.45593999997E+02  0.45594000000E+02  0.51100000000E-03 0.  1.
    9900012    2    1    2    0    0  0.30482340656E+02 -0.93550750570E+01  0.21685178765E+00  0.59301677762E+02  0.49999514393E+02 0.  0.
         12    1    1    2    0    0 -0.30482340656E+02  0.93550750570E+01 -0.21685178765E+00  0.31886322238E+02  0.00000000000E+00 0. -1.
         11    1    3    3    0    0  0.88167893668E+01 -0.71340953463E+01  0.52377229581E+01  0.12492591132E+02  0.51100000000E-03 0.  1.
        -11    1    3    3    0    0  0.26344308229E+02 -0.72774542186E+01  0.10928938193E+02  0.29435108395E+02  0.51100000000E-03 0. -1.
         12    1    3    3    0    0 -0.46787569400E+01  0.50564745078E+01 -0.15949809364E+02  0.17373978234E+02  0.00000000000E+00 0. -1.
</event>
<event>
 7    1  0.7012292E-013  0.5930195E+02  0.7816164E-02  0.1266605E+00
        -11   -1    0    0    0    0  0.00000000000E+00  0.00000000000E+00  0.45593999997E+02  0.45594000000E+02  0.51100000000E-03 0.  1.
         11   -1    0    0    0    0 -0.00000000000E+00 -0.00000000000E+00 -0.45593999997E+02  0.45594000000E+02  0.51100000000E-03 0. -1.
    9900012    2    1    2    0    0  0.14037767795E+01 -0.29378626975E+02  0.12314446152E+02  0.59301954522E+02  0.50000019138E+02 0.  0.
         12    1    1    2    0    0 -0.14037767795E+01  0.29378626975E+02 -0.12314446152E+02  0.31886045478E+02  0.00000000000E+00 0. -1.
         11    1    3    3    0    0  0.48907297973E+00 -0.13174979317E+02 -0.94149724541E+01  0.16200647485E+02  0.51100000000E-03 0. -1.
        -11    1    3    3    0    0  0.70563293837E+01 -0.22971769565E+02  0.57760371230E+01  0.24715513072E+02  0.51100000000E-03 0.  1.
        -12    1    3    3    0    0 -0.61416255839E+01  0.67681219059E+01  0.15953381483E+02  0.18385793964E+02  0.00000000000E+00 0.  1.
</event>
<event>
 7    1  0.7012292E-013  0.5930195E+02  0.7816164E-02  0.1266605E+00
        -11   -1    0    0    0    0  0.00000000000E+00  0.00000000000E+00  0.45593999997E+02  0.45594000000E+02  0.51100000000E-03 0.  1.
         11   -1    0    0    0    0 -0.00000000000E+00 -0.00000000000E+00 -0.45593999997E+02  0.45594000000E+02  0.51100000000E-03 0. -1.
    9900012    2    1    2    0    0  0.60728617074E+01 -0.30381898448E+02  0.75353011419E+01  0.59301950293E+02  0.50000011426E+02 0.  0.
         12    1    1    2    0    0 -0.60728617074E+01  0.30381898448E+02 -0.75353011419E+01  0.31886049707E+02  0.00000000000E+00 0. -1.
         11    1    3    3    0    0 -0.83038841453E+00 -0.98521300153E+01  0.11458778869E+02  0.15134649788E+02  0.51100000000E-03 0. -1.
        -11    1    3    3    0    0 -0.13659525525E+02 -0.18074104416E+02  0.16690729471E+01  0.22716551076E+02  0.51100000000E-03 0.  1.
         12    1    3    3    0    0  0.20562775646E+02 -0.24556640162E+01 -0.55925506746E+01  0.21450749430E+02  0.00000000000E+00 0. -1.
</event>
<event>
 7    1  0.7012292E-013  0.5930194E+02  0.7816164E-02  0.1266605E+00
        -11   -1    0    0    0    0  0.00000000000E+00  0.00000000000E+00  0.45593999997E+02  0.45594000000E+02  0.51100000000E-03 0.  1.
         11   -1    0    0    0    0 -0.00000000000E+00 -0.00000000000E+00 -0.45593999997E+02  0.45594000000E+02  0.51100000000E-03 0. -1.
    9900012    2    1    2    0    0 -0.45975810487E+01 -0.89295013882E+01  0.30262961444E+02  0.59301943770E+02  0.49999999530E+02 0.  0.
         12    1    1    2    0    0  0.45975810487E+01  0.89295013882E+01 -0.30262961444E+02  0.31886056230E+02  0.00000000000E+00 0. -1.
         11    1    3    3    0    0  0.46052774889E+01 -0.18381526254E+01  0.35179843021E+02  0.35527577191E+02  0.51100000000E-03 0. -1.
        -11    1    3    3    0    0  0.67680668761E+00 -0.87725810387E-01  0.68529640035E+01  0.68868627839E+01  0.51100000000E-03 0.  1.
         12    1    3    3    0    0 -0.98796652251E+01 -0.70036229523E+01 -0.11769845581E+02  0.16887503795E+02  0.00000000000E+00 0. -1.
</event>
<event>
 7    1  0.7012292E-013  0.5930194E+02  0.7816164E-02  0.1266605E+00
        -11   -1    0    0    0    0  0.00000000000E+00  0.00000000000E+00  0.45593999997E+02  0.45594000000E+02  0.51100000000E-03 0.  1.
         11   -1    0    0    0    0 -0.00000000000E+00 -0.00000000000E+00 -0.45593999997E+02  0.45594000000E+02  0.51100000000E-03 0. -1.
    9900012    2    1    2    0    0 -0.12233957808E+02  0.16228076881E+02  0.24570324748E+02  0.59301936255E+02  0.49999985824E+02 0.  0.
         12    1    1    2    0    0  0.12233957808E+02 -0.16228076881E+02 -0.24570324748E+02  0.31886063745E+02  0.00000000000E+00 0. -1.
         11    1    3    3    0    0 -0.15480526996E+01  0.26956598552E+02  0.99729556078E+01  0.28783928093E+02  0.51100000000E-03 0. -1.
        -11    1    3    3    0    0 -0.96471075882E+01  0.49273744570E+01  0.81434760902E+01  0.13552191961E+02  0.51100000000E-03 0.  1.
         12    1    3    3    0    0 -0.10387975198E+01 -0.15655896128E+02  0.64538930505E+01  0.16965816201E+02  0.00000000000E+00 0. -1.
</event>
<event>
 7    1  0.7012292E-013  0.5930194E+02  0.7816164E-02  0.1266605E+00
        -11   -1    0    0    0    0  0.00000000000E+00  0.00000000000E+00  0.45593999997E+02  0.45594000000E+02  0.51100000000E-03 0.  1.
         11   -1    0    0    0    0 -0.00000000000E+00 -0.00000000000E+00 -0.45593999997E+02  0.45594000000E+02  0.51100000000E-03 0. -1.
    9900012    2    1    2    0    0 -0.18660564796E+02  0.22006642243E+02  0.13572459821E+02  0.59301942751E+02  0.49999997671E+02 0.  0.
         12    1    1    2    0    0  0.18660564796E+02 -0.22006642243E+02 -0.13572459821E+02  0.31886057249E+02  0.00000000000E+00 0. -1.
         11    1    3    3    0    0 -0.37139015658E+01 -0.96401248751E+01 -0.54829117551E+01  0.11695614307E+02  0.51100000000E-03 0. -1.
        -11    1    3    3    0    0 -0.21416667320E+02  0.16338703569E+02  0.10471131979E+02  0.28901063624E+02  0.51100000000E-03 0.  1.
         12    1    3    3    0    0  0.64700040890E+01  0.15308063548E+02  0.85842395968E+01  0.18705264820E+02  0.00000000000E+00 0. -1.
</event>
<event>
 7    1  0.7012292E-013  0.5930194E+02  0.7816164E-02  0.1266605E+00
        -11   -1    0    0    0    0  0.00000000000E+00  0.00000000000E+00  0.45593999997E+02  0.45594000000E+02  0.51100000000E-03 0.  1.
         11   -1    0    0    0    0 -0.00000000000E+00 -0.00000000000E+00 -0.45593999997E+02  0.45594000000E+02  0.51100000000E-03 0. -1.
    9900012    2    1    2    0    0 -0.27177437725E+02  0.10467907366E+01  0.16643667947E+02  0.59301943881E+02  0.49999999732E+02 0.  0.
         12    1    1    2    0    0  0.27177437725E+02 -0.10467907366E+01 -0.16643667947E+02  0.31886056119E+02  0.00000000000E+00 0. -1.
         11    1    3    3    0    0  0.55254457155E+01 -0.90647364053E+01 -0.33027887338E+01  0.11117931918E+02  0.51100000000E-03 0. -1.
        -11    1    3    3    0    0  0.32622322099E+01  0.48278374876E+01  0.80465366520E+01  0.99346326631E+01  0.51100000000E-03 0.  1.
        -12    1    3    3    0    0 -0.35965115650E+02  0.52836896543E+01  0.11899920029E+02  0.38249379299E+02  0.00000000000E+00 0.  1.
</event>
<event>
 7    1  0.7012292E-013  0.5930193E+02  0.7816164E-02  0.1266605E+00
        -11   -1    0    0    0    0  0.00000000000E+00  0.00000000000E+00  0.45593999997E+02  0.45594000000E+02  0.51100000000E-03 0. -1.
         11   -1    0    0    0    0 -0.00000000000E+00 -0.00000000000E+00 -0.45593999997E+02  0.45594000000E+02  0.51100000000E-03 0.  1.
    9900012    2    1    2    0    0 -0.31782780576E+02  0.22185268319E+01  0.12862076797E+01  0.59301931998E+02  0.49999978060E+02 0.  0.
         12    1    1    2    0    0  0.31782780576E+02 -0.22185268319E+01 -0.12862076797E+01  0.31886068002E+02  0.00000000000E+00 0. -1.
         11    1    3    3    0    0  0.47104185515E+01 -0.77844872369E+01 -0.18889923109E+01  0.92927163243E+01  0.51100000000E-03 0. -1.
        -11    1    3    3    0    0 -0.34669261849E+01  0.12926330586E+02  0.92941738362E+01  0.16293902760E+02  0.51100000000E-03 0.  1.
         12    1    3    3    0    0 -0.33026272942E+02 -0.29233165174E+01 -0.61189738456E+01  0.33715312914E+02  0.00000000000E+00 0. -1.
</event>
<event>
 7    1  0.7012292E-013  0.5930191E+02  0.7816164E-02  0.1266605E+00
        -11   -1    0    0    0    0  0.00000000000E+00  0.00000000000E+00  0.45593999997E+02  0.45594000000E+02  0.51100000000E-03 0. -1.
         11   -1    0    0    0    0 -0.00000000000E+00 -0.00000000000E+00 -0.45593999997E+02  0.45594000000E+02  0.51100000000E-03 0.  1.
    9900012    2    1    2    0    0 -0.41737502386E+01 -0.45485519973E+01 -0.31282795358E+02  0.59301908961E+02  0.49999936047E+02 0.  0.
         12    1    1    2    0    0  0.41737502386E+01  0.45485519973E+01  0.31282795358E+02  0.31886091039E+02  0.00000000000E+00 0. -1.
         11    1    3    3    0    0 -0.11242637875E+02  0.12814304294E+02 -0.34032989367E+01  0.17383490583E+02  0.51100000000E-03 0.  1.
        -11    1    3    3    0    0 -0.60478907323E+01  0.27912226199E+01 -0.29609851418E+01  0.72893991038E+01  0.51100000000E-03 0. -1.
         12    1    3    3    0    0  0.13116778368E+02 -0.20154078911E+02 -0.24918511280E+02  0.34629019275E+02  0.00000000000E+00 0. -1.
</event>
<event>
 7    1  0.7012292E-013  0.5930167E+02  0.7816164E-02  0.1266606E+00
        -11   -1    0    0    0    0  0.00000000000E+00  0.00000000000E+00  0.45593999997E+02  0.45594000000E+02  0.51100000000E-03 0. -1.
         11   -1    0    0    0    0 -0.00000000000E+00 -0.00000000000E+00 -0.45593999997E+02  0.45594000000E+02  0.51100000000E-03 0.  1.
    9900012    2    1    2    0    0  0.26328896707E+02  0.37291612435E+00 -0.17983000324E+02  0.59301667992E+02  0.49999496574E+02 0.  0.
         12    1    1    2    0    0 -0.26328896707E+02 -0.37291612435E+00  0.17983000324E+02  0.31886332008E+02  0.00000000000E+00 0. -1.
         11    1    3    3    0    0  0.16181178231E+02  0.70474143689E+01  0.52476038680E+01  0.18412873889E+02  0.51100000000E-03 0. -1.
        -11    1    3    3    0    0  0.37572405242E+01 -0.16188646412E+02 -0.19694270645E+01  0.16735225491E+02  0.51100000000E-03 0.  1.
         12    1    3    3    0    0  0.63904779522E+01  0.95141481680E+01 -0.21261177128E+02  0.24153568612E+02  0.00000000000E+00 0. -1.
</event>
<event>
 7    1  0.7012292E-013  0.5930191E+02  0.7816164E-02  0.1266605E+00
        -11   -1    0    0    0    0  0.00000000000E+00  0.00000000000E+00  0.45593999997E+02  0.45594000000E+02  0.51100000000E-03 0. -1.
         11   -1    0    0    0    0 -0.00000000000E+00 -0.00000000000E+00 -0.45593999997E+02  0.45594000000E+02  0.51100000000E-03 0.  1.
    9900012    2    1    2    0    0  0.12258536222E+02  0.15849291971E+02 -0.24804251695E+02  0.59301911051E+02  0.49999939859E+02 0.  0.
         12    1    1    2    0    0 -0.12258536222E+02 -0.15849291971E+02  0.24804251695E+02  0.31886088949E+02  0.00000000000E+00 0. -1.
         11    1    3    3    0    0  0.91017461203E+01  0.24256387371E+01 -0.86194761869E+01  0.12767962865E+02  0.51100000000E-03 0. -1.
        -11    1    3    3    0    0  0.57098988315E+01 -0.13855993098E+02 -0.11143024788E+02  0.18675076735E+02  0.51100000000E-03 0.  1.
         12    1    3    3    0    0 -0.25531087298E+01  0.27279646332E+02 -0.50417507207E+01  0.27858871451E+02  0.00000000000E+00 0. -1.
</event>
<event>
 7    1  0.7012292E-013  0.5930193E+02  0.7816164E-02  0.1266605E+00
        -11   -1    0    0    0    0  0.00000000000E+00  0.00000000000E+00  0.45593999997E+02  0.45594000000E+02  0.51100000000E-03 0. -1.
         11   -1    0    0    0    0 -0.00000000000E+00 -0.00000000000E+00 -0.45593999997E+02  0.45594000000E+02  0.51100000000E-03 0.  1.
    9900012    2    1    2    0    0  0.56490580641E+01  0.24160932326E+02 -0.20026450166E+02  0.59301933856E+02  0.49999981449E+02 0.  0.
         12    1    1    2    0    0 -0.56490580641E+01 -0.24160932326E+02  0.20026450166E+02  0.31886066144E+02  0.00000000000E+00 0. -1.
         11    1    3    3    0    0  0.11712007820E+02 -0.42532948908E+01  0.71913080482E+00  0.12481137527E+02  0.51100000000E-03 0. -1.
        -11    1    3    3    0    0  0.95977044519E+01  0.46435505122E+00 -0.24090973707E+01  0.99063266028E+01  0.51100000000E-03 0.  1.
        -12    1    3    3    0    0 -0.15660654208E+02  0.27949872166E+02 -0.18336483600E+02  0.36914469726E+02  0.00000000000E+00 0.  1.
</event>
<event>
 7    1  0.7012292E-013  0.5930195E+02  0.7816164E-02  0.1266605E+00
        -11   -1    0    0    0    0  0.00000000000E+00  0.00000000000E+00  0.45593999997E+02  0.45594000000E+02  0.51100000000E-03 0.  1.
         11   -1    0    0    0    0 -0.00000000000E+00 -0.00000000000E+00 -0.45593999997E+02  0.45594000000E+02  0.51100000000E-03 0. -1.
    9900012    2    1    2    0    0 -0.25212877166E+02 -0.10538618215E+02 -0.16430720636E+02  0.59301949296E+02  0.50000009607E+02 0.  0.
         12    1    1    2    0    0  0.25212877166E+02  0.10538618215E+02  0.16430720636E+02  0.31886050704E+02  0.00000000000E+00 0. -1.
         11    1    3    3    0    0  0.67550346415E+01 -0.25597797715E+01 -0.93113029438E+01  0.11784877100E+02  0.51100000000E-03 0. -1.
        -11    1    3    3    0    0 -0.14563798356E+02 -0.13396507268E+02 -0.17607155752E+02  0.26487403864E+02  0.51100000000E-03 0.  1.
        -12    1    3    3    0    0 -0.17404113452E+02  0.54176688243E+01  0.10487738059E+02  0.21029668332E+02  0.00000000000E+00 0.  1.
</event>
<event>
 7    1  0.7012292E-013  0.5930196E+02  0.7816164E-02  0.1266605E+00
        -11   -1    0    0    0    0  0.00000000000E+00  0.00000000000E+00  0.45593999997E+02  0.45594000000E+02  0.51100000000E-03 0. -1.
         11   -1    0    0    0    0 -0.00000000000E+00 -0.00000000000E+00 -0.45593999997E+02  0.45594000000E+02  0.51100000000E-03 0.  1.
    9900012    2    1    2    0    0  0.26813466673E+02  0.10069981014E+02  0.14012599548E+02  0.59301961382E+02  0.50000031649E+02 0.  0.
         12    1    1    2    0    0 -0.26813466673E+02 -0.10069981014E+02 -0.14012599548E+02  0.31886038618E+02  0.00000000000E+00 0. -1.
         11    1    3    3    0    0  0.18440030544E+02 -0.18953113541E+01 -0.14164143199E+01  0.18591211939E+02  0.51100000000E-03 0. -1.
        -11    1    3    3    0    0  0.13079067952E+02 -0.90032183307E+01  0.40168690368E+01  0.16378497976E+02  0.51100000000E-03 0.  1.
         12    1    3    3    0    0 -0.47056318226E+01  0.20968510699E+02  0.11412144831E+02  0.24332251467E+02  0.00000000000E+00 0. -1.
</event>
<event>
 7    1  0.7012292E-013  0.5930196E+02  0.7816164E-02  0.1266605E+00
        -11   -1    0    0    0    0  0.00000000000E+00  0.00000000000E+00  0.45593999997E+02  0.45594000000E+02  0.51100000000E-03 0.  1.
         11   -1    0    0    0    0 -0.00000000000E+00 -0.00000000000E+00 -0.45593999997E+02  0.45594000000E+02  0.51100000000E-03 0. -1.
    9900012    2    1    2    0    0  0.17433093478E+01 -0.16504800035E+02 -0.27226315757E+02  0.59301955696E+02  0.50000021280E+02 0.  0.
         12    1    1    2    0    0 -0.17433093478E+01  0.16504800035E+02  0.27226315757E+02  0.31886044304E+02  0.00000000000E+00 0. -1.
         11    1    3    3    0    0 -0.10274791778E+01  0.30661813107E+01 -0.26218060596E+02  0.26416734903E+02  0.51100000000E-03 0. -1.
        -11    1    3    3    0    0  0.45567344990E+01 -0.69042891194E+01 -0.12962327834E+02  0.15377092725E+02  0.51100000000E-03 0.  1.
        -12    1    3    3    0    0 -0.17859459734E+01 -0.12666692226E+02  0.11954072673E+02  0.17508128068E+02  0.00000000000E+00 0.  1.
</event>
<event>
 7    1  0.7012292E-013  0.5930194E+02  0.7816164E-02  0.1266605E+00
        -11   -1    0    0    0    0  0.00000000000E+00  0.00000000000E+00  0.45593999997E+02  0.45594000000E+02  0.51100000000E-03 0.  1.
         11   -1    0    0    0    0 -0.00000000000E+00 -0.00000000000E+00 -0.45593999997E+02  0.45594000000E+02  0.51100000000E-03 0. -1.
    9900012    2    1    2    0    0 -0.26418225538E+01  0.17216189936E+02  0.26708512326E+02  0.59301936383E+02  0.49999986058E+02 0.  0.
         12    1    1    2    0    0  0.26418225538E+01 -0.17216189936E+02 -0.26708512326E+02  0.31886063617E+02  0.00000000000E+00 0. -1.
         11    1    3    3    0    0 -0.15952364476E+01  0.20229833529E+02  0.85703080781E+01  0.22028189321E+02  0.51100000000E-03 0. -1.
        -11    1    3    3    0    0 -0.77938412628E+01  0.95805443004E+01 -0.20722298838E+01  0.12522975991E+02  0.51100000000E-03 0.  1.
        -12    1    3    3    0    0  0.67472551566E+01 -0.12594187893E+02  0.20210434132E+02  0.24750771071E+02  0.00000000000E+00 0.  1.
</event>
<event>
 7    1  0.7012292E-013  0.5930197E+02  0.7816164E-02  0.1266605E+00
        -11   -1    0    0    0    0  0.00000000000E+00  0.00000000000E+00  0.45593999997E+02  0.45594000000E+02  0.51100000000E-03 0.  1.
         11   -1    0    0    0    0 -0.00000000000E+00 -0.00000000000E+00 -0.45593999997E+02  0.45594000000E+02  0.51100000000E-03 0. -1.
    9900012    2    1    2    0    0 -0.18326837441E+02 -0.22984787418E+02  0.12350937682E+02  0.59301967245E+02  0.50000042342E+02 0.  0.
         12    1    1    2    0    0  0.18326837441E+02  0.22984787418E+02 -0.12350937682E+02  0.31886032755E+02  0.00000000000E+00 0. -1.
         11    1    3    3    0    0  0.42933083374E+01 -0.83610861124E+01  0.15573557211E+01  0.95270989583E+01  0.51100000000E-03 0. -1.
        -11    1    3    3    0    0 -0.24604409940E+01 -0.86979055055E+01  0.23528024272E+02  0.25204667355E+02  0.51100000000E-03 0.  1.
         12    1    3    3    0    0 -0.20159704784E+02 -0.59257958004E+01 -0.12734442311E+02  0.24570200932E+02  0.00000000000E+00 0. -1.
</event>
<event>
 7    1  0.7012292E-013  0.5930172E+02  0.7816164E-02  0.1266606E+00
        -11   -1    0    0    0    0  0.00000000000E+00  0.00000000000E+00  0.45593999997E+02  0.45594000000E+02  0.51100000000E-03 0.  1.
         11   -1    0    0    0    0 -0.00000000000E+00 -0.00000000000E+00 -0.45593999997E+02  0.45594000000E+02  0.51100000000E-03 0. -1.
    9900012    2    1    2    0    0  0.14985406006E+02  0.21046461529E+02  0.18687400545E+02  0.59301719640E+02  0.49999590770E+02 0.  0.
         12    1    1    2    0    0 -0.14985406006E+02 -0.21046461529E+02 -0.18687400545E+02  0.31886280360E+02  0.00000000000E+00 0. -1.
         11    1    3    3    0    0  0.59207733584E+01 -0.38907482092E+00  0.30994945369E+01  0.66943112434E+01  0.51100000000E-03 0. -1.
        -11    1    3    3    0    0  0.17506631186E+02  0.32115395156E+02  0.12440964124E+02  0.38634936652E+02  0.51100000000E-03 0.  1.
        -12    1    3    3    0    0 -0.84419985386E+01 -0.10679858806E+02  0.31469418848E+01  0.13972471745E+02  0.00000000000E+00 0.  1.
</event>
<event>
 7    1  0.7012292E-013  0.5930195E+02  0.7816164E-02  0.1266605E+00
        -11   -1    0    0    0    0  0.00000000000E+00  0.00000000000E+00  0.45593999997E+02  0.45594000000E+02  0.51100000000E-03 0.  1.
         11   -1    0    0    0    0 -0.00000000000E+00 -0.00000000000E+00 -0.45593999997E+02  0.45594000000E+02  0.51100000000E-03 0. -1.
    9900012    2    1    2    0    0  0.90436824315E+00 -0.58437212439E+01  0.31332944488E+02  0.59301947090E+02  0.50000005585E+02 0.  0.
         12    1    1    2    0    0 -0.90436824315E+00  0.58437212439E+01 -0.31332944488E+02  0.31886052910E+02  0.00000000000E+00 0. -1.
         11    1    3    3    0    0 -0.31990254143E+01 -0.34498283438E+01 -0.85669265912E+00  0.47821545120E+01  0.51100000000E-03 0. -1.
        -11    1    3    3    0    0 -0.13863200125E+02 -0.11484428941E+02  0.18371065591E+01  0.18095728407E+02  0.51100000000E-03 0.  1.
        -12    1    3    3    0    0  0.17966593782E+02  0.90905360407E+01  0.30352530588E+02  0.36424064171E+02  0.00000000000E+00 0.  1.
</event>
<event>
 7    1  0.7012292E-013  0.5930192E+02  0.7816164E-02  0.1266605E+00
        -11   -1    0    0    0    0  0.00000000000E+00  0.00000000000E+00  0.45593999997E+02  0.45594000000E+02  0.51100000000E-03 0.  1.
         11   -1    0    0    0    0 -0.00000000000E+00 -0.00000000000E+00 -0.45593999997E+02  0.45594000000E+02  0.51100000000E-03 0. -1.
    9900012    2    1    2    0    0  0.48752481071E+01 -0.10119132833E+02  0.29842202623E+02  0.59301922305E+02  0.49999960382E+02 0.  0.
         12    1    1    2    0    0 -0.48752481071E+01  0.10119132833E+02 -0.29842202623E+02  0.31886077695E+02  0.00000000000E+00 0. -1.
         11    1    3    3    0    0  0.35201415651E+01 -0.57410007099E+01 -0.47422485005E+00  0.67509536555E+01  0.51100000000E-03 0.  1.
        -11    1    3    3    0    0  0.64733405381E+01 -0.42103562061E+01 -0.95926768147E+01  0.12314653298E+02  0.51100000000E-03 0. -1.
        -12    1    3    3    0    0 -0.51182339962E+01 -0.16777591694E+00  0.39909104288E+02  0.40236315351E+02  0.00000000000E+00 0.  1.
</event>
<event>
 7    1  0.7012292E-013  0.5930191E+02  0.7816164E-02  0.1266605E+00
        -11   -1    0    0    0    0  0.00000000000E+00  0.00000000000E+00  0.45593999997E+02  0.45594000000E+02  0.51100000000E-03 0. -1.
         11   -1    0    0    0    0 -0.00000000000E+00 -0.00000000000E+00 -0.45593999997E+02  0.45594000000E+02  0.51100000000E-03 0.  1.
    9900012    2    1    2    0    0 -0.28117830798E+02 -0.98724786083E+01 -0.11342152281E+02  0.59301911168E+02  0.49999940071E+02 0.  0.
         12    1    1    2    0    0  0.28117830798E+02  0.98724786083E+01  0.11342152281E+02  0.31886088832E+02  0.00000000000E+00 0. -1.
         11    1    3    3    0    0  0.92157055793E+00 -0.46387315456E+01  0.60024299372E+01  0.76417464011E+01  0.51100000000E-03 0. -1.
        -11    1    3    3    0    0  0.29128297955E-01 -0.16720609223E+02 -0.10239913449E+02  0.19607025500E+02  0.51100000000E-03 0.  1.
        -12    1    3    3    0    0 -0.29068529654E+02  0.11486862160E+02 -0.71046687690E+01  0.32053139267E+02  0.00000000000E+00 0.  1.
</event>
<event>
 7    1  0.7012292E-013  0.5930197E+02  0.7816164E-02  0.1266605E+00
        -11   -1    0    0    0    0  0.00000000000E+00  0.00000000000E+00  0.45593999997E+02  0.45594000000E+02  0.51100000000E-03 0. -1.
         11   -1    0    0    0    0 -0.00000000000E+00 -0.00000000000E+00 -0.45593999997E+02  0.45594000000E+02  0.51100000000E-03 0.  1.
    9900012    2    1    2    0    0  0.15648627608E+02 -0.11351175496E+02 -0.25357254998E+02  0.59301966816E+02  0.50000041561E+02 0.  0.
         12    1    1    2    0    0 -0.15648627608E+02  0.11351175496E+02  0.25357254998E+02  0.31886033184E+02  0.00000000000E+00 0. -1.
         11    1    3    3    0    0  0.87876581024E+01 -0.77625816176E+01 -0.64885495955E+01  0.13400816558E+02  0.51100000000E-03 0.  1.
        -11    1    3    3    0    0 -0.48873716962E+01 -0.12274996987E+02  0.79076828254E+01  0.15397837545E+02  0.51100000000E-03 0. -1.
         12    1    3    3    0    0  0.11748341202E+02  0.86864031088E+01 -0.26776388228E+02  0.30503312714E+02  0.00000000000E+00 0. -1.
</event>
<event>
 7    1  0.7012292E-013  0.5930199E+02  0.7816164E-02  0.1266605E+00
        -11   -1    0    0    0    0  0.00000000000E+00  0.00000000000E+00  0.45593999997E+02  0.45594000000E+02  0.51100000000E-03 0.  1.
         11   -1    0    0    0    0 -0.00000000000E+00 -0.00000000000E+00 -0.45593999997E+02  0.45594000000E+02  0.51100000000E-03 0. -1.
    9900012    2    1    2    0    0  0.24445214744E+02  0.96343320132E+01  0.18064577612E+02  0.59301986742E+02  0.50000077900E+02 0.  0.
         12    1    1    2    0    0 -0.24445214744E+02 -0.96343320132E+01 -0.18064577612E+02  0.31886013258E+02  0.00000000000E+00 0. -1.
         11    1    3    3    0    0  0.19166978907E+02  0.56712069727E+01  0.28476576077E+01  0.20190216023E+02  0.51100000000E-03 0. -1.
        -11    1    3    3    0    0  0.16000140239E+02  0.49919312819E+01  0.21014083575E+02  0.26879649818E+02  0.51100000000E-03 0.  1.
         12    1    3    3    0    0 -0.10721904401E+02 -0.10288062413E+01 -0.57971635708E+01  0.12232120901E+02  0.00000000000E+00 0. -1.
</event>
<event>
 7    1  0.7012292E-013  0.5930198E+02  0.7816164E-02  0.1266605E+00
        -11   -1    0    0    0    0  0.00000000000E+00  0.00000000000E+00  0.45593999997E+02  0.45594000000E+02  0.51100000000E-03 0.  1.
         11   -1    0    0    0    0 -0.00000000000E+00 -0.00000000000E+00 -0.45593999997E+02  0.45594000000E+02  0.51100000000E-03 0. -1.
    9900012    2    1    2    0    0 -0.52900353826E+01  0.15690125748E+02  0.27249839741E+02  0.59301979768E+02  0.50000065181E+02 0.  0.
         12    1    1    2    0    0  0.52900353826E+01 -0.15690125748E+02 -0.27249839741E+02  0.31886020232E+02  0.00000000000E+00 0. -1.
         11    1    3    3    0    0 -0.81348824693E+01 -0.18662647973E+01  0.21192765201E+02  0.22777018115E+02  0.51100000000E-03 0. -1.
        -11    1    3    3    0    0 -0.76708382762E+01  0.21195766305E+02  0.10080211326E+02  0.24692365819E+02  0.51100000000E-03 0.  1.
         12    1    3    3    0    0  0.10515685363E+02 -0.36393757599E+01 -0.40231367852E+01  0.11832595834E+02  0.00000000000E+00 0. -1.
</event>
<event>
 7    1  0.7012292E-013  0.5930196E+02  0.7816164E-02  0.1266605E+00
        -11   -1    0    0    0    0  0.00000000000E+00  0.00000000000E+00  0.45593999997E+02  0.45594000000E+02  0.51100000000E-03 0.  1.
         11   -1    0    0    0    0 -0.00000000000E+00 -0.00000000000E+00 -0.45593999997E+02  0.45594000000E+02  0.51100000000E-03 0. -1.
    9900012    2    1    2    0    0 -0.17164052301E+02  0.26872164163E+02 -0.36834302782E-01  0.59301964578E+02  0.50000037479E+02 0.  0.
         12    1    1    2    0    0  0.17164052301E+02 -0.26872164163E+02  0.36834302782E-01  0.31886035422E+02  0.00000000000E+00 0. -1.
         11    1    3    3    0    0  0.11453640716E+02  0.12067368362E+02  0.88737848898E+01  0.18856068608E+02  0.51100000000E-03 0. -1.
        -11    1    3    3    0    0  0.20413888653E+01 -0.28962059220E+01 -0.28094142003E+01  0.45219559542E+01  0.51100000000E-03 0.  1.
        -12    1    3    3    0    0 -0.30659081882E+02  0.17701001723E+02 -0.61012049923E+01  0.35923940015E+02  0.00000000000E+00 0.  1.
</event>
<event>
 7    1  0.7012292E-013  0.5930198E+02  0.7816164E-02  0.1266605E+00
        -11   -1    0    0    0    0  0.00000000000E+00  0.00000000000E+00  0.45593999997E+02  0.45594000000E+02  0.51100000000E-03 0. -1.
         11   -1    0    0    0    0 -0.00000000000E+00 -0.00000000000E+00 -0.45593999997E+02  0.45594000000E+02  0.51100000000E-03 0.  1.
    9900012    2    1    2    0    0  0.30819591562E+02  0.48168128889E+01  0.66082951132E+01  0.59301976812E+02  0.50000059790E+02 0.  0.
         12    1    1    2    0    0 -0.30819591562E+02 -0.48168128889E+01 -0.66082951132E+01  0.31886023188E+02  0.00000000000E+00 0. -1.
         11    1    3    3    0    0  0.62965514267E+01  0.15837386329E+02  0.62094053361E+01  0.18139076065E+02  0.51100000000E-03 0. -1.
        -11    1    3    3    0    0  0.10945078003E+02  0.10415386725E+02  0.37525654166E+01  0.15567811683E+02  0.51100000000E-03 0.  1.
        -12    1    3    3    0    0  0.13577962132E+02 -0.21435960165E+02 -0.33536756394E+01  0.25595089063E+02  0.00000000000E+00 0.  1.
</event>
<event>
 7    1  0.7012292E-013  0.5930187E+02  0.7816164E-02  0.1266605E+00
        -11   -1    0    0    0    0  0.00000000000E+00  0.00000000000E+00  0.45593999997E+02  0.45594000000E+02  0.51100000000E-03 0.  1.
         11   -1    0    0    0    0 -0.00000000000E+00 -0.00000000000E+00 -0.45593999997E+02  0.45594000000E+02  0.51100000000E-03 0. -1.
    9900012    2    1    2    0    0  0.13590761782E+02 -0.21000147079E+01  0.28768146569E+02  0.59301872537E+02  0.49999869617E+02 0.  0.
         12    1    1    2    0    0 -0.13590761782E+02  0.21000147079E+01 -0.28768146569E+02  0.31886127463E+02  0.00000000000E+00 0. -1.
         11    1    3    3    0    0  0.37612144453E+01  0.10566618490E+02  0.10915022131E+02  0.15650491008E+02  0.51100000000E-03 0. -1.
        -11    1    3    3    0    0  0.16317988378E+02 -0.45976864212E+01  0.25610678523E+02  0.30713552706E+02  0.51100000000E-03 0.  1.
         12    1    3    3    0    0 -0.64884410421E+01 -0.80689467771E+01 -0.77575540851E+01  0.12937828822E+02  0.00000000000E+00 0. -1.
</event>
<event>
 7    1  0.7012292E-013  0.5930195E+02  0.7816164E-02  0.1266605E+00
        -11   -1    0    0    0    0  0.00000000000E+00  0.00000000000E+00  0.45593999997E+02  0.45594000000E+02  0.51100000000E-03 0.  1.
         11   -1    0    0    0    0 -0.00000000000E+00 -0.00000000000E+00 -0.45593999997E+02  0.45594000000E+02  0.51100000000E-03 0. -1.
    9900012    2    1    2    0    0 -0.20021095400E+02  0.13475503313E+02  0.20839545766E+02  0.59301951040E+02  0.50000012789E+02 0.  0.
         12    1    1    2    0    0  0.20021095400E+02 -0.13475503313E+02 -0.20839545766E+02  0.31886048960E+02  0.00000000000E+00 0. -1.
         11    1    3    3    0    0  0.60101648491E+01  0.28041562089E+01  0.23693020440E+01  0.70426533347E+01  0.51100000000E-03 0. -1.
        -11    1    3    3    0    0 -0.99175504942E-01  0.19488134043E+02  0.15118419976E+02  0.24665032477E+02  0.51100000000E-03 0.  1.
        -12    1    3    3    0    0 -0.25932084744E+02 -0.88167869390E+01  0.33518237461E+01  0.27594265229E+02  0.00000000000E+00 0.  1.
</event>
<event>
 7    1  0.7012292E-013  0.5930192E+02  0.7816164E-02  0.1266605E+00
        -11   -1    0    0    0    0  0.00000000000E+00  0.00000000000E+00  0.45593999997E+02  0.45594000000E+02  0.51100000000E-03 0. -1.
         11   -1    0    0    0    0 -0.00000000000E+00 -0.00000000000E+00 -0.45593999997E+02  0.45594000000E+02  0.51100000000E-03 0.  1.
    9900012    2    1    2    0    0  0.93140137219E+01  0.87095567055E+00 -0.30482984907E+02  0.59301924916E+02  0.49999965145E+02 0.  0.
         12    1    1    2    0    0 -0.93140137219E+01 -0.87095567055E+00  0.30482984907E+02  0.31886075084E+02  0.00000000000E+00 0. -1.
         11    1    3    3    0    0  0.85651381427E+01  0.11785664136E+02 -0.12008107535E+02  0.18880098447E+02  0.51100000000E-03 0. -1.
        -11    1    3    3    0    0  0.24039670947E+01 -0.97274786748E+01 -0.28490500049E+02  0.30201183627E+02  0.51100000000E-03 0.  1.
        -12    1    3    3    0    0 -0.16550915155E+01 -0.11872297907E+01  0.10015622677E+02  0.10220642842E+02  0.00000000000E+00 0.  1.
</event>
<event>
 7    1  0.7012292E-013  0.5930196E+02  0.7816164E-02  0.1266605E+00
        -11   -1    0    0    0    0  0.00000000000E+00  0.00000000000E+00  0.45593999997E+02  0.45594000000E+02  0.51100000000E-03 0. -1.
         11   -1    0    0    0    0 -0.00000000000E+00 -0.00000000000E+00 -0.45593999997E+02  0.45594000000E+02  0.51100000000E-03 0.  1.
    9900012    2    1    2    0    0  0.24579308200E+02  0.14572457962E+02 -0.14149935647E+02  0.59301959144E+02  0.50000027568E+02 0.  0.
         12    1    1    2    0    0 -0.24579308200E+02 -0.14572457962E+02  0.14149935647E+02  0.31886040856E+02  0.00000000000E+00 0. -1.
         11    1    3    3    0    0  0.34761784722E+01  0.29323606523E+01  0.62564973415E+01  0.77347472493E+01  0.51100000000E-03 0. -1.
        -11    1    3    3    0    0  0.18869316019E+02 -0.10859026548E+02 -0.10376154421E+01  0.21795554379E+02  0.51100000000E-03 0.  1.
        -12    1    3    3    0    0  0.22338137087E+01  0.22499123858E+02 -0.19368817547E+02  0.29771657516E+02  0.00000000000E+00 0.  1.
</event>
<event>
 7    1  0.7012292E-013  0.5930195E+02  0.7816164E-02  0.1266605E+00
        -11   -1    0    0    0    0  0.00000000000E+00  0.00000000000E+00  0.45593999997E+02  0.45594000000E+02  0.51100000000E-03 0. -1.
         11   -1    0    0    0    0 -0.00000000000E+00 -0.00000000000E+00 -0.45593999997E+02  0.45594000000E+02  0.51100000000E-03 0.  1.
    9900012    2    1    2    0    0  0.25894383081E+02  0.18489593838E+02 -0.20823534249E+01  0.59301947387E+02  0.50000006127E+02 0.  0.
         12    1    1    2    0    0 -0.25894383081E+02 -0.18489593838E+02  0.20823534249E+01  0.31886052613E+02  0.00000000000E+00 0. -1.
         11    1    3    3    0    0 -0.47297530458E+01 -0.52804950396E+01  0.14940575789E+01  0.72447498265E+01  0.51100000000E-03 0. -1.
        -11    1    3    3    0    0  0.12670938077E+02  0.65323948693E+01  0.15230860526E+02  0.20861542779E+02  0.51100000000E-03 0.  1.
        -12    1    3    3    0    0  0.17953198049E+02  0.17237694008E+02 -0.18807271529E+02  0.31195654782E+02  0.00000000000E+00 0.  1.
</event>
<event>
 7    1  0.7012292E-013  0.5930192E+02  0.7816164E-02  0.1266605E+00
        -11   -1    0    0    0    0  0.00000000000E+00  0.00000000000E+00  0.45593999997E+02  0.45594000000E+02  0.51100000000E-03 0.  1.
         11   -1    0    0    0    0 -0.00000000000E+00 -0.00000000000E+00 -0.45593999997E+02  0.45594000000E+02  0.51100000000E-03 0. -1.
    9900012    2    1    2    0    0 -0.13888669306E+02 -0.22462175091E+02  0.17868336698E+02  0.59301923081E+02  0.49999961799E+02 0.  0.
         12    1    1    2    0    0  0.13888669306E+02  0.22462175091E+02 -0.17868336698E+02  0.31886076919E+02  0.00000000000E+00 0. -1.
         11    1    3    3    0    0 -0.14384811215E+02 -0.28139168732E+02  0.76701754988E+01  0.32520258349E+02  0.51100000000E-03 0.  1.
        -11    1    3    3    0    0 -0.68032790750E+01 -0.41868226550E+00 -0.52755322744E+01  0.86192309431E+01  0.51100000000E-03 0. -1.
        -12    1    3    3    0    0  0.72994209839E+01  0.60956759063E+01  0.15473693473E+02  0.18162433790E+02  0.00000000000E+00 0.  1.
</event>
<event>
 7    1  0.7012292E-013  0.5930194E+02  0.7816164E-02  0.1266605E+00
        -11   -1    0    0    0    0  0.00000000000E+00  0.00000000000E+00  0.45593999997E+02  0.45594000000E+02  0.51100000000E-03 0.  1.
         11   -1    0    0    0    0 -0.00000000000E+00 -0.00000000000E+00 -0.45593999997E+02  0.45594000000E+02  0.51100000000E-03 0. -1.
    9900012    2    1    2    0    0 -0.95811929419E+01 -0.24403897026E+01  0.30314450181E+02  0.59301942704E+02  0.49999997586E+02 0.  0.
         12    1    1    2    0    0  0.95811929419E+01  0.24403897026E+01 -0.30314450181E+02  0.31886057296E+02  0.00000000000E+00 0. -1.
         11    1    3    3    0    0  0.99097452066E+01 -0.11376251945E+02  0.29282727639E+02  0.32940860593E+02  0.51100000000E-03 0. -1.
        -11    1    3    3    0    0  0.17516323259E+00 -0.12301454865E+01  0.38486950405E+01  0.40443038772E+01  0.51100000000E-03 0.  1.
        -12    1    3    3    0    0 -0.19666101381E+02  0.10166007729E+02 -0.28169724983E+01  0.22316778233E+02  0.00000000000E+00 0.  1.
</event>
<event>
 7    1  0.7012292E-013  0.5930191E+02  0.7816164E-02  0.1266605E+00
        -11   -1    0    0    0    0  0.00000000000E+00  0.00000000000E+00  0.45593999997E+02  0.45594000000E+02  0.51100000000E-03 0.  1.
         11   -1    0    0    0    0 -0.00000000000E+00 -0.00000000000E+00 -0.45593999997E+02  0.45594000000E+02  0.51100000000E-03 0. -1.
    9900012    2    1    2    0    0 -0.14380513308E+02  0.28328421376E+02  0.27246693428E+01  0.59301914576E+02  0.49999946287E+02 0.  0.
         12    1    1    2    0    0  0.14380513308E+02 -0.28328421376E+02 -0.27246693428E+01  0.31886085424E+02  0.00000000000E+00 0. -1.
         11    1    3    3    0    0 -0.24695729483E+01 -0.73254122365E+01  0.30689697867E+01  0.83173932692E+01  0.51100000000E-03 0. -1.
        -11    1    3    3    0    0 -0.16535303238E+02  0.32629817762E+01 -0.57780492921E+01  0.17817102938E+02  0.51100000000E-03 0.  1.
        -12    1    3    3    0    0  0.46243628778E+01  0.32390851836E+02  0.54337488482E+01  0.33167418369E+02  0.00000000000E+00 0.  1.
</event>
<event>
 7    1  0.7012292E-013  0.5930192E+02  0.7816164E-02  0.1266605E+00
        -11   -1    0    0    0    0  0.00000000000E+00  0.00000000000E+00  0.45593999997E+02  0.45594000000E+02  0.51100000000E-03 0.  1.
         11   -1    0    0    0    0 -0.00000000000E+00 -0.00000000000E+00 -0.45593999997E+02  0.45594000000E+02  0.51100000000E-03 0. -1.
    9900012    2    1    2    0    0  0.18746060403E+02 -0.24920525863E+02  0.66539363722E+01  0.59301917469E+02  0.49999951564E+02 0.  0.
         12    1    1    2    0    0 -0.18746060403E+02  0.24920525863E+02 -0.66539363722E+01  0.31886082531E+02  0.00000000000E+00 0. -1.
         11    1    3    3    0    0 -0.28316683480E+01 -0.71958900068E+01  0.11829010898E+00  0.77338975577E+01  0.51100000000E-03 0. -1.
        -11    1    3    3    0    0 -0.68840004844E+01 -0.15447254878E+02  0.14113104293E+02  0.22026957551E+02  0.51100000000E-03 0.  1.
         12    1    3    3    0    0  0.28461729235E+02 -0.22773809783E+01 -0.75774580297E+01  0.29541062360E+02  0.00000000000E+00 0. -1.
</event>
<event>
 7    1  0.7012292E-013  0.5930194E+02  0.7816164E-02  0.1266605E+00
        -11   -1    0    0    0    0  0.00000000000E+00  0.00000000000E+00  0.45593999997E+02  0.45594000000E+02  0.51100000000E-03 0. -1.
         11   -1    0    0    0    0 -0.00000000000E+00 -0.00000000000E+00 -0.45593999997E+02  0.45594000000E+02  0.51100000000E-03 0.  1.
    9900012    2    1    2    0    0 -0.34760728790E+01 -0.29301084722E+02  0.12086525629E+02  0.59301941129E+02  0.49999994714E+02 0.  0.
         12    1    1    2    0    0  0.34760728790E+01  0.29301084722E+02 -0.12086525629E+02  0.31886058871E+02  0.00000000000E+00 0. -1.
         11    1    3    3    0    0 -0.19128884861E+02 -0.26912408233E+02  0.23004982534E+01  0.33098100329E+02  0.51100000000E-03 0. -1.
        -11    1    3    3    0    0 -0.25612041779E+01  0.40687690694E+01  0.73203342131E+00  0.48631802118E+01  0.51100000000E-03 0.  1.
         12    1    3    3    0    0  0.18214016160E+02 -0.64574455584E+01  0.90539939538E+01  0.21340660588E+02  0.00000000000E+00 0. -1.
</event>
<event>
 7    1  0.7012292E-013  0.5930195E+02  0.7816164E-02  0.1266605E+00
        -11   -1    0    0    0    0  0.00000000000E+00  0.00000000000E+00  0.45593999997E+02  0.45594000000E+02  0.51100000000E-03 0.  1.
         11   -1    0    0    0    0 -0.00000000000E+00 -0.00000000000E+00 -0.45593999997E+02  0.45594000000E+02  0.51100000000E-03 0. -1.
    9900012    2    1    2    0    0 -0.15174690119E+02  0.22819039253E+02  0.16301552555E+02  0.59301946805E+02  0.50000005066E+02 0.  0.
         12    1    1    2    0    0  0.15174690119E+02 -0.22819039253E+02 -0.16301552555E+02  0.31886053195E+02  0.00000000000E+00 0. -1.
         11    1    3    3    0    0  0.83087718126E+00 -0.79761326680E+01 -0.59297406425E+01  0.99735085891E+01  0.51100000000E-03 0. -1.
        -11    1    3    3    0    0 -0.14567844807E+02  0.43176695049E+01  0.76742331851E+00  0.15213589685E+02  0.51100000000E-03 0.  1.
        -12    1    3    3    0    0 -0.14377224925E+01  0.26477502416E+02  0.21463869879E+02  0.34114848532E+02  0.00000000000E+00 0.  1.
</event>
<event>
 7    1  0.7012292E-013  0.5930198E+02  0.7816164E-02  0.1266605E+00
        -11   -1    0    0    0    0  0.00000000000E+00  0.00000000000E+00  0.45593999997E+02  0.45594000000E+02  0.51100000000E-03 0.  1.
         11   -1    0    0    0    0 -0.00000000000E+00 -0.00000000000E+00 -0.45593999997E+02  0.45594000000E+02  0.51100000000E-03 0. -1.
    9900012    2    1    2    0    0 -0.83499036102E+01 -0.14480678168E+02  0.27153404978E+02  0.59301979044E+02  0.50000063860E+02 0.  0.
         12    1    1    2    0    0  0.83499036102E+01  0.14480678168E+02 -0.27153404978E+02  0.31886020956E+02  0.00000000000E+00 0. -1.
         11    1    3    3    0    0 -0.27589573193E+01 -0.97934984913E+01 -0.16249302091E+01  0.10303633176E+02  0.51100000000E-03 0. -1.
        -11    1    3    3    0    0 -0.21869370214E+02  0.17312225864E+00  0.11271823921E+02  0.24603929353E+02  0.51100000000E-03 0.  1.
         12    1    3    3    0    0  0.16278423923E+02 -0.48603019354E+01  0.17506511267E+02  0.24394416514E+02  0.00000000000E+00 0. -1.
</event>
<event>
 7    1  0.7012292E-013  0.5930193E+02  0.7816164E-02  0.1266605E+00
        -11   -1    0    0    0    0  0.00000000000E+00  0.00000000000E+00  0.45593999997E+02  0.45594000000E+02  0.51100000000E-03 0.  1.
         11   -1    0    0    0    0 -0.00000000000E+00 -0.00000000000E+00 -0.45593999997E+02  0.45594000000E+02  0.51100000000E-03 0. -1.
    9900012    2    1    2    0    0  0.52270286901E+01  0.23297471278E+02  0.21133565881E+02  0.59301927747E+02  0.49999970307E+02 0.  0.
         12    1    1    2    0    0 -0.52270286901E+01 -0.23297471278E+02 -0.21133565881E+02  0.31886072253E+02  0.00000000000E+00 0. -1.
         11    1    3    3    0    0  0.23929569715E+01 -0.66849552367E+01  0.17694862287E+02  0.19066279690E+02  0.51100000000E-03 0. -1.
        -11    1    3    3    0    0 -0.94475975005E+01  0.70853157347E+01  0.74236731322E+01  0.13948825063E+02  0.51100000000E-03 0.  1.
        -12    1    3    3    0    0  0.12281669219E+02  0.22897110780E+02 -0.39849695384E+01  0.26286822994E+02  0.00000000000E+00 0.  1.
</event>
<event>
 7    1  0.7012292E-013  0.5930196E+02  0.7816164E-02  0.1266605E+00
        -11   -1    0    0    0    0  0.00000000000E+00  0.00000000000E+00  0.45593999997E+02  0.45594000000E+02  0.51100000000E-03 0.  1.
         11   -1    0    0    0    0 -0.00000000000E+00 -0.00000000000E+00 -0.45593999997E+02  0.45594000000E+02  0.51100000000E-03 0. -1.
    9900012    2    1    2    0    0 -0.37463107466E+01 -0.30099664025E+02  0.98333708044E+01  0.59301956031E+02  0.50000021891E+02 0.  0.
         12    1    1    2    0    0  0.37463107466E+01  0.30099664025E+02 -0.98333708044E+01  0.31886043969E+02  0.00000000000E+00 0. -1.
         11    1    3    3    0    0  0.56469426431E+01 -0.29446434634E+01 -0.39981669976E+01  0.75195894797E+01  0.51100000000E-03 0. -1.
        -11    1    3    3    0    0  0.10346498442E+02 -0.22204996039E+01  0.16785946989E+02  0.19843101196E+02  0.51100000000E-03 0.  1.
        -12    1    3    3    0    0 -0.19739751831E+02 -0.24934520958E+02 -0.29544091871E+01  0.31939265355E+02  0.00000000000E+00 0.  1.
</event>
<event>
 7    1  0.7012292E-013  0.5930193E+02  0.7816164E-02  0.1266605E+00
        -11   -1    0    0    0    0  0.00000000000E+00  0.00000000000E+00  0.45593999997E+02  0.45594000000E+02  0.51100000000E-03 0.  1.
         11   -1    0    0    0    0 -0.00000000000E+00 -0.00000000000E+00 -0.45593999997E+02  0.45594000000E+02  0.51100000000E-03 0. -1.
    9900012    2    1    2    0    0  0.89271111493E+01  0.30597673066E+02 -0.90047858233E+00  0.59301925105E+02  0.49999965490E+02 0.  0.
         12    1    1    2    0    0 -0.89271111493E+01 -0.30597673066E+02  0.90047858233E+00  0.31886074895E+02  0.00000000000E+00 0. -1.
         11    1    3    3    0    0 -0.17268806725E+01  0.10214015162E+02 -0.10097390348E+02  0.14466012398E+02  0.51100000000E-03 0.  1.
        -11    1    3    3    0    0 -0.12890507537E+02  0.10259189071E+02  0.98570235348E+01  0.19198360820E+02  0.51100000000E-03 0. -1.
        -12    1    3    3    0    0  0.23544499359E+02  0.10124468833E+02 -0.66011176884E+00  0.25637551887E+02  0.00000000000E+00 0.  1.
</event>
<event>
 7    1  0.7012292E-013  0.5930205E+02  0.7816164E-02  0.1266604E+00
        -11   -1    0    0    0    0  0.00000000000E+00  0.00000000000E+00  0.45593999997E+02  0.45594000000E+02  0.51100000000E-03 0. -1.
         11   -1    0    0    0    0 -0.00000000000E+00 -0.00000000000E+00 -0.45593999997E+02  0.45594000000E+02  0.51100000000E-03 0.  1.
    9900012    2    1    2    0    0 -0.98766011028E+01 -0.25330098388E+01 -0.30211762043E+02  0.59302047703E+02  0.50000189078E+02 0.  0.
         12    1    1    2    0    0  0.98766011028E+01  0.25330098388E+01  0.30211762043E+02  0.31885952297E+02  0.00000000000E+00 0. -1.
         11    1    3    3    0    0 -0.16607316589E+02  0.45884963798E+01 -0.44682193242E+01  0.17799501327E+02  0.51100000000E-03 0. -1.
        -11    1    3    3    0    0 -0.23726440204E+01  0.10244882185E+02 -0.17098723242E+02  0.20073698897E+02  0.51100000000E-03 0.  1.
        -12    1    3    3    0    0  0.91033595062E+01 -0.17366388404E+02 -0.86448194769E+01  0.21428847479E+02  0.00000000000E+00 0.  1.
</event>
<event>
 7    1  0.7012292E-013  0.5930195E+02  0.7816164E-02  0.1266605E+00
        -11   -1    0    0    0    0  0.00000000000E+00  0.00000000000E+00  0.45593999997E+02  0.45594000000E+02  0.51100000000E-03 0.  1.
         11   -1    0    0    0    0 -0.00000000000E+00 -0.00000000000E+00 -0.45593999997E+02  0.45594000000E+02  0.51100000000E-03 0. -1.
    9900012    2    1    2    0    0 -0.31466121716E+02 -0.11064051729E+01 -0.50377545004E+01  0.59301954171E+02  0.50000018498E+02 0.  0.
         12    1    1    2    0    0  0.31466121716E+02  0.11064051729E+01  0.50377545004E+01  0.31886045829E+02  0.00000000000E+00 0. -1.
         11    1    3    3    0    0 -0.13724670649E+02  0.45272045758E+01 -0.66567880875E+00  0.14467387263E+02  0.51100000000E-03 0. -1.
        -11    1    3    3    0    0 -0.25237617324E+02  0.10060697578E+02 -0.15376456515E+01  0.27212484605E+02  0.51100000000E-03 0.  1.
         12    1    3    3    0    0  0.74961662575E+01 -0.15694307327E+02 -0.28344300401E+01  0.17622082302E+02  0.00000000000E+00 0. -1.
</event>
<event>
 7    1  0.7012292E-013  0.5930192E+02  0.7816164E-02  0.1266605E+00
        -11   -1    0    0    0    0  0.00000000000E+00  0.00000000000E+00  0.45593999997E+02  0.45594000000E+02  0.51100000000E-03 0. -1.
         11   -1    0    0    0    0 -0.00000000000E+00 -0.00000000000E+00 -0.45593999997E+02  0.45594000000E+02  0.51100000000E-03 0.  1.
    9900012    2    1    2    0    0 -0.20366068069E+01 -0.26850715447E+02  0.17076686308E+02  0.59301923061E+02  0.49999961761E+02 0.  0.
         12    1    1    2    0    0  0.20366068069E+01  0.26850715447E+02 -0.17076686308E+02  0.31886076939E+02  0.00000000000E+00 0. -1.
         11    1    3    3    0    0 -0.11069455329E+02 -0.17802383459E+02  0.41030847454E+01  0.21361015959E+02  0.51100000000E-03 0. -1.
        -11    1    3    3    0    0  0.52192288004E+01 -0.37163261076E+01 -0.11195120287E+02  0.12898920401E+02  0.51100000000E-03 0.  1.
         12    1    3    3    0    0  0.38136197217E+01 -0.53320058804E+01  0.24168721849E+02  0.25041986701E+02  0.00000000000E+00 0. -1.
</event>
<event>
 7    1  0.7012292E-013  0.5930191E+02  0.7816164E-02  0.1266605E+00
        -11   -1    0    0    0    0  0.00000000000E+00  0.00000000000E+00  0.45593999997E+02  0.45594000000E+02  0.51100000000E-03 0. -1.
         11   -1    0    0    0    0 -0.00000000000E+00 -0.00000000000E+00 -0.45593999997E+02  0.45594000000E+02  0.51100000000E-03 0.  1.
    9900012    2    1    2    0    0 -0.94330522594E+01  0.44706028401E+01 -0.30128950925E+02  0.59301914500E+02  0.49999946148E+02 0.  0.
         12    1    1    2    0    0  0.94330522594E+01 -0.44706028401E+01  0.30128950925E+02  0.31886085500E+02  0.00000000000E+00 0. -1.
         11    1    3    3    0    0  0.76487389777E+01 -0.87793796027E+00  0.57364130256E+01  0.96010633615E+01  0.51100000000E-03 0.  1.
        -11    1    3    3    0    0 -0.62238702781E+01 -0.38217916742E+01  0.33162704895E+01  0.80212407431E+01  0.51100000000E-03 0. -1.
        -12    1    3    3    0    0 -0.10857920959E+02  0.91703324745E+01 -0.39181634440E+02  0.41679610395E+02  0.00000000000E+00 0.  1.
</event>
<event>
 7    1  0.7012292E-013  0.5930195E+02  0.7816164E-02  0.1266605E+00
        -11   -1    0    0    0    0  0.00000000000E+00  0.00000000000E+00  0.45593999997E+02  0.45594000000E+02  0.51100000000E-03 0.  1.
         11   -1    0    0    0    0 -0.00000000000E+00 -0.00000000000E+00 -0.45593999997E+02  0.45594000000E+02  0.51100000000E-03 0. -1.
    9900012    2    1    2    0    0  0.21635344856E+02  0.31556062770E+00  0.23420763951E+02  0.59301954312E+02  0.50000018756E+02 0.  0.
         12    1    1    2    0    0 -0.21635344856E+02 -0.31556062770E+00 -0.23420763951E+02  0.31886045688E+02  0.00000000000E+00 0. -1.
         11    1    3    3    0    0 -0.76785768250E+01  0.78670961669E+01 -0.29582443002E+01  0.11384329306E+02  0.51100000000E-03 0. -1.
        -11    1    3    3    0    0  0.10150429148E+02 -0.13736757910E+02  0.34927217307E+01  0.17433554862E+02  0.51100000000E-03 0.  1.
         12    1    3    3    0    0  0.19163492533E+02  0.61852223707E+01  0.22886286521E+02  0.30484070144E+02  0.00000000000E+00 0. -1.
</event>
<event>
 7    1  0.7012292E-013  0.5930183E+02  0.7816164E-02  0.1266605E+00
        -11   -1    0    0    0    0  0.00000000000E+00  0.00000000000E+00  0.45593999997E+02  0.45594000000E+02  0.51100000000E-03 0.  1.
         11   -1    0    0    0    0 -0.00000000000E+00 -0.00000000000E+00 -0.45593999997E+02  0.45594000000E+02  0.51100000000E-03 0. -1.
    9900012    2    1    2    0    0 -0.55642848708E+01 -0.29260978994E+02  0.11382508848E+02  0.59301832693E+02  0.49999796952E+02 0.  0.
         12    1    1    2    0    0  0.55642848708E+01  0.29260978994E+02 -0.11382508848E+02  0.31886167307E+02  0.00000000000E+00 0. -1.
         11    1    3    3    0    0 -0.21557285428E+01 -0.98525306004E+00  0.44499216262E+01  0.50417945101E+01  0.51100000000E-03 0.  1.
        -11    1    3    3    0    0  0.11459808560E+02  0.16640875189E+01 -0.11302403405E+02  0.16181493210E+02  0.51100000000E-03 0. -1.
         12    1    3    3    0    0 -0.14868364888E+02 -0.29939813453E+02  0.18234990627E+02  0.38078544973E+02  0.00000000000E+00 0. -1.
</event>
<event>
 7    1  0.7012292E-013  0.5930197E+02  0.7816164E-02  0.1266605E+00
        -11   -1    0    0    0    0  0.00000000000E+00  0.00000000000E+00  0.45593999997E+02  0.45594000000E+02  0.51100000000E-03 0. -1.
         11   -1    0    0    0    0 -0.00000000000E+00 -0.00000000000E+00 -0.45593999997E+02  0.45594000000E+02  0.51100000000E-03 0.  1.
    9900012    2    1    2    0    0  0.77643211747E+01  0.27037819916E+01 -0.30807850715E+02  0.59301971931E+02  0.50000050888E+02 0.  0.
         12    1    1    2    0    0 -0.77643211747E+01 -0.27037819916E+01  0.30807850715E+02  0.31886028069E+02  0.00000000000E+00 0. -1.
         11    1    3    3    0    0  0.18887169071E+00 -0.20309337941E+01  0.19019396144E+01  0.27888598296E+01  0.51100000000E-03 0. -1.
        -11    1    3    3    0    0  0.16714939199E+02 -0.13812969992E+02 -0.55586445177E+01  0.22384947210E+02  0.51100000000E-03 0.  1.
         12    1    3    3    0    0 -0.91394897155E+01  0.18547685778E+02 -0.27151145812E+02  0.34128164891E+02  0.00000000000E+00 0. -1.
</event>
<event>
 7    1  0.7012292E-013  0.5930197E+02  0.7816164E-02  0.1266605E+00
        -11   -1    0    0    0    0  0.00000000000E+00  0.00000000000E+00  0.45593999997E+02  0.45594000000E+02  0.51100000000E-03 0. -1.
         11   -1    0    0    0    0 -0.00000000000E+00 -0.00000000000E+00 -0.45593999997E+02  0.45594000000E+02  0.51100000000E-03 0.  1.
    9900012    2    1    2    0    0  0.61426311052E+01  0.69258343505E+01 -0.30512616417E+02  0.59301970787E+02  0.50000048803E+02 0.  0.
         12    1    1    2    0    0 -0.61426311052E+01 -0.69258343505E+01  0.30512616417E+02  0.31886029213E+02  0.00000000000E+00 0. -1.
         11    1    3    3    0    0  0.10108520854E+02 -0.99824260538E+00 -0.12677632986E+02  0.16245031873E+02  0.51100000000E-03 0. -1.
        -11    1    3    3    0    0 -0.53189814272E+01 -0.14780907795E+02 -0.11429927424E+02  0.19427044033E+02  0.51100000000E-03 0.  1.
         12    1    3    3    0    0  0.13530916782E+01  0.22704984751E+02 -0.64050560070E+01  0.23629894881E+02  0.00000000000E+00 0. -1.
</event>
<event>
 7    1  0.7012292E-013  0.5930195E+02  0.7816164E-02  0.1266605E+00
        -11   -1    0    0    0    0  0.00000000000E+00  0.00000000000E+00  0.45593999997E+02  0.45594000000E+02  0.51100000000E-03 0. -1.
         11   -1    0    0    0    0 -0.00000000000E+00 -0.00000000000E+00 -0.45593999997E+02  0.45594000000E+02  0.51100000000E-03 0.  1.
    9900012    2    1    2    0    0 -0.10406947472E+02 -0.22214052532E+02 -0.20370362758E+02  0.59301947179E+02  0.50000005747E+02 0.  0.
         12    1    1    2    0    0  0.10406947472E+02  0.22214052532E+02  0.20370362758E+02  0.31886052821E+02  0.00000000000E+00 0. -1.
         11    1    3    3    0    0  0.71907852503E+00  0.22574239560E+01  0.42679121451E+01  0.48814046320E+01  0.51100000000E-03 0. -1.
        -11    1    3    3    0    0 -0.21431317063E+02 -0.28620802956E+02 -0.12285802379E+02  0.37807309522E+02  0.51100000000E-03 0.  1.
         12    1    3    3    0    0  0.10305291066E+02  0.41493264682E+01 -0.12352472524E+02  0.16613233025E+02  0.00000000000E+00 0. -1.
</event>
<event>
 7    1  0.7012292E-013  0.5930194E+02  0.7816164E-02  0.1266605E+00
        -11   -1    0    0    0    0  0.00000000000E+00  0.00000000000E+00  0.45593999997E+02  0.45594000000E+02  0.51100000000E-03 0. -1.
         11   -1    0    0    0    0 -0.00000000000E+00 -0.00000000000E+00 -0.45593999997E+02  0.45594000000E+02  0.51100000000E-03 0.  1.
    9900012    2    1    2    0    0 -0.90317530814E+01  0.78576450478E+01 -0.29553434421E+02  0.59301942929E+02  0.49999997997E+02 0.  0.
         12    1    1    2    0    0  0.90317530814E+01 -0.78576450478E+01  0.29553434421E+02  0.31886057071E+02  0.00000000000E+00 0. -1.
         11    1    3    3    0    0 -0.12189412031E+02  0.86579980666E+01 -0.18967245782E+02  0.24151586055E+02  0.51100000000E-03 0. -1.
        -11    1    3    3    0    0 -0.90574169383E+01  0.20445603051E+01 -0.18232927451E+02  0.20461101440E+02  0.51100000000E-03 0.  1.
         12    1    3    3    0    0  0.12215075888E+02 -0.28449133239E+01  0.76467388113E+01  0.14689255434E+02  0.00000000000E+00 0. -1.
</event>
<event>
 7    1  0.7012292E-013  0.5930195E+02  0.7816164E-02  0.1266605E+00
        -11   -1    0    0    0    0  0.00000000000E+00  0.00000000000E+00  0.45593999997E+02  0.45594000000E+02  0.51100000000E-03 0. -1.
         11   -1    0    0    0    0 -0.00000000000E+00 -0.00000000000E+00 -0.45593999997E+02  0.45594000000E+02  0.51100000000E-03 0.  1.
    9900012    2    1    2    0    0 -0.16644481598E+02  0.10851984522E+02 -0.24938246925E+02  0.59301945126E+02  0.50000002002E+02 0.  0.
         12    1    1    2    0    0  0.16644481598E+02 -0.10851984522E+02  0.24938246925E+02  0.31886054874E+02  0.00000000000E+00 0. -1.
         11    1    3    3    0    0 -0.49309643848E+01  0.80104010086E+01 -0.17512868606E+02  0.19879172547E+02  0.51100000000E-03 0. -1.
        -11    1    3    3    0    0 -0.12141785606E+02 -0.59824642306E+01 -0.19942387164E+02  0.24102108664E+02  0.51100000000E-03 0.  1.
        -12    1    3    3    0    0  0.42826839287E+00  0.88240477435E+01  0.12517008844E+02  0.15320663915E+02  0.00000000000E+00 0.  1.
</event>
<event>
 7    1  0.7012292E-013  0.5930191E+02  0.7816164E-02  0.1266605E+00
        -11   -1    0    0    0    0  0.00000000000E+00  0.00000000000E+00  0.45593999997E+02  0.45594000000E+02  0.51100000000E-03 0.  1.
         11   -1    0    0    0    0 -0.00000000000E+00 -0.00000000000E+00 -0.45593999997E+02  0.45594000000E+02  0.51100000000E-03 0. -1.
    9900012    2    1    2    0    0  0.24498279307E+02 -0.20371948987E+02  0.12412539481E+01  0.59301910464E+02  0.49999938788E+02 0.  0.
         12    1    1    2    0    0 -0.24498279307E+02  0.20371948987E+02 -0.12412539481E+01  0.31886089536E+02  0.00000000000E+00 0. -1.
         11    1    3    3    0    0 -0.19539949623E+01  0.35977583442E+01 -0.54944562957E+01  0.68520808272E+01  0.51100000000E-03 0. -1.
        -11    1    3    3    0    0  0.20403120286E+02  0.31370321086E+01  0.12433157482E+02  0.24097960351E+02  0.51100000000E-03 0.  1.
         12    1    3    3    0    0  0.60491539829E+01 -0.27106739440E+02 -0.56974472378E+01  0.28351869286E+02  0.00000000000E+00 0. -1.
</event>
<event>
 7    1  0.7012292E-013  0.5930221E+02  0.7816164E-02  0.1266604E+00
        -11   -1    0    0    0    0  0.00000000000E+00  0.00000000000E+00  0.45593999997E+02  0.45594000000E+02  0.51100000000E-03 0.  1.
         11   -1    0    0    0    0 -0.00000000000E+00 -0.00000000000E+00 -0.45593999997E+02  0.45594000000E+02  0.51100000000E-03 0. -1.
    9900012    2    1    2    0    0 -0.17272063855E+02 -0.11202589946E+02  0.24349161916E+02  0.59302205400E+02  0.50000476677E+02 0.  0.
         12    1    1    2    0    0  0.17272063855E+02  0.11202589946E+02 -0.24349161916E+02  0.31885794600E+02  0.00000000000E+00 0. -1.
         11    1    3    3    0    0 -0.16210041498E+00 -0.80002069165E+01 -0.64171424943E+00  0.80275391429E+01  0.51100000000E-03 0. -1.
        -11    1    3    3    0    0 -0.10914801663E+02 -0.22146582530E+02  0.11730215639E+02  0.27334995378E+02  0.51100000000E-03 0.  1.
        -12    1    3    3    0    0 -0.61951617773E+01  0.18944199501E+02  0.13260660527E+02  0.23939670879E+02  0.00000000000E+00 0.  1.
</event>
<event>
 7    1  0.7012292E-013  0.5930195E+02  0.7816164E-02  0.1266605E+00
        -11   -1    0    0    0    0  0.00000000000E+00  0.00000000000E+00  0.45593999997E+02  0.45594000000E+02  0.51100000000E-03 0. -1.
         11   -1    0    0    0    0 -0.00000000000E+00 -0.00000000000E+00 -0.45593999997E+02  0.45594000000E+02  0.51100000000E-03 0.  1.
    9900012    2    1    2    0    0  0.21811628350E+02 -0.22596117413E+02 -0.55125729611E+01  0.59301951106E+02  0.50000012909E+02 0.  0.
         12    1    1    2    0    0 -0.21811628350E+02  0.22596117413E+02  0.55125729611E+01  0.31886048894E+02  0.00000000000E+00 0. -1.
         11    1    3    3    0    0  0.95271997472E+01 -0.13901171500E+02  0.25993220297E+01  0.17051879057E+02  0.51100000000E-03 0. -1.
        -11    1    3    3    0    0  0.10454748204E+02 -0.13377691207E+02  0.12468276156E+02  0.21064716770E+02  0.51100000000E-03 0.  1.
        -12    1    3    3    0    0  0.18296803984E+01  0.46827452934E+01 -0.20580171147E+02  0.21185355279E+02  0.00000000000E+00 0.  1.
</event>
<event>
 7    1  0.7539917E-013  0.5930197E+02  0.7816164E-02  0.1266605E+00
        -11   -1    0    0    0    0  0.00000000000E+00  0.00000000000E+00  0.45593999997E+02  0.45594000000E+02  0.51100000000E-03 0. -1.
         11   -1    0    0    0    0 -0.00000000000E+00 -0.00000000000E+00 -0.45593999997E+02  0.45594000000E+02  0.51100000000E-03 0.  1.
    9900012    2    1    2    0    0 -0.19681566121E+02  0.10351122184E+02 -0.22851900036E+02  0.59301966840E+02  0.50000041603E+02 0.  0.
         12    1    1    2    0    0  0.19681566121E+02 -0.10351122184E+02  0.22851900036E+02  0.31886033160E+02  0.00000000000E+00 0. -1.
         11    1    3    3    0    0  0.22582617027E+01  0.37114023213E+01  0.33380847574E+01  0.54787830051E+01  0.51100000000E-03 0. -1.
        -11    1    3    3    0    0 -0.44263424223E+01  0.17392738756E+02 -0.27929287131E+02  0.33198568472E+02  0.51100000000E-03 0.  1.
         12    1    3    3    0    0 -0.17513485402E+02 -0.10753018893E+02  0.17393023380E+01  0.20624615362E+02  0.00000000000E+00 0. -1.
</event>
<event>
 7    1  0.7012292E-013  0.5930191E+02  0.7816164E-02  0.1266605E+00
        -11   -1    0    0    0    0  0.00000000000E+00  0.00000000000E+00  0.45593999997E+02  0.45594000000E+02  0.51100000000E-03 0.  1.
         11   -1    0    0    0    0 -0.00000000000E+00 -0.00000000000E+00 -0.45593999997E+02  0.45594000000E+02  0.51100000000E-03 0. -1.
    9900012    2    1    2    0    0 -0.99170633783E+01  0.16846640519E+02  0.25190584938E+02  0.59301905659E+02  0.49999930024E+02 0.  0.
         12    1    1    2    0    0  0.99170633783E+01 -0.16846640519E+02 -0.25190584938E+02  0.31886094341E+02  0.00000000000E+00 0. -1.
         11    1    3    3    0    0  0.77776450188E+01  0.10143718823E+02  0.17224133783E+02  0.21448952851E+02  0.51100000000E-03 0. -1.
        -11    1    3    3    0    0 -0.16468558120E+02  0.28791912279E+01  0.19473410983E+02  0.25665480401E+02  0.51100000000E-03 0.  1.
         12    1    3    3    0    0 -0.12261502776E+01  0.38237304680E+01 -0.11506959827E+02  0.12187472406E+02  0.00000000000E+00 0. -1.
</event>
<event>
 7    1  0.7012292E-013  0.5930195E+02  0.7816164E-02  0.1266605E+00
        -11   -1    0    0    0    0  0.00000000000E+00  0.00000000000E+00  0.45593999997E+02  0.45594000000E+02  0.51100000000E-03 0. -1.
         11   -1    0    0    0    0 -0.00000000000E+00 -0.00000000000E+00 -0.45593999997E+02  0.45594000000E+02  0.51100000000E-03 0.  1.
    9900012    2    1    2    0    0  0.26131926201E+02 -0.88886780624E+01 -0.15963526497E+02  0.59301947517E+02  0.50000006364E+02 0.  0.
         12    1    1    2    0    0 -0.26131926201E+02  0.88886780624E+01  0.15963526497E+02  0.31886052483E+02  0.00000000000E+00 0. -1.
         11    1    3    3    0    0 -0.41427443880E+00 -0.95628669475E+01 -0.13276219936E+01  0.96634687346E+01  0.51100000000E-03 0. -1.
        -11    1    3    3    0    0  0.98478946643E+01  0.16025596651E+02 -0.18780661538E+02  0.26580331552E+02  0.51100000000E-03 0.  1.
         12    1    3    3    0    0  0.16698305976E+02 -0.15351407766E+02  0.41447570343E+01  0.23058147231E+02  0.00000000000E+00 0. -1.
</event>
<event>
 7    1  0.7012292E-013  0.5930195E+02  0.7816164E-02  0.1266605E+00
        -11   -1    0    0    0    0  0.00000000000E+00  0.00000000000E+00  0.45593999997E+02  0.45594000000E+02  0.51100000000E-03 0.  1.
         11   -1    0    0    0    0 -0.00000000000E+00 -0.00000000000E+00 -0.45593999997E+02  0.45594000000E+02  0.51100000000E-03 0. -1.
    9900012    2    1    2    0    0  0.18864725897E+01  0.22316569052E+02  0.22696516783E+02  0.59301954351E+02  0.50000018827E+02 0.  0.
         12    1    1    2    0    0 -0.18864725897E+01 -0.22316569052E+02 -0.22696516783E+02  0.31886045649E+02  0.00000000000E+00 0. -1.
         11    1    3    3    0    0 -0.59935349417E+01 -0.95778003639E+01  0.16329121555E+02  0.19856911440E+02  0.51100000000E-03 0. -1.
        -11    1    3    3    0    0  0.99996327918E+00 -0.30458076020E+01  0.13651475521E+01  0.34843218290E+01  0.51100000000E-03 0.  1.
         12    1    3    3    0    0  0.68800442522E+01  0.34940177018E+02  0.50022476752E+01  0.35960721082E+02  0.00000000000E+00 0. -1.
</event>
<event>
 7    1  0.7012292E-013  0.5930194E+02  0.7816164E-02  0.1266605E+00
        -11   -1    0    0    0    0  0.00000000000E+00  0.00000000000E+00  0.45593999997E+02  0.45594000000E+02  0.51100000000E-03 0. -1.
         11   -1    0    0    0    0 -0.00000000000E+00 -0.00000000000E+00 -0.45593999997E+02  0.45594000000E+02  0.51100000000E-03 0.  1.
    9900012    2    1    2    0    0 -0.11810444791E+02  0.28581748385E+02  0.77664398619E+01  0.59301944505E+02  0.50000000871E+02 0.  0.
         12    1    1    2    0    0  0.11810444791E+02 -0.28581748385E+02 -0.77664398619E+01  0.31886055495E+02  0.00000000000E+00 0. -1.
         11    1    3    3    0    0  0.38776341665E+01  0.10136839004E+02  0.79739928072E+01  0.13467594933E+02  0.51100000000E-03 0. -1.
        -11    1    3    3    0    0  0.57533332591E+01  0.16423719105E+02  0.11943432314E+02  0.21106514836E+02  0.51100000000E-03 0.  1.
        -12    1    3    3    0    0 -0.21441412216E+02  0.20211902756E+01 -0.12150985259E+02  0.24727834736E+02  0.00000000000E+00 0.  1.
</event>
<event>
 7    1  0.7527379E-013  0.5930197E+02  0.7816164E-02  0.1266605E+00
        -11   -1    0    0    0    0  0.00000000000E+00  0.00000000000E+00  0.45593999997E+02  0.45594000000E+02  0.51100000000E-03 0. -1.
         11   -1    0    0    0    0 -0.00000000000E+00 -0.00000000000E+00 -0.45593999997E+02  0.45594000000E+02  0.51100000000E-03 0.  1.
    9900012    2    1    2    0    0 -0.20704674844E+02 -0.92507383235E+01 -0.22415599691E+02  0.59301971250E+02  0.50000049647E+02 0.  0.
         12    1    1    2    0    0  0.20704674844E+02  0.92507383235E+01  0.22415599691E+02  0.31886028750E+02  0.00000000000E+00 0. -1.
         11    1    3    3    0    0 -0.17290254912E+02 -0.15785179336E+02 -0.19099546955E+02  0.30214524583E+02  0.51100000000E-03 0. -1.
        -11    1    3    3    0    0 -0.10272871960E+02  0.77644186321E+01 -0.12239520532E+02  0.17765808682E+02  0.51100000000E-03 0.  1.
         12    1    3    3    0    0  0.68584520285E+01 -0.12299776197E+01  0.89234677960E+01  0.11321637986E+02  0.00000000000E+00 0. -1.
</event>
<event>
 7    1  0.7012292E-013  0.5930204E+02  0.7816164E-02  0.1266604E+00
        -11   -1    0    0    0    0  0.00000000000E+00  0.00000000000E+00  0.45593999997E+02  0.45594000000E+02  0.51100000000E-03 0. -1.
         11   -1    0    0    0    0 -0.00000000000E+00 -0.00000000000E+00 -0.45593999997E+02  0.45594000000E+02  0.51100000000E-03 0.  1.
    9900012    2    1    2    0    0 -0.22731936527E+02 -0.14211000797E+02 -0.17263289294E+02  0.59302036957E+02  0.50000169481E+02 0.  0.
         12    1    1    2    0    0  0.22731936527E+02  0.14211000797E+02  0.17263289294E+02  0.31885963043E+02  0.00000000000E+00 0. -1.
         11    1    3    3    0    0 -0.13254771797E+02 -0.20028982798E+02 -0.18929573962E+01  0.24092165018E+02  0.51100000000E-03 0. -1.
        -11    1    3    3    0    0 -0.21157131417E+01 -0.12012580389E+02 -0.40983280166E+01  0.12867580289E+02  0.51100000000E-03 0.  1.
         12    1    3    3    0    0 -0.73614515886E+01  0.17830562391E+02 -0.11272003881E+02  0.22342291649E+02  0.00000000000E+00 0. -1.
</event>
<event>
 7    1  0.7012292E-013  0.5930198E+02  0.7816164E-02  0.1266605E+00
        -11   -1    0    0    0    0  0.00000000000E+00  0.00000000000E+00  0.45593999997E+02  0.45594000000E+02  0.51100000000E-03 0.  1.
         11   -1    0    0    0    0 -0.00000000000E+00 -0.00000000000E+00 -0.45593999997E+02  0.45594000000E+02  0.51100000000E-03 0. -1.
    9900012    2    1    2    0    0  0.46316246158E+01  0.24174752003E+02  0.20269381840E+02  0.59301977652E+02  0.50000061323E+02 0.  0.
         12    1    1    2    0    0 -0.46316246158E+01 -0.24174752003E+02 -0.20269381840E+02  0.31886022348E+02  0.00000000000E+00 0. -1.
         11    1    3    3    0    0 -0.65205581390E+01 -0.34093379277E+01  0.73554452228E+01  0.10404029904E+02  0.51100000000E-03 0. -1.
        -11    1    3    3    0    0 -0.77914511680E+01 -0.40308971494E+01 -0.22308074110E+01  0.90515935116E+01  0.51100000000E-03 0.  1.
        -12    1    3    3    0    0  0.18943633923E+02  0.31614987080E+02  0.15144744028E+02  0.39846354237E+02  0.00000000000E+00 0.  1.
</event>
<event>
 7    1  0.7012292E-013  0.5930195E+02  0.7816164E-02  0.1266605E+00
        -11   -1    0    0    0    0  0.00000000000E+00  0.00000000000E+00  0.45593999997E+02  0.45594000000E+02  0.51100000000E-03 0. -1.
         11   -1    0    0    0    0 -0.00000000000E+00 -0.00000000000E+00 -0.45593999997E+02  0.45594000000E+02  0.51100000000E-03 0.  1.
    9900012    2    1    2    0    0 -0.21289312641E+01  0.71579716982E+01 -0.30999212708E+02  0.59301951394E+02  0.50000013435E+02 0.  0.
         12    1    1    2    0    0  0.21289312641E+01 -0.71579716982E+01  0.30999212708E+02  0.31886048606E+02  0.00000000000E+00 0. -1.
         11    1    3    3    0    0  0.53096828169E+01 -0.51572433837E+01  0.92706275545E+00  0.74598482926E+01  0.51100000000E-03 0. -1.
        -11    1    3    3    0    0  0.21183253114E+01  0.13737405325E+01  0.85093171624E+01  0.88759756650E+01  0.51100000000E-03 0.  1.
        -12    1    3    3    0    0 -0.95569393924E+01  0.10941474549E+02 -0.40435592626E+02  0.42966127437E+02  0.00000000000E+00 0.  1.
</event>
<event>
 7    1  0.7012292E-013  0.5930195E+02  0.7816164E-02  0.1266605E+00
        -11   -1    0    0    0    0  0.00000000000E+00  0.00000000000E+00  0.45593999997E+02  0.45594000000E+02  0.51100000000E-03 0. -1.
         11   -1    0    0    0    0 -0.00000000000E+00 -0.00000000000E+00 -0.45593999997E+02  0.45594000000E+02  0.51100000000E-03 0.  1.
    9900012    2    1    2    0    0 -0.22251456544E+01  0.30304880984E+02 -0.96634941495E+01  0.59301949699E+02  0.50000010342E+02 0.  0.
         12    1    1    2    0    0  0.22251456544E+01 -0.30304880984E+02  0.96634941495E+01  0.31886050301E+02  0.00000000000E+00 0. -1.
         11    1    3    3    0    0  0.35718880120E+01  0.21488864476E+02 -0.10356397250E+02  0.24120212369E+02  0.51100000000E-03 0. -1.
        -11    1    3    3    0    0  0.12035199719E+02  0.47668050681E+01  0.82990948542E+01  0.15376717416E+02  0.51100000000E-03 0.  1.
         12    1    3    3    0    0 -0.17832233385E+02  0.40492114397E+01 -0.76061917540E+01  0.19805019914E+02  0.00000000000E+00 0. -1.
</event>
<event>
 7    1  0.7012292E-013  0.5930196E+02  0.7816164E-02  0.1266605E+00
        -11   -1    0    0    0    0  0.00000000000E+00  0.00000000000E+00  0.45593999997E+02  0.45594000000E+02  0.51100000000E-03 0. -1.
         11   -1    0    0    0    0 -0.00000000000E+00 -0.00000000000E+00 -0.45593999997E+02  0.45594000000E+02  0.51100000000E-03 0.  1.
    9900012    2    1    2    0    0  0.25539073944E+02 -0.13550852974E+02 -0.13448036485E+02  0.59301959174E+02  0.50000027624E+02 0.  0.
         12    1    1    2    0    0 -0.25539073944E+02  0.13550852974E+02  0.13448036485E+02  0.31886040826E+02  0.00000000000E+00 0. -1.
         11    1    3    3    0    0 -0.36108989795E+00  0.11153733170E+02 -0.20454525657E+01  0.11345484829E+02  0.51100000000E-03 0. -1.
        -11    1    3    3    0    0 -0.56565647179E+01 -0.10406724108E+02 -0.16043740575E+01  0.11952851018E+02  0.51100000000E-03 0.  1.
        -12    1    3    3    0    0  0.31556728560E+02 -0.14297862036E+02 -0.97982098614E+01  0.36003623327E+02  0.00000000000E+00 0.  1.
</event>
<event>
 7    1  0.7012292E-013  0.5930192E+02  0.7816164E-02  0.1266605E+00
        -11   -1    0    0    0    0  0.00000000000E+00  0.00000000000E+00  0.45593999997E+02  0.45594000000E+02  0.51100000000E-03 0.  1.
         11   -1    0    0    0    0 -0.00000000000E+00 -0.00000000000E+00 -0.45593999997E+02  0.45594000000E+02  0.51100000000E-03 0. -1.
    9900012    2    1    2    0    0  0.11718133958E+02 -0.85107585930E+01  0.28407294032E+02  0.59301921071E+02  0.49999958132E+02 0.  0.
         12    1    1    2    0    0 -0.11718133958E+02  0.85107585930E+01 -0.28407294032E+02  0.31886078929E+02  0.00000000000E+00 0. -1.
         11    1    3    3    0    0  0.15111610604E+02  0.11895838133E+02  0.13179421805E+01  0.19277155179E+02  0.51100000000E-03 0. -1.
        -11    1    3    3    0    0  0.59978412465E+01 -0.37169053220E+01  0.16940373156E+02  0.18351177829E+02  0.51100000000E-03 0.  1.
         12    1    3    3    0    0 -0.93913178926E+01 -0.16689691405E+02  0.10148978695E+02  0.21673588062E+02  0.00000000000E+00 0. -1.
</event>
<event>
 7    1  0.7012292E-013  0.5930195E+02  0.7816164E-02  0.1266605E+00
        -11   -1    0    0    0    0  0.00000000000E+00  0.00000000000E+00  0.45593999997E+02  0.45594000000E+02  0.51100000000E-03 0. -1.
         11   -1    0    0    0    0 -0.00000000000E+00 -0.00000000000E+00 -0.45593999997E+02  0.45594000000E+02  0.51100000000E-03 0.  1.
    9900012    2    1    2    0    0 -0.22461841255E+02  0.31442662061E+01 -0.22412044932E+02  0.59301945359E+02  0.50000002428E+02 0.  0.
         12    1    1    2    0    0  0.22461841255E+02 -0.31442662061E+01  0.22412044932E+02  0.31886054641E+02  0.00000000000E+00 0. -1.
         11    1    3    3    0    0 -0.94838382600E+01  0.17404501170E+02 -0.26314816721E+01  0.19994612904E+02  0.51100000000E-03 0. -1.
        -11    1    3    3    0    0 -0.41600798295E+01 -0.90187950585E+01  0.59703953323E+01  0.11588379920E+02  0.51100000000E-03 0.  1.
        -12    1    3    3    0    0 -0.88179231654E+01 -0.52414399052E+01 -0.25750958592E+02  0.27718952535E+02  0.00000000000E+00 0.  1.
</event>
<event>
 7    1  0.7012292E-013  0.5930189E+02  0.7816164E-02  0.1266605E+00
        -11   -1    0    0    0    0  0.00000000000E+00  0.00000000000E+00  0.45593999997E+02  0.45594000000E+02  0.51100000000E-03 0.  1.
         11   -1    0    0    0    0 -0.00000000000E+00 -0.00000000000E+00 -0.45593999997E+02  0.45594000000E+02  0.51100000000E-03 0. -1.
    9900012    2    1    2    0    0  0.11548092028E+02  0.29686954529E+02 -0.14318208863E+01  0.59301893155E+02  0.49999907220E+02 0.  0.
         12    1    1    2    0    0 -0.11548092028E+02 -0.29686954529E+02  0.14318208863E+01  0.31886106845E+02  0.00000000000E+00 0. -1.
         11    1    3    3    0    0  0.15892172262E+02  0.39884128066E+01 -0.41292140961E+01  0.16897307041E+02  0.51100000000E-03 0. -1.
        -11    1    3    3    0    0 -0.17640389466E+02  0.10952194493E+02 -0.45700375687E+01  0.21260741952E+02  0.51100000000E-03 0.  1.
         12    1    3    3    0    0  0.13296309232E+02  0.14746347230E+02  0.72674307785E+01  0.21143844161E+02  0.00000000000E+00 0. -1.
</event>
<event>
 7    1  0.7012292E-013  0.5930228E+02  0.7816164E-02  0.1266604E+00
        -11   -1    0    0    0    0  0.00000000000E+00  0.00000000000E+00  0.45593999997E+02  0.45594000000E+02  0.51100000000E-03 0. -1.
         11   -1    0    0    0    0 -0.00000000000E+00 -0.00000000000E+00 -0.45593999997E+02  0.45594000000E+02  0.51100000000E-03 0.  1.
    9900012    2    1    2    0    0  0.30036489700E+02 -0.75607628668E+01 -0.75725248502E+01  0.59302282488E+02  0.50000617267E+02 0.  0.
         12    1    1    2    0    0 -0.30036489700E+02  0.75607628668E+01  0.75725248502E+01  0.31885717512E+02  0.00000000000E+00 0. -1.
         11    1    3    3    0    0  0.29413156083E+01 -0.17060977166E+01 -0.81849437843E+01  0.88631490983E+01  0.51100000000E-03 0. -1.
        -11    1    3    3    0    0  0.13569387874E+02 -0.12104189477E+02 -0.18676088827E+02  0.26065992871E+02  0.51100000000E-03 0.  1.
         12    1    3    3    0    0  0.13525786218E+02  0.62495243271E+01  0.19288507761E+02  0.24373140519E+02  0.00000000000E+00 0. -1.
</event>
<event>
 7    1  0.7012292E-013  0.5930194E+02  0.7816164E-02  0.1266605E+00
        -11   -1    0    0    0    0  0.00000000000E+00  0.00000000000E+00  0.45593999997E+02  0.45594000000E+02  0.51100000000E-03 0. -1.
         11   -1    0    0    0    0 -0.00000000000E+00 -0.00000000000E+00 -0.45593999997E+02  0.45594000000E+02  0.51100000000E-03 0.  1.
    9900012    2    1    2    0    0  0.14667417669E+01 -0.19286950427E+02 -0.25349225534E+02  0.59301936848E+02  0.49999986905E+02 0.  0.
         12    1    1    2    0    0 -0.14667417669E+01  0.19286950427E+02  0.25349225534E+02  0.31886063152E+02  0.00000000000E+00 0. -1.
         11    1    3    3    0    0 -0.95054330033E+01  0.56564755948E+01  0.29410538852E+01  0.11445469451E+02  0.51100000000E-03 0. -1.
        -11    1    3    3    0    0 -0.72214290560E+01 -0.17456193881E+02 -0.12849972909E+02  0.22847090546E+02  0.51100000000E-03 0.  1.
         12    1    3    3    0    0  0.18193603826E+02 -0.74872321410E+01 -0.15440306510E+02  0.25009376851E+02  0.00000000000E+00 0. -1.
</event>
<event>
 7    1  0.7012292E-013  0.5930203E+02  0.7816164E-02  0.1266604E+00
        -11   -1    0    0    0    0  0.00000000000E+00  0.00000000000E+00  0.45593999997E+02  0.45594000000E+02  0.51100000000E-03 0. -1.
         11   -1    0    0    0    0 -0.00000000000E+00 -0.00000000000E+00 -0.45593999997E+02  0.45594000000E+02  0.51100000000E-03 0.  1.
    9900012    2    1    2    0    0 -0.24036445558E+02  0.94692703124E+01  0.18689495282E+02  0.59302030841E+02  0.50000158327E+02 0.  0.
         12    1    1    2    0    0  0.24036445558E+02 -0.94692703124E+01 -0.18689495282E+02  0.31885969159E+02  0.00000000000E+00 0. -1.
         11    1    3    3    0    0 -0.74815067371E+01 -0.81850249659E+01 -0.11944971965E+02  0.16298770882E+02  0.51100000000E-03 0. -1.
        -11    1    3    3    0    0 -0.62159467688E+01  0.77296780995E+01  0.85632687164E+00  0.99558632839E+01  0.51100000000E-03 0.  1.
        -12    1    3    3    0    0 -0.10338992052E+02  0.99246171787E+01  0.29778140376E+02  0.33047396676E+02  0.00000000000E+00 0.  1.
</event>
<event>
 7    1  0.7012292E-013  0.5930196E+02  0.7816164E-02  0.1266605E+00
        -11   -1    0    0    0    0  0.00000000000E+00  0.00000000000E+00  0.45593999997E+02  0.45594000000E+02  0.51100000000E-03 0.  1.
         11   -1    0    0    0    0 -0.00000000000E+00 -0.00000000000E+00 -0.45593999997E+02  0.45594000000E+02  0.51100000000E-03 0. -1.
    9900012    2    1    2    0    0 -0.11702424441E+01 -0.31516071495E+02  0.46997471991E+01  0.59301955190E+02  0.50000020358E+02 0.  0.
         12    1    1    2    0    0  0.11702424441E+01  0.31516071495E+02 -0.46997471991E+01  0.31886044810E+02  0.00000000000E+00 0. -1.
         11    1    3    3    0    0 -0.67834309935E+01 -0.29198604597E+02  0.11748625251E+02  0.32196329636E+02  0.51100000000E-03 0.  1.
        -11    1    3    3    0    0 -0.61407598568E+01 -0.45970123891E+01 -0.11923942103E+02  0.14178217450E+02  0.51100000000E-03 0. -1.
        -12    1    3    3    0    0  0.11753948406E+02  0.22795454910E+01  0.48750640510E+01  0.12927408104E+02  0.00000000000E+00 0.  1.
</event>
<event>
 7    1  0.7012292E-013  0.5930195E+02  0.7816164E-02  0.1266605E+00
        -11   -1    0    0    0    0  0.00000000000E+00  0.00000000000E+00  0.45593999997E+02  0.45594000000E+02  0.51100000000E-03 0. -1.
         11   -1    0    0    0    0 -0.00000000000E+00 -0.00000000000E+00 -0.45593999997E+02  0.45594000000E+02  0.51100000000E-03 0.  1.
    9900012    2    1    2    0    0 -0.56363205370E+00 -0.31848606432E+02 -0.14383640047E+01  0.59301948131E+02  0.50000007483E+02 0.  0.
         12    1    1    2    0    0  0.56363205370E+00  0.31848606432E+02  0.14383640047E+01  0.31886051869E+02  0.00000000000E+00 0. -1.
         11    1    3    3    0    0 -0.24148263944E+01  0.10386189922E+01 -0.43138270544E+00  0.26638707224E+01  0.51100000000E-03 0. -1.
        -11    1    3    3    0    0 -0.39917944048E+01  0.96193342763E+01 -0.80428180546E+01  0.13158758946E+02  0.51100000000E-03 0.  1.
        -12    1    3    3    0    0  0.58429887455E+01 -0.42506559701E+02  0.70358367553E+01  0.43479318462E+02  0.00000000000E+00 0.  1.
</event>
<event>
 7    1  0.7012292E-013  0.5930195E+02  0.7816164E-02  0.1266605E+00
        -11   -1    0    0    0    0  0.00000000000E+00  0.00000000000E+00  0.45593999997E+02  0.45594000000E+02  0.51100000000E-03 0.  1.
         11   -1    0    0    0    0 -0.00000000000E+00 -0.00000000000E+00 -0.45593999997E+02  0.45594000000E+02  0.51100000000E-03 0. -1.
    9900012    2    1    2    0    0  0.23440910682E+02 -0.10997965167E+02  0.18608833114E+02  0.59301949739E+02  0.50000010416E+02 0.  0.
         12    1    1    2    0    0 -0.23440910682E+02  0.10997965167E+02 -0.18608833114E+02  0.31886050261E+02  0.00000000000E+00 0. -1.
         11    1    3    3    0    0  0.14344282664E+02 -0.85982042748E+01 -0.10484080773E+02  0.19738376626E+02  0.51100000000E-03 0. -1.
        -11    1    3    3    0    0  0.16877463025E+02  0.28900401482E+01  0.15956731176E+02  0.23405519868E+02  0.51100000000E-03 0.  1.
        -12    1    3    3    0    0 -0.77808350070E+01 -0.52898010405E+01  0.13136182711E+02  0.16158053245E+02  0.00000000000E+00 0.  1.
</event>
<event>
 7    1  0.7012292E-013  0.5930198E+02  0.7816164E-02  0.1266605E+00
        -11   -1    0    0    0    0  0.00000000000E+00  0.00000000000E+00  0.45593999997E+02  0.45594000000E+02  0.51100000000E-03 0.  1.
         11   -1    0    0    0    0 -0.00000000000E+00 -0.00000000000E+00 -0.45593999997E+02  0.45594000000E+02  0.51100000000E-03 0. -1.
    9900012    2    1    2    0    0 -0.21503536471E+02 -0.18712062704E+02  0.14288968883E+02  0.59301984208E+02  0.50000073279E+02 0.  0.
         12    1    1    2    0    0  0.21503536471E+02  0.18712062704E+02 -0.14288968883E+02  0.31886015792E+02  0.00000000000E+00 0. -1.
         11    1    3    3    0    0 -0.12239735696E+02 -0.55957929318E+00 -0.24765889828E+00  0.12255023218E+02  0.51100000000E-03 0. -1.
        -11    1    3    3    0    0  0.46688078353E+01 -0.47146918175E+01 -0.12289467111E+02  0.13966283960E+02  0.51100000000E-03 0.  1.
        -12    1    3    3    0    0 -0.13932608610E+02 -0.13437791593E+02  0.26826094892E+02  0.33080677029E+02  0.00000000000E+00 0.  1.
</event>
<event>
 7    1  0.7012292E-013  0.5930196E+02  0.7816164E-02  0.1266605E+00
        -11   -1    0    0    0    0  0.00000000000E+00  0.00000000000E+00  0.45593999997E+02  0.45594000000E+02  0.51100000000E-03 0.  1.
         11   -1    0    0    0    0 -0.00000000000E+00 -0.00000000000E+00 -0.45593999997E+02  0.45594000000E+02  0.51100000000E-03 0. -1.
    9900012    2    1    2    0    0 -0.30277613214E+02  0.17573007245E+01  0.98436626165E+01  0.59301958203E+02  0.50000025852E+02 0.  0.
         12    1    1    2    0    0  0.30277613214E+02 -0.17573007245E+01 -0.98436626165E+01  0.31886041797E+02  0.00000000000E+00 0. -1.
         11    1    3    3    0    0 -0.12040485546E+02 -0.17580704363E+02 -0.35682240407E+01  0.21605246612E+02  0.51100000000E-03 0. -1.
        -11    1    3    3    0    0 -0.79365056900E+01 -0.33162057335E+01  0.89511190511E+01  0.12414019315E+02  0.51100000000E-03 0.  1.
        -12    1    3    3    0    0 -0.10300621978E+02  0.22654210821E+02  0.44607676061E+01  0.25282692275E+02  0.00000000000E+00 0.  1.
</event>
<event>
 7    1  0.7012292E-013  0.5930193E+02  0.7816164E-02  0.1266605E+00
        -11   -1    0    0    0    0  0.00000000000E+00  0.00000000000E+00  0.45593999997E+02  0.45594000000E+02  0.51100000000E-03 0.  1.
         11   -1    0    0    0    0 -0.00000000000E+00 -0.00000000000E+00 -0.45593999997E+02  0.45594000000E+02  0.51100000000E-03 0. -1.
    9900012    2    1    2    0    0 -0.20636779288E+02 -0.11142777117E+02  0.21602860856E+02  0.59301925635E+02  0.49999966456E+02 0.  0.
         12    1    1    2    0    0  0.20636779288E+02  0.11142777117E+02 -0.21602860856E+02  0.31886074365E+02  0.00000000000E+00 0. -1.
         11    1    3    3    0    0  0.28356303895E+00 -0.22093939147E+01 -0.96869523050E+01  0.99397623054E+01  0.51100000000E-03 0. -1.
        -11    1    3    3    0    0 -0.31487040706E+01 -0.59408435957E+01 -0.53088871534E+01  0.85669272800E+01  0.51100000000E-03 0.  1.
        -12    1    3    3    0    0 -0.17771638256E+02 -0.29925396061E+01  0.36598700315E+02  0.40795236049E+02  0.00000000000E+00 0.  1.
</event>
<event>
 7    1  0.7012292E-013  0.5930194E+02  0.7816164E-02  0.1266605E+00
        -11   -1    0    0    0    0  0.00000000000E+00  0.00000000000E+00  0.45593999997E+02  0.45594000000E+02  0.51100000000E-03 0. -1.
         11   -1    0    0    0    0 -0.00000000000E+00 -0.00000000000E+00 -0.45593999997E+02  0.45594000000E+02  0.51100000000E-03 0.  1.
    9900012    2    1    2    0    0 -0.10359982304E+02  0.16399221076E+02 -0.25307258548E+02  0.59301936893E+02  0.49999986988E+02 0.  0.
         12    1    1    2    0    0  0.10359982304E+02 -0.16399221076E+02  0.25307258548E+02  0.31886063107E+02  0.00000000000E+00 0. -1.
         11    1    3    3    0    0 -0.39272503702E+01  0.19666830531E+01 -0.22796230398E+02  0.23215496081E+02  0.51100000000E-03 0. -1.
        -11    1    3    3    0    0 -0.93746722169E+01  0.75923955470E+01 -0.16381286711E+02  0.20343930394E+02  0.51100000000E-03 0.  1.
         12    1    3    3    0    0  0.29419402834E+01  0.68401424759E+01  0.13870258560E+02  0.15742510418E+02  0.00000000000E+00 0. -1.
</event>
<event>
 7    1  0.7012292E-013  0.5930198E+02  0.7816164E-02  0.1266605E+00
        -11   -1    0    0    0    0  0.00000000000E+00  0.00000000000E+00  0.45593999997E+02  0.45594000000E+02  0.51100000000E-03 0. -1.
         11   -1    0    0    0    0 -0.00000000000E+00 -0.00000000000E+00 -0.45593999997E+02  0.45594000000E+02  0.51100000000E-03 0.  1.
    9900012    2    1    2    0    0  0.28130654600E+01  0.12449454119E+02 -0.29220128805E+02  0.59301981551E+02  0.50000068434E+02 0.  0.
         12    1    1    2    0    0 -0.28130654600E+01 -0.12449454119E+02  0.29220128805E+02  0.31886018449E+02  0.00000000000E+00 0. -1.
         11    1    3    3    0    0 -0.49966087796E+01  0.93524723988E+01 -0.21320785894E+02  0.23811987541E+02  0.51100000000E-03 0.  1.
        -11    1    3    3    0    0 -0.20146093766E+01 -0.11575258416E+02 -0.12589245261E+02  0.17220172904E+02  0.51100000000E-03 0. -1.
         12    1    3    3    0    0  0.98242836163E+01  0.14672240136E+02  0.46899023507E+01  0.18269821106E+02  0.00000000000E+00 0. -1.
</event>
<event>
 7    1  0.7012292E-013  0.5930187E+02  0.7816164E-02  0.1266605E+00
        -11   -1    0    0    0    0  0.00000000000E+00  0.00000000000E+00  0.45593999997E+02  0.45594000000E+02  0.51100000000E-03 0.  1.
         11   -1    0    0    0    0 -0.00000000000E+00 -0.00000000000E+00 -0.45593999997E+02  0.45594000000E+02  0.51100000000E-03 0. -1.
    9900012    2    1    2    0    0 -0.19088024122E+02 -0.17849750140E+02  0.18269075258E+02  0.59301868912E+02  0.49999863007E+02 0.  0.
         12    1    1    2    0    0  0.19088024122E+02  0.17849750140E+02 -0.18269075258E+02  0.31886131088E+02  0.00000000000E+00 0. -1.
         11    1    3    3    0    0 -0.88136112950E+01 -0.12378154094E+02  0.87771219634E+01  0.17548114231E+02  0.51100000000E-03 0. -1.
        -11    1    3    3    0    0  0.23265105090E+01 -0.50499462738E+01  0.22772607675E+02  0.23441550057E+02  0.51100000000E-03 0.  1.
         12    1    3    3    0    0 -0.12600923336E+02 -0.42164977182E+00 -0.13280654379E+02  0.18312204624E+02  0.00000000000E+00 0. -1.
</event>
<event>
 7    1  0.7012292E-013  0.5930194E+02  0.7816164E-02  0.1266605E+00
        -11   -1    0    0    0    0  0.00000000000E+00  0.00000000000E+00  0.45593999997E+02  0.45594000000E+02  0.51100000000E-03 0. -1.
         11   -1    0    0    0    0 -0.00000000000E+00 -0.00000000000E+00 -0.45593999997E+02  0.45594000000E+02  0.51100000000E-03 0.  1.
    9900012    2    1    2    0    0  0.19082258130E+02 -0.24918981103E+02 -0.56242624628E+01  0.59301944697E+02  0.50000001221E+02 0.  0.
         12    1    1    2    0    0 -0.19082258130E+02  0.24918981103E+02  0.56242624628E+01  0.31886055303E+02  0.00000000000E+00 0. -1.
         11    1    3    3    0    0 -0.13306128122E+02  0.32657736317E+00 -0.18208265453E+01  0.13434102424E+02  0.51100000000E-03 0. -1.
        -11    1    3    3    0    0  0.90683367115E+01 -0.16760514726E+02 -0.80578523340E+01  0.20690059669E+02  0.51100000000E-03 0.  1.
        -12    1    3    3    0    0  0.23320049540E+02 -0.84850437395E+01  0.42544164165E+01  0.25177782604E+02  0.00000000000E+00 0.  1.
</event>
<event>
 7    1  0.7012292E-013  0.5930195E+02  0.7816164E-02  0.1266605E+00
        -11   -1    0    0    0    0  0.00000000000E+00  0.00000000000E+00  0.45593999997E+02  0.45594000000E+02  0.51100000000E-03 0. -1.
         11   -1    0    0    0    0 -0.00000000000E+00 -0.00000000000E+00 -0.45593999997E+02  0.45594000000E+02  0.51100000000E-03 0.  1.
    9900012    2    1    2    0    0 -0.11844847596E+02 -0.29086552487E+02  0.55129146928E+01  0.59301950095E+02  0.50000011065E+02 0.  0.
         12    1    1    2    0    0  0.11844847596E+02  0.29086552487E+02 -0.55129146928E+01  0.31886049905E+02  0.00000000000E+00 0. -1.
         11    1    3    3    0    0 -0.16178240066E+01  0.85779670688E+01  0.80721102690E+01  0.11889400237E+02  0.51100000000E-03 0. -1.
        -11    1    3    3    0    0  0.30658049906E+01  0.24480762653E+01  0.27947834753E+01  0.48169546993E+01  0.51100000000E-03 0.  1.
        -12    1    3    3    0    0 -0.13292828580E+02 -0.40112595821E+02 -0.53539790514E+01  0.42595595158E+02  0.00000000000E+00 0.  1.
</event>
<event>
 7    1  0.7012292E-013  0.5930194E+02  0.7816164E-02  0.1266605E+00
        -11   -1    0    0    0    0  0.00000000000E+00  0.00000000000E+00  0.45593999997E+02  0.45594000000E+02  0.51100000000E-03 0.  1.
         11   -1    0    0    0    0 -0.00000000000E+00 -0.00000000000E+00 -0.45593999997E+02  0.45594000000E+02  0.51100000000E-03 0. -1.
    9900012    2    1    2    0    0  0.22261644955E+02  0.18785481400E+02 -0.12970951584E+02  0.59301941408E+02  0.49999995223E+02 0.  0.
         12    1    1    2    0    0 -0.22261644955E+02 -0.18785481400E+02  0.12970951584E+02  0.31886058592E+02  0.00000000000E+00 0. -1.
         11    1    3    3    0    0  0.14350515539E+02  0.11633402122E+02  0.11130469014E+02  0.21567584053E+02  0.51100000000E-03 0. -1.
        -11    1    3    3    0    0  0.64546301219E+01 -0.79330339398E-03  0.47242409014E+01  0.79987938463E+01  0.51100000000E-03 0.  1.
         12    1    3    3    0    0  0.14564992938E+01  0.71528725815E+01 -0.28825661499E+02  0.29735563509E+02  0.00000000000E+00 0. -1.
</event>
<event>
 7    1  0.1067971E-012  0.5930196E+02  0.7816164E-02  0.1266605E+00
        -11   -1    0    0    0    0  0.00000000000E+00  0.00000000000E+00  0.45593999997E+02  0.45594000000E+02  0.51100000000E-03 0. -1.
         11   -1    0    0    0    0 -0.00000000000E+00 -0.00000000000E+00 -0.45593999997E+02  0.45594000000E+02  0.51100000000E-03 0.  1.
    9900012    2    1    2    0    0  0.24634578282E+02 -0.20239353601E+02 -0.47507292672E+00  0.59301959550E+02  0.50000028309E+02 0.  0.
         12    1    1    2    0    0 -0.24634578282E+02  0.20239353601E+02  0.47507292672E+00  0.31886040450E+02  0.00000000000E+00 0. -1.
         11    1    3    3    0    0  0.22795329566E+01  0.19043196190E+01 -0.90317357685E+01  0.95076261477E+01  0.51100000000E-03 0. -1.
        -11    1    3    3    0    0  0.23726018056E+02 -0.18537062175E+02 -0.93102845097E+01  0.31515520062E+02  0.51100000000E-03 0.  1.
         12    1    3    3    0    0 -0.13709727307E+01 -0.36066110445E+01  0.17866947351E+02  0.18278813340E+02  0.00000000000E+00 0. -1.
</event>
<event>
 7    1  0.7012292E-013  0.5930196E+02  0.7816164E-02  0.1266605E+00
        -11   -1    0    0    0    0  0.00000000000E+00  0.00000000000E+00  0.45593999997E+02  0.45594000000E+02  0.51100000000E-03 0.  1.
         11   -1    0    0    0    0 -0.00000000000E+00 -0.00000000000E+00 -0.45593999997E+02  0.45594000000E+02  0.51100000000E-03 0. -1.
    9900012    2    1    2    0    0  0.57577532732E+01  0.63261880373E+01  0.30717211548E+02  0.59301961313E+02  0.50000031524E+02 0.  0.
         12    1    1    2    0    0 -0.57577532732E+01 -0.63261880373E+01 -0.30717211548E+02  0.31886038687E+02  0.00000000000E+00 0. -1.
         11    1    3    3    0    0  0.61231600988E+01 -0.12293889091E+02  0.14973339581E+02  0.20318309405E+02  0.51100000000E-03 0. -1.
        -11    1    3    3    0    0  0.41387002983E+01 -0.73301881000E+01  0.77933911189E+01  0.11471592877E+02  0.51100000000E-03 0.  1.
         12    1    3    3    0    0 -0.45041071238E+01  0.25950265229E+02  0.79504808483E+01  0.27512059031E+02  0.00000000000E+00 0. -1.
</event>
<event>
 7    1  0.7012292E-013  0.5930195E+02  0.7816164E-02  0.1266605E+00
        -11   -1    0    0    0    0  0.00000000000E+00  0.00000000000E+00  0.45593999997E+02  0.45594000000E+02  0.51100000000E-03 0. -1.
         11   -1    0    0    0    0 -0.00000000000E+00 -0.00000000000E+00 -0.45593999997E+02  0.45594000000E+02  0.51100000000E-03 0.  1.
    9900012    2    1    2    0    0  0.15782463723E+02 -0.12624869877E+02 -0.24662656218E+02  0.59301951134E+02  0.50000012960E+02 0.  0.
         12    1    1    2    0    0 -0.15782463723E+02  0.12624869877E+02  0.24662656218E+02  0.31886048866E+02  0.00000000000E+00 0. -1.
         11    1    3    3    0    0  0.14757674880E+02 -0.10323862703E+01 -0.19612929330E+02  0.24566680412E+02  0.51100000000E-03 0. -1.
        -11    1    3    3    0    0  0.15666136273E+02 -0.47755863253E+00 -0.46497300945E+01  0.16348574194E+02  0.51100000000E-03 0.  1.
         12    1    3    3    0    0 -0.14641347430E+02 -0.11114924974E+02 -0.39999679312E+00  0.18386696527E+02  0.00000000000E+00 0. -1.
</event>
<event>
 7    1  0.7012292E-013  0.5930193E+02  0.7816164E-02  0.1266605E+00
        -11   -1    0    0    0    0  0.00000000000E+00  0.00000000000E+00  0.45593999997E+02  0.45594000000E+02  0.51100000000E-03 0.  1.
         11   -1    0    0    0    0 -0.00000000000E+00 -0.00000000000E+00 -0.45593999997E+02  0.45594000000E+02  0.51100000000E-03 0. -1.
    9900012    2    1    2    0    0  0.15703156710E+02 -0.99889268650E+01  0.25891185456E+02  0.59301932904E+02  0.49999979713E+02 0.  0.
         12    1    1    2    0    0 -0.15703156710E+02  0.99889268650E+01 -0.25891185456E+02  0.31886067096E+02  0.00000000000E+00 0. -1.
         11    1    3    3    0    0  0.13914206654E+02 -0.10328278605E+02  0.16195475951E+02  0.23718598763E+02  0.51100000000E-03 0. -1.
        -11    1    3    3    0    0  0.95283994533E+01 -0.14435032221E+02  0.71306664438E+01  0.18708472828E+02  0.51100000000E-03 0.  1.
         12    1    3    3    0    0 -0.77394493979E+01  0.14774383961E+02  0.25650430611E+01  0.16874861313E+02  0.00000000000E+00 0. -1.
</event>
<event>
 7    1  0.7012292E-013  0.5930197E+02  0.7816164E-02  0.1266605E+00
        -11   -1    0    0    0    0  0.00000000000E+00  0.00000000000E+00  0.45593999997E+02  0.45594000000E+02  0.51100000000E-03 0.  1.
         11   -1    0    0    0    0 -0.00000000000E+00 -0.00000000000E+00 -0.45593999997E+02  0.45594000000E+02  0.51100000000E-03 0. -1.
    9900012    2    1    2    0    0  0.28481505058E+02  0.14335898167E+02 -0.67153673282E-01  0.59301974593E+02  0.50000055744E+02 0.  0.
         12    1    1    2    0    0 -0.28481505058E+02 -0.14335898167E+02  0.67153673282E-01  0.31886025407E+02  0.00000000000E+00 0. -1.
         11    1    3    3    0    0 -0.10115212401E+02 -0.12456467312E+01 -0.10381426202E+02  0.14547960955E+02  0.51100000000E-03 0. -1.
        -11    1    3    3    0    0  0.10819317172E+02 -0.10387521368E+01  0.49474663602E+01  0.11942112615E+02  0.51100000000E-03 0.  1.
        -12    1    3    3    0    0  0.27777400287E+02  0.16620297035E+02  0.53668061690E+01  0.32811901023E+02  0.00000000000E+00 0.  1.
</event>
<event>
 7    1  0.7012292E-013  0.5930194E+02  0.7816164E-02  0.1266605E+00
        -11   -1    0    0    0    0  0.00000000000E+00  0.00000000000E+00  0.45593999997E+02  0.45594000000E+02  0.51100000000E-03 0.  1.
         11   -1    0    0    0    0 -0.00000000000E+00 -0.00000000000E+00 -0.45593999997E+02  0.45594000000E+02  0.51100000000E-03 0. -1.
    9900012    2    1    2    0    0 -0.26042471098E+02 -0.17070153403E+02  0.68644274109E+01  0.59301940323E+02  0.49999993243E+02 0.  0.
         12    1    1    2    0    0  0.26042471098E+02  0.17070153403E+02 -0.68644274109E+01  0.31886059677E+02  0.00000000000E+00 0. -1.
         11    1    3    3    0    0 -0.28847572302E-01  0.27520176005E+00  0.80771925521E+00  0.85380258111E+00  0.51100000000E-03 0. -1.
        -11    1    3    3    0    0  0.45033084335E+01 -0.10249558329E+02  0.20952902559E+02  0.23756206741E+02  0.51100000000E-03 0.  1.
         12    1    3    3    0    0 -0.30516931959E+02 -0.70957968340E+01 -0.14896194403E+02  0.34691931001E+02  0.00000000000E+00 0. -1.
</event>
<event>
 7    1  0.7012292E-013  0.5930196E+02  0.7816164E-02  0.1266605E+00
        -11   -1    0    0    0    0  0.00000000000E+00  0.00000000000E+00  0.45593999997E+02  0.45594000000E+02  0.51100000000E-03 0.  1.
         11   -1    0    0    0    0 -0.00000000000E+00 -0.00000000000E+00 -0.45593999997E+02  0.45594000000E+02  0.51100000000E-03 0. -1.
    9900012    2    1    2    0    0  0.31329959703E+02 -0.59126093413E+01 -0.44075915194E+00  0.59301959279E+02  0.50000027815E+02 0.  0.
         12    1    1    2    0    0 -0.31329959703E+02  0.59126093413E+01  0.44075915194E+00  0.31886040721E+02  0.00000000000E+00 0. -1.
         11    1    3    3    0    0  0.14625356273E+02 -0.64720004055E+01  0.13460879283E+02  0.20904140898E+02  0.51100000000E-03 0. -1.
        -11    1    3    3    0    0  0.15227529968E+02 -0.39570008169E+01  0.68130802722E+01  0.17145074728E+02  0.51100000000E-03 0.  1.
        -12    1    3    3    0    0  0.14770734623E+01  0.45163918812E+01 -0.20714718707E+02  0.21252743652E+02  0.00000000000E+00 0.  1.
</event>
<event>
 7    1  0.7012292E-013  0.5930199E+02  0.7816164E-02  0.1266605E+00
        -11   -1    0    0    0    0  0.00000000000E+00  0.00000000000E+00  0.45593999997E+02  0.45594000000E+02  0.51100000000E-03 0. -1.
         11   -1    0    0    0    0 -0.00000000000E+00 -0.00000000000E+00 -0.45593999997E+02  0.45594000000E+02  0.51100000000E-03 0.  1.
    9900012    2    1    2    0    0 -0.17772892587E+02  0.88610594370E+01 -0.24946419488E+02  0.59301985346E+02  0.50000075354E+02 0.  0.
         12    1    1    2    0    0  0.17772892587E+02 -0.88610594370E+01  0.24946419488E+02  0.31886014654E+02  0.00000000000E+00 0. -1.
         11    1    3    3    0    0 -0.54729060735E+01  0.77579329065E+01  0.96606382654E+01  0.13544967915E+02  0.51100000000E-03 0. -1.
        -11    1    3    3    0    0 -0.10329459322E+02 -0.14779912423E+01  0.55110495918E+00  0.10449205947E+02  0.51100000000E-03 0.  1.
         12    1    3    3    0    0 -0.19705271913E+01  0.25811177728E+01 -0.35158162713E+02  0.35307811483E+02  0.00000000000E+00 0. -1.
</event>
<event>
 7    1  0.7012292E-013  0.5930195E+02  0.7816164E-02  0.1266605E+00
        -11   -1    0    0    0    0  0.00000000000E+00  0.00000000000E+00  0.45593999997E+02  0.45594000000E+02  0.51100000000E-03 0.  1.
         11   -1    0    0    0    0 -0.00000000000E+00 -0.00000000000E+00 -0.45593999997E+02  0.45594000000E+02  0.51100000000E-03 0. -1.
    9900012    2    1    2    0    0  0.18896097633E+02 -0.69145550787E+01  0.24735537152E+02  0.59301947000E+02  0.50000005421E+02 0.  0.
         12    1    1    2    0    0 -0.18896097633E+02  0.69145550787E+01 -0.24735537152E+02  0.31886053000E+02  0.00000000000E+00 0. -1.
         11    1    3    3    0    0  0.16465756023E+01 -0.32430430239E+01 -0.47666410210E+01  0.59957823637E+01  0.51100000000E-03 0. -1.
        -11    1    3    3    0    0 -0.60537901269E+01  0.13742407190E+02  0.72206112180E+01  0.16662513523E+02  0.51100000000E-03 0.  1.
        -12    1    3    3    0    0  0.23303312158E+02 -0.17413919245E+02  0.22281566955E+02  0.36643651114E+02  0.00000000000E+00 0.  1.
</event>
<event>
 7    1  0.8151025E-013  0.5930191E+02  0.7816164E-02  0.1266605E+00
        -11   -1    0    0    0    0  0.00000000000E+00  0.00000000000E+00  0.45593999997E+02  0.45594000000E+02  0.51100000000E-03 0.  1.
         11   -1    0    0    0    0 -0.00000000000E+00 -0.00000000000E+00 -0.45593999997E+02  0.45594000000E+02  0.51100000000E-03 0. -1.
    9900012    2    1    2    0    0  0.24390195009E+02 -0.17140099478E+02 -0.11316264787E+02  0.59301914141E+02  0.49999945494E+02 0.  0.
         12    1    1    2    0    0 -0.24390195009E+02  0.17140099478E+02  0.11316264787E+02  0.31886085859E+02  0.00000000000E+00 0. -1.
         11    1    3    3    0    0  0.17870576218E+02 -0.24010150330E+01  0.94010395877E+01  0.20334746449E+02  0.51100000000E-03 0. -1.
        -11    1    3    3    0    0  0.14973534879E+02  0.11223772373E+01 -0.10001252465E+02  0.18041383777E+02  0.51100000000E-03 0.  1.
         12    1    3    3    0    0 -0.84539160889E+01 -0.15861461682E+02 -0.10716051909E+02  0.20925783915E+02  0.00000000000E+00 0. -1.
</event>
<event>
 7    1  0.7012292E-013  0.5930197E+02  0.7816164E-02  0.1266605E+00
        -11   -1    0    0    0    0  0.00000000000E+00  0.00000000000E+00  0.45593999997E+02  0.45594000000E+02  0.51100000000E-03 0. -1.
         11   -1    0    0    0    0 -0.00000000000E+00 -0.00000000000E+00 -0.45593999997E+02  0.45594000000E+02  0.51100000000E-03 0.  1.
    9900012    2    1    2    0    0  0.13021790513E+02  0.15324956309E+02 -0.24744645227E+02  0.59301972003E+02  0.50000051020E+02 0.  0.
         12    1    1    2    0    0 -0.13021790513E+02 -0.15324956309E+02  0.24744645227E+02  0.31886027997E+02  0.00000000000E+00 0. -1.
         11    1    3    3    0    0  0.19115508203E+02  0.20339884321E+01 -0.77494729301E+01  0.20726651773E+02  0.51100000000E-03 0. -1.
        -11    1    3    3    0    0  0.12916288464E+02  0.63363570861E+01 -0.71854018501E+01  0.16081353451E+02  0.51100000000E-03 0.  1.
         12    1    3    3    0    0 -0.19010006153E+02  0.69546107912E+01 -0.98097704465E+01  0.22493966778E+02  0.00000000000E+00 0. -1.
</event>
<event>
 7    1  0.7012292E-013  0.5930193E+02  0.7816164E-02  0.1266605E+00
        -11   -1    0    0    0    0  0.00000000000E+00  0.00000000000E+00  0.45593999997E+02  0.45594000000E+02  0.51100000000E-03 0. -1.
         11   -1    0    0    0    0 -0.00000000000E+00 -0.00000000000E+00 -0.45593999997E+02  0.45594000000E+02  0.51100000000E-03 0.  1.
    9900012    2    1    2    0    0 -0.12939889467E+02  0.20521893775E+02 -0.20691358192E+02  0.59301934589E+02  0.49999982787E+02 0.  0.
         12    1    1    2    0    0  0.12939889467E+02 -0.20521893775E+02  0.20691358192E+02  0.31886065411E+02  0.00000000000E+00 0. -1.
         11    1    3    3    0    0  0.21636397469E+01 -0.76584799672E+01  0.10020911892E+01  0.80210871691E+01  0.51100000000E-03 0. -1.
        -11    1    3    3    0    0 -0.62713102395E+01  0.20430107052E+02  0.51460428704E+01  0.21981818936E+02  0.51100000000E-03 0.  1.
        -12    1    3    3    0    0 -0.88322189747E+01  0.77502666907E+01 -0.26839492251E+02  0.29299028484E+02  0.00000000000E+00 0.  1.
</event>
<event>
 7    1  0.7012292E-013  0.5930193E+02  0.7816164E-02  0.1266605E+00
        -11   -1    0    0    0    0  0.00000000000E+00  0.00000000000E+00  0.45593999997E+02  0.45594000000E+02  0.51100000000E-03 0.  1.
         11   -1    0    0    0    0 -0.00000000000E+00 -0.00000000000E+00 -0.45593999997E+02  0.45594000000E+02  0.51100000000E-03 0. -1.
    9900012    2    1    2    0    0 -0.11103098534E+01  0.43431035075E+01  0.31569382966E+02  0.59301932872E+02  0.49999979655E+02 0.  0.
         12    1    1    2    0    0  0.11103098534E+01 -0.43431035075E+01 -0.31569382966E+02  0.31886067128E+02  0.00000000000E+00 0. -1.
         11    1    3    3    0    0 -0.17387082644E+02  0.76875069540E+01  0.38538428884E+01  0.19397435689E+02  0.51100000000E-03 0. -1.
        -11    1    3    3    0    0  0.78644031194E+01  0.85466477920E+01  0.20703298624E+02  0.23738588819E+02  0.51100000000E-03 0.  1.
         12    1    3    3    0    0  0.84123696714E+01 -0.11891051239E+02  0.70122414529E+01  0.16165908364E+02  0.00000000000E+00 0. -1.
</event>
<event>
 7    1  0.7012292E-013  0.5930195E+02  0.7816164E-02  0.1266605E+00
        -11   -1    0    0    0    0  0.00000000000E+00  0.00000000000E+00  0.45593999997E+02  0.45594000000E+02  0.51100000000E-03 0. -1.
         11   -1    0    0    0    0 -0.00000000000E+00 -0.00000000000E+00 -0.45593999997E+02  0.45594000000E+02  0.51100000000E-03 0.  1.
    9900012    2    1    2    0    0 -0.17743003040E+02 -0.13180083480E+02 -0.22982417975E+02  0.59301948294E+02  0.50000007781E+02 0.  0.
         12    1    1    2    0    0  0.17743003040E+02  0.13180083480E+02  0.22982417975E+02  0.31886051706E+02  0.00000000000E+00 0. -1.
         11    1    3    3    0    0 -0.10651389408E+02 -0.95318972352E+01 -0.77014178231E+01  0.16236409639E+02  0.51100000000E-03 0. -1.
        -11    1    3    3    0    0 -0.69144491734E+01 -0.21303747173E+02 -0.10711850832E+02  0.24827464621E+02  0.51100000000E-03 0.  1.
         12    1    3    3    0    0 -0.17716445840E+00  0.17655560929E+02 -0.45691493200E+01  0.18238074034E+02  0.00000000000E+00 0. -1.
</event>
<event>
 7    1  0.7012292E-013  0.5930196E+02  0.7816164E-02  0.1266605E+00
        -11   -1    0    0    0    0  0.00000000000E+00  0.00000000000E+00  0.45593999997E+02  0.45594000000E+02  0.51100000000E-03 0. -1.
         11   -1    0    0    0    0 -0.00000000000E+00 -0.00000000000E+00 -0.45593999997E+02  0.45594000000E+02  0.51100000000E-03 0.  1.
    9900012    2    1    2    0    0 -0.12136837954E+02 -0.25043243021E+02 -0.15564464960E+02  0.59301961895E+02  0.50000032586E+02 0.  0.
         12    1    1    2    0    0  0.12136837954E+02  0.25043243021E+02  0.15564464960E+02  0.31886038105E+02  0.00000000000E+00 0. -1.
         11    1    3    3    0    0 -0.16057981585E+02  0.46854757482E+00  0.59265132225E+01  0.17123138400E+02  0.51100000000E-03 0. -1.
        -11    1    3    3    0    0  0.21942298516E+01 -0.12454671744E+01  0.53733282127E+01  0.59362016026E+01  0.51100000000E-03 0.  1.
        -12    1    3    3    0    0  0.17269137796E+01 -0.24266323421E+02 -0.26864306395E+02  0.36242621893E+02  0.00000000000E+00 0.  1.
</event>
<event>
 7    1  0.7012292E-013  0.5930191E+02  0.7816164E-02  0.1266605E+00
        -11   -1    0    0    0    0  0.00000000000E+00  0.00000000000E+00  0.45593999997E+02  0.45594000000E+02  0.51100000000E-03 0. -1.
         11   -1    0    0    0    0 -0.00000000000E+00 -0.00000000000E+00 -0.45593999997E+02  0.45594000000E+02  0.51100000000E-03 0.  1.
    9900012    2    1    2    0    0 -0.17590247017E+02 -0.26032414834E+02 -0.54423489112E+01  0.59301912534E+02  0.49999942563E+02 0.  0.
         12    1    1    2    0    0  0.17590247017E+02  0.26032414834E+02  0.54423489112E+01  0.31886087466E+02  0.00000000000E+00 0. -1.
         11    1    3    3    0    0 -0.84684661571E+00  0.94702222522E+01  0.14162227404E+01  0.96129051701E+01  0.51100000000E-03 0. -1.
        -11    1    3    3    0    0 -0.77091845777E+01  0.26524007700E+01  0.38889065950E+01  0.90327377612E+01  0.51100000000E-03 0.  1.
        -12    1    3    3    0    0 -0.90342158237E+01 -0.38155037856E+02 -0.10747478247E+02  0.40656269603E+02  0.00000000000E+00 0.  1.
</event>
<event>
 7    1  0.7012292E-013  0.5930191E+02  0.7816164E-02  0.1266605E+00
        -11   -1    0    0    0    0  0.00000000000E+00  0.00000000000E+00  0.45593999997E+02  0.45594000000E+02  0.51100000000E-03 0. -1.
         11   -1    0    0    0    0 -0.00000000000E+00 -0.00000000000E+00 -0.45593999997E+02  0.45594000000E+02  0.51100000000E-03 0.  1.
    9900012    2    1    2    0    0 -0.18371719905E+02  0.21808678813E+02 -0.14268283614E+02  0.59301913989E+02  0.49999945216E+02 0.  0.
         12    1    1    2    0    0  0.18371719905E+02 -0.21808678813E+02  0.14268283614E+02  0.31886086011E+02  0.00000000000E+00 0. -1.
         11    1    3    3    0    0 -0.97175558782E+01  0.28137192411E+01  0.99222030047E+01  0.14170321836E+02  0.51100000000E-03 0. -1.
        -11    1    3    3    0    0 -0.72225866600E+01 -0.50794259564E+01  0.24825643831E+01  0.91722108722E+01  0.51100000000E-03 0.  1.
        -12    1    3    3    0    0 -0.14315773664E+01  0.24074385529E+02 -0.26673051001E+02  0.35959381280E+02  0.00000000000E+00 0.  1.
</event>
<event>
 7    1  0.7012292E-013  0.5930193E+02  0.7816164E-02  0.1266605E+00
        -11   -1    0    0    0    0  0.00000000000E+00  0.00000000000E+00  0.45593999997E+02  0.45594000000E+02  0.51100000000E-03 0. -1.
         11   -1    0    0    0    0 -0.00000000000E+00 -0.00000000000E+00 -0.45593999997E+02  0.45594000000E+02  0.51100000000E-03 0.  1.
    9900012    2    1    2    0    0 -0.20829843731E+02 -0.13340837991E+02 -0.20121165430E+02  0.59301927078E+02  0.49999969087E+02 0.  0.
         12    1    1    2    0    0  0.20829843731E+02  0.13340837991E+02  0.20121165430E+02  0.31886072922E+02  0.00000000000E+00 0. -1.
         11    1    3    3    0    0 -0.21896317866E+02 -0.15565262112E+02 -0.15733697554E+01  0.26910994284E+02  0.51100000000E-03 0. -1.
        -11    1    3    3    0    0 -0.12136907926E+02  0.48897279917E+01 -0.91854124689E+01  0.15987050270E+02  0.51100000000E-03 0.  1.
         12    1    3    3    0    0  0.13203382061E+02 -0.26653038709E+01 -0.93623832056E+01  0.16403882524E+02  0.00000000000E+00 0. -1.
</event>
<event>
 7    1  0.7012292E-013  0.5930194E+02  0.7816164E-02  0.1266605E+00
        -11   -1    0    0    0    0  0.00000000000E+00  0.00000000000E+00  0.45593999997E+02  0.45594000000E+02  0.51100000000E-03 0. -1.
         11   -1    0    0    0    0 -0.00000000000E+00 -0.00000000000E+00 -0.45593999997E+02  0.45594000000E+02  0.51100000000E-03 0.  1.
    9900012    2    1    2    0    0  0.59882787342E+01  0.45185237830E+01 -0.30991030649E+02  0.59301944740E+02  0.50000001298E+02 0.  0.
         12    1    1    2    0    0 -0.59882787342E+01 -0.45185237830E+01  0.30991030649E+02  0.31886055260E+02  0.00000000000E+00 0. -1.
         11    1    3    3    0    0  0.44614892416E+01  0.10750719395E+02 -0.94558755195E+01  0.14996547465E+02  0.51100000000E-03 0. -1.
        -11    1    3    3    0    0  0.90060359274E+01  0.12754993244E+02 -0.17590072197E+02  0.23520399145E+02  0.51100000000E-03 0.  1.
        -12    1    3    3    0    0 -0.74792464348E+01 -0.18987188856E+02 -0.39450829327E+01  0.20784998130E+02  0.00000000000E+00 0.  1.
</event>
<event>
 7    1  0.7012292E-013  0.5930196E+02  0.7816164E-02  0.1266605E+00
        -11   -1    0    0    0    0  0.00000000000E+00  0.00000000000E+00  0.45593999997E+02  0.45594000000E+02  0.51100000000E-03 0. -1.
         11   -1    0    0    0    0 -0.00000000000E+00 -0.00000000000E+00 -0.45593999997E+02  0.45594000000E+02  0.51100000000E-03 0.  1.
    9900012    2    1    2    0    0  0.26134966314E+02 -0.66190319521E+01 -0.17025613723E+02  0.59301959624E+02  0.50000028444E+02 0.  0.
         12    1    1    2    0    0 -0.26134966314E+02  0.66190319521E+01  0.17025613723E+02  0.31886040376E+02  0.00000000000E+00 0. -1.
         11    1    3    3    0    0  0.33950635191E+02 -0.31123239902E+01 -0.53832661353E+01  0.34515384179E+02  0.51100000000E-03 0. -1.
        -11    1    3    3    0    0  0.64389865089E+01  0.13738665856E+01 -0.52447401802E+01  0.84175623832E+01  0.51100000000E-03 0.  1.
        -12    1    3    3    0    0 -0.14254655386E+02 -0.48805745475E+01 -0.63976074073E+01  0.16369013062E+02  0.00000000000E+00 0.  1.
</event>
<event>
 7    1  0.7012292E-013  0.5930196E+02  0.7816164E-02  0.1266605E+00
        -11   -1    0    0    0    0  0.00000000000E+00  0.00000000000E+00  0.45593999997E+02  0.45594000000E+02  0.51100000000E-03 0. -1.
         11   -1    0    0    0    0 -0.00000000000E+00 -0.00000000000E+00 -0.45593999997E+02  0.45594000000E+02  0.51100000000E-03 0.  1.
    9900012    2    1    2    0    0 -0.73793226856E+01  0.29603892764E+02 -0.92668549342E+01  0.59301961199E+02  0.50000031316E+02 0.  0.
         12    1    1    2    0    0  0.73793226856E+01 -0.29603892764E+02  0.92668549342E+01  0.31886038801E+02  0.00000000000E+00 0. -1.
         11    1    3    3    0    0 -0.44664562735E+01 -0.52085791722E+01 -0.57448131097E+01  0.89488215181E+01  0.51100000000E-03 0. -1.
        -11    1    3    3    0    0 -0.20124252904E+01  0.49008800248E+01 -0.16799211751E+02  0.17614823198E+02  0.51100000000E-03 0.  1.
         12    1    3    3    0    0 -0.90044112173E+00  0.29911591911E+02  0.13277169927E+02  0.32738316483E+02  0.00000000000E+00 0. -1.
</event>
<event>
 7    1  0.7012292E-013  0.5930196E+02  0.7816164E-02  0.1266605E+00
        -11   -1    0    0    0    0  0.00000000000E+00  0.00000000000E+00  0.45593999997E+02  0.45594000000E+02  0.51100000000E-03 0. -1.
         11   -1    0    0    0    0 -0.00000000000E+00 -0.00000000000E+00 -0.45593999997E+02  0.45594000000E+02  0.51100000000E-03 0.  1.
    9900012    2    1    2    0    0 -0.27739727915E+02 -0.96365286034E+01 -0.12424339651E+02  0.59301962239E+02  0.50000033214E+02 0.  0.
         12    1    1    2    0    0  0.27739727915E+02  0.96365286034E+01  0.12424339651E+02  0.31886037761E+02  0.00000000000E+00 0. -1.
         11    1    3    3    0    0  0.35759054085E+00  0.45270817577E+00 -0.10711827157E+01  0.12166545767E+01  0.51100000000E-03 0. -1.
        -11    1    3    3    0    0 -0.31132140050E+02  0.81335106267E+01 -0.19790488416E+02  0.37776018467E+02  0.51100000000E-03 0.  1.
         12    1    3    3    0    0  0.30348215948E+01 -0.18222747406E+02  0.84373314803E+01  0.20309289196E+02  0.00000000000E+00 0. -1.
</event>
<event>
 7    1  0.7012292E-013  0.5930194E+02  0.7816164E-02  0.1266605E+00
        -11   -1    0    0    0    0  0.00000000000E+00  0.00000000000E+00  0.45593999997E+02  0.45594000000E+02  0.51100000000E-03 0.  1.
         11   -1    0    0    0    0 -0.00000000000E+00 -0.00000000000E+00 -0.45593999997E+02  0.45594000000E+02  0.51100000000E-03 0. -1.
    9900012    2    1    2    0    0 -0.12779468732E+02 -0.57937975034E+01  0.28632817344E+02  0.59301935024E+02  0.49999983579E+02 0.  0.
         12    1    1    2    0    0  0.12779468732E+02  0.57937975034E+01 -0.28632817344E+02  0.31886064976E+02  0.00000000000E+00 0. -1.
         11    1    3    3    0    0 -0.39437570592E+01 -0.43978850362E+01 -0.37062408866E+01  0.69735811678E+01  0.51100000000E-03 0. -1.
        -11    1    3    3    0    0 -0.11989027640E+02 -0.19430243203E+02  0.17953316723E+02  0.29044667605E+02  0.51100000000E-03 0.  1.
        -12    1    3    3    0    0  0.31533159673E+01  0.18034330736E+02  0.14385741508E+02  0.23283686251E+02  0.00000000000E+00 0.  1.
</event>
<event>
 7    1  0.7012292E-013  0.5930205E+02  0.7816164E-02  0.1266604E+00
        -11   -1    0    0    0    0  0.00000000000E+00  0.00000000000E+00  0.45593999997E+02  0.45594000000E+02  0.51100000000E-03 0.  1.
         11   -1    0    0    0    0 -0.00000000000E+00 -0.00000000000E+00 -0.45593999997E+02  0.45594000000E+02  0.51100000000E-03 0. -1.
    9900012    2    1    2    0    0  0.14828151383E+02  0.21038045632E+02  0.18821266774E+02  0.59302054500E+02  0.50000201475E+02 0.  0.
         12    1    1    2    0    0 -0.14828151383E+02 -0.21038045632E+02 -0.18821266774E+02  0.31885945500E+02  0.00000000000E+00 0. -1.
         11    1    3    3    0    0  0.84843367447E+01  0.10651093010E+02 -0.10269005132E+02  0.17055269537E+02  0.51100000000E-03 0. -1.
        -11    1    3    3    0    0  0.12808227926E+02 -0.19874006544E+01  0.40535046624E+01  0.13580550956E+02  0.51100000000E-03 0.  1.
         12    1    3    3    0    0 -0.64644132874E+01  0.12374353276E+02  0.25036767243E+02  0.28666234007E+02  0.00000000000E+00 0. -1.
</event>
<event>
 7    1  0.7012292E-013  0.5930197E+02  0.7816164E-02  0.1266605E+00
        -11   -1    0    0    0    0  0.00000000000E+00  0.00000000000E+00  0.45593999997E+02  0.45594000000E+02  0.51100000000E-03 0.  1.
         11   -1    0    0    0    0 -0.00000000000E+00 -0.00000000000E+00 -0.45593999997E+02  0.45594000000E+02  0.51100000000E-03 0. -1.
    9900012    2    1    2    0    0  0.13823055291E+02  0.27658697318E+02  0.77870892198E+01  0.59301966170E+02  0.50000040382E+02 0.  0.
         12    1    1    2    0    0 -0.13823055291E+02 -0.27658697318E+02 -0.77870892198E+01  0.31886033830E+02  0.00000000000E+00 0. -1.
         11    1    3    3    0    0 -0.83424692196E+01  0.83466790360E+00 -0.13509066945E+02  0.15899319268E+02  0.51100000000E-03 0. -1.
        -11    1    3    3    0    0  0.58264513619E+01  0.23625721272E+01 -0.11613906011E+01  0.63935992147E+01  0.51100000000E-03 0.  1.
        -12    1    3    3    0    0  0.16339073148E+02  0.24461457288E+02  0.22457546766E+02  0.37009047687E+02  0.00000000000E+00 0.  1.
</event>
<event>
 7    1  0.7012292E-013  0.5930196E+02  0.7816164E-02  0.1266605E+00
        -11   -1    0    0    0    0  0.00000000000E+00  0.00000000000E+00  0.45593999997E+02  0.45594000000E+02  0.51100000000E-03 0.  1.
         11   -1    0    0    0    0 -0.00000000000E+00 -0.00000000000E+00 -0.45593999997E+02  0.45594000000E+02  0.51100000000E-03 0. -1.
    9900012    2    1    2    0    0  0.46615075514E+00 -0.28466205321E+02  0.14358878655E+02  0.59301960137E+02  0.50000029379E+02 0.  0.
         12    1    1    2    0    0 -0.46615075514E+00  0.28466205321E+02 -0.14358878655E+02  0.31886039863E+02  0.00000000000E+00 0. -1.
         11    1    3    3    0    0 -0.24794413457E+01 -0.31691473960E+01  0.98228827761E+01  0.10615090716E+02  0.51100000000E-03 0. -1.
        -11    1    3    3    0    0 -0.48717478781E+01 -0.25031151022E+02  0.19298586103E+02  0.31980116866E+02  0.51100000000E-03 0.  1.
         12    1    3    3    0    0  0.78173399790E+01 -0.26590690328E+00 -0.14762590224E+02  0.16706752556E+02  0.00000000000E+00 0. -1.
</event>
<event>
 7    1  0.7012292E-013  0.5930195E+02  0.7816164E-02  0.1266605E+00
        -11   -1    0    0    0    0  0.00000000000E+00  0.00000000000E+00  0.45593999997E+02  0.45594000000E+02  0.51100000000E-03 0.  1.
         11   -1    0    0    0    0 -0.00000000000E+00 -0.00000000000E+00 -0.45593999997E+02  0.45594000000E+02  0.51100000000E-03 0. -1.
    9900012    2    1    2    0    0  0.18750770142E+02 -0.52850466765E+01  0.25242764500E+02  0.59301948835E+02  0.50000008767E+02 0.  0.
         12    1    1    2    0    0 -0.18750770142E+02  0.52850466765E+01 -0.25242764500E+02  0.31886051165E+02  0.00000000000E+00 0. -1.
         11    1    3    3    0    0  0.11479098897E+02 -0.24072982789E+02  0.19018016817E+02  0.32756116615E+02  0.51100000000E-03 0. -1.
        -11    1    3    3    0    0 -0.44789462021E+01  0.93064455937E+01  0.47718299966E+01  0.11377225077E+02  0.51100000000E-03 0.  1.
        -12    1    3    3    0    0  0.11750617448E+02  0.94814905184E+01  0.14529176865E+01  0.15168607143E+02  0.00000000000E+00 0.  1.
</event>
<event>
 7    1  0.7012292E-013  0.5930199E+02  0.7816164E-02  0.1266605E+00
        -11   -1    0    0    0    0  0.00000000000E+00  0.00000000000E+00  0.45593999997E+02  0.45594000000E+02  0.51100000000E-03 0.  1.
         11   -1    0    0    0    0 -0.00000000000E+00 -0.00000000000E+00 -0.45593999997E+02  0.45594000000E+02  0.51100000000E-03 0. -1.
    9900012    2    1    2    0    0 -0.94173349052E+01  0.23140152315E+02  0.19813243458E+02  0.59301992690E+02  0.50000088747E+02 0.  0.
         12    1    1    2    0    0  0.94173349052E+01 -0.23140152315E+02 -0.19813243458E+02  0.31886007310E+02  0.00000000000E+00 0. -1.
         11    1    3    3    0    0 -0.69325156438E+01  0.44636971786E+01 -0.84371205304E+01  0.11797006771E+02  0.51100000000E-03 0. -1.
        -11    1    3    3    0    0 -0.16946646439E+02  0.63662818575E+01  0.19457532449E+02  0.26576567489E+02  0.51100000000E-03 0.  1.
         12    1    3    3    0    0  0.14461827178E+02  0.12310173279E+02  0.87928315402E+01  0.20928418430E+02  0.00000000000E+00 0. -1.
</event>
<event>
 7    1  0.7012292E-013  0.5930193E+02  0.7816164E-02  0.1266605E+00
        -11   -1    0    0    0    0  0.00000000000E+00  0.00000000000E+00  0.45593999997E+02  0.45594000000E+02  0.51100000000E-03 0.  1.
         11   -1    0    0    0    0 -0.00000000000E+00 -0.00000000000E+00 -0.45593999997E+02  0.45594000000E+02  0.51100000000E-03 0. -1.
    9900012    2    1    2    0    0 -0.29313096124E+01  0.22659583283E+02  0.22241223056E+02  0.59301932610E+02  0.49999979177E+02 0.  0.
         12    1    1    2    0    0  0.29313096124E+01 -0.22659583283E+02 -0.22241223056E+02  0.31886067390E+02  0.00000000000E+00 0. -1.
         11    1    3    3    0    0  0.18577632412E+01  0.19813068258E+02  0.19434772585E+02  0.27815811039E+02  0.51100000000E-03 0.  1.
        -11    1    3    3    0    0  0.69115660064E+01  0.28808047225E+01 -0.11051405346E+02  0.13349244956E+02  0.51100000000E-03 0. -1.
         12    1    3    3    0    0 -0.11700638860E+02 -0.34289697971E-01  0.13857855817E+02  0.18136876615E+02  0.00000000000E+00 0. -1.
</event>
<event>
 7    1  0.7012292E-013  0.5930196E+02  0.7816164E-02  0.1266605E+00
        -11   -1    0    0    0    0  0.00000000000E+00  0.00000000000E+00  0.45593999997E+02  0.45594000000E+02  0.51100000000E-03 0.  1.
         11   -1    0    0    0    0 -0.00000000000E+00 -0.00000000000E+00 -0.45593999997E+02  0.45594000000E+02  0.51100000000E-03 0. -1.
    9900012    2    1    2    0    0 -0.21628391513E+02 -0.12081956024E+02  0.20073828041E+02  0.59301959904E+02  0.50000028954E+02 0.  0.
         12    1    1    2    0    0  0.21628391513E+02  0.12081956024E+02 -0.20073828041E+02  0.31886040096E+02  0.00000000000E+00 0. -1.
         11    1    3    3    0    0 -0.74070050597E+01 -0.12641525043E+02  0.14482760422E+02  0.20601510358E+02  0.51100000000E-03 0. -1.
        -11    1    3    3    0    0 -0.22670440593E+02 -0.99563698780E+01  0.27275646872E+01  0.24910194443E+02  0.51100000000E-03 0.  1.
         12    1    3    3    0    0  0.84490541400E+01  0.10515938897E+02  0.28635029322E+01  0.13790255102E+02  0.00000000000E+00 0. -1.
</event>
<event>
 7    1  0.7012292E-013  0.5930195E+02  0.7816164E-02  0.1266605E+00
        -11   -1    0    0    0    0  0.00000000000E+00  0.00000000000E+00  0.45593999997E+02  0.45594000000E+02  0.51100000000E-03 0.  1.
         11   -1    0    0    0    0 -0.00000000000E+00 -0.00000000000E+00 -0.45593999997E+02  0.45594000000E+02  0.51100000000E-03 0. -1.
    9900012    2    1    2    0    0 -0.30225234496E+02 -0.59893426088E+01 -0.82026187885E+01  0.59301953205E+02  0.50000016737E+02 0.  0.
         12    1    1    2    0    0  0.30225234496E+02  0.59893426088E+01  0.82026187885E+01  0.31886046795E+02  0.00000000000E+00 0. -1.
         11    1    3    3    0    0 -0.15819170483E+02  0.37471433502E+01 -0.18276493795E+02  0.24460528690E+02  0.51100000000E-03 0. -1.
        -11    1    3    3    0    0 -0.38068057075E+01 -0.26246860346E+01 -0.10020463403E+02  0.11035870312E+02  0.51100000000E-03 0.  1.
        -12    1    3    3    0    0 -0.10599258305E+02 -0.71117999244E+01  0.20094338410E+02  0.23805554203E+02  0.00000000000E+00 0.  1.
</event>
<event>
 7    1  0.7012292E-013  0.5930197E+02  0.7816164E-02  0.1266605E+00
        -11   -1    0    0    0    0  0.00000000000E+00  0.00000000000E+00  0.45593999997E+02  0.45594000000E+02  0.51100000000E-03 0.  1.
         11   -1    0    0    0    0 -0.00000000000E+00 -0.00000000000E+00 -0.45593999997E+02  0.45594000000E+02  0.51100000000E-03 0. -1.
    9900012    2    1    2    0    0  0.13224060435E+02 -0.28195165551E+02  0.68465968712E+01  0.59301968206E+02  0.50000044095E+02 0.  0.
         12    1    1    2    0    0 -0.13224060435E+02  0.28195165551E+02 -0.68465968712E+01  0.31886031794E+02  0.00000000000E+00 0. -1.
         11    1    3    3    0    0  0.23746030252E+02 -0.29197103582E+02 -0.10592976794E+00  0.37634505865E+02  0.51100000000E-03 0. -1.
        -11    1    3    3    0    0 -0.13175731769E+01 -0.75697915501E+01  0.98656357708E+00  0.77466800077E+01  0.51100000000E-03 0.  1.
         12    1    3    3    0    0 -0.92043966400E+01  0.85717295808E+01  0.59659630621E+01  0.13920782333E+02  0.00000000000E+00 0. -1.
</event>
<event>
 7    1  0.7012292E-013  0.5930193E+02  0.7816164E-02  0.1266605E+00
        -11   -1    0    0    0    0  0.00000000000E+00  0.00000000000E+00  0.45593999997E+02  0.45594000000E+02  0.51100000000E-03 0. -1.
         11   -1    0    0    0    0 -0.00000000000E+00 -0.00000000000E+00 -0.45593999997E+02  0.45594000000E+02  0.51100000000E-03 0.  1.
    9900012    2    1    2    0    0  0.11959638353E+02  0.29254961423E+02  0.42232330841E+01  0.59301930705E+02  0.49999975702E+02 0.  0.
         12    1    1    2    0    0 -0.11959638353E+02 -0.29254961423E+02 -0.42232330841E+01  0.31886069295E+02  0.00000000000E+00 0. -1.
         11    1    3    3    0    0 -0.51843604885E+01  0.28041056717E+01  0.14493865821E+02  0.15646493185E+02  0.51100000000E-03 0. -1.
        -11    1    3    3    0    0 -0.67935426835E+01  0.81298779896E+01  0.25516439032E+01  0.10897615574E+02  0.51100000000E-03 0.  1.
        -12    1    3    3    0    0  0.23937541525E+02  0.18320977762E+02 -0.12822276640E+02  0.32757821946E+02  0.00000000000E+00 0.  1.
</event>
<event>
 7    1  0.7012292E-013  0.5930194E+02  0.7816164E-02  0.1266605E+00
        -11   -1    0    0    0    0  0.00000000000E+00  0.00000000000E+00  0.45593999997E+02  0.45594000000E+02  0.51100000000E-03 0.  1.
         11   -1    0    0    0    0 -0.00000000000E+00 -0.00000000000E+00 -0.45593999997E+02  0.45594000000E+02  0.51100000000E-03 0. -1.
    9900012    2    1    2    0    0  0.13476136883E+02 -0.19130925875E+02  0.21659224962E+02  0.59301943234E+02  0.49999998553E+02 0.  0.
         12    1    1    2    0    0 -0.13476136883E+02  0.19130925875E+02 -0.21659224962E+02  0.31886056766E+02  0.00000000000E+00 0. -1.
         11    1    3    3    0    0  0.10368653908E+02  0.20929562252E+01  0.81004784829E+01  0.13323182860E+02  0.51100000000E-03 0. -1.
        -11    1    3    3    0    0 -0.83432573885E+00 -0.78146921544E+01  0.26064802620E+02  0.27223876446E+02  0.51100000000E-03 0.  1.
         12    1    3    3    0    0  0.39418087137E+01 -0.13409189946E+02 -0.12506056141E+02  0.18754883927E+02  0.00000000000E+00 0. -1.
</event>
<event>
 7    1  0.7012292E-013  0.5930194E+02  0.7816164E-02  0.1266605E+00
        -11   -1    0    0    0    0  0.00000000000E+00  0.00000000000E+00  0.45593999997E+02  0.45594000000E+02  0.51100000000E-03 0.  1.
         11   -1    0    0    0    0 -0.00000000000E+00 -0.00000000000E+00 -0.45593999997E+02  0.45594000000E+02  0.51100000000E-03 0. -1.
    9900012    2    1    2    0    0  0.19518977478E+02 -0.13393938113E+02  0.21361950871E+02  0.59301937136E+02  0.49999987431E+02 0.  0.
         12    1    1    2    0    0 -0.19518977478E+02  0.13393938113E+02 -0.21361950871E+02  0.31886062864E+02  0.00000000000E+00 0. -1.
         11    1    3    3    0    0 -0.27913020776E+00 -0.16505621754E+02  0.15164526884E+02  0.22415984008E+02  0.51100000000E-03 0. -1.
        -11    1    3    3    0    0  0.10314469446E+01 -0.33327754264E-01  0.15618855983E+02  0.15652912062E+02  0.51100000000E-03 0.  1.
        -12    1    3    3    0    0  0.18766660741E+02  0.31450113959E+01 -0.94214319965E+01  0.21233041066E+02  0.00000000000E+00 0.  1.
</event>
<event>
 7    1  0.7012292E-013  0.5930196E+02  0.7816164E-02  0.1266605E+00
        -11   -1    0    0    0    0  0.00000000000E+00  0.00000000000E+00  0.45593999997E+02  0.45594000000E+02  0.51100000000E-03 0.  1.
         11   -1    0    0    0    0 -0.00000000000E+00 -0.00000000000E+00 -0.45593999997E+02  0.45594000000E+02  0.51100000000E-03 0. -1.
    9900012    2    1    2    0    0 -0.11479389790E+02 -0.26153227626E+01  0.29632807186E+02  0.59301959718E+02  0.50000028616E+02 0.  0.
         12    1    1    2    0    0  0.11479389790E+02  0.26153227626E+01 -0.29632807186E+02  0.31886040282E+02  0.00000000000E+00 0. -1.
         11    1    3    3    0    0 -0.68931929023E+01  0.82330376667E+01 -0.19742081028E+01  0.10917715672E+02  0.51100000000E-03 0. -1.
        -11    1    3    3    0    0  0.14042238858E+01  0.71802278089E+01 -0.37688682470E+01  0.82299382886E+01  0.51100000000E-03 0.  1.
        -12    1    3    3    0    0 -0.59904207739E+01 -0.18028588238E+02  0.35375883536E+02  0.40154305757E+02  0.00000000000E+00 0.  1.
</event>
<event>
 7    1  0.7012292E-013  0.5930199E+02  0.7816164E-02  0.1266605E+00
        -11   -1    0    0    0    0  0.00000000000E+00  0.00000000000E+00  0.45593999997E+02  0.45594000000E+02  0.51100000000E-03 0.  1.
         11   -1    0    0    0    0 -0.00000000000E+00 -0.00000000000E+00 -0.45593999997E+02  0.45594000000E+02  0.51100000000E-03 0. -1.
    9900012    2    1    2    0    0 -0.72480166196E+01  0.21949127824E+02  0.21964058587E+02  0.59301986973E+02  0.50000078322E+02 0.  0.
         12    1    1    2    0    0  0.72480166196E+01 -0.21949127824E+02 -0.21964058587E+02  0.31886013027E+02  0.00000000000E+00 0. -1.
         11    1    3    3    0    0  0.23378978037E+01 -0.37784432868E+01  0.90451089063E+00  0.45343731677E+01  0.51100000000E-03 0. -1.
        -11    1    3    3    0    0 -0.27899951799E+01 -0.11414446354E+02  0.99808871303E+01  0.15417255490E+02  0.51100000000E-03 0.  1.
        -12    1    3    3    0    0 -0.67959192434E+01  0.37142017464E+02  0.11078660566E+02  0.39350358316E+02  0.00000000000E+00 0.  1.
</event>
<event>
 7    1  0.7012292E-013  0.5930198E+02  0.7816164E-02  0.1266605E+00
        -11   -1    0    0    0    0  0.00000000000E+00  0.00000000000E+00  0.45593999997E+02  0.45594000000E+02  0.51100000000E-03 0.  1.
         11   -1    0    0    0    0 -0.00000000000E+00 -0.00000000000E+00 -0.45593999997E+02  0.45594000000E+02  0.51100000000E-03 0. -1.
    9900012    2    1    2    0    0 -0.31788571015E+02  0.19480476572E+01 -0.15525611793E+01  0.59301975113E+02  0.50000056692E+02 0.  0.
         12    1    1    2    0    0  0.31788571015E+02 -0.19480476572E+01  0.15525611793E+01  0.31886024887E+02  0.00000000000E+00 0. -1.
         11    1    3    3    0    0 -0.21881593258E+01  0.66187686624E+01 -0.65790636873E+01  0.95854170021E+01  0.51100000000E-03 0. -1.
        -11    1    3    3    0    0 -0.13520400204E+02  0.60296568301E+01 -0.15567192308E+02  0.21482445386E+02  0.51100000000E-03 0.  1.
        -12    1    3    3    0    0 -0.16080011486E+02 -0.10700377835E+02  0.20593694816E+02  0.28234112725E+02  0.00000000000E+00 0.  1.
</event>
<event>
 7    1  0.7012292E-013  0.5930193E+02  0.7816164E-02  0.1266605E+00
        -11   -1    0    0    0    0  0.00000000000E+00  0.00000000000E+00  0.45593999997E+02  0.45594000000E+02  0.51100000000E-03 0.  1.
         11   -1    0    0    0    0 -0.00000000000E+00 -0.00000000000E+00 -0.45593999997E+02  0.45594000000E+02  0.51100000000E-03 0. -1.
    9900012    2    1    2    0    0 -0.13244858187E+02 -0.31420427067E+01  0.28834406778E+02  0.59301926002E+02  0.49999967125E+02 0.  0.
         12    1    1    2    0    0  0.13244858187E+02  0.31420427067E+01 -0.28834406778E+02  0.31886073998E+02  0.00000000000E+00 0. -1.
         11    1    3    3    0    0 -0.48072295927E+01  0.10850506316E+01 -0.44772497792E+01  0.66582698260E+01  0.51100000000E-03 0. -1.
        -11    1    3    3    0    0 -0.21749450396E+02  0.69343063465E+01  0.23177874376E+02  0.32532092738E+02  0.51100000000E-03 0.  1.
        -12    1    3    3    0    0  0.13311821802E+02 -0.11161399685E+02  0.10133782181E+02  0.20111563438E+02  0.00000000000E+00 0.  1.
</event>
<event>
 7    1  0.7012292E-013  0.5930200E+02  0.7816164E-02  0.1266605E+00
        -11   -1    0    0    0    0  0.00000000000E+00  0.00000000000E+00  0.45593999997E+02  0.45594000000E+02  0.51100000000E-03 0.  1.
         11   -1    0    0    0    0 -0.00000000000E+00 -0.00000000000E+00 -0.45593999997E+02  0.45594000000E+02  0.51100000000E-03 0. -1.
    9900012    2    1    2    0    0 -0.16901983754E+02 -0.23208081085E+02  0.13871735800E+02  0.59301997796E+02  0.50000098060E+02 0.  0.
         12    1    1    2    0    0  0.16901983754E+02  0.23208081085E+02 -0.13871735800E+02  0.31886002204E+02  0.00000000000E+00 0. -1.
         11    1    3    3    0    0 -0.10547556578E+02 -0.77999586191E+01 -0.10514808026E+02  0.16812242334E+02  0.51100000000E-03 0. -1.
        -11    1    3    3    0    0 -0.10030184168E+02  0.12886215981E+01 -0.26928195616E+01  0.10465009198E+02  0.51100000000E-03 0.  1.
         12    1    3    3    0    0  0.36757569920E+01 -0.16696744064E+02  0.27079363387E+02  0.32024746264E+02  0.00000000000E+00 0. -1.
</event>
<event>
 7    1  0.7012292E-013  0.5930201E+02  0.7816164E-02  0.1266605E+00
        -11   -1    0    0    0    0  0.00000000000E+00  0.00000000000E+00  0.45593999997E+02  0.45594000000E+02  0.51100000000E-03 0.  1.
         11   -1    0    0    0    0 -0.00000000000E+00 -0.00000000000E+00 -0.45593999997E+02  0.45594000000E+02  0.51100000000E-03 0. -1.
    9900012    2    1    2    0    0 -0.77877915929E+01 -0.30768463123E+02 -0.30608024393E+01  0.59302007270E+02  0.50000115338E+02 0.  0.
         12    1    1    2    0    0  0.77877915929E+01  0.30768463123E+02  0.30608024393E+01  0.31885992730E+02  0.00000000000E+00 0. -1.
         11    1    3    3    0    0 -0.41705925061E+01  0.72196661176E+01 -0.29191743238E+01  0.88339685134E+01  0.51100000000E-03 0. -1.
        -11    1    3    3    0    0 -0.15174044012E+02 -0.20240882874E+02 -0.98798504929E+01  0.27157989565E+02  0.51100000000E-03 0.  1.
         12    1    3    3    0    0  0.11556844925E+02 -0.17747246367E+02  0.97382223775E+01  0.23310049191E+02  0.00000000000E+00 0. -1.
</event>
<event>
 7    1  0.7012292E-013  0.5930192E+02  0.7816164E-02  0.1266605E+00
        -11   -1    0    0    0    0  0.00000000000E+00  0.00000000000E+00  0.45593999997E+02  0.45594000000E+02  0.51100000000E-03 0.  1.
         11   -1    0    0    0    0 -0.00000000000E+00 -0.00000000000E+00 -0.45593999997E+02  0.45594000000E+02  0.51100000000E-03 0. -1.
    9900012    2    1    2    0    0 -0.17752159749E+02  0.18970108670E+02  0.18485614342E+02  0.59301919395E+02  0.49999955076E+02 0.  0.
         12    1    1    2    0    0  0.17752159749E+02 -0.18970108670E+02 -0.18485614342E+02  0.31886080605E+02  0.00000000000E+00 0. -1.
         11    1    3    3    0    0 -0.25726921844E+02  0.21085564609E+02  0.95398349491E+01  0.34604681671E+02  0.51100000000E-03 0. -1.
        -11    1    3    3    0    0 -0.58510786909E+01  0.40245793018E+01 -0.40289575361E-01  0.71016888073E+01  0.51100000000E-03 0.  1.
        -12    1    3    3    0    0  0.13825840786E+02 -0.61400352407E+01  0.89860689681E+01  0.17595548917E+02  0.00000000000E+00 0.  1.
</event>
<event>
 7    1  0.7012292E-013  0.5930192E+02  0.7816164E-02  0.1266605E+00
        -11   -1    0    0    0    0  0.00000000000E+00  0.00000000000E+00  0.45593999997E+02  0.45594000000E+02  0.51100000000E-03 0. -1.
         11   -1    0    0    0    0 -0.00000000000E+00 -0.00000000000E+00 -0.45593999997E+02  0.45594000000E+02  0.51100000000E-03 0.  1.
    9900012    2    1    2    0    0  0.20254105779E+02 -0.21899345184E+02  0.11265523500E+02  0.59301919336E+02  0.49999954968E+02 0.  0.
         12    1    1    2    0    0 -0.20254105779E+02  0.21899345184E+02 -0.11265523500E+02  0.31886080664E+02  0.00000000000E+00 0. -1.
         11    1    3    3    0    0  0.40927683505E+01 -0.45131597331E+01  0.12979930397E+02  0.14338687420E+02  0.51100000000E-03 0. -1.
        -11    1    3    3    0    0  0.54788898097E+01  0.10044205032E+02  0.80043532286E+01  0.13963307600E+02  0.51100000000E-03 0.  1.
        -12    1    3    3    0    0  0.10682447618E+02 -0.27430390483E+02 -0.97187601262E+01  0.30999924316E+02  0.00000000000E+00 0.  1.
</event>
<event>
 7    1  0.7012292E-013  0.5930189E+02  0.7816164E-02  0.1266605E+00
        -11   -1    0    0    0    0  0.00000000000E+00  0.00000000000E+00  0.45593999997E+02  0.45594000000E+02  0.51100000000E-03 0.  1.
         11   -1    0    0    0    0 -0.00000000000E+00 -0.00000000000E+00 -0.45593999997E+02  0.45594000000E+02  0.51100000000E-03 0. -1.
    9900012    2    1    2    0    0  0.20959278508E+02  0.16535774762E+02  0.17435624553E+02  0.59301886939E+02  0.49999895884E+02 0.  0.
         12    1    1    2    0    0 -0.20959278508E+02 -0.16535774762E+02 -0.17435624553E+02  0.31886113061E+02  0.00000000000E+00 0. -1.
         11    1    3    3    0    0 -0.37889605615E+01 -0.45492076249E+01  0.90738299816E+01  0.10834477512E+02  0.51100000000E-03 0. -1.
        -11    1    3    3    0    0 -0.63801343418E+00 -0.73755055365E+01  0.71780832122E+01  0.10311644967E+02  0.51100000000E-03 0.  1.
         12    1    3    3    0    0  0.25386252504E+02  0.28460487923E+02  0.11837113596E+01  0.38155764461E+02  0.00000000000E+00 0. -1.
</event>
<event>
 7    1  0.7012292E-013  0.5930213E+02  0.7816164E-02  0.1266604E+00
        -11   -1    0    0    0    0  0.00000000000E+00  0.00000000000E+00  0.45593999997E+02  0.45594000000E+02  0.51100000000E-03 0. -1.
         11   -1    0    0    0    0 -0.00000000000E+00 -0.00000000000E+00 -0.45593999997E+02  0.45594000000E+02  0.51100000000E-03 0.  1.
    9900012    2    1    2    0    0 -0.18098893490E+02  0.40688344978E+01 -0.25934213626E+02  0.59302128581E+02  0.50000336581E+02 0.  0.
         12    1    1    2    0    0  0.18098893490E+02 -0.40688344978E+01  0.25934213626E+02  0.31885871419E+02  0.00000000000E+00 0. -1.
         11    1    3    3    0    0 -0.20220989341E+02 -0.69560811904E+01 -0.16376945240E+02  0.26934732430E+02  0.51100000000E-03 0. -1.
        -11    1    3    3    0    0 -0.12498544522E+01 -0.71058341651E+01  0.50791468872E+01  0.88234204646E+01  0.51100000000E-03 0.  1.
        -12    1    3    3    0    0  0.33719503026E+01  0.18130749853E+02 -0.14636415273E+02  0.23543975686E+02  0.00000000000E+00 0.  1.
</event>
<event>
 7    1  0.7012292E-013  0.5930194E+02  0.7816164E-02  0.1266605E+00
        -11   -1    0    0    0    0  0.00000000000E+00  0.00000000000E+00  0.45593999997E+02  0.45594000000E+02  0.51100000000E-03 0. -1.
         11   -1    0    0    0    0 -0.00000000000E+00 -0.00000000000E+00 -0.45593999997E+02  0.45594000000E+02  0.51100000000E-03 0.  1.
    9900012    2    1    2    0    0 -0.13102499262E+02  0.28838884546E+02 -0.36557009750E+01  0.59301938808E+02  0.49999990480E+02 0.  0.
         12    1    1    2    0    0  0.13102499262E+02 -0.28838884546E+02  0.36557009750E+01  0.31886061192E+02  0.00000000000E+00 0. -1.
         11    1    3    3    0    0  0.40467638188E+01 -0.26830799677E+01  0.55118013803E+01  0.73454183159E+01  0.51100000000E-03 0. -1.
        -11    1    3    3    0    0 -0.87907298833E+01  0.33971837615E+00  0.10852049803E+02  0.13969943652E+02  0.51100000000E-03 0.  1.
        -12    1    3    3    0    0 -0.83585331978E+01  0.31182246137E+02 -0.20019552158E+02  0.37986576840E+02  0.00000000000E+00 0.  1.
</event>
<event>
 7    1  0.7012292E-013  0.5930198E+02  0.7816164E-02  0.1266605E+00
        -11   -1    0    0    0    0  0.00000000000E+00  0.00000000000E+00  0.45593999997E+02  0.45594000000E+02  0.51100000000E-03 0.  1.
         11   -1    0    0    0    0 -0.00000000000E+00 -0.00000000000E+00 -0.45593999997E+02  0.45594000000E+02  0.51100000000E-03 0. -1.
    9900012    2    1    2    0    0 -0.36121894943E+01 -0.16159772969E+02  0.27249437848E+02  0.59301983654E+02  0.50000072269E+02 0.  0.
         12    1    1    2    0    0  0.36121894943E+01  0.16159772969E+02 -0.27249437848E+02  0.31886016346E+02  0.00000000000E+00 0. -1.
         11    1    3    3    0    0  0.55656938687E+01 -0.17973228906E+02 -0.24422765122E+01  0.18973102550E+02  0.51100000000E-03 0. -1.
        -11    1    3    3    0    0 -0.20360185579E+01  0.12354219893E+02  0.70934844761E+01  0.14390609543E+02  0.51100000000E-03 0.  1.
        -12    1    3    3    0    0 -0.71418648050E+01 -0.10540763957E+02  0.22598229884E+02  0.25938271561E+02  0.00000000000E+00 0.  1.
</event>
<event>
 7    1  0.7012292E-013  0.5930192E+02  0.7816164E-02  0.1266605E+00
        -11   -1    0    0    0    0  0.00000000000E+00  0.00000000000E+00  0.45593999997E+02  0.45594000000E+02  0.51100000000E-03 0.  1.
         11   -1    0    0    0    0 -0.00000000000E+00 -0.00000000000E+00 -0.45593999997E+02  0.45594000000E+02  0.51100000000E-03 0. -1.
    9900012    2    1    2    0    0  0.20807632215E+02 -0.23465915602E+02 -0.57545657169E+01  0.59301924982E+02  0.49999965266E+02 0.  0.
         12    1    1    2    0    0 -0.20807632215E+02  0.23465915602E+02  0.57545657169E+01  0.31886075018E+02  0.00000000000E+00 0. -1.
         11    1    3    3    0    0  0.16504815339E+02 -0.13237435886E+02 -0.12621362406E+02  0.24636100086E+02  0.51100000000E-03 0.  1.
        -11    1    3    3    0    0 -0.92064876571E+00 -0.20270926589E+02  0.10407728242E+02  0.22805237695E+02  0.51100000000E-03 0. -1.
         12    1    3    3    0    0  0.52234656418E+01  0.10042446872E+02 -0.35409315520E+01  0.11860587201E+02  0.00000000000E+00 0. -1.
</event>
<event>
 7    1  0.7012292E-013  0.5930198E+02  0.7816164E-02  0.1266605E+00
        -11   -1    0    0    0    0  0.00000000000E+00  0.00000000000E+00  0.45593999997E+02  0.45594000000E+02  0.51100000000E-03 0.  1.
         11   -1    0    0    0    0 -0.00000000000E+00 -0.00000000000E+00 -0.45593999997E+02  0.45594000000E+02  0.51100000000E-03 0. -1.
    9900012    2    1    2    0    0 -0.13057089552E+02  0.29073621103E+02  0.97744941117E+00  0.59301977373E+02  0.50000060814E+02 0.  0.
         12    1    1    2    0    0  0.13057089552E+02 -0.29073621103E+02 -0.97744941117E+00  0.31886022627E+02  0.00000000000E+00 0. -1.
         11    1    3    3    0    0  0.16314043204E+02  0.12494079025E+02  0.25829538822E+00  0.20550346301E+02  0.51100000000E-03 0. -1.
        -11    1    3    3    0    0 -0.22696714788E+01  0.74913561436E+01  0.57696065323E+01  0.97242061522E+01  0.51100000000E-03 0.  1.
        -12    1    3    3    0    0 -0.27101461277E+02  0.90881859345E+01 -0.50504525093E+01  0.29027424920E+02  0.00000000000E+00 0.  1.
</event>
<event>
 7    1  0.7012292E-013  0.5930195E+02  0.7816164E-02  0.1266605E+00
        -11   -1    0    0    0    0  0.00000000000E+00  0.00000000000E+00  0.45593999997E+02  0.45594000000E+02  0.51100000000E-03 0.  1.
         11   -1    0    0    0    0 -0.00000000000E+00 -0.00000000000E+00 -0.45593999997E+02  0.45594000000E+02  0.51100000000E-03 0. -1.
    9900012    2    1    2    0    0 -0.22274151257E+00  0.28372375882E+02  0.14549197524E+02  0.59301945437E+02  0.50000002570E+02 0.  0.
         12    1    1    2    0    0  0.22274151257E+00 -0.28372375882E+02 -0.14549197524E+02  0.31886054563E+02  0.00000000000E+00 0. -1.
         11    1    3    3    0    0  0.10652511566E+02  0.11487318403E+02  0.12644951586E+02  0.20132791352E+02  0.51100000000E-03 0. -1.
        -11    1    3    3    0    0  0.46295156701E+01  0.16599147498E+02 -0.97234603773E+01  0.19786606454E+02  0.51100000000E-03 0.  1.
         12    1    3    3    0    0 -0.15504768749E+02  0.28590998030E+00  0.11627706316E+02  0.19382547630E+02  0.00000000000E+00 0. -1.
</event>
<event>
 7    1  0.7012292E-013  0.5930195E+02  0.7816164E-02  0.1266605E+00
        -11   -1    0    0    0    0  0.00000000000E+00  0.00000000000E+00  0.45593999997E+02  0.45594000000E+02  0.51100000000E-03 0. -1.
         11   -1    0    0    0    0 -0.00000000000E+00 -0.00000000000E+00 -0.45593999997E+02  0.45594000000E+02  0.51100000000E-03 0.  1.
    9900012    2    1    2    0    0  0.15982374762E+02 -0.14761513470E+02 -0.23310553427E+02  0.59301945305E+02  0.50000002329E+02 0.  0.
         12    1    1    2    0    0 -0.15982374762E+02  0.14761513470E+02  0.23310553427E+02  0.31886054695E+02  0.00000000000E+00 0. -1.
         11    1    3    3    0    0 -0.31357224364E+00  0.72737978620E+01 -0.21242441961E+00  0.72836520568E+01  0.51100000000E-03 0. -1.
        -11    1    3    3    0    0 -0.22351444062E+01  0.64422758698E+01  0.45640031838E+01  0.82054198078E+01  0.51100000000E-03 0.  1.
        -12    1    3    3    0    0  0.18531091412E+02 -0.28477587201E+02 -0.27662132191E+02  0.43812873440E+02  0.00000000000E+00 0.  1.
</event>
<event>
 7    1  0.7012292E-013  0.5930191E+02  0.7816164E-02  0.1266605E+00
        -11   -1    0    0    0    0  0.00000000000E+00  0.00000000000E+00  0.45593999997E+02  0.45594000000E+02  0.51100000000E-03 0. -1.
         11   -1    0    0    0    0 -0.00000000000E+00 -0.00000000000E+00 -0.45593999997E+02  0.45594000000E+02  0.51100000000E-03 0.  1.
    9900012    2    1    2    0    0 -0.12685525870E+02  0.29245567231E+02 -0.70479984165E+00  0.59301913503E+02  0.49999944330E+02 0.  0.
         12    1    1    2    0    0  0.12685525870E+02 -0.29245567231E+02  0.70479984165E+00  0.31886086497E+02  0.00000000000E+00 0. -1.
         11    1    3    3    0    0  0.97055417687E+01  0.12534513135E+02 -0.30429418773E+00  0.15855729431E+02  0.51100000000E-03 0. -1.
        -11    1    3    3    0    0 -0.38015837471E+01  0.44727161901E+01  0.15181855707E+02  0.16277161057E+02  0.51100000000E-03 0.  1.
        -12    1    3    3    0    0 -0.18589483892E+02  0.12238337906E+02 -0.15582361361E+02  0.27169023016E+02  0.00000000000E+00 0.  1.
</event>
<event>
 7    1  0.7012292E-013  0.5930194E+02  0.7816164E-02  0.1266605E+00
        -11   -1    0    0    0    0  0.00000000000E+00  0.00000000000E+00  0.45593999997E+02  0.45594000000E+02  0.51100000000E-03 0.  1.
         11   -1    0    0    0    0 -0.00000000000E+00 -0.00000000000E+00 -0.45593999997E+02  0.45594000000E+02  0.51100000000E-03 0. -1.
    9900012    2    1    2    0    0  0.23344514045E+02  0.21675294703E+02 -0.13915066494E+01  0.59301936787E+02  0.49999986794E+02 0.  0.
         12    1    1    2    0    0 -0.23344514045E+02 -0.21675294703E+02  0.13915066494E+01  0.31886063213E+02  0.00000000000E+00 0. -1.
         11    1    3    3    0    0  0.68775032702E+01 -0.13026605256E+02 -0.21663654395E+01  0.14889111296E+02  0.51100000000E-03 0. -1.
        -11    1    3    3    0    0 -0.53180678997E+01  0.36074022393E+01 -0.27167366161E+00  0.64318740614E+01  0.51100000000E-03 0.  1.
         12    1    3    3    0    0  0.21785078675E+02  0.31094497719E+02  0.10465324517E+01  0.37980951429E+02  0.00000000000E+00 0. -1.
</event>
<event>
 7    1  0.9985363E-013  0.5930193E+02  0.7816164E-02  0.1266605E+00
        -11   -1    0    0    0    0  0.00000000000E+00  0.00000000000E+00  0.45593999997E+02  0.45594000000E+02  0.51100000000E-03 0. -1.
         11   -1    0    0    0    0 -0.00000000000E+00 -0.00000000000E+00 -0.45593999997E+02  0.45594000000E+02  0.51100000000E-03 0.  1.
    9900012    2    1    2    0    0 -0.30501747638E+01 -0.11514397794E+02 -0.29577637728E+02  0.59301928179E+02  0.49999971095E+02 0.  0.
         12    1    1    2    0    0  0.30501747638E+01  0.11514397794E+02  0.29577637728E+02  0.31886071821E+02  0.00000000000E+00 0. -1.
         11    1    3    3    0    0  0.13783873995E+02 -0.34645565788E+01 -0.48262405711E+01  0.15009694631E+02  0.51100000000E-03 0. -1.
        -11    1    3    3    0    0 -0.14341420207E+02 -0.13966647653E+02 -0.29954654932E+02  0.36028113087E+02  0.51100000000E-03 0.  1.
         12    1    3    3    0    0 -0.24926285519E+01  0.59168064377E+01  0.52032577756E+01  0.82641204613E+01  0.00000000000E+00 0. -1.
</event>
<event>
 7    1  0.7012292E-013  0.5930189E+02  0.7816164E-02  0.1266605E+00
        -11   -1    0    0    0    0  0.00000000000E+00  0.00000000000E+00  0.45593999997E+02  0.45594000000E+02  0.51100000000E-03 0.  1.
         11   -1    0    0    0    0 -0.00000000000E+00 -0.00000000000E+00 -0.45593999997E+02  0.45594000000E+02  0.51100000000E-03 0. -1.
    9900012    2    1    2    0    0 -0.18113039153E+02 -0.20370887468E+02  0.16542933815E+02  0.59301891696E+02  0.49999904559E+02 0.  0.
         12    1    1    2    0    0  0.18113039153E+02  0.20370887468E+02 -0.16542933815E+02  0.31886108304E+02  0.00000000000E+00 0. -1.
         11    1    3    3    0    0 -0.15139754567E+02 -0.17700919808E+02  0.12977086491E+02  0.26663448848E+02  0.51100000000E-03 0. -1.
        -11    1    3    3    0    0 -0.13526072168E+02 -0.74484015901E+01  0.10924100399E+02  0.18914790095E+02  0.51100000000E-03 0.  1.
         12    1    3    3    0    0  0.10552787582E+02  0.47784339302E+01 -0.73582530756E+01  0.13723652753E+02  0.00000000000E+00 0. -1.
</event>
<event>
 7    1  0.7012292E-013  0.5930193E+02  0.7816164E-02  0.1266605E+00
        -11   -1    0    0    0    0  0.00000000000E+00  0.00000000000E+00  0.45593999997E+02  0.45594000000E+02  0.51100000000E-03 0.  1.
         11   -1    0    0    0    0 -0.00000000000E+00 -0.00000000000E+00 -0.45593999997E+02  0.45594000000E+02  0.51100000000E-03 0. -1.
    9900012    2    1    2    0    0 -0.14204727866E+02 -0.22746894417E+01  0.28456505163E+02  0.59301934205E+02  0.49999982085E+02 0.  0.
         12    1    1    2    0    0  0.14204727866E+02  0.22746894417E+01 -0.28456505163E+02  0.31886065795E+02  0.00000000000E+00 0. -1.
         11    1    3    3    0    0 -0.77914613260E+01  0.73047041953E+01 -0.85683449423E+00  0.10714463990E+02  0.51100000000E-03 0. -1.
        -11    1    3    3    0    0  0.64489372269E+01 -0.17616124311E+02  0.41595474918E+01  0.19215058228E+02  0.51100000000E-03 0.  1.
        -12    1    3    3    0    0 -0.12862203767E+02  0.80367306738E+01  0.25153792165E+02  0.29372411988E+02  0.00000000000E+00 0.  1.
</event>
<event>
 7    1  0.7012292E-013  0.5930194E+02  0.7816164E-02  0.1266605E+00
        -11   -1    0    0    0    0  0.00000000000E+00  0.00000000000E+00  0.45593999997E+02  0.45594000000E+02  0.51100000000E-03 0. -1.
         11   -1    0    0    0    0 -0.00000000000E+00 -0.00000000000E+00 -0.45593999997E+02  0.45594000000E+02  0.51100000000E-03 0.  1.
    9900012    2    1    2    0    0 -0.12149128839E+02  0.16659992553E+02 -0.24322092279E+02  0.59301939468E+02  0.49999991684E+02 0.  0.
         12    1    1    2    0    0  0.12149128839E+02 -0.16659992553E+02  0.24322092279E+02  0.31886060532E+02  0.00000000000E+00 0. -1.
         11    1    3    3    0    0 -0.21963277184E+02  0.27731969961E+01  0.15879150130E+01  0.22194540783E+02  0.51100000000E-03 0. -1.
        -11    1    3    3    0    0  0.57916074641E+01 -0.29724102658E+01 -0.15688393657E+02  0.16985394773E+02  0.51100000000E-03 0.  1.
        -12    1    3    3    0    0  0.40225408805E+01  0.16859205823E+02 -0.10221613635E+02  0.20122003912E+02  0.00000000000E+00 0.  1.
</event>
<event>
 7    1  0.7012292E-013  0.5930201E+02  0.7816164E-02  0.1266605E+00
        -11   -1    0    0    0    0  0.00000000000E+00  0.00000000000E+00  0.45593999997E+02  0.45594000000E+02  0.51100000000E-03 0.  1.
         11   -1    0    0    0    0 -0.00000000000E+00 -0.00000000000E+00 -0.45593999997E+02  0.45594000000E+02  0.51100000000E-03 0. -1.
    9900012    2    1    2    0    0 -0.17329120597E+02  0.21697498819E+01  0.26677900870E+02  0.59302005738E+02  0.50000112545E+02 0.  0.
         12    1    1    2    0    0  0.17329120597E+02 -0.21697498819E+01 -0.26677900870E+02  0.31885994262E+02  0.00000000000E+00 0. -1.
         11    1    3    3    0    0 -0.14380431239E+02  0.13912175033E+00  0.26162015344E+01  0.14617136115E+02  0.51100000000E-03 0. -1.
        -11    1    3    3    0    0 -0.15904915293E+02 -0.49909796815E+01  0.23749534582E+00  0.16671311075E+02  0.51100000000E-03 0.  1.
         12    1    3    3    0    0  0.12956225935E+02  0.70216078130E+01  0.23824203990E+02  0.28013558548E+02  0.00000000000E+00 0. -1.
</event>
<event>
 7    1  0.7012292E-013  0.5930192E+02  0.7816164E-02  0.1266605E+00
        -11   -1    0    0    0    0  0.00000000000E+00  0.00000000000E+00  0.45593999997E+02  0.45594000000E+02  0.51100000000E-03 0.  1.
         11   -1    0    0    0    0 -0.00000000000E+00 -0.00000000000E+00 -0.45593999997E+02  0.45594000000E+02  0.51100000000E-03 0. -1.
    9900012    2    1    2    0    0 -0.30492089076E+02 -0.10204943975E+01  0.92689419888E+01  0.59301918544E+02  0.49999953524E+02 0.  0.
         12    1    1    2    0    0  0.30492089076E+02  0.10204943975E+01 -0.92689419888E+01  0.31886081456E+02  0.00000000000E+00 0. -1.
         11    1    3    3    0    0 -0.64786907936E+00 -0.14359888236E+02  0.16559388499E+02  0.21928052176E+02  0.51100000000E-03 0. -1.
        -11    1    3    3    0    0 -0.70126381950E+01  0.13365619575E+01  0.50846750474E+01  0.87645543480E+01  0.51100000000E-03 0.  1.
         12    1    3    3    0    0 -0.22831581801E+02  0.12002831881E+02 -0.12375121558E+02  0.28609312020E+02  0.00000000000E+00 0. -1.
</event>
<event>
 7    1  0.7012292E-013  0.5930194E+02  0.7816164E-02  0.1266605E+00
        -11   -1    0    0    0    0  0.00000000000E+00  0.00000000000E+00  0.45593999997E+02  0.45594000000E+02  0.51100000000E-03 0.  1.
         11   -1    0    0    0    0 -0.00000000000E+00 -0.00000000000E+00 -0.45593999997E+02  0.45594000000E+02  0.51100000000E-03 0. -1.
    9900012    2    1    2    0    0 -0.20700346865E+02  0.87123536601E-01  0.24253013064E+02  0.59301943588E+02  0.49999999198E+02 0.  0.
         12    1    1    2    0    0  0.20700346865E+02 -0.87123536601E-01 -0.24253013064E+02  0.31886056412E+02  0.00000000000E+00 0. -1.
         11    1    3    3    0    0 -0.25552186012E+02  0.14821434815E+02  0.32362067666E+01  0.29716362066E+02  0.51100000000E-03 0. -1.
        -11    1    3    3    0    0  0.11595609084E+01 -0.25254265323E+01  0.15399869056E+02  0.15648588687E+02  0.51100000000E-03 0.  1.
        -12    1    3    3    0    0  0.36922782385E+01 -0.12208884746E+02  0.56169372405E+01  0.13936992835E+02  0.00000000000E+00 0.  1.
</event>
<event>
 7    1  0.7012292E-013  0.5930193E+02  0.7816164E-02  0.1266605E+00
        -11   -1    0    0    0    0  0.00000000000E+00  0.00000000000E+00  0.45593999997E+02  0.45594000000E+02  0.51100000000E-03 0.  1.
         11   -1    0    0    0    0 -0.00000000000E+00 -0.00000000000E+00 -0.45593999997E+02  0.45594000000E+02  0.51100000000E-03 0. -1.
    9900012    2    1    2    0    0 -0.16110906921E+02 -0.54117656355E+01  0.26979119343E+02  0.59301930790E+02  0.49999975858E+02 0.  0.
         12    1    1    2    0    0  0.16110906921E+02  0.54117656355E+01 -0.26979119343E+02  0.31886069210E+02  0.00000000000E+00 0. -1.
         11    1    3    3    0    0 -0.55389942715E+00 -0.57911586018E+01 -0.53851289697E+01  0.79274167802E+01  0.51100000000E-03 0.  1.
        -11    1    3    3    0    0  0.12003754376E+02  0.12023933127E+00  0.12970978298E+02  0.17673450565E+02  0.51100000000E-03 0. -1.
        -12    1    3    3    0    0 -0.27560761869E+02  0.25915363501E+00  0.19393270015E+02  0.33701063445E+02  0.00000000000E+00 0.  1.
</event>
<event>
 7    1  0.7012292E-013  0.5930193E+02  0.7816164E-02  0.1266605E+00
        -11   -1    0    0    0    0  0.00000000000E+00  0.00000000000E+00  0.45593999997E+02  0.45594000000E+02  0.51100000000E-03 0.  1.
         11   -1    0    0    0    0 -0.00000000000E+00 -0.00000000000E+00 -0.45593999997E+02  0.45594000000E+02  0.51100000000E-03 0. -1.
    9900012    2    1    2    0    0 -0.67678591387E+01 -0.29333590960E+02  0.10509884949E+02  0.59301934743E+02  0.49999983067E+02 0.  0.
         12    1    1    2    0    0  0.67678591387E+01  0.29333590960E+02 -0.10509884949E+02  0.31886065257E+02  0.00000000000E+00 0. -1.
         11    1    3    3    0    0 -0.78436457927E+01 -0.11886611163E+02  0.43537098751E+01  0.14891913718E+02  0.51100000000E-03 0. -1.
        -11    1    3    3    0    0 -0.58129282120E+01 -0.29470813995E+02  0.54933652219E+01  0.30536798680E+02  0.51100000000E-03 0.  1.
         12    1    3    3    0    0  0.68887148660E+01  0.12023834197E+02  0.66280985208E+00  0.13873222344E+02  0.00000000000E+00 0. -1.
</event>
<event>
 7    1  0.7012292E-013  0.5930191E+02  0.7816164E-02  0.1266605E+00
        -11   -1    0    0    0    0  0.00000000000E+00  0.00000000000E+00  0.45593999997E+02  0.45594000000E+02  0.51100000000E-03 0.  1.
         11   -1    0    0    0    0 -0.00000000000E+00 -0.00000000000E+00 -0.45593999997E+02  0.45594000000E+02  0.51100000000E-03 0. -1.
    9900012    2    1    2    0    0  0.24660811537E+02 -0.15414064165E+02  0.13075692224E+02  0.59301910135E+02  0.49999938188E+02 0.  0.
         12    1    1    2    0    0 -0.24660811537E+02  0.15414064165E+02 -0.13075692224E+02  0.31886089865E+02  0.00000000000E+00 0. -1.
         11    1    3    3    0    0  0.45164315075E+01  0.14215490879E+02  0.53856504343E+01  0.15858233362E+02  0.51100000000E-03 0. -1.
        -11    1    3    3    0    0  0.24042760837E+01  0.12186165723E+01  0.73800858409E+01  0.78569228784E+01  0.51100000000E-03 0.  1.
        -12    1    3    3    0    0  0.17740103946E+02 -0.30848171616E+02  0.30995594892E+00  0.35586753895E+02  0.00000000000E+00 0.  1.
</event>
<event>
 7    1  0.7012292E-013  0.5930193E+02  0.7816164E-02  0.1266605E+00
        -11   -1    0    0    0    0  0.00000000000E+00  0.00000000000E+00  0.45593999997E+02  0.45594000000E+02  0.51100000000E-03 0.  1.
         11   -1    0    0    0    0 -0.00000000000E+00 -0.00000000000E+00 -0.45593999997E+02  0.45594000000E+02  0.51100000000E-03 0. -1.
    9900012    2    1    2    0    0 -0.37022635375E+01 -0.95789073298E+01  0.30187069408E+02  0.59301931249E+02  0.49999976695E+02 0.  0.
         12    1    1    2    0    0  0.37022635375E+01  0.95789073298E+01 -0.30187069408E+02  0.31886068751E+02  0.00000000000E+00 0. -1.
         11    1    3    3    0    0 -0.17834148618E+02 -0.78289990766E+01  0.12734674355E+02  0.23270625575E+02  0.51100000000E-03 0. -1.
        -11    1    3    3    0    0 -0.57106540561E+01 -0.79072253691E+01  0.15683924157E+01  0.98790504512E+01  0.51100000000E-03 0.  1.
        -12    1    3    3    0    0  0.19842539137E+02  0.61573171159E+01  0.15884002637E+02  0.26152255223E+02  0.00000000000E+00 0.  1.
</event>
<event>
 7    1  0.7012292E-013  0.5930195E+02  0.7816164E-02  0.1266605E+00
        -11   -1    0    0    0    0  0.00000000000E+00  0.00000000000E+00  0.45593999997E+02  0.45594000000E+02  0.51100000000E-03 0. -1.
         11   -1    0    0    0    0 -0.00000000000E+00 -0.00000000000E+00 -0.45593999997E+02  0.45594000000E+02  0.51100000000E-03 0.  1.
    9900012    2    1    2    0    0 -0.50575234652E+01  0.29510817279E+02 -0.10966000030E+02  0.59301952319E+02  0.50000015121E+02 0.  0.
         12    1    1    2    0    0  0.50575234652E+01 -0.29510817279E+02  0.10966000030E+02  0.31886047681E+02  0.00000000000E+00 0. -1.
         11    1    3    3    0    0  0.26974389066E+01  0.91034087232E+01 -0.60071940843E+01  0.11235417574E+02  0.51100000000E-03 0.  1.
        -11    1    3    3    0    0 -0.25831314985E+01  0.30049976521E+02 -0.14576540575E+02  0.33498495379E+02  0.51100000000E-03 0. -1.
         12    1    3    3    0    0 -0.51718308734E+01 -0.96425679656E+01  0.96177346293E+01  0.14568039365E+02  0.00000000000E+00 0. -1.
</event>
<event>
 7    1  0.7012292E-013  0.5930198E+02  0.7816164E-02  0.1266605E+00
        -11   -1    0    0    0    0  0.00000000000E+00  0.00000000000E+00  0.45593999997E+02  0.45594000000E+02  0.51100000000E-03 0. -1.
         11   -1    0    0    0    0 -0.00000000000E+00 -0.00000000000E+00 -0.45593999997E+02  0.45594000000E+02  0.51100000000E-03 0.  1.
    9900012    2    1    2    0    0 -0.57316075782E+00 -0.31821808851E+02  0.19396933492E+01  0.59301977324E+02  0.50000060724E+02 0.  0.
         12    1    1    2    0    0  0.57316075782E+00  0.31821808851E+02 -0.19396933492E+01  0.31886022676E+02  0.00000000000E+00 0. -1.
         11    1    3    3    0    0  0.19803453091E+01  0.68193440198E+01  0.84257281988E+01  0.11018988898E+02  0.51100000000E-03 0. -1.
        -11    1    3    3    0    0 -0.10278967502E+02 -0.66774101499E+01 -0.91428847315E+01  0.15291740277E+02  0.51100000000E-03 0.  1.
         12    1    3    3    0    0  0.77254614352E+01 -0.31963742721E+02  0.26568498819E+01  0.32991248149E+02  0.00000000000E+00 0. -1.
</event>
<event>
 7    1  0.7012292E-013  0.5930174E+02  0.7816164E-02  0.1266605E+00
        -11   -1    0    0    0    0  0.00000000000E+00  0.00000000000E+00  0.45593999997E+02  0.45594000000E+02  0.51100000000E-03 0. -1.
         11   -1    0    0    0    0 -0.00000000000E+00 -0.00000000000E+00 -0.45593999997E+02  0.45594000000E+02  0.51100000000E-03 0.  1.
    9900012    2    1    2    0    0 -0.19918293627E+02  0.18497598354E+02  0.16668357845E+02  0.59301737768E+02  0.49999623830E+02 0.  0.
         12    1    1    2    0    0  0.19918293627E+02 -0.18497598354E+02 -0.16668357845E+02  0.31886262232E+02  0.00000000000E+00 0. -1.
         11    1    3    3    0    0  0.16788901419E+01 -0.57668842088E+01  0.30938262967E+01  0.67562850000E+01  0.51100000000E-03 0. -1.
        -11    1    3    3    0    0 -0.20539395926E+02 -0.20623110396E+01 -0.37931459207E+01  0.20988279302E+02  0.51100000000E-03 0.  1.
        -12    1    3    3    0    0 -0.10577878432E+01  0.26326793602E+02  0.17367677469E+02  0.31557173466E+02  0.00000000000E+00 0.  1.
</event>
<event>
 7    1  0.7012292E-013  0.5930192E+02  0.7816164E-02  0.1266605E+00
        -11   -1    0    0    0    0  0.00000000000E+00  0.00000000000E+00  0.45593999997E+02  0.45594000000E+02  0.51100000000E-03 0.  1.
         11   -1    0    0    0    0 -0.00000000000E+00 -0.00000000000E+00 -0.45593999997E+02  0.45594000000E+02  0.51100000000E-03 0. -1.
    9900012    2    1    2    0    0 -0.27141893751E+02 -0.54347002174E+01  0.15827317670E+02  0.59301916084E+02  0.49999949037E+02 0.  0.
         12    1    1    2    0    0  0.27141893751E+02  0.54347002174E+01 -0.15827317670E+02  0.31886083916E+02  0.00000000000E+00 0. -1.
         11    1    3    3    0    0 -0.11241375015E+02 -0.53051906496E+01  0.36064600166E+01  0.12942956160E+02  0.51100000000E-03 0. -1.
        -11    1    3    3    0    0 -0.19266728254E+02 -0.10069311388E+02  0.22768358534E+02  0.31480088946E+02  0.51100000000E-03 0.  1.
         12    1    3    3    0    0  0.33662095174E+01  0.99398018206E+01 -0.10547500881E+02  0.14878870978E+02  0.00000000000E+00 0. -1.
</event>
<event>
 7    1  0.7012292E-013  0.5930194E+02  0.7816164E-02  0.1266605E+00
        -11   -1    0    0    0    0  0.00000000000E+00  0.00000000000E+00  0.45593999997E+02  0.45594000000E+02  0.51100000000E-03 0.  1.
         11   -1    0    0    0    0 -0.00000000000E+00 -0.00000000000E+00 -0.45593999997E+02  0.45594000000E+02  0.51100000000E-03 0. -1.
    9900012    2    1    2    0    0 -0.31299968465E+02 -0.59723747805E+01 -0.11677508199E+01  0.59301938336E+02  0.49999989620E+02 0.  0.
         12    1    1    2    0    0  0.31299968465E+02  0.59723747805E+01  0.11677508199E+01  0.31886061664E+02  0.00000000000E+00 0. -1.
         11    1    3    3    0    0 -0.14140778366E+01 -0.45910207044E+01 -0.19216456753E+00  0.48077036846E+01  0.51100000000E-03 0. -1.
        -11    1    3    3    0    0  0.59286346747E+01  0.14039341566E+02  0.20813572975E+01  0.15381283080E+02  0.51100000000E-03 0.  1.
         12    1    3    3    0    0 -0.35814525304E+02 -0.15420695642E+02 -0.30569435499E+01  0.39112951572E+02  0.00000000000E+00 0. -1.
</event>
<event>
 7    1  0.7012292E-013  0.5930194E+02  0.7816164E-02  0.1266605E+00
        -11   -1    0    0    0    0  0.00000000000E+00  0.00000000000E+00  0.45593999997E+02  0.45594000000E+02  0.51100000000E-03 0.  1.
         11   -1    0    0    0    0 -0.00000000000E+00 -0.00000000000E+00 -0.45593999997E+02  0.45594000000E+02  0.51100000000E-03 0. -1.
    9900012    2    1    2    0    0 -0.12321195519E+02  0.37802242142E+01  0.29165375281E+02  0.59301936126E+02  0.49999985588E+02 0.  0.
         12    1    1    2    0    0  0.12321195519E+02 -0.37802242142E+01 -0.29165375281E+02  0.31886063874E+02  0.00000000000E+00 0. -1.
         11    1    3    3    0    0  0.25076681820E+01 -0.40986371092E+01 -0.80668061310E+01  0.93893869491E+01  0.51100000000E-03 0. -1.
        -11    1    3    3    0    0 -0.41474781978E+01 -0.10579369138E+02  0.88061444038E+01  0.14376119305E+02  0.51100000000E-03 0.  1.
        -12    1    3    3    0    0 -0.10681385504E+02  0.18458230461E+02  0.28426037008E+02  0.35536429871E+02  0.00000000000E+00 0.  1.
</event>
<event>
 7    1  0.7012292E-013  0.5930195E+02  0.7816164E-02  0.1266605E+00
        -11   -1    0    0    0    0  0.00000000000E+00  0.00000000000E+00  0.45593999997E+02  0.45594000000E+02  0.51100000000E-03 0.  1.
         11   -1    0    0    0    0 -0.00000000000E+00 -0.00000000000E+00 -0.45593999997E+02  0.45594000000E+02  0.51100000000E-03 0. -1.
    9900012    2    1    2    0    0  0.14821956534E+02 -0.20729842132E+02  0.19165155136E+02  0.59301954123E+02  0.50000018411E+02 0.  0.
         12    1    1    2    0    0 -0.14821956534E+02  0.20729842132E+02 -0.19165155136E+02  0.31886045877E+02  0.00000000000E+00 0. -1.
         11    1    3    3    0    0  0.18637003837E+02 -0.64360830851E+00  0.11538105444E+02  0.21928976747E+02  0.51100000000E-03 0. -1.
        -11    1    3    3    0    0  0.10852591365E+02 -0.17810508824E+02  0.39139598878E+00  0.20860157118E+02  0.51100000000E-03 0.  1.
        -12    1    3    3    0    0 -0.14667638668E+02 -0.22757249992E+01  0.72356537028E+01  0.16512820258E+02  0.00000000000E+00 0.  1.
</event>
<event>
 7    1  0.7012292E-013  0.5930207E+02  0.7816164E-02  0.1266604E+00
        -11   -1    0    0    0    0  0.00000000000E+00  0.00000000000E+00  0.45593999997E+02  0.45594000000E+02  0.51100000000E-03 0. -1.
         11   -1    0    0    0    0 -0.00000000000E+00 -0.00000000000E+00 -0.45593999997E+02  0.45594000000E+02  0.51100000000E-03 0.  1.
    9900012    2    1    2    0    0  0.73145496163E+01  0.25221926717E+02 -0.18084925449E+02  0.59302066551E+02  0.50000223453E+02 0.  0.
         12    1    1    2    0    0 -0.73145496163E+01 -0.25221926717E+02  0.18084925449E+02  0.31885933449E+02  0.00000000000E+00 0. -1.
         11    1    3    3    0    0 -0.15999824465E+02  0.26834179167E+01 -0.11101979654E+02  0.19658307839E+02  0.51100000000E-03 0.  1.
        -11    1    3    3    0    0  0.60438623539E+01 -0.40219332914E+01 -0.23157662407E+01  0.76201701488E+01  0.51100000000E-03 0. -1.
         12    1    3    3    0    0  0.17270511727E+02  0.26560442092E+02 -0.46671795548E+01  0.32023588563E+02  0.00000000000E+00 0. -1.
</event>
<event>
 7    1  0.7012292E-013  0.5930196E+02  0.7816164E-02  0.1266605E+00
        -11   -1    0    0    0    0  0.00000000000E+00  0.00000000000E+00  0.45593999997E+02  0.45594000000E+02  0.51100000000E-03 0. -1.
         11   -1    0    0    0    0 -0.00000000000E+00 -0.00000000000E+00 -0.45593999997E+02  0.45594000000E+02  0.51100000000E-03 0.  1.
    9900012    2    1    2    0    0 -0.29556234357E+01  0.31550264812E+02  0.35446926943E+01  0.59301956566E+02  0.50000022866E+02 0.  0.
         12    1    1    2    0    0  0.29556234357E+01 -0.31550264812E+02 -0.35446926943E+01  0.31886043434E+02  0.00000000000E+00 0. -1.
         11    1    3    3    0    0  0.15558331909E+01  0.23017171673E+02  0.21957385484E+02  0.31848666947E+02  0.51100000000E-03 0. -1.
        -11    1    3    3    0    0  0.37898926497E+01 -0.35253065660E+01 -0.22433460512E+01  0.56412475966E+01  0.51100000000E-03 0.  1.
        -12    1    3    3    0    0 -0.83013492763E+01  0.12058399705E+02 -0.16169346738E+02  0.21812042022E+02  0.00000000000E+00 0.  1.
</event>
<event>
 7    1  0.7012292E-013  0.5930203E+02  0.7816164E-02  0.1266604E+00
        -11   -1    0    0    0    0  0.00000000000E+00  0.00000000000E+00  0.45593999997E+02  0.45594000000E+02  0.51100000000E-03 0.  1.
         11   -1    0    0    0    0 -0.00000000000E+00 -0.00000000000E+00 -0.45593999997E+02  0.45594000000E+02  0.51100000000E-03 0. -1.
    9900012    2    1    2    0    0 -0.35536993064E+01  0.31687024949E+02  0.13641111491E+00  0.59302032289E+02  0.50000160967E+02 0.  0.
         12    1    1    2    0    0  0.35536993064E+01 -0.31687024949E+02 -0.13641111491E+00  0.31885967711E+02  0.00000000000E+00 0. -1.
         11    1    3    3    0    0  0.31008395747E+01 -0.58451527848E+01 -0.81696202297E+00  0.66669666531E+01  0.51100000000E-03 0. -1.
        -11    1    3    3    0    0  0.14491000050E+02  0.90244216823E+01  0.14976318513E+01  0.17136865833E+02  0.51100000000E-03 0.  1.
         12    1    3    3    0    0 -0.21145538931E+02  0.28507756051E+02 -0.54425871346E+00  0.35498199804E+02  0.00000000000E+00 0. -1.
</event>
<event>
 7    1  0.7012292E-013  0.5930196E+02  0.7816164E-02  0.1266605E+00
        -11   -1    0    0    0    0  0.00000000000E+00  0.00000000000E+00  0.45593999997E+02  0.45594000000E+02  0.51100000000E-03 0.  1.
         11   -1    0    0    0    0 -0.00000000000E+00 -0.00000000000E+00 -0.45593999997E+02  0.45594000000E+02  0.51100000000E-03 0. -1.
    9900012    2    1    2    0    0  0.70133614024E+01  0.11577941126E+02  0.28870120124E+02  0.59301956112E+02  0.50000022038E+02 0.  0.
         12    1    1    2    0    0 -0.70133614024E+01 -0.11577941126E+02 -0.28870120124E+02  0.31886043888E+02  0.00000000000E+00 0. -1.
         11    1    3    3    0    0  0.13254337049E+02  0.14431656569E+02  0.16399040344E+02  0.25551490884E+02  0.51100000000E-03 0. -1.
        -11    1    3    3    0    0  0.10661425658E+02 -0.55253889185E+01  0.11474796080E+02  0.16609240353E+02  0.51100000000E-03 0.  1.
        -12    1    3    3    0    0 -0.16902401304E+02  0.26716734755E+01  0.99628369960E+00  0.17141224875E+02  0.00000000000E+00 0.  1.
</event>
<event>
 7    1  0.7012292E-013  0.5930194E+02  0.7816164E-02  0.1266605E+00
        -11   -1    0    0    0    0  0.00000000000E+00  0.00000000000E+00  0.45593999997E+02  0.45594000000E+02  0.51100000000E-03 0.  1.
         11   -1    0    0    0    0 -0.00000000000E+00 -0.00000000000E+00 -0.45593999997E+02  0.45594000000E+02  0.51100000000E-03 0. -1.
    9900012    2    1    2    0    0  0.22081754828E+02  0.58451049952E+01  0.22247503723E+02  0.59301943947E+02  0.49999999853E+02 0.  0.
         12    1    1    2    0    0 -0.22081754828E+02 -0.58451049952E+01 -0.22247503723E+02  0.31886056053E+02  0.00000000000E+00 0. -1.
         11    1    3    3    0    0  0.20270566556E+02  0.50703226654E+01  0.15372546945E+02  0.25940686966E+02  0.51100000000E-03 0. -1.
        -11    1    3    3    0    0  0.13158635055E+02 -0.10352359781E+02  0.39334732367E+01  0.17198640687E+02  0.51100000000E-03 0.  1.
         12    1    3    3    0    0 -0.11347446783E+02  0.11127142111E+02  0.29414835416E+01  0.16162616294E+02  0.00000000000E+00 0. -1.
</event>
<event>
 7    1  0.7012292E-013  0.5930196E+02  0.7816164E-02  0.1266605E+00
        -11   -1    0    0    0    0  0.00000000000E+00  0.00000000000E+00  0.45593999997E+02  0.45594000000E+02  0.51100000000E-03 0.  1.
         11   -1    0    0    0    0 -0.00000000000E+00 -0.00000000000E+00 -0.45593999997E+02  0.45594000000E+02  0.51100000000E-03 0. -1.
    9900012    2    1    2    0    0 -0.12623501827E+02 -0.21998037769E+02  0.19324935534E+02  0.59301959207E+02  0.50000027684E+02 0.  0.
         12    1    1    2    0    0  0.12623501827E+02  0.21998037769E+02 -0.19324935534E+02  0.31886040793E+02  0.00000000000E+00 0. -1.
         11    1    3    3    0    0  0.60185493128E+01 -0.25740443935E+01  0.90143415628E+01  0.11140331882E+02  0.51100000000E-03 0. -1.
        -11    1    3    3    0    0 -0.11838723654E+02 -0.16437968788E+02  0.24713701444E+02  0.31955112814E+02  0.51100000000E-03 0.  1.
         12    1    3    3    0    0 -0.68033274862E+01 -0.29860245875E+01 -0.14403107473E+02  0.16206514511E+02  0.00000000000E+00 0. -1.
</event>
<event>
 7    1  0.7012292E-013  0.5930192E+02  0.7816164E-02  0.1266605E+00
        -11   -1    0    0    0    0  0.00000000000E+00  0.00000000000E+00  0.45593999997E+02  0.45594000000E+02  0.51100000000E-03 0.  1.
         11   -1    0    0    0    0 -0.00000000000E+00 -0.00000000000E+00 -0.45593999997E+02  0.45594000000E+02  0.51100000000E-03 0. -1.
    9900012    2    1    2    0    0 -0.18078149902E+02  0.13775362868E+02  0.22363856264E+02  0.59301918506E+02  0.49999953454E+02 0.  0.
         12    1    1    2    0    0  0.18078149902E+02 -0.13775362868E+02 -0.22363856264E+02  0.31886081494E+02  0.00000000000E+00 0. -1.
         11    1    3    3    0    0 -0.29310608532E+01 -0.32252923576E+01  0.10053623972E+02  0.10957599360E+02  0.51100000000E-03 0. -1.
        -11    1    3    3    0    0  0.31760658354E+00  0.18309634374E+02  0.23073557694E+02  0.29457302147E+02  0.51100000000E-03 0.  1.
         12    1    3    3    0    0 -0.15464695632E+02 -0.13089791485E+01 -0.10763325401E+02  0.18887016998E+02  0.00000000000E+00 0. -1.
</event>
<event>
 7    1  0.7012292E-013  0.5930203E+02  0.7816164E-02  0.1266604E+00
        -11   -1    0    0    0    0  0.00000000000E+00  0.00000000000E+00  0.45593999997E+02  0.45594000000E+02  0.51100000000E-03 0.  1.
         11   -1    0    0    0    0 -0.00000000000E+00 -0.00000000000E+00 -0.45593999997E+02  0.45594000000E+02  0.51100000000E-03 0. -1.
    9900012    2    1    2    0    0 -0.80533642214E+01  0.14521083336E+02  0.27221253359E+02  0.59302028619E+02  0.50000154273E+02 0.  0.
         12    1    1    2    0    0  0.80533642214E+01 -0.14521083336E+02 -0.27221253359E+02  0.31885971381E+02  0.00000000000E+00 0. -1.
         11    1    3    3    0    0  0.14977192096E+02  0.55373520772E+01  0.11268352739E+02  0.19543651778E+02  0.51100000000E-03 0. -1.
        -11    1    3    3    0    0 -0.12666048859E+02  0.10548579635E+02  0.22128104527E+02  0.27592650040E+02  0.51100000000E-03 0.  1.
         12    1    3    3    0    0 -0.10364507458E+02 -0.15648483761E+01 -0.61752039078E+01  0.12165726801E+02  0.00000000000E+00 0. -1.
</event>
<event>
 7    1  0.7012292E-013  0.5930191E+02  0.7816164E-02  0.1266605E+00
        -11   -1    0    0    0    0  0.00000000000E+00  0.00000000000E+00  0.45593999997E+02  0.45594000000E+02  0.51100000000E-03 0.  1.
         11   -1    0    0    0    0 -0.00000000000E+00 -0.00000000000E+00 -0.45593999997E+02  0.45594000000E+02  0.51100000000E-03 0. -1.
    9900012    2    1    2    0    0 -0.19002405855E+01 -0.29867388889E+02  0.11002327027E+02  0.59301905329E+02  0.49999929423E+02 0.  0.
         12    1    1    2    0    0  0.19002405855E+01  0.29867388889E+02 -0.11002327027E+02  0.31886094671E+02  0.00000000000E+00 0. -1.
         11    1    3    3    0    0 -0.28294428368E+01 -0.51686513125E+00 -0.96029020829E+00  0.30323347236E+01  0.51100000000E-03 0. -1.
        -11    1    3    3    0    0 -0.13520470316E+02  0.65359223559E+01  0.89131504119E+01  0.17463265707E+02  0.51100000000E-03 0.  1.
        -12    1    3    3    0    0  0.14449672568E+02 -0.35886446114E+02  0.30494668232E+01  0.38806304899E+02  0.00000000000E+00 0.  1.
</event>
<event>
 7    1  0.7012292E-013  0.5930195E+02  0.7816164E-02  0.1266605E+00
        -11   -1    0    0    0    0  0.00000000000E+00  0.00000000000E+00  0.45593999997E+02  0.45594000000E+02  0.51100000000E-03 0. -1.
         11   -1    0    0    0    0 -0.00000000000E+00 -0.00000000000E+00 -0.45593999997E+02  0.45594000000E+02  0.51100000000E-03 0.  1.
    9900012    2    1    2    0    0  0.30591734527E+02  0.21025620085E+01  0.87432770728E+01  0.59301954740E+02  0.50000019537E+02 0.  0.
         12    1    1    2    0    0 -0.30591734527E+02 -0.21025620085E+01 -0.87432770728E+01  0.31886045260E+02  0.00000000000E+00 0. -1.
         11    1    3    3    0    0 -0.11294844341E+00 -0.35583443464E+01 -0.24582247213E+01  0.43263657820E+01  0.51100000000E-03 0.  1.
        -11    1    3    3    0    0  0.48398462105E+01 -0.91222006006E+01 -0.12993190893E+02  0.16597037838E+02  0.51100000000E-03 0. -1.
         12    1    3    3    0    0  0.25864836759E+02  0.14783106955E+02  0.24194692687E+02  0.38378551120E+02  0.00000000000E+00 0. -1.
</event>
<event>
 7    1  0.7012292E-013  0.5930193E+02  0.7816164E-02  0.1266605E+00
        -11   -1    0    0    0    0  0.00000000000E+00  0.00000000000E+00  0.45593999997E+02  0.45594000000E+02  0.51100000000E-03 0. -1.
         11   -1    0    0    0    0 -0.00000000000E+00 -0.00000000000E+00 -0.45593999997E+02  0.45594000000E+02  0.51100000000E-03 0.  1.
    9900012    2    1    2    0    0 -0.12431424728E+02  0.22057625512E+02 -0.19381492130E+02  0.59301930923E+02  0.49999976100E+02 0.  0.
         12    1    1    2    0    0  0.12431424728E+02 -0.22057625512E+02  0.19381492130E+02  0.31886069077E+02  0.00000000000E+00 0. -1.
         11    1    3    3    0    0 -0.18421342294E+01  0.13529484216E+02 -0.25535179207E+01  0.13891035084E+02  0.51100000000E-03 0. -1.
        -11    1    3    3    0    0 -0.22757654524E+02  0.15611745976E+02 -0.14380665833E+02  0.31119784734E+02  0.51100000000E-03 0.  1.
         12    1    3    3    0    0  0.12168364026E+02 -0.70836046794E+01 -0.24473083764E+01  0.14291111105E+02  0.00000000000E+00 0. -1.
</event>
<event>
 7    1  0.8353357E-013  0.5930201E+02  0.7816164E-02  0.1266605E+00
        -11   -1    0    0    0    0  0.00000000000E+00  0.00000000000E+00  0.45593999997E+02  0.45594000000E+02  0.51100000000E-03 0.  1.
         11   -1    0    0    0    0 -0.00000000000E+00 -0.00000000000E+00 -0.45593999997E+02  0.45594000000E+02  0.51100000000E-03 0. -1.
    9900012    2    1    2    0    0 -0.27067431556E+02 -0.94037974700E+01 -0.13987103948E+02  0.59302010369E+02  0.50000120990E+02 0.  0.
         12    1    1    2    0    0  0.27067431556E+02  0.94037974700E+01  0.13987103948E+02  0.31885989631E+02  0.00000000000E+00 0. -1.
         11    1    3    3    0    0 -0.77451101239E+00  0.22363998952E+01  0.57301806917E+01  0.61997034461E+01  0.51100000000E-03 0.  1.
        -11    1    3    3    0    0 -0.29632151627E+02 -0.62164507848E+01  0.21236829626E+01  0.30351584802E+02  0.51100000000E-03 0. -1.
         12    1    3    3    0    0  0.33392310837E+01 -0.54237465803E+01 -0.21840967603E+02  0.22750722121E+02  0.00000000000E+00 0. -1.
</event>
<event>
 7    1  0.7012292E-013  0.5930193E+02  0.7816164E-02  0.1266605E+00
        -11   -1    0    0    0    0  0.00000000000E+00  0.00000000000E+00  0.45593999997E+02  0.45594000000E+02  0.51100000000E-03 0.  1.
         11   -1    0    0    0    0 -0.00000000000E+00 -0.00000000000E+00 -0.45593999997E+02  0.45594000000E+02  0.51100000000E-03 0. -1.
    9900012    2    1    2    0    0  0.15474388801E+02  0.27877924270E+02 -0.29354315750E+00  0.59301928779E+02  0.49999972189E+02 0.  0.
         12    1    1    2    0    0 -0.15474388801E+02 -0.27877924270E+02  0.29354315750E+00  0.31886071221E+02  0.00000000000E+00 0. -1.
         11    1    3    3    0    0  0.91748629675E+00  0.67858345945E+01 -0.14357522211E+02  0.15906846845E+02  0.51100000000E-03 0. -1.
        -11    1    3    3    0    0  0.18374610171E+02  0.50820826697E+01  0.18271955425E+02  0.26406783570E+02  0.51100000000E-03 0.  1.
         12    1    3    3    0    0 -0.38177076670E+01  0.16010007005E+02 -0.42079763715E+01  0.16988298364E+02  0.00000000000E+00 0. -1.
</event>
<event>
 7    1  0.7012292E-013  0.5930192E+02  0.7816164E-02  0.1266605E+00
        -11   -1    0    0    0    0  0.00000000000E+00  0.00000000000E+00  0.45593999997E+02  0.45594000000E+02  0.51100000000E-03 0. -1.
         11   -1    0    0    0    0 -0.00000000000E+00 -0.00000000000E+00 -0.45593999997E+02  0.45594000000E+02  0.51100000000E-03 0.  1.
    9900012    2    1    2    0    0 -0.37047796712E+01  0.31529105843E+02  0.29852834868E+01  0.59301924274E+02  0.49999963975E+02 0.  0.
         12    1    1    2    0    0  0.37047796712E+01 -0.31529105843E+02 -0.29852834868E+01  0.31886075726E+02  0.00000000000E+00 0. -1.
         11    1    3    3    0    0  0.41482429125E+01  0.20730861662E+02  0.10596458864E+02  0.23648710012E+02  0.51100000000E-03 0. -1.
        -11    1    3    3    0    0  0.65268270633E+01  0.14983743654E+02 -0.11733871924E+02  0.20119537669E+02  0.51100000000E-03 0.  1.
         12    1    3    3    0    0 -0.14379849647E+02 -0.41854994727E+01  0.41226965476E+01  0.15533676594E+02  0.00000000000E+00 0. -1.
</event>
<event>
 7    1  0.7012292E-013  0.5930196E+02  0.7816164E-02  0.1266605E+00
        -11   -1    0    0    0    0  0.00000000000E+00  0.00000000000E+00  0.45593999997E+02  0.45594000000E+02  0.51100000000E-03 0.  1.
         11   -1    0    0    0    0 -0.00000000000E+00 -0.00000000000E+00 -0.45593999997E+02  0.45594000000E+02  0.51100000000E-03 0. -1.
    9900012    2    1    2    0    0 -0.29868124637E+02  0.11091982184E+02 -0.12581292511E+01  0.59301955602E+02  0.50000021109E+02 0.  0.
         12    1    1    2    0    0  0.29868124637E+02 -0.11091982184E+02  0.12581292511E+01  0.31886044398E+02  0.00000000000E+00 0. -1.
         11    1    3    3    0    0 -0.26321740822E+02  0.59515076212E+01 -0.11292436238E+02  0.29253608313E+02  0.51100000000E-03 0. -1.
        -11    1    3    3    0    0 -0.10340116204E+02  0.11833666382E+02 -0.64816787549E+00  0.15728120835E+02  0.51100000000E-03 0.  1.
         12    1    3    3    0    0  0.67937323888E+01 -0.66931918190E+01  0.10682474863E+02  0.14320226454E+02  0.00000000000E+00 0. -1.
</event>
<event>
 7    1  0.7012292E-013  0.5930193E+02  0.7816164E-02  0.1266605E+00
        -11   -1    0    0    0    0  0.00000000000E+00  0.00000000000E+00  0.45593999997E+02  0.45594000000E+02  0.51100000000E-03 0. -1.
         11   -1    0    0    0    0 -0.00000000000E+00 -0.00000000000E+00 -0.45593999997E+02  0.45594000000E+02  0.51100000000E-03 0.  1.
    9900012    2    1    2    0    0 -0.26295731229E+02  0.10046029775E+02  0.14977759146E+02  0.59301929936E+02  0.49999974300E+02 0.  0.
         12    1    1    2    0    0  0.26295731229E+02 -0.10046029775E+02 -0.14977759146E+02  0.31886070064E+02  0.00000000000E+00 0. -1.
         11    1    3    3    0    0 -0.37313288660E+01 -0.12326953823E+01 -0.58136233435E+01  0.70171625073E+01  0.51100000000E-03 0. -1.
        -11    1    3    3    0    0 -0.29172862928E+02  0.61081116837E+01 -0.63104576250E-01  0.29805518653E+02  0.51100000000E-03 0.  1.
         12    1    3    3    0    0  0.66084605648E+01  0.51706134734E+01  0.20854487066E+02  0.22479248776E+02  0.00000000000E+00 0. -1.
</event>
<event>
 7    1  0.7012292E-013  0.5930197E+02  0.7816164E-02  0.1266605E+00
        -11   -1    0    0    0    0  0.00000000000E+00  0.00000000000E+00  0.45593999997E+02  0.45594000000E+02  0.51100000000E-03 0. -1.
         11   -1    0    0    0    0 -0.00000000000E+00 -0.00000000000E+00 -0.45593999997E+02  0.45594000000E+02  0.51100000000E-03 0.  1.
    9900012    2    1    2    0    0  0.16023368502E+02  0.21457305258E+02 -0.17307650360E+02  0.59301967822E+02  0.50000043394E+02 0.  0.
         12    1    1    2    0    0 -0.16023368502E+02 -0.21457305258E+02  0.17307650360E+02  0.31886032178E+02  0.00000000000E+00 0. -1.
         11    1    3    3    0    0  0.20994917916E+01  0.68208586674E+01 -0.55185528976E+01  0.90214414086E+01  0.51100000000E-03 0. -1.
        -11    1    3    3    0    0  0.29620297621E+02  0.46846577884E+01 -0.99882520069E+01  0.31608119655E+02  0.51100000000E-03 0.  1.
         12    1    3    3    0    0 -0.15696420910E+02  0.99517888025E+01 -0.18008454553E+01  0.18672406758E+02  0.00000000000E+00 0. -1.
</event>
<event>
 7    1  0.7012292E-013  0.5930197E+02  0.7816164E-02  0.1266605E+00
        -11   -1    0    0    0    0  0.00000000000E+00  0.00000000000E+00  0.45593999997E+02  0.45594000000E+02  0.51100000000E-03 0.  1.
         11   -1    0    0    0    0 -0.00000000000E+00 -0.00000000000E+00 -0.45593999997E+02  0.45594000000E+02  0.51100000000E-03 0. -1.
    9900012    2    1    2    0    0 -0.25287686446E+01 -0.15002678761E+02  0.28022201243E+02  0.59301971659E+02  0.50000050393E+02 0.  0.
         12    1    1    2    0    0  0.25287686446E+01  0.15002678761E+02 -0.28022201243E+02  0.31886028341E+02  0.00000000000E+00 0. -1.
         11    1    3    3    0    0 -0.10030151821E+02 -0.16470944913E+02  0.27001259290E+02  0.33180777197E+02  0.51100000000E-03 0. -1.
        -11    1    3    3    0    0 -0.68754070529E+01 -0.46356068609E+01  0.54056288211E+01  0.98985300083E+01  0.51100000000E-03 0.  1.
         12    1    3    3    0    0  0.14376790230E+02  0.61038730129E+01 -0.43846868679E+01  0.16222664454E+02  0.00000000000E+00 0. -1.
</event>
<event>
 7    1  0.7012292E-013  0.5930192E+02  0.7816164E-02  0.1266605E+00
        -11   -1    0    0    0    0  0.00000000000E+00  0.00000000000E+00  0.45593999997E+02  0.45594000000E+02  0.51100000000E-03 0.  1.
         11   -1    0    0    0    0 -0.00000000000E+00 -0.00000000000E+00 -0.45593999997E+02  0.45594000000E+02  0.51100000000E-03 0. -1.
    9900012    2    1    2    0    0  0.93310188608E+01 -0.27377210891E+02  0.13421714037E+02  0.59301921582E+02  0.49999959065E+02 0.  0.
         12    1    1    2    0    0 -0.93310188608E+01  0.27377210891E+02 -0.13421714037E+02  0.31886078418E+02  0.00000000000E+00 0. -1.
         11    1    3    3    0    0 -0.25387441500E+01  0.63773720703E+01 -0.63562271526E+00  0.68934833633E+01  0.51100000000E-03 0. -1.
        -11    1    3    3    0    0 -0.43673845791E+01  0.36665660175E+01  0.98741827438E+01  0.11402510230E+02  0.51100000000E-03 0.  1.
        -12    1    3    3    0    0  0.16237147590E+02 -0.37421148979E+02  0.41831540084E+01  0.41005927989E+02  0.00000000000E+00 0.  1.
</event>
<event>
 7    1  0.7012292E-013  0.5930194E+02  0.7816164E-02  0.1266605E+00
        -11   -1    0    0    0    0  0.00000000000E+00  0.00000000000E+00  0.45593999997E+02  0.45594000000E+02  0.51100000000E-03 0.  1.
         11   -1    0    0    0    0 -0.00000000000E+00 -0.00000000000E+00 -0.45593999997E+02  0.45594000000E+02  0.51100000000E-03 0. -1.
    9900012    2    1    2    0    0  0.11098911456E+02 -0.68542590040E+01  0.29095600515E+02  0.59301942368E+02  0.49999996972E+02 0.  0.
         12    1    1    2    0    0 -0.11098911456E+02  0.68542590040E+01 -0.29095600515E+02  0.31886057632E+02  0.00000000000E+00 0. -1.
         11    1    3    3    0    0  0.49963777309E+01  0.44086125775E+01 -0.50522128038E+01  0.83620876439E+01  0.51100000000E-03 0. -1.
        -11    1    3    3    0    0  0.18044722353E+02 -0.10023143147E+02  0.32939701639E+02  0.38872861326E+02  0.51100000000E-03 0.  1.
         12    1    3    3    0    0 -0.11942188629E+02 -0.12397284346E+01  0.12081116803E+01  0.12066993398E+02  0.00000000000E+00 0. -1.
</event>
<event>
 7    1  0.7012292E-013  0.5930193E+02  0.7816164E-02  0.1266605E+00
        -11   -1    0    0    0    0  0.00000000000E+00  0.00000000000E+00  0.45593999997E+02  0.45594000000E+02  0.51100000000E-03 0.  1.
         11   -1    0    0    0    0 -0.00000000000E+00 -0.00000000000E+00 -0.45593999997E+02  0.45594000000E+02  0.51100000000E-03 0. -1.
    9900012    2    1    2    0    0 -0.30994960817E+02  0.20953552484E+01 -0.71863443516E+01  0.59301926946E+02  0.49999968848E+02 0.  0.
         12    1    1    2    0    0  0.30994960817E+02 -0.20953552484E+01  0.71863443516E+01  0.31886073054E+02  0.00000000000E+00 0. -1.
         11    1    3    3    0    0  0.59543344886E+01 -0.14471470929E+01 -0.33654481510E+00  0.61369044790E+01  0.51100000000E-03 0. -1.
        -11    1    3    3    0    0 -0.13488300470E+02 -0.14076960036E+02  0.70070217529E+01  0.20716983553E+02  0.51100000000E-03 0.  1.
        -12    1    3    3    0    0 -0.23460994836E+02  0.17619462377E+02 -0.13856821289E+02  0.32448038915E+02  0.00000000000E+00 0.  1.
</event>
<event>
 7    1  0.7012292E-013  0.5930195E+02  0.7816164E-02  0.1266605E+00
        -11   -1    0    0    0    0  0.00000000000E+00  0.00000000000E+00  0.45593999997E+02  0.45594000000E+02  0.51100000000E-03 0.  1.
         11   -1    0    0    0    0 -0.00000000000E+00 -0.00000000000E+00 -0.45593999997E+02  0.45594000000E+02  0.51100000000E-03 0. -1.
    9900012    2    1    2    0    0  0.24204745708E+02 -0.74592044277E+00  0.20743531958E+02  0.59301949285E+02  0.50000009588E+02 0.  0.
         12    1    1    2    0    0 -0.24204745708E+02  0.74592044277E+00 -0.20743531958E+02  0.31886050715E+02  0.00000000000E+00 0. -1.
         11    1    3    3    0    0  0.28682529604E+01  0.19183893708E+02 -0.54549126604E+00  0.19404798732E+02  0.51100000000E-03 0. -1.
        -11    1    3    3    0    0  0.19563782451E+01 -0.22717480659E+01 -0.29391272893E+01  0.41984192974E+01  0.51100000000E-03 0.  1.
        -12    1    3    3    0    0  0.19380114502E+02 -0.17658066085E+02  0.24228150514E+02  0.35698731256E+02  0.00000000000E+00 0.  1.
</event>
<event>
 7    1  0.7012292E-013  0.5930196E+02  0.7816164E-02  0.1266605E+00
        -11   -1    0    0    0    0  0.00000000000E+00  0.00000000000E+00  0.45593999997E+02  0.45594000000E+02  0.51100000000E-03 0.  1.
         11   -1    0    0    0    0 -0.00000000000E+00 -0.00000000000E+00 -0.45593999997E+02  0.45594000000E+02  0.51100000000E-03 0. -1.
    9900012    2    1    2    0    0 -0.27747067630E+02 -0.14731979686E+02  0.54578743836E+01  0.59301962612E+02  0.50000033893E+02 0.  0.
         12    1    1    2    0    0  0.27747067630E+02  0.14731979686E+02 -0.54578743836E+01  0.31886037388E+02  0.00000000000E+00 0. -1.
         11    1    3    3    0    0 -0.22268471617E+02 -0.21800216310E+01 -0.18490637387E+02  0.29026556698E+02  0.51100000000E-03 0. -1.
        -11    1    3    3    0    0  0.12759338690E+00  0.24233886683E+01  0.43517418229E+01  0.49826448664E+01  0.51100000000E-03 0.  1.
        -12    1    3    3    0    0 -0.56061893996E+01 -0.14975346723E+02  0.19596769948E+02  0.25292761048E+02  0.00000000000E+00 0.  1.
</event>
<event>
 7    1  0.7012292E-013  0.5930186E+02  0.7816164E-02  0.1266605E+00
        -11   -1    0    0    0    0  0.00000000000E+00  0.00000000000E+00  0.45593999997E+02  0.45594000000E+02  0.51100000000E-03 0.  1.
         11   -1    0    0    0    0 -0.00000000000E+00 -0.00000000000E+00 -0.45593999997E+02  0.45594000000E+02  0.51100000000E-03 0. -1.
    9900012    2    1    2    0    0 -0.30647901091E+02 -0.41040972348E+01  0.77838501784E+01  0.59301862276E+02  0.49999850904E+02 0.  0.
         12    1    1    2    0    0  0.30647901091E+02  0.41040972348E+01 -0.77838501784E+01  0.31886137724E+02  0.00000000000E+00 0. -1.
         11    1    3    3    0    0 -0.23401623872E+02 -0.55440553208E+01  0.19003276635E+02  0.30651216491E+02  0.51100000000E-03 0. -1.
        -11    1    3    3    0    0 -0.16048625751E+02 -0.18153886741E+01 -0.35645055046E+01  0.16539640996E+02  0.51100000000E-03 0.  1.
         12    1    3    3    0    0  0.88023485321E+01  0.32553467601E+01 -0.76549209521E+01  0.12111004789E+02  0.00000000000E+00 0. -1.
</event>
<event>
 7    1  0.7357920E-013  0.5930183E+02  0.7816164E-02  0.1266605E+00
        -11   -1    0    0    0    0  0.00000000000E+00  0.00000000000E+00  0.45593999997E+02  0.45594000000E+02  0.51100000000E-03 0.  1.
         11   -1    0    0    0    0 -0.00000000000E+00 -0.00000000000E+00 -0.45593999997E+02  0.45594000000E+02  0.51100000000E-03 0. -1.
    9900012    2    1    2    0    0  0.20930390988E+02 -0.15493357206E+02  0.18401158990E+02  0.59301826874E+02  0.49999786340E+02 0.  0.
         12    1    1    2    0    0 -0.20930390988E+02  0.15493357206E+02 -0.18401158990E+02  0.31886173126E+02  0.00000000000E+00 0. -1.
         11    1    3    3    0    0 -0.10345644666E+02  0.28981724557E+01  0.12766758333E+00  0.10744676189E+02  0.51100000000E-03 0. -1.
        -11    1    3    3    0    0  0.27555580724E+01 -0.15977604870E+02  0.85391465424E+01  0.18324682306E+02  0.51100000000E-03 0.  1.
         12    1    3    3    0    0  0.28520477582E+02 -0.24139247915E+01  0.97343448642E+01  0.30232468379E+02  0.00000000000E+00 0. -1.
</event>
<event>
 7    1  0.7012292E-013  0.5930195E+02  0.7816164E-02  0.1266605E+00
        -11   -1    0    0    0    0  0.00000000000E+00  0.00000000000E+00  0.45593999997E+02  0.45594000000E+02  0.51100000000E-03 0.  1.
         11   -1    0    0    0    0 -0.00000000000E+00 -0.00000000000E+00 -0.45593999997E+02  0.45594000000E+02  0.51100000000E-03 0. -1.
    9900012    2    1    2    0    0  0.25079589508E+02 -0.10387110024E+02  0.16728485800E+02  0.59301951300E+02  0.50000013263E+02 0.  0.
         12    1    1    2    0    0 -0.25079589508E+02  0.10387110024E+02 -0.16728485800E+02  0.31886048700E+02  0.00000000000E+00 0. -1.
         11    1    3    3    0    0  0.29293351935E+01  0.10114669467E+02 -0.12363182243E+01  0.10602642412E+02  0.51100000000E-03 0. -1.
        -11    1    3    3    0    0  0.19977503260E+02 -0.16386573658E+01 -0.31633458906E+01  0.20292673356E+02  0.51100000000E-03 0.  1.
         12    1    3    3    0    0  0.21727510544E+01 -0.18863122125E+02  0.21128149915E+02  0.28406635532E+02  0.00000000000E+00 0. -1.
</event>
<event>
 7    1  0.7012292E-013  0.5930194E+02  0.7816164E-02  0.1266605E+00
        -11   -1    0    0    0    0  0.00000000000E+00  0.00000000000E+00  0.45593999997E+02  0.45594000000E+02  0.51100000000E-03 0. -1.
         11   -1    0    0    0    0 -0.00000000000E+00 -0.00000000000E+00 -0.45593999997E+02  0.45594000000E+02  0.51100000000E-03 0.  1.
    9900012    2    1    2    0    0 -0.10017711371E+02 -0.13917056318E+02 -0.26882738933E+02  0.59301942698E+02  0.49999997576E+02 0.  0.
         12    1    1    2    0    0  0.10017711371E+02  0.13917056318E+02  0.26882738933E+02  0.31886057302E+02  0.00000000000E+00 0. -1.
         11    1    3    3    0    0 -0.77929091284E+01 -0.17485325385E+01  0.53664145422E+01  0.96221205575E+01  0.51100000000E-03 0.  1.
        -11    1    3    3    0    0  0.53728704916E+01 -0.19990968880E+02 -0.64681501482E+01  0.21687405116E+02  0.51100000000E-03 0. -1.
        -12    1    3    3    0    0 -0.75976727338E+01  0.78224451001E+01 -0.25781003327E+02  0.27992417025E+02  0.00000000000E+00 0.  1.
</event>
<event>
 7    1  0.7012292E-013  0.5930194E+02  0.7816164E-02  0.1266605E+00
        -11   -1    0    0    0    0  0.00000000000E+00  0.00000000000E+00  0.45593999997E+02  0.45594000000E+02  0.51100000000E-03 0. -1.
         11   -1    0    0    0    0 -0.00000000000E+00 -0.00000000000E+00 -0.45593999997E+02  0.45594000000E+02  0.51100000000E-03 0.  1.
    9900012    2    1    2    0    0 -0.29202667378E+02  0.57523290173E+01  0.11438340452E+02  0.59301941865E+02  0.49999996056E+02 0.  0.
         12    1    1    2    0    0  0.29202667378E+02 -0.57523290173E+01 -0.11438340452E+02  0.31886058135E+02  0.00000000000E+00 0. -1.
         11    1    3    3    0    0 -0.46349658530E+00 -0.59620333084E+01  0.13607649721E+02  0.14863673888E+02  0.51100000000E-03 0. -1.
        -11    1    3    3    0    0 -0.23700128888E+02 -0.43639948097E+01  0.72101782270E+01  0.25154069856E+02  0.51100000000E-03 0.  1.
        -12    1    3    3    0    0 -0.50390419042E+01  0.16078357135E+02 -0.93794874956E+01  0.19284198121E+02  0.00000000000E+00 0.  1.
</event>
<event>
 7    1  0.7012292E-013  0.5930198E+02  0.7816164E-02  0.1266605E+00
        -11   -1    0    0    0    0  0.00000000000E+00  0.00000000000E+00  0.45593999997E+02  0.45594000000E+02  0.51100000000E-03 0. -1.
         11   -1    0    0    0    0 -0.00000000000E+00 -0.00000000000E+00 -0.45593999997E+02  0.45594000000E+02  0.51100000000E-03 0.  1.
    9900012    2    1    2    0    0 -0.18998264827E+02 -0.25302486562E+02 -0.39456636220E+01  0.59301981840E+02  0.50000068961E+02 0.  0.
         12    1    1    2    0    0  0.18998264827E+02  0.25302486562E+02  0.39456636220E+01  0.31886018160E+02  0.00000000000E+00 0. -1.
         11    1    3    3    0    0  0.39196666539E+01  0.80010617112E+01 -0.60252796246E+01  0.10755685473E+02  0.51100000000E-03 0. -1.
        -11    1    3    3    0    0 -0.90179043514E+01 -0.90088977944E+00 -0.77705375201E+01  0.11937983703E+02  0.51100000000E-03 0.  1.
         12    1    3    3    0    0 -0.13900027130E+02 -0.32402658494E+02  0.98501535227E+01  0.36608312664E+02  0.00000000000E+00 0. -1.
</event>
<event>
 7    1  0.7012292E-013  0.5930195E+02  0.7816164E-02  0.1266605E+00
        -11   -1    0    0    0    0  0.00000000000E+00  0.00000000000E+00  0.45593999997E+02  0.45594000000E+02  0.51100000000E-03 0.  1.
         11   -1    0    0    0    0 -0.00000000000E+00 -0.00000000000E+00 -0.45593999997E+02  0.45594000000E+02  0.51100000000E-03 0. -1.
    9900012    2    1    2    0    0 -0.24047524171E+02  0.86261351901E+01  0.19079483383E+02  0.59301947983E+02  0.50000007213E+02 0.  0.
         12    1    1    2    0    0  0.24047524171E+02 -0.86261351901E+01 -0.19079483383E+02  0.31886052017E+02  0.00000000000E+00 0. -1.
         11    1    3    3    0    0 -0.41119502736E+01 -0.13691286163E+02 -0.13557450386E+01  0.14359578571E+02  0.51100000000E-03 0. -1.
        -11    1    3    3    0    0 -0.82904458284E+01 -0.45236295695E+01  0.34505943885E+00  0.94505969543E+01  0.51100000000E-03 0.  1.
         12    1    3    3    0    0 -0.11645128069E+02  0.26841050923E+02  0.20090168983E+02  0.35491772457E+02  0.00000000000E+00 0. -1.
</event>
<event>
 7    1  0.7012292E-013  0.5930194E+02  0.7816164E-02  0.1266605E+00
        -11   -1    0    0    0    0  0.00000000000E+00  0.00000000000E+00  0.45593999997E+02  0.45594000000E+02  0.51100000000E-03 0.  1.
         11   -1    0    0    0    0 -0.00000000000E+00 -0.00000000000E+00 -0.45593999997E+02  0.45594000000E+02  0.51100000000E-03 0. -1.
    9900012    2    1    2    0    0  0.11580424972E+02 -0.46511283195E+01  0.29342485393E+02  0.59301942135E+02  0.49999996547E+02 0.  0.
         12    1    1    2    0    0 -0.11580424972E+02  0.46511283195E+01 -0.29342485393E+02  0.31886057865E+02  0.00000000000E+00 0. -1.
         11    1    3    3    0    0 -0.11910263912E+01  0.15674901581E+02  0.21945333759E+02  0.26994791303E+02  0.51100000000E-03 0. -1.
        -11    1    3    3    0    0 -0.16434608237E+01  0.16547933429E+01  0.54750760161E+01  0.59511143604E+01  0.51100000000E-03 0.  1.
         12    1    3    3    0    0  0.14414912187E+02 -0.21980823243E+02  0.19220756179E+01  0.26356036471E+02  0.00000000000E+00 0. -1.
</event>
<event>
 7    1  0.7012292E-013  0.5930197E+02  0.7816164E-02  0.1266605E+00
        -11   -1    0    0    0    0  0.00000000000E+00  0.00000000000E+00  0.45593999997E+02  0.45594000000E+02  0.51100000000E-03 0. -1.
         11   -1    0    0    0    0 -0.00000000000E+00 -0.00000000000E+00 -0.45593999997E+02  0.45594000000E+02  0.51100000000E-03 0.  1.
    9900012    2    1    2    0    0 -0.19619857286E+02 -0.17032165961E+01 -0.25077457346E+02  0.59301974634E+02  0.50000055819E+02 0.  0.
         12    1    1    2    0    0  0.19619857286E+02  0.17032165961E+01  0.25077457346E+02  0.31886025366E+02  0.00000000000E+00 0. -1.
         11    1    3    3    0    0  0.51869194341E+01  0.38456764325E+01 -0.39274793114E+01  0.75576752009E+01  0.51100000000E-03 0. -1.
        -11    1    3    3    0    0  0.95479663740E+01  0.43514240288E+01 -0.60805255806E+00  0.10510389200E+02  0.51100000000E-03 0.  1.
        -12    1    3    3    0    0 -0.34354743094E+02 -0.99003170574E+01 -0.20541925476E+02  0.41233910234E+02  0.00000000000E+00 0.  1.
</event>
<event>
 7    1  0.7012292E-013  0.5930195E+02  0.7816164E-02  0.1266605E+00
        -11   -1    0    0    0    0  0.00000000000E+00  0.00000000000E+00  0.45593999997E+02  0.45594000000E+02  0.51100000000E-03 0. -1.
         11   -1    0    0    0    0 -0.00000000000E+00 -0.00000000000E+00 -0.45593999997E+02  0.45594000000E+02  0.51100000000E-03 0.  1.
    9900012    2    1    2    0    0  0.20299112740E+02 -0.19649925341E+01 -0.24511329673E+02  0.59301945744E+02  0.50000003129E+02 0.  0.
         12    1    1    2    0    0 -0.20299112740E+02  0.19649925341E+01  0.24511329673E+02  0.31886054256E+02  0.00000000000E+00 0. -1.
         11    1    3    3    0    0 -0.87759357732E+01  0.62620067916E+01 -0.16824744656E+02  0.19982537646E+02  0.51100000000E-03 0. -1.
        -11    1    3    3    0    0  0.16812216640E+01  0.60883820106E+01  0.24739397702E+01  0.67834563489E+01  0.51100000000E-03 0.  1.
        -12    1    3    3    0    0  0.27393826849E+02 -0.14315381336E+02 -0.10160524787E+02  0.32535951749E+02  0.00000000000E+00 0.  1.
</event>
<event>
 7    1  0.7012292E-013  0.5930195E+02  0.7816164E-02  0.1266605E+00
        -11   -1    0    0    0    0  0.00000000000E+00  0.00000000000E+00  0.45593999997E+02  0.45594000000E+02  0.51100000000E-03 0. -1.
         11   -1    0    0    0    0 -0.00000000000E+00 -0.00000000000E+00 -0.45593999997E+02  0.45594000000E+02  0.51100000000E-03 0.  1.
    9900012    2    1    2    0    0  0.98444494076E+01  0.60027011176E+01 -0.29728342300E+02  0.59301953823E+02  0.50000017865E+02 0.  0.
         12    1    1    2    0    0 -0.98444494076E+01 -0.60027011176E+01  0.29728342300E+02  0.31886046177E+02  0.00000000000E+00 0. -1.
         11    1    3    3    0    0  0.12426545551E+02 -0.15223130256E+02 -0.15043170236E+02  0.24747923148E+02  0.51100000000E-03 0. -1.
        -11    1    3    3    0    0  0.57439078765E+01 -0.21984572052E+01 -0.11796895837E+01  0.62623765099E+01  0.51100000000E-03 0.  1.
        -12    1    3    3    0    0 -0.83260040201E+01  0.23424288579E+02 -0.13505482480E+02  0.28291654165E+02  0.00000000000E+00 0.  1.
</event>
<event>
 7    1  0.7012292E-013  0.5930194E+02  0.7816164E-02  0.1266605E+00
        -11   -1    0    0    0    0  0.00000000000E+00  0.00000000000E+00  0.45593999997E+02  0.45594000000E+02  0.51100000000E-03 0. -1.
         11   -1    0    0    0    0 -0.00000000000E+00 -0.00000000000E+00 -0.45593999997E+02  0.45594000000E+02  0.51100000000E-03 0.  1.
    9900012    2    1    2    0    0 -0.36998449165E+01 -0.12565565675E+02 -0.29071264010E+02  0.59301942164E+02  0.49999996602E+02 0.  0.
         12    1    1    2    0    0  0.36998449165E+01  0.12565565675E+02  0.29071264010E+02  0.31886057836E+02  0.00000000000E+00 0. -1.
         11    1    3    3    0    0  0.57379300251E+01 -0.12237789625E+00  0.52515186484E+01  0.77792843950E+01  0.51100000000E-03 0. -1.
        -11    1    3    3    0    0  0.15054699087E+01 -0.22486486809E+02 -0.26320596630E+02  0.34650863422E+02  0.51100000000E-03 0.  1.
         12    1    3    3    0    0 -0.10943244850E+02  0.10043299030E+02 -0.80021860288E+01  0.16871794348E+02  0.00000000000E+00 0. -1.
</event>
<event>
 7    1  0.7012292E-013  0.5930195E+02  0.7816164E-02  0.1266605E+00
        -11   -1    0    0    0    0  0.00000000000E+00  0.00000000000E+00  0.45593999997E+02  0.45594000000E+02  0.51100000000E-03 0. -1.
         11   -1    0    0    0    0 -0.00000000000E+00 -0.00000000000E+00 -0.45593999997E+02  0.45594000000E+02  0.51100000000E-03 0.  1.
    9900012    2    1    2    0    0 -0.28429259223E+02 -0.11924262802E+02 -0.81430640180E+01  0.59301947956E+02  0.50000007164E+02 0.  0.
         12    1    1    2    0    0  0.28429259223E+02  0.11924262802E+02  0.81430640180E+01  0.31886052044E+02  0.00000000000E+00 0. -1.
         11    1    3    3    0    0 -0.24065259994E+01  0.54336927014E+01  0.59355399451E+01  0.83992272538E+01  0.51100000000E-03 0. -1.
        -11    1    3    3    0    0 -0.71969757796E+01  0.98199151359E+01  0.44989249776E+01  0.12979503837E+02  0.51100000000E-03 0.  1.
         12    1    3    3    0    0 -0.18825757444E+02 -0.27177870639E+02 -0.18577528941E+02  0.37923216865E+02  0.00000000000E+00 0. -1.
</event>
<event>
 7    1  0.7012292E-013  0.5930192E+02  0.7816164E-02  0.1266605E+00
        -11   -1    0    0    0    0  0.00000000000E+00  0.00000000000E+00  0.45593999997E+02  0.45594000000E+02  0.51100000000E-03 0.  1.
         11   -1    0    0    0    0 -0.00000000000E+00 -0.00000000000E+00 -0.45593999997E+02  0.45594000000E+02  0.51100000000E-03 0. -1.
    9900012    2    1    2    0    0  0.21214626065E+02 -0.53915219448E+01  0.23186051036E+02  0.59301924190E+02  0.49999963820E+02 0.  0.
         12    1    1    2    0    0 -0.21214626065E+02  0.53915219448E+01 -0.23186051036E+02  0.31886075810E+02  0.00000000000E+00 0. -1.
         11    1    3    3    0    0  0.78699934731E+00 -0.13486044102E+02  0.40051016701E+01  0.14090194929E+02  0.51100000000E-03 0.  1.
        -11    1    3    3    0    0  0.27256976478E+02  0.12674460044E+02  0.21152085231E+02  0.36755889515E+02  0.51100000000E-03 0. -1.
         12    1    3    3    0    0 -0.68293497607E+01 -0.45799378874E+01 -0.19711358652E+01  0.84558397457E+01  0.00000000000E+00 0. -1.
</event>
<event>
 7    1  0.7012292E-013  0.5930195E+02  0.7816164E-02  0.1266605E+00
        -11   -1    0    0    0    0  0.00000000000E+00  0.00000000000E+00  0.45593999997E+02  0.45594000000E+02  0.51100000000E-03 0.  1.
         11   -1    0    0    0    0 -0.00000000000E+00 -0.00000000000E+00 -0.45593999997E+02  0.45594000000E+02  0.51100000000E-03 0. -1.
    9900012    2    1    2    0    0  0.30865563668E+02  0.78025689246E+01 -0.17768079034E+01  0.59301950563E+02  0.50000011919E+02 0.  0.
         12    1    1    2    0    0 -0.30865563668E+02 -0.78025689246E+01  0.17768079034E+01  0.31886049437E+02  0.00000000000E+00 0. -1.
         11    1    3    3    0    0  0.52048889514E+01  0.46890124525E+01  0.18897757178E+02  0.20154476758E+02  0.51100000000E-03 0. -1.
        -11    1    3    3    0    0 -0.11767655586E+01  0.32549539051E+00  0.30080466430E+01  0.32463932751E+01  0.51100000000E-03 0.  1.
         12    1    3    3    0    0  0.26837440275E+02  0.27880610816E+01 -0.23682611724E+02  0.35901080530E+02  0.00000000000E+00 0. -1.
</event>
<event>
 7    1  0.7012292E-013  0.5930193E+02  0.7816164E-02  0.1266605E+00
        -11   -1    0    0    0    0  0.00000000000E+00  0.00000000000E+00  0.45593999997E+02  0.45594000000E+02  0.51100000000E-03 0. -1.
         11   -1    0    0    0    0 -0.00000000000E+00 -0.00000000000E+00 -0.45593999997E+02  0.45594000000E+02  0.51100000000E-03 0.  1.
    9900012    2    1    2    0    0  0.13563162828E+02  0.25823816777E+02 -0.12879917897E+02  0.59301934331E+02  0.49999982315E+02 0.  0.
         12    1    1    2    0    0 -0.13563162828E+02 -0.25823816777E+02  0.12879917897E+02  0.31886065669E+02  0.00000000000E+00 0. -1.
         11    1    3    3    0    0  0.98723361665E+01  0.17842016470E+00 -0.40923821879E+01  0.10688425860E+02  0.51100000000E-03 0. -1.
        -11    1    3    3    0    0 -0.16053789920E+01 -0.10824007449E+02 -0.14484834454E+01  0.11037865895E+02  0.51100000000E-03 0.  1.
        -12    1    3    3    0    0  0.52962056536E+01  0.36469404060E+02 -0.73390522642E+01  0.37575642576E+02  0.00000000000E+00 0.  1.
</event>
<event>
 7    1  0.7012292E-013  0.5930195E+02  0.7816164E-02  0.1266605E+00
        -11   -1    0    0    0    0  0.00000000000E+00  0.00000000000E+00  0.45593999997E+02  0.45594000000E+02  0.51100000000E-03 0. -1.
         11   -1    0    0    0    0 -0.00000000000E+00 -0.00000000000E+00 -0.45593999997E+02  0.45594000000E+02  0.51100000000E-03 0.  1.
    9900012    2    1    2    0    0 -0.30660402646E+02  0.69503051690E-01  0.87552782362E+01  0.59301952612E+02  0.50000015655E+02 0.  0.
         12    1    1    2    0    0  0.30660402646E+02 -0.69503051690E-01 -0.87552782362E+01  0.31886047388E+02  0.00000000000E+00 0. -1.
         11    1    3    3    0    0 -0.22540068911E+00 -0.22098752296E+01 -0.17595199352E+01  0.28337721618E+01  0.51100000000E-03 0. -1.
        -11    1    3    3    0    0 -0.15678206299E+01 -0.19329726222E+02  0.28211536450E+01  0.19597328530E+02  0.51100000000E-03 0.  1.
        -12    1    3    3    0    0 -0.28867181327E+02  0.21609104504E+02  0.76936445265E+01  0.36870851920E+02  0.00000000000E+00 0.  1.
</event>
<event>
 7    1  0.7012292E-013  0.5930196E+02  0.7816164E-02  0.1266605E+00
        -11   -1    0    0    0    0  0.00000000000E+00  0.00000000000E+00  0.45593999997E+02  0.45594000000E+02  0.51100000000E-03 0.  1.
         11   -1    0    0    0    0 -0.00000000000E+00 -0.00000000000E+00 -0.45593999997E+02  0.45594000000E+02  0.51100000000E-03 0. -1.
    9900012    2    1    2    0    0  0.17862816908E+02 -0.20289596810E+02  0.16910702767E+02  0.59301955487E+02  0.50000020899E+02 0.  0.
         12    1    1    2    0    0 -0.17862816908E+02  0.20289596810E+02 -0.16910702767E+02  0.31886044513E+02  0.00000000000E+00 0. -1.
         11    1    3    3    0    0  0.20337554768E+02 -0.14451934125E+02  0.58133220765E+01  0.25617752589E+02  0.51100000000E-03 0. -1.
        -11    1    3    3    0    0  0.88669046543E+01 -0.13654224829E+02  0.47125520719E+00  0.16287477876E+02  0.51100000000E-03 0.  1.
         12    1    3    3    0    0 -0.11341642515E+02  0.78165621446E+01  0.10626125484E+02  0.17396725022E+02  0.00000000000E+00 0. -1.
</event>
<event>
 7    1  0.8282379E-013  0.5930196E+02  0.7816164E-02  0.1266605E+00
        -11   -1    0    0    0    0  0.00000000000E+00  0.00000000000E+00  0.45593999997E+02  0.45594000000E+02  0.51100000000E-03 0. -1.
         11   -1    0    0    0    0 -0.00000000000E+00 -0.00000000000E+00 -0.45593999997E+02  0.45594000000E+02  0.51100000000E-03 0.  1.
    9900012    2    1    2    0    0  0.11338641807E+02 -0.16182303625E+02 -0.25025748101E+02  0.59301955770E+02  0.50000021415E+02 0.  0.
         12    1    1    2    0    0 -0.11338641807E+02  0.16182303625E+02  0.25025748101E+02  0.31886044230E+02  0.00000000000E+00 0. -1.
         11    1    3    3    0    0  0.11355150746E+02 -0.47282550976E+01 -0.18146379111E+02  0.21922292759E+02  0.51100000000E-03 0. -1.
        -11    1    3    3    0    0  0.48679424753E+01  0.16584896711E+01 -0.18493309651E+02  0.19195050249E+02  0.51100000000E-03 0.  1.
         12    1    3    3    0    0 -0.48844514139E+01 -0.13112538198E+02  0.11613940661E+02  0.18184612762E+02  0.00000000000E+00 0. -1.
</event>
<event>
 7    1  0.7012292E-013  0.5930195E+02  0.7816164E-02  0.1266605E+00
        -11   -1    0    0    0    0  0.00000000000E+00  0.00000000000E+00  0.45593999997E+02  0.45594000000E+02  0.51100000000E-03 0. -1.
         11   -1    0    0    0    0 -0.00000000000E+00 -0.00000000000E+00 -0.45593999997E+02  0.45594000000E+02  0.51100000000E-03 0.  1.
    9900012    2    1    2    0    0 -0.94032178312E+01 -0.55461074443E+01 -0.29958975075E+02  0.59301952880E+02  0.50000016145E+02 0.  0.
         12    1    1    2    0    0  0.94032178312E+01  0.55461074443E+01  0.29958975075E+02  0.31886047120E+02  0.00000000000E+00 0. -1.
         11    1    3    3    0    0  0.47566929039E+01  0.73005952508E-02  0.36819948123E+01  0.60152528408E+01  0.51100000000E-03 0.  1.
        -11    1    3    3    0    0  0.47844892186E+01  0.81131677068E+01  0.29544707026E+01  0.98713588080E+01  0.51100000000E-03 0. -1.
        -12    1    3    3    0    0 -0.18944399954E+02 -0.13666575746E+02 -0.36595440590E+02  0.43415341231E+02  0.00000000000E+00 0.  1.
</event>
<event>
 7    1  0.7012292E-013  0.5930194E+02  0.7816164E-02  0.1266605E+00
        -11   -1    0    0    0    0  0.00000000000E+00  0.00000000000E+00  0.45593999997E+02  0.45594000000E+02  0.51100000000E-03 0.  1.
         11   -1    0    0    0    0 -0.00000000000E+00 -0.00000000000E+00 -0.45593999997E+02  0.45594000000E+02  0.51100000000E-03 0. -1.
    9900012    2    1    2    0    0  0.72609334337E+01 -0.17668055868E+02  0.25531146304E+02  0.59301940599E+02  0.49999993747E+02 0.  0.
         12    1    1    2    0    0 -0.72609334337E+01  0.17668055868E+02 -0.25531146304E+02  0.31886059401E+02  0.00000000000E+00 0. -1.
         11    1    3    3    0    0  0.23929396616E+01 -0.89747958518E+01 -0.91621536757E+01  0.13046768989E+02  0.51100000000E-03 0. -1.
        -11    1    3    3    0    0 -0.85313894394E+01 -0.74264471233E+01  0.28206886266E+01  0.11657315610E+02  0.51100000000E-03 0.  1.
         12    1    3    3    0    0  0.13399383212E+02 -0.12668128932E+01  0.31872611353E+02  0.34597856001E+02  0.00000000000E+00 0. -1.
</event>
<event>
 7    1  0.7012292E-013  0.5930198E+02  0.7816164E-02  0.1266605E+00
        -11   -1    0    0    0    0  0.00000000000E+00  0.00000000000E+00  0.45593999997E+02  0.45594000000E+02  0.51100000000E-03 0. -1.
         11   -1    0    0    0    0 -0.00000000000E+00 -0.00000000000E+00 -0.45593999997E+02  0.45594000000E+02  0.51100000000E-03 0.  1.
    9900012    2    1    2    0    0  0.13158939327E+02  0.61067357022E+01 -0.28394865493E+02  0.59301979685E+02  0.50000065030E+02 0.  0.
         12    1    1    2    0    0 -0.13158939327E+02 -0.61067357022E+01  0.28394865493E+02  0.31886020315E+02  0.00000000000E+00 0. -1.
         11    1    3    3    0    0 -0.10162400996E+01  0.34484317098E+01  0.82223657636E+00  0.36878853623E+01  0.51100000000E-03 0. -1.
        -11    1    3    3    0    0 -0.11844604348E+02  0.10392309966E+02 -0.22809755195E+02  0.27723269845E+02  0.51100000000E-03 0.  1.
         12    1    3    3    0    0  0.26019783774E+02 -0.77340059738E+01 -0.64073468751E+01  0.27890824478E+02  0.00000000000E+00 0. -1.
</event>
<event>
 7    1  0.7012292E-013  0.5930194E+02  0.7816164E-02  0.1266605E+00
        -11   -1    0    0    0    0  0.00000000000E+00  0.00000000000E+00  0.45593999997E+02  0.45594000000E+02  0.51100000000E-03 0.  1.
         11   -1    0    0    0    0 -0.00000000000E+00 -0.00000000000E+00 -0.45593999997E+02  0.45594000000E+02  0.51100000000E-03 0. -1.
    9900012    2    1    2    0    0  0.36157367524E+01 -0.14508230274E+02  0.28163068423E+02  0.59301941590E+02  0.49999995554E+02 0.  0.
         12    1    1    2    0    0 -0.36157367524E+01  0.14508230274E+02 -0.28163068423E+02  0.31886058410E+02  0.00000000000E+00 0. -1.
         11    1    3    3    0    0  0.95926606666E+01 -0.58078694633E+01  0.50278531716E+01  0.12289417974E+02  0.51100000000E-03 0. -1.
        -11    1    3    3    0    0  0.16897351183E+00  0.13103444049E+02 -0.19090028260E+01  0.13242850526E+02  0.51100000000E-03 0.  1.
         12    1    3    3    0    0 -0.61458974260E+01 -0.21803804860E+02  0.25044218077E+02  0.33769673090E+02  0.00000000000E+00 0. -1.
</event>
<event>
 7    1  0.7012292E-013  0.5930194E+02  0.7816164E-02  0.1266605E+00
        -11   -1    0    0    0    0  0.00000000000E+00  0.00000000000E+00  0.45593999997E+02  0.45594000000E+02  0.51100000000E-03 0.  1.
         11   -1    0    0    0    0 -0.00000000000E+00 -0.00000000000E+00 -0.45593999997E+02  0.45594000000E+02  0.51100000000E-03 0. -1.
    9900012    2    1    2    0    0 -0.15537408173E+01 -0.15968984243E+01  0.31808118739E+02  0.59301943285E+02  0.49999998646E+02 0.  0.
         12    1    1    2    0    0  0.15537408173E+01  0.15968984243E+01 -0.31808118739E+02  0.31886056715E+02  0.00000000000E+00 0. -1.
         11    1    3    3    0    0 -0.11471658669E+02  0.77015421799E+01  0.18201539696E+02  0.22851887277E+02  0.51100000000E-03 0. -1.
        -11    1    3    3    0    0  0.13702311280E+01  0.23985323322E+01  0.20302944390E+02  0.20489998581E+02  0.51100000000E-03 0.  1.
         12    1    3    3    0    0  0.85476867240E+01 -0.11696972936E+02 -0.66963653466E+01  0.15960057427E+02  0.00000000000E+00 0. -1.
</event>
<event>
 7    1  0.7012292E-013  0.5930194E+02  0.7816164E-02  0.1266605E+00
        -11   -1    0    0    0    0  0.00000000000E+00  0.00000000000E+00  0.45593999997E+02  0.45594000000E+02  0.51100000000E-03 0.  1.
         11   -1    0    0    0    0 -0.00000000000E+00 -0.00000000000E+00 -0.45593999997E+02  0.45594000000E+02  0.51100000000E-03 0. -1.
    9900012    2    1    2    0    0  0.15786728797E+02  0.26655551469E+02  0.75486260413E+01  0.59301937444E+02  0.49999987993E+02 0.  0.
         12    1    1    2    0    0 -0.15786728797E+02 -0.26655551469E+02 -0.75486260413E+01  0.31886062556E+02  0.00000000000E+00 0. -1.
         11    1    3    3    0    0  0.14456174639E+00 -0.10561400927E+02  0.42713237012E+01  0.11393344288E+02  0.51100000000E-03 0. -1.
        -11    1    3    3    0    0  0.99709568542E+01  0.39498235820E+02  0.60716789476E+01  0.41187326922E+02  0.51100000000E-03 0.  1.
         12    1    3    3    0    0  0.56712101967E+01 -0.22812834247E+01 -0.27943766075E+01  0.67212662337E+01  0.00000000000E+00 0. -1.
</event>
<event>
 7    1  0.7012292E-013  0.5930195E+02  0.7816164E-02  0.1266605E+00
        -11   -1    0    0    0    0  0.00000000000E+00  0.00000000000E+00  0.45593999997E+02  0.45594000000E+02  0.51100000000E-03 0. -1.
         11   -1    0    0    0    0 -0.00000000000E+00 -0.00000000000E+00 -0.45593999997E+02  0.45594000000E+02  0.51100000000E-03 0.  1.
    9900012    2    1    2    0    0 -0.16931976991E+02 -0.24774792412E+02 -0.10781386471E+02  0.59301945397E+02  0.50000002497E+02 0.  0.
         12    1    1    2    0    0  0.16931976991E+02  0.24774792412E+02  0.10781386471E+02  0.31886054603E+02  0.00000000000E+00 0. -1.
         11    1    3    3    0    0  0.60060757134E+01 -0.13222792419E+02  0.52531173711E+01  0.15443782801E+02  0.51100000000E-03 0. -1.
        -11    1    3    3    0    0 -0.44611392818E+00 -0.62184827214E+01 -0.19510706735E+02  0.20482583395E+02  0.51100000000E-03 0.  1.
        -12    1    3    3    0    0 -0.22491938777E+02 -0.53335172722E+01  0.34762028927E+01  0.23375579201E+02  0.00000000000E+00 0.  1.
</event>
<event>
 7    1  0.7012292E-013  0.5930193E+02  0.7816164E-02  0.1266605E+00
        -11   -1    0    0    0    0  0.00000000000E+00  0.00000000000E+00  0.45593999997E+02  0.45594000000E+02  0.51100000000E-03 0.  1.
         11   -1    0    0    0    0 -0.00000000000E+00 -0.00000000000E+00 -0.45593999997E+02  0.45594000000E+02  0.51100000000E-03 0. -1.
    9900012    2    1    2    0    0  0.25507389607E+02  0.19118416403E+02 -0.76204614987E+00  0.59301929614E+02  0.49999973713E+02 0.  0.
         12    1    1    2    0    0 -0.25507389607E+02 -0.19118416403E+02  0.76204614987E+00  0.31886070386E+02  0.00000000000E+00 0. -1.
         11    1    3    3    0    0  0.30125385105E+01 -0.12854119683E+01  0.63439672706E+00  0.33361851978E+01  0.51100000000E-03 0. -1.
        -11    1    3    3    0    0  0.20326703859E+02  0.22963874136E+01  0.19478717816E+02  0.28246570287E+02  0.51100000000E-03 0.  1.
        -12    1    3    3    0    0  0.21681472368E+01  0.18107440958E+02 -0.20875160693E+02  0.27719174130E+02  0.00000000000E+00 0.  1.
</event>
<event>
 7    1  0.7012292E-013  0.5930192E+02  0.7816164E-02  0.1266605E+00
        -11   -1    0    0    0    0  0.00000000000E+00  0.00000000000E+00  0.45593999997E+02  0.45594000000E+02  0.51100000000E-03 0. -1.
         11   -1    0    0    0    0 -0.00000000000E+00 -0.00000000000E+00 -0.45593999997E+02  0.45594000000E+02  0.51100000000E-03 0.  1.
    9900012    2    1    2    0    0  0.28127982072E+02 -0.88887776039E+01 -0.12104877287E+02  0.59301924719E+02  0.49999964785E+02 0.  0.
         12    1    1    2    0    0 -0.28127982072E+02  0.88887776039E+01  0.12104877287E+02  0.31886075281E+02  0.00000000000E+00 0. -1.
         11    1    3    3    0    0  0.98574433965E+01 -0.23757769049E+01  0.77654777098E+01  0.12771693331E+02  0.51100000000E-03 0. -1.
        -11    1    3    3    0    0  0.23125277566E+02 -0.29370451514E+01  0.24222868783E+01  0.23436556290E+02  0.51100000000E-03 0.  1.
        -12    1    3    3    0    0 -0.48547388911E+01 -0.35759555476E+01 -0.22292641875E+02  0.23093675098E+02  0.00000000000E+00 0.  1.
</event>
<event>
 7    1  0.7012292E-013  0.5930194E+02  0.7816164E-02  0.1266605E+00
        -11   -1    0    0    0    0  0.00000000000E+00  0.00000000000E+00  0.45593999997E+02  0.45594000000E+02  0.51100000000E-03 0. -1.
         11   -1    0    0    0    0 -0.00000000000E+00 -0.00000000000E+00 -0.45593999997E+02  0.45594000000E+02  0.51100000000E-03 0.  1.
    9900012    2    1    2    0    0 -0.23453726662E+02 -0.10771038059E+01 -0.21575060352E+02  0.59301942292E+02  0.49999996835E+02 0.  0.
         12    1    1    2    0    0  0.23453726662E+02  0.10771038059E+01  0.21575060352E+02  0.31886057708E+02  0.00000000000E+00 0. -1.
         11    1    3    3    0    0 -0.34043180264E+01  0.44293521835E+01 -0.11896655410E+00  0.55877272028E+01  0.51100000000E-03 0. -1.
        -11    1    3    3    0    0 -0.29314387698E+02  0.85894381054E+01 -0.66334749633E+01  0.31258834966E+02  0.51100000000E-03 0.  1.
         12    1    3    3    0    0  0.92649790624E+01 -0.14095894095E+02 -0.14822618835E+02  0.22455380123E+02  0.00000000000E+00 0. -1.
</event>
<event>
 7    1  0.7012292E-013  0.5930193E+02  0.7816164E-02  0.1266605E+00
        -11   -1    0    0    0    0  0.00000000000E+00  0.00000000000E+00  0.45593999997E+02  0.45594000000E+02  0.51100000000E-03 0. -1.
         11   -1    0    0    0    0 -0.00000000000E+00 -0.00000000000E+00 -0.45593999997E+02  0.45594000000E+02  0.51100000000E-03 0.  1.
    9900012    2    1    2    0    0 -0.86502704263E+01 -0.18618188097E+02 -0.24397902542E+02  0.59301925376E+02  0.49999965984E+02 0.  0.
         12    1    1    2    0    0  0.86502704263E+01  0.18618188097E+02  0.24397902542E+02  0.31886074624E+02  0.00000000000E+00 0. -1.
         11    1    3    3    0    0  0.34613002869E+01  0.69902458260E+01 -0.12901612657E+02  0.15076330648E+02  0.51100000000E-03 0. -1.
        -11    1    3    3    0    0  0.95568261581E+01 -0.88885871508E+01 -0.10646793658E+02  0.16843221878E+02  0.51100000000E-03 0.  1.
         12    1    3    3    0    0 -0.21668396871E+02 -0.16719846773E+02 -0.84949622639E+00  0.27382372850E+02  0.00000000000E+00 0. -1.
</event>
<event>
 7    1  0.7012292E-013  0.5930195E+02  0.7816164E-02  0.1266605E+00
        -11   -1    0    0    0    0  0.00000000000E+00  0.00000000000E+00  0.45593999997E+02  0.45594000000E+02  0.51100000000E-03 0.  1.
         11   -1    0    0    0    0 -0.00000000000E+00 -0.00000000000E+00 -0.45593999997E+02  0.45594000000E+02  0.51100000000E-03 0. -1.
    9900012    2    1    2    0    0  0.30723525589E+02  0.79917643979E+01  0.29861007709E+01  0.59301951003E+02  0.50000012721E+02 0.  0.
         12    1    1    2    0    0 -0.30723525589E+02 -0.79917643979E+01 -0.29861007709E+01  0.31886048997E+02  0.00000000000E+00 0. -1.
         11    1    3    3    0    0  0.82103891852E+01 -0.13841457776E+02  0.72945923730E+01  0.17669395068E+02  0.51100000000E-03 0. -1.
        -11    1    3    3    0    0  0.43999620059E+01 -0.41765718943E+01  0.57710383792E+01  0.83730700867E+01  0.51100000000E-03 0.  1.
        -12    1    3    3    0    0  0.18113174398E+02  0.26009794068E+02 -0.10079529981E+02  0.33259485848E+02  0.00000000000E+00 0.  1.
</event>
<event>
 7    1  0.7749192E-013  0.5930192E+02  0.7816164E-02  0.1266605E+00
        -11   -1    0    0    0    0  0.00000000000E+00  0.00000000000E+00  0.45593999997E+02  0.45594000000E+02  0.51100000000E-03 0. -1.
         11   -1    0    0    0    0 -0.00000000000E+00 -0.00000000000E+00 -0.45593999997E+02  0.45594000000E+02  0.51100000000E-03 0.  1.
    9900012    2    1    2    0    0 -0.23102004497E+02 -0.72867278790E+01 -0.20734586134E+02  0.59301920324E+02  0.49999956770E+02 0.  0.
         12    1    1    2    0    0  0.23102004497E+02  0.72867278790E+01  0.20734586134E+02  0.31886079676E+02  0.00000000000E+00 0. -1.
         11    1    3    3    0    0 -0.83721321063E+01  0.67884787847E+01 -0.34376833249E+01  0.11313430387E+02  0.51100000000E-03 0.  1.
        -11    1    3    3    0    0 -0.23114987460E+02 -0.20874271636E+02 -0.19800658878E+02  0.36906692535E+02  0.51100000000E-03 0. -1.
         12    1    3    3    0    0  0.83851150686E+01  0.67990649721E+01  0.25037560690E+01  0.11081797402E+02  0.00000000000E+00 0. -1.
</event>
<event>
 7    1  0.7012292E-013  0.5930197E+02  0.7816164E-02  0.1266605E+00
        -11   -1    0    0    0    0  0.00000000000E+00  0.00000000000E+00  0.45593999997E+02  0.45594000000E+02  0.51100000000E-03 0.  1.
         11   -1    0    0    0    0 -0.00000000000E+00 -0.00000000000E+00 -0.45593999997E+02  0.45594000000E+02  0.51100000000E-03 0. -1.
    9900012    2    1    2    0    0 -0.29644472930E+02 -0.11731849522E+02  0.53654972963E+00  0.59301969295E+02  0.50000046081E+02 0.  0.
         12    1    1    2    0    0  0.29644472930E+02  0.11731849522E+02 -0.53654972963E+00  0.31886030705E+02  0.00000000000E+00 0. -1.
         11    1    3    3    0    0 -0.28789547912E+02  0.61204716409E+01 -0.18477140877E+01  0.29490884858E+02  0.51100000000E-03 0.  1.
        -11    1    3    3    0    0 -0.73871643106E+01 -0.18787776721E+02 -0.40549151136E+01  0.20591092431E+02  0.51100000000E-03 0. -1.
         12    1    3    3    0    0  0.65322392927E+01  0.93545555754E+00  0.64391789310E+01  0.92199920056E+01  0.00000000000E+00 0. -1.
</event>
<event>
 7    1  0.7012292E-013  0.5930195E+02  0.7816164E-02  0.1266605E+00
        -11   -1    0    0    0    0  0.00000000000E+00  0.00000000000E+00  0.45593999997E+02  0.45594000000E+02  0.51100000000E-03 0.  1.
         11   -1    0    0    0    0 -0.00000000000E+00 -0.00000000000E+00 -0.45593999997E+02  0.45594000000E+02  0.51100000000E-03 0. -1.
    9900012    2    1    2    0    0  0.33254893830E+01  0.15197942990E+01  0.31675724037E+02  0.59301950580E+02  0.50000011949E+02 0.  0.
         12    1    1    2    0    0 -0.33254893830E+01 -0.15197942990E+01 -0.31675724037E+02  0.31886049420E+02  0.00000000000E+00 0. -1.
         11    1    3    3    0    0  0.64410913387E+01 -0.35423107310E+01  0.14396701568E+02  0.16164796295E+02  0.51100000000E-03 0.  1.
        -11    1    3    3    0    0  0.92562992618E+01  0.11895615078E+01  0.25925736518E+02  0.27554272751E+02  0.51100000000E-03 0. -1.
         12    1    3    3    0    0 -0.12371901217E+02  0.38725435222E+01 -0.86467140485E+01  0.15582881534E+02  0.00000000000E+00 0. -1.
</event>
<event>
 7    1  0.7012292E-013  0.5930192E+02  0.7816164E-02  0.1266605E+00
        -11   -1    0    0    0    0  0.00000000000E+00  0.00000000000E+00  0.45593999997E+02  0.45594000000E+02  0.51100000000E-03 0.  1.
         11   -1    0    0    0    0 -0.00000000000E+00 -0.00000000000E+00 -0.45593999997E+02  0.45594000000E+02  0.51100000000E-03 0. -1.
    9900012    2    1    2    0    0 -0.91184274730E+01  0.21801380007E+02  0.21407386483E+02  0.59301920187E+02  0.49999956520E+02 0.  0.
         12    1    1    2    0    0  0.91184274730E+01 -0.21801380007E+02 -0.21407386483E+02  0.31886079813E+02  0.00000000000E+00 0. -1.
         11    1    3    3    0    0  0.40359625793E+01  0.19586696811E+02 -0.25202728288E+01  0.20156375203E+02  0.51100000000E-03 0. -1.
        -11    1    3    3    0    0 -0.54195884339E+01  0.14947346770E+02  0.14476351895E+02  0.21502555167E+02  0.51100000000E-03 0.  1.
        -12    1    3    3    0    0 -0.77348016185E+01 -0.12732663575E+02  0.94513074167E+01  0.17642989816E+02  0.00000000000E+00 0.  1.
</event>
<event>
 7    1  0.7012292E-013  0.5930208E+02  0.7816164E-02  0.1266604E+00
        -11   -1    0    0    0    0  0.00000000000E+00  0.00000000000E+00  0.45593999997E+02  0.45594000000E+02  0.51100000000E-03 0.  1.
         11   -1    0    0    0    0 -0.00000000000E+00 -0.00000000000E+00 -0.45593999997E+02  0.45594000000E+02  0.51100000000E-03 0. -1.
    9900012    2    1    2    0    0  0.18525439622E+02 -0.10453751530E+02 -0.23753714224E+02  0.59302081890E+02  0.50000251428E+02 0.  0.
         12    1    1    2    0    0 -0.18525439622E+02  0.10453751530E+02  0.23753714224E+02  0.31885918110E+02  0.00000000000E+00 0. -1.
         11    1    3    3    0    0  0.71114825637E+01 -0.16212601389E+02 -0.14267716726E+02  0.22737400223E+02  0.51100000000E-03 0. -1.
        -11    1    3    3    0    0 -0.45536365685E+01  0.11790631506E+02  0.55626019748E+01  0.13809313462E+02  0.51100000000E-03 0.  1.
         12    1    3    3    0    0  0.15967593627E+02 -0.60317816462E+01 -0.15048599473E+02  0.22755368205E+02  0.00000000000E+00 0. -1.
</event>
<event>
 7    1  0.7012292E-013  0.5930194E+02  0.7816164E-02  0.1266605E+00
        -11   -1    0    0    0    0  0.00000000000E+00  0.00000000000E+00  0.45593999997E+02  0.45594000000E+02  0.51100000000E-03 0.  1.
         11   -1    0    0    0    0 -0.00000000000E+00 -0.00000000000E+00 -0.45593999997E+02  0.45594000000E+02  0.51100000000E-03 0. -1.
    9900012    2    1    2    0    0  0.16267449608E+02 -0.64359704800E+01  0.26658377102E+02  0.59301941879E+02  0.49999996082E+02 0.  0.
         12    1    1    2    0    0 -0.16267449608E+02  0.64359704800E+01 -0.26658377102E+02  0.31886058121E+02  0.00000000000E+00 0. -1.
         11    1    3    3    0    0  0.24713263738E+01  0.66470511445E+01  0.96777023303E+01  0.11997860877E+02  0.51100000000E-03 0. -1.
        -11    1    3    3    0    0  0.71924466146E+01  0.14286200916E+02  0.63704515495E+01  0.17216546637E+02  0.51100000000E-03 0.  1.
        -12    1    3    3    0    0  0.66036766198E+01 -0.27369222540E+02  0.10610223222E+02  0.30087534365E+02  0.00000000000E+00 0.  1.
</event>
<event>
 7    1  0.7012292E-013  0.5930192E+02  0.7816164E-02  0.1266605E+00
        -11   -1    0    0    0    0  0.00000000000E+00  0.00000000000E+00  0.45593999997E+02  0.45594000000E+02  0.51100000000E-03 0.  1.
         11   -1    0    0    0    0 -0.00000000000E+00 -0.00000000000E+00 -0.45593999997E+02  0.45594000000E+02  0.51100000000E-03 0. -1.
    9900012    2    1    2    0    0 -0.18791887694E+02 -0.29269332886E+01  0.25593359786E+02  0.59301920801E+02  0.49999957639E+02 0.  0.
         12    1    1    2    0    0  0.18791887694E+02  0.29269332886E+01 -0.25593359786E+02  0.31886079199E+02  0.00000000000E+00 0. -1.
         11    1    3    3    0    0  0.17280379883E+01 -0.61222745054E+01  0.97372795379E+00  0.64355657714E+01  0.51100000000E-03 0. -1.
        -11    1    3    3    0    0  0.70556943535E+01  0.78008348069E+01  0.22489601256E+02  0.24827766943E+02  0.51100000000E-03 0.  1.
         12    1    3    3    0    0 -0.27575620036E+02 -0.46054935901E+01  0.21300305762E+01  0.28038588086E+02  0.00000000000E+00 0. -1.
</event>
<event>
 7    1  0.7012292E-013  0.5930201E+02  0.7816164E-02  0.1266605E+00
        -11   -1    0    0    0    0  0.00000000000E+00  0.00000000000E+00  0.45593999997E+02  0.45594000000E+02  0.51100000000E-03 0.  1.
         11   -1    0    0    0    0 -0.00000000000E+00 -0.00000000000E+00 -0.45593999997E+02  0.45594000000E+02  0.51100000000E-03 0. -1.
    9900012    2    1    2    0    0  0.93110472899E+01  0.30307208929E+02  0.33902663544E+01  0.59302009022E+02  0.50000118534E+02 0.  0.
         12    1    1    2    0    0 -0.93110472899E+01 -0.30307208929E+02 -0.33902663544E+01  0.31885990978E+02  0.00000000000E+00 0. -1.
         11    1    3    3    0    0  0.37223007308E+01  0.55388824943E+01 -0.96779332716E+00  0.67432459692E+01  0.51100000000E-03 0. -1.
        -11    1    3    3    0    0 -0.11294355103E+02  0.21601234923E+02 -0.13429979845E+02  0.27830561732E+02  0.51100000000E-03 0.  1.
         12    1    3    3    0    0  0.16883101662E+02  0.31670915113E+01  0.17788039527E+02  0.24728201321E+02  0.00000000000E+00 0. -1.
</event>
<event>
 7    1  0.7012292E-013  0.5930200E+02  0.7816164E-02  0.1266605E+00
        -11   -1    0    0    0    0  0.00000000000E+00  0.00000000000E+00  0.45593999997E+02  0.45594000000E+02  0.51100000000E-03 0. -1.
         11   -1    0    0    0    0 -0.00000000000E+00 -0.00000000000E+00 -0.45593999997E+02  0.45594000000E+02  0.51100000000E-03 0.  1.
    9900012    2    1    2    0    0 -0.58243495127E+01 -0.17456305177E+02 -0.26039803332E+02  0.59302000011E+02  0.50000102100E+02 0.  0.
         12    1    1    2    0    0  0.58243495127E+01  0.17456305177E+02  0.26039803332E+02  0.31885999989E+02  0.00000000000E+00 0. -1.
         11    1    3    3    0    0 -0.93429753981E+01 -0.18655224804E+02  0.46193754546E+00  0.20869163575E+02  0.51100000000E-03 0. -1.
        -11    1    3    3    0    0  0.13141576420E+00  0.28900345392E+01  0.54965214809E+01  0.62113861892E+01  0.51100000000E-03 0.  1.
        -12    1    3    3    0    0  0.33872101212E+01 -0.16911149131E+01 -0.31998262359E+02  0.32221450247E+02  0.00000000000E+00 0.  1.
</event>
<event>
 7    1  0.7012292E-013  0.5930194E+02  0.7816164E-02  0.1266605E+00
        -11   -1    0    0    0    0  0.00000000000E+00  0.00000000000E+00  0.45593999997E+02  0.45594000000E+02  0.51100000000E-03 0. -1.
         11   -1    0    0    0    0 -0.00000000000E+00 -0.00000000000E+00 -0.45593999997E+02  0.45594000000E+02  0.51100000000E-03 0.  1.
    9900012    2    1    2    0    0 -0.87395378822E+01  0.27185725229E+02 -0.14187238901E+02  0.59301938370E+02  0.49999989682E+02 0.  0.
         12    1    1    2    0    0  0.87395378822E+01 -0.27185725229E+02  0.14187238901E+02  0.31886061630E+02  0.00000000000E+00 0. -1.
         11    1    3    3    0    0  0.57482603063E+01  0.48160685599E+00 -0.99395531114E+00  0.58534083349E+01  0.51100000000E-03 0.  1.
        -11    1    3    3    0    0 -0.25305719671E+02  0.95883458912E+01 -0.18173170391E+02  0.32597238339E+02  0.51100000000E-03 0. -1.
         12    1    3    3    0    0  0.10817921483E+02  0.17115772482E+02  0.49798868005E+01  0.20851291696E+02  0.00000000000E+00 0. -1.
</event>
<event>
 7    1  0.7012292E-013  0.5930191E+02  0.7816164E-02  0.1266605E+00
        -11   -1    0    0    0    0  0.00000000000E+00  0.00000000000E+00  0.45593999997E+02  0.45594000000E+02  0.51100000000E-03 0.  1.
         11   -1    0    0    0    0 -0.00000000000E+00 -0.00000000000E+00 -0.45593999997E+02  0.45594000000E+02  0.51100000000E-03 0. -1.
    9900012    2    1    2    0    0 -0.21244708914E+02  0.23777541158E+02 -0.11540915515E+00  0.59301914639E+02  0.49999946402E+02 0.  0.
         12    1    1    2    0    0  0.21244708914E+02 -0.23777541158E+02  0.11540915515E+00  0.31886085361E+02  0.00000000000E+00 0. -1.
         11    1    3    3    0    0 -0.78986056114E+01 -0.91503592694E+01 -0.79467450121E+01  0.14466091452E+02  0.51100000000E-03 0. -1.
        -11    1    3    3    0    0 -0.16589953150E+02  0.11812425609E+02 -0.34831720362E+01  0.20661375365E+02  0.51100000000E-03 0.  1.
        -12    1    3    3    0    0  0.32438498468E+01  0.21115474818E+02  0.11314507893E+02  0.24174447822E+02  0.00000000000E+00 0.  1.
</event>
<event>
 7    1  0.7012292E-013  0.5930168E+02  0.7816164E-02  0.1266606E+00
        -11   -1    0    0    0    0  0.00000000000E+00  0.00000000000E+00  0.45593999997E+02  0.45594000000E+02  0.51100000000E-03 0. -1.
         11   -1    0    0    0    0 -0.00000000000E+00 -0.00000000000E+00 -0.45593999997E+02  0.45594000000E+02  0.51100000000E-03 0.  1.
    9900012    2    1    2    0    0 -0.17769338263E+02  0.68984307311E+01 -0.25561684603E+02  0.59301679287E+02  0.49999517175E+02 0.  0.
         12    1    1    2    0    0  0.17769338263E+02 -0.68984307311E+01  0.25561684603E+02  0.31886320713E+02  0.00000000000E+00 0. -1.
         11    1    3    3    0    0  0.17048482825E+01  0.81548993294E+01  0.62498093588E+01  0.10414845559E+02  0.51100000000E-03 0. -1.
        -11    1    3    3    0    0 -0.85108126216E+01 -0.15558097895E+02 -0.92162943317E+01  0.19985705469E+02  0.51100000000E-03 0.  1.
         12    1    3    3    0    0 -0.10963373924E+02  0.14301629297E+02 -0.22595199630E+02  0.28901128260E+02  0.00000000000E+00 0. -1.
</event>
<event>
 7    1  0.7012292E-013  0.5930193E+02  0.7816164E-02  0.1266605E+00
        -11   -1    0    0    0    0  0.00000000000E+00  0.00000000000E+00  0.45593999997E+02  0.45594000000E+02  0.51100000000E-03 0. -1.
         11   -1    0    0    0    0 -0.00000000000E+00 -0.00000000000E+00 -0.45593999997E+02  0.45594000000E+02  0.51100000000E-03 0.  1.
    9900012    2    1    2    0    0  0.14809975690E+02  0.16162049502E+02 -0.23155429949E+02  0.59301934703E+02  0.49999982993E+02 0.  0.
         12    1    1    2    0    0 -0.14809975690E+02 -0.16162049502E+02  0.23155429949E+02  0.31886065297E+02  0.00000000000E+00 0. -1.
         11    1    3    3    0    0 -0.33488877255E+01 -0.72370117297E+00 -0.41485006870E+00  0.34512161953E+01  0.51100000000E-03 0. -1.
        -11    1    3    3    0    0  0.12214568357E+01 -0.14916965603E+02 -0.72457988275E+01  0.16628572414E+02  0.51100000000E-03 0.  1.
        -12    1    3    3    0    0  0.16937406580E+02  0.31802716278E+02 -0.15494781052E+02  0.39222146094E+02  0.00000000000E+00 0.  1.
</event>
<event>
 7    1  0.7012292E-013  0.5930199E+02  0.7816164E-02  0.1266605E+00
        -11   -1    0    0    0    0  0.00000000000E+00  0.00000000000E+00  0.45593999997E+02  0.45594000000E+02  0.51100000000E-03 0.  1.
         11   -1    0    0    0    0 -0.00000000000E+00 -0.00000000000E+00 -0.45593999997E+02  0.45594000000E+02  0.51100000000E-03 0. -1.
    9900012    2    1    2    0    0  0.97186981845E+01  0.14544809622E+02  0.26659198873E+02  0.59301992632E+02  0.50000088642E+02 0.  0.
         12    1    1    2    0    0 -0.97186981845E+01 -0.14544809622E+02 -0.26659198873E+02  0.31886007368E+02  0.00000000000E+00 0. -1.
         11    1    3    3    0    0  0.10201070497E+01 -0.95643543706E+01  0.38436496441E+01  0.10358143452E+02  0.51100000000E-03 0. -1.
        -11    1    3    3    0    0  0.17087222443E+02  0.20691252374E+01  0.17942094337E+02  0.24863089098E+02  0.51100000000E-03 0.  1.
         12    1    3    3    0    0 -0.83886313079E+01  0.22040038755E+02  0.48734548916E+01  0.24080760082E+02  0.00000000000E+00 0. -1.
</event>
<event>
 7    1  0.8585766E-013  0.5930196E+02  0.7816164E-02  0.1266605E+00
        -11   -1    0    0    0    0  0.00000000000E+00  0.00000000000E+00  0.45593999997E+02  0.45594000000E+02  0.51100000000E-03 0. -1.
         11   -1    0    0    0    0 -0.00000000000E+00 -0.00000000000E+00 -0.45593999997E+02  0.45594000000E+02  0.51100000000E-03 0.  1.
    9900012    2    1    2    0    0  0.14118675865E+02  0.11819359226E+01 -0.28565459132E+02  0.59301961736E+02  0.50000032296E+02 0.  0.
         12    1    1    2    0    0 -0.14118675865E+02 -0.11819359226E+01  0.28565459132E+02  0.31886038264E+02  0.00000000000E+00 0. -1.
         11    1    3    3    0    0 -0.32448548297E+01 -0.10779466813E+02 -0.16704010856E+01  0.11380519658E+02  0.51100000000E-03 0. -1.
        -11    1    3    3    0    0  0.23688690134E+02  0.77505914232E+01 -0.30601214750E+02  0.39467202233E+02  0.51100000000E-03 0.  1.
         12    1    3    3    0    0 -0.63251594396E+01  0.42108113128E+01  0.37061567031E+01  0.84542398450E+01  0.00000000000E+00 0. -1.
</event>
<event>
 7    1  0.7012292E-013  0.5930196E+02  0.7816164E-02  0.1266605E+00
        -11   -1    0    0    0    0  0.00000000000E+00  0.00000000000E+00  0.45593999997E+02  0.45594000000E+02  0.51100000000E-03 0. -1.
         11   -1    0    0    0    0 -0.00000000000E+00 -0.00000000000E+00 -0.45593999997E+02  0.45594000000E+02  0.51100000000E-03 0.  1.
    9900012    2    1    2    0    0  0.28899443541E+02  0.91412436966E+01 -0.98984530536E+01  0.59301960011E+02  0.50000029150E+02 0.  0.
         12    1    1    2    0    0 -0.28899443541E+02 -0.91412436966E+01  0.98984530536E+01  0.31886039989E+02  0.00000000000E+00 0. -1.
         11    1    3    3    0    0  0.37705087545E+01  0.24235153026E+01  0.80760461310E+01  0.92364865647E+01  0.51100000000E-03 0. -1.
        -11    1    3    3    0    0  0.29690058457E+02 -0.73383823815E+01 -0.62830854823E+01  0.31222245124E+02  0.51100000000E-03 0.  1.
         12    1    3    3    0    0 -0.45611236698E+01  0.14056110775E+02 -0.11691413702E+02  0.18843228323E+02  0.00000000000E+00 0. -1.
</event>
<event>
 7    1  0.7012292E-013  0.5930195E+02  0.7816164E-02  0.1266605E+00
        -11   -1    0    0    0    0  0.00000000000E+00  0.00000000000E+00  0.45593999997E+02  0.45594000000E+02  0.51100000000E-03 0. -1.
         11   -1    0    0    0    0 -0.00000000000E+00 -0.00000000000E+00 -0.45593999997E+02  0.45594000000E+02  0.51100000000E-03 0.  1.
    9900012    2    1    2    0    0  0.87582033833E+01  0.26215592413E+02  0.15898319310E+02  0.59301953382E+02  0.50000017059E+02 0.  0.
         12    1    1    2    0    0 -0.87582033833E+01 -0.26215592413E+02 -0.15898319310E+02  0.31886046618E+02  0.00000000000E+00 0. -1.
         11    1    3    3    0    0  0.19772040474E+02  0.10338267990E+02  0.18098919837E+02  0.28729501720E+02  0.51100000000E-03 0.  1.
        -11    1    3    3    0    0 -0.47354483114E+01  0.19357991882E+02  0.48499771873E+01  0.20510450980E+02  0.51100000000E-03 0. -1.
        -12    1    3    3    0    0 -0.62783887797E+01 -0.34806674584E+01 -0.70505777144E+01  0.10062000682E+02  0.00000000000E+00 0.  1.
</event>
<event>
 7    1  0.7012292E-013  0.5930196E+02  0.7816164E-02  0.1266605E+00
        -11   -1    0    0    0    0  0.00000000000E+00  0.00000000000E+00  0.45593999997E+02  0.45594000000E+02  0.51100000000E-03 0. -1.
         11   -1    0    0    0    0 -0.00000000000E+00 -0.00000000000E+00 -0.45593999997E+02  0.45594000000E+02  0.51100000000E-03 0.  1.
    9900012    2    1    2    0    0 -0.95822338264E+00 -0.42550128724E+01 -0.31586327278E+02  0.59301962342E+02  0.50000033401E+02 0.  0.
         12    1    1    2    0    0  0.95822338264E+00  0.42550128724E+01  0.31586327278E+02  0.31886037658E+02  0.00000000000E+00 0. -1.
         11    1    3    3    0    0 -0.62718697291E+01 -0.39857076695E+01 -0.19841994137E+02  0.21187896241E+02  0.51100000000E-03 0. -1.
        -11    1    3    3    0    0 -0.90365604846E+01 -0.10040238683E+02 -0.15282231830E+02  0.20396382723E+02  0.51100000000E-03 0.  1.
         12    1    3    3    0    0  0.14350206831E+02  0.97709334802E+01  0.35378986889E+01  0.17717683378E+02  0.00000000000E+00 0. -1.
</event>
<event>
 7    1  0.7012292E-013  0.5930194E+02  0.7816164E-02  0.1266605E+00
        -11   -1    0    0    0    0  0.00000000000E+00  0.00000000000E+00  0.45593999997E+02  0.45594000000E+02  0.51100000000E-03 0. -1.
         11   -1    0    0    0    0 -0.00000000000E+00 -0.00000000000E+00 -0.45593999997E+02  0.45594000000E+02  0.51100000000E-03 0.  1.
    9900012    2    1    2    0    0  0.58156693677E+01 -0.13138505949E+02 -0.28465393198E+02  0.59301937862E+02  0.49999988755E+02 0.  0.
         12    1    1    2    0    0 -0.58156693677E+01  0.13138505949E+02  0.28465393198E+02  0.31886062138E+02  0.00000000000E+00 0. -1.
         11    1    3    3    0    0  0.62038324780E+01 -0.10413157272E+02 -0.13760053329E+01  0.12198966052E+02  0.51100000000E-03 0. -1.
        -11    1    3    3    0    0  0.18830892741E+02  0.11494468062E+01 -0.14621433012E+02  0.23868599728E+02  0.51100000000E-03 0.  1.
        -12    1    3    3    0    0 -0.19219055851E+02 -0.38747954827E+01 -0.12467954853E+02  0.23234372082E+02  0.00000000000E+00 0.  1.
</event>
<event>
 7    1  0.7012292E-013  0.5930195E+02  0.7816164E-02  0.1266605E+00
        -11   -1    0    0    0    0  0.00000000000E+00  0.00000000000E+00  0.45593999997E+02  0.45594000000E+02  0.51100000000E-03 0.  1.
         11   -1    0    0    0    0 -0.00000000000E+00 -0.00000000000E+00 -0.45593999997E+02  0.45594000000E+02  0.51100000000E-03 0. -1.
    9900012    2    1    2    0    0 -0.27615331177E+02  0.14869854564E+02 -0.57446569455E+01  0.59301950163E+02  0.50000011189E+02 0.  0.
         12    1    1    2    0    0  0.27615331177E+02 -0.14869854564E+02  0.57446569455E+01  0.31886049837E+02  0.00000000000E+00 0. -1.
         11    1    3    3    0    0  0.69545657105E+01  0.86070925812E+01 -0.17055289072E+02  0.20330541373E+02  0.51100000000E-03 0. -1.
        -11    1    3    3    0    0 -0.34875790855E+01  0.48102595452E+01  0.34774187858E+01  0.68843479316E+01  0.51100000000E-03 0.  1.
        -12    1    3    3    0    0 -0.31082317802E+02  0.14525024378E+01  0.78332133408E+01  0.32087060858E+02  0.00000000000E+00 0.  1.
</event>
<event>
 7    1  0.7012292E-013  0.5930196E+02  0.7816164E-02  0.1266605E+00
        -11   -1    0    0    0    0  0.00000000000E+00  0.00000000000E+00  0.45593999997E+02  0.45594000000E+02  0.51100000000E-03 0. -1.
         11   -1    0    0    0    0 -0.00000000000E+00 -0.00000000000E+00 -0.45593999997E+02  0.45594000000E+02  0.51100000000E-03 0.  1.
    9900012    2    1    2    0    0 -0.29112571550E+02 -0.12763430424E+02  0.25045332389E+01  0.59301958145E+02  0.50000025746E+02 0.  0.
         12    1    1    2    0    0  0.29112571550E+02  0.12763430424E+02 -0.25045332389E+01  0.31886041855E+02  0.00000000000E+00 0. -1.
         11    1    3    3    0    0 -0.18111725288E+02 -0.12059985045E+02 -0.29311826241E+01  0.21956084898E+02  0.51100000000E-03 0. -1.
        -11    1    3    3    0    0 -0.17092158731E+02  0.84071846291E+01 -0.74294950344E+01  0.20445538393E+02  0.51100000000E-03 0.  1.
        -12    1    3    3    0    0  0.60913124687E+01 -0.91106300082E+01  0.12865210897E+02  0.16900334854E+02  0.00000000000E+00 0.  1.
</event>
<event>
 7    1  0.7012292E-013  0.5930194E+02  0.7816164E-02  0.1266605E+00
        -11   -1    0    0    0    0  0.00000000000E+00  0.00000000000E+00  0.45593999997E+02  0.45594000000E+02  0.51100000000E-03 0. -1.
         11   -1    0    0    0    0 -0.00000000000E+00 -0.00000000000E+00 -0.45593999997E+02  0.45594000000E+02  0.51100000000E-03 0.  1.
    9900012    2    1    2    0    0  0.25754513594E+02  0.90285959419E+01 -0.16489705593E+02  0.59301938693E+02  0.49999990270E+02 0.  0.
         12    1    1    2    0    0 -0.25754513594E+02 -0.90285959419E+01  0.16489705593E+02  0.31886061307E+02  0.00000000000E+00 0. -1.
         11    1    3    3    0    0  0.19996067052E+02  0.23173586829E+02 -0.60212069917E+01  0.31194755295E+02  0.51100000000E-03 0. -1.
        -11    1    3    3    0    0  0.55794704579E+01  0.40632293930E+01 -0.64779433398E+01  0.94659428408E+01  0.51100000000E-03 0.  1.
         12    1    3    3    0    0  0.17897608469E+00 -0.18208220280E+02 -0.39905552610E+01  0.18641240556E+02  0.00000000000E+00 0. -1.
</event>
<event>
 7    1  0.7012292E-013  0.5930193E+02  0.7816164E-02  0.1266605E+00
        -11   -1    0    0    0    0  0.00000000000E+00  0.00000000000E+00  0.45593999997E+02  0.45594000000E+02  0.51100000000E-03 0. -1.
         11   -1    0    0    0    0 -0.00000000000E+00 -0.00000000000E+00 -0.45593999997E+02  0.45594000000E+02  0.51100000000E-03 0.  1.
    9900012    2    1    2    0    0  0.27678474283E+02  0.15604592910E+02 -0.26684297519E+01  0.59301925047E+02  0.49999965384E+02 0.  0.
         12    1    1    2    0    0 -0.27678474283E+02 -0.15604592910E+02  0.26684297519E+01  0.31886074953E+02  0.00000000000E+00 0. -1.
         11    1    3    3    0    0  0.10382294928E+01 -0.23566903901E+01 -0.37644985015E+01  0.45610699735E+01  0.51100000000E-03 0. -1.
        -11    1    3    3    0    0  0.17033934752E+02  0.29438809832E+02 -0.10731425825E+02  0.35664575673E+02  0.51100000000E-03 0.  1.
         12    1    3    3    0    0  0.96063100385E+01 -0.11477526532E+02  0.11827494575E+02  0.19076279400E+02  0.00000000000E+00 0. -1.
</event>
<event>
 7    1  0.7012292E-013  0.5930192E+02  0.7816164E-02  0.1266605E+00
        -11   -1    0    0    0    0  0.00000000000E+00  0.00000000000E+00  0.45593999997E+02  0.45594000000E+02  0.51100000000E-03 0.  1.
         11   -1    0    0    0    0 -0.00000000000E+00 -0.00000000000E+00 -0.45593999997E+02  0.45594000000E+02  0.51100000000E-03 0. -1.
    9900012    2    1    2    0    0 -0.14451771803E+02  0.13770002280E+02  0.24864736953E+02  0.59301924437E+02  0.49999964272E+02 0.  0.
         12    1    1    2    0    0  0.14451771803E+02 -0.13770002280E+02 -0.24864736953E+02  0.31886075563E+02  0.00000000000E+00 0. -1.
         11    1    3    3    0    0 -0.10043089616E+02  0.11062109800E+02  0.17757617089E+02  0.23207043913E+02  0.51100000000E-03 0.  1.
        -11    1    3    3    0    0 -0.85251883269E+01 -0.13750740021E+02  0.98018227214E+01  0.18916591026E+02  0.51100000000E-03 0. -1.
         12    1    3    3    0    0  0.41165061395E+01  0.16458632501E+02 -0.26947028567E+01  0.17178289498E+02  0.00000000000E+00 0. -1.
</event>
<event>
 7    1  0.7012292E-013  0.5930167E+02  0.7816164E-02  0.1266606E+00
        -11   -1    0    0    0    0  0.00000000000E+00  0.00000000000E+00  0.45593999997E+02  0.45594000000E+02  0.51100000000E-03 0.  1.
         11   -1    0    0    0    0 -0.00000000000E+00 -0.00000000000E+00 -0.45593999997E+02  0.45594000000E+02  0.51100000000E-03 0. -1.
    9900012    2    1    2    0    0 -0.71025750765E+01  0.13215064858E+02  0.28136340569E+02  0.59301667936E+02  0.49999496472E+02 0.  0.
         12    1    1    2    0    0  0.71025750765E+01 -0.13215064858E+02 -0.28136340569E+02  0.31886332064E+02  0.00000000000E+00 0. -1.
         11    1    3    3    0    0  0.36820300200E+00  0.15904942053E+02 -0.51157776402E+01  0.16711491145E+02  0.51100000000E-03 0. -1.
        -11    1    3    3    0    0  0.32226358305E+01  0.89588610780E+01  0.19221157377E+02  0.21449929246E+02  0.51100000000E-03 0.  1.
        -12    1    3    3    0    0 -0.10693413909E+02 -0.11648738273E+02  0.14030960832E+02  0.21140247545E+02  0.00000000000E+00 0.  1.
</event>
<event>
 7    1  0.7012292E-013  0.5930199E+02  0.7816164E-02  0.1266605E+00
        -11   -1    0    0    0    0  0.00000000000E+00  0.00000000000E+00  0.45593999997E+02  0.45594000000E+02  0.51100000000E-03 0.  1.
         11   -1    0    0    0    0 -0.00000000000E+00 -0.00000000000E+00 -0.45593999997E+02  0.45594000000E+02  0.51100000000E-03 0. -1.
    9900012    2    1    2    0    0  0.16529330826E+02 -0.15242260009E+02  0.22609125284E+02  0.59301987176E+02  0.50000078691E+02 0.  0.
         12    1    1    2    0    0 -0.16529330826E+02  0.15242260009E+02 -0.22609125284E+02  0.31886012824E+02  0.00000000000E+00 0. -1.
         11    1    3    3    0    0 -0.54488232755E+01 -0.17359122824E+02 -0.30633997189E+00  0.18196776218E+02  0.51100000000E-03 0. -1.
        -11    1    3    3    0    0 -0.32674447658E+01  0.29272820552E+01 -0.26835589466E+01  0.51426320508E+01  0.51100000000E-03 0.  1.
        -12    1    3    3    0    0  0.25245598867E+02 -0.81041924101E+00  0.25599024202E+02  0.35962578907E+02  0.00000000000E+00 0.  1.
</event>
<event>
 7    1  0.7012292E-013  0.5930196E+02  0.7816164E-02  0.1266605E+00
        -11   -1    0    0    0    0  0.00000000000E+00  0.00000000000E+00  0.45593999997E+02  0.45594000000E+02  0.51100000000E-03 0. -1.
         11   -1    0    0    0    0 -0.00000000000E+00 -0.00000000000E+00 -0.45593999997E+02  0.45594000000E+02  0.51100000000E-03 0.  1.
    9900012    2    1    2    0    0 -0.34131028768E+01  0.57423026117E+01 -0.31178461025E+02  0.59301956934E+02  0.50000023538E+02 0.  0.
         12    1    1    2    0    0  0.34131028768E+01 -0.57423026117E+01  0.31178461025E+02  0.31886043066E+02  0.00000000000E+00 0. -1.
         11    1    3    3    0    0 -0.84688070452E+01  0.95484129828E+00 -0.21594955627E+02  0.23215824850E+02  0.51100000000E-03 0.  1.
        -11    1    3    3    0    0  0.23354617808E+01  0.75476006716E+01  0.11884573073E+02  0.14271080373E+02  0.51100000000E-03 0. -1.
         12    1    3    3    0    0  0.27202423877E+01 -0.27601393582E+01 -0.21468078471E+02  0.21815051711E+02  0.00000000000E+00 0. -1.
</event>
<event>
 7    1  0.7012292E-013  0.5930194E+02  0.7816164E-02  0.1266605E+00
        -11   -1    0    0    0    0  0.00000000000E+00  0.00000000000E+00  0.45593999997E+02  0.45594000000E+02  0.51100000000E-03 0.  1.
         11   -1    0    0    0    0 -0.00000000000E+00 -0.00000000000E+00 -0.45593999997E+02  0.45594000000E+02  0.51100000000E-03 0. -1.
    9900012    2    1    2    0    0 -0.10435697681E+02 -0.28903853034E+02 -0.85079015668E+01  0.59301938854E+02  0.49999990565E+02 0.  0.
         12    1    1    2    0    0  0.10435697681E+02  0.28903853034E+02  0.85079015668E+01  0.31886061146E+02  0.00000000000E+00 0. -1.
         11    1    3    3    0    0  0.96847151897E+00 -0.34641206545E+01 -0.17584152925E+02  0.17948272990E+02  0.51100000000E-03 0. -1.
        -11    1    3    3    0    0 -0.12869064293E+02  0.18202839253E+01  0.19803009836E+01  0.13147160970E+02  0.51100000000E-03 0.  1.
        -12    1    3    3    0    0  0.14648950930E+01 -0.27260016305E+02  0.70959503744E+01  0.28206504893E+02  0.00000000000E+00 0.  1.
</event>
<event>
 7    1  0.7012292E-013  0.5930195E+02  0.7816164E-02  0.1266605E+00
        -11   -1    0    0    0    0  0.00000000000E+00  0.00000000000E+00  0.45593999997E+02  0.45594000000E+02  0.51100000000E-03 0.  1.
         11   -1    0    0    0    0 -0.00000000000E+00 -0.00000000000E+00 -0.45593999997E+02  0.45594000000E+02  0.51100000000E-03 0. -1.
    9900012    2    1    2    0    0  0.17201126367E+02  0.66688865223E+01  0.26007060675E+02  0.59301952884E+02  0.50000016151E+02 0.  0.
         12    1    1    2    0    0 -0.17201126367E+02 -0.66688865223E+01 -0.26007060675E+02  0.31886047116E+02  0.00000000000E+00 0. -1.
         11    1    3    3    0    0  0.17958615676E+00  0.11650506348E+02 -0.55975326776E+01  0.12926674812E+02  0.51100000000E-03 0. -1.
        -11    1    3    3    0    0  0.43013451421E+01 -0.91300541779E-01 -0.54213278900E+01  0.69210333168E+01  0.51100000000E-03 0.  1.
        -12    1    3    3    0    0  0.12720195068E+02 -0.48903192843E+01  0.37025921243E+02  0.39454244755E+02  0.00000000000E+00 0.  1.
</event>
<event>
 7    1  0.8394800E-013  0.5930196E+02  0.7816164E-02  0.1266605E+00
        -11   -1    0    0    0    0  0.00000000000E+00  0.00000000000E+00  0.45593999997E+02  0.45594000000E+02  0.51100000000E-03 0. -1.
         11   -1    0    0    0    0 -0.00000000000E+00 -0.00000000000E+00 -0.45593999997E+02  0.45594000000E+02  0.51100000000E-03 0.  1.
    9900012    2    1    2    0    0 -0.27336568112E+02  0.10253666146E+02 -0.12817710578E+02  0.59301963401E+02  0.50000035332E+02 0.  0.
         12    1    1    2    0    0  0.27336568112E+02 -0.10253666146E+02  0.12817710578E+02  0.31886036599E+02  0.00000000000E+00 0. -1.
         11    1    3    3    0    0 -0.14004879449E+02 -0.10914690097E+02 -0.58728919179E+01  0.18701817239E+02  0.51100000000E-03 0. -1.
        -11    1    3    3    0    0 -0.97313039904E+01  0.14708663296E+02 -0.19335283952E+02  0.26170522712E+02  0.51100000000E-03 0.  1.
         12    1    3    3    0    0 -0.36003846723E+01  0.64596929469E+01  0.12390465291E+02  0.14429623450E+02  0.00000000000E+00 0. -1.
</event>
<event>
 7    1  0.7012292E-013  0.5930197E+02  0.7816164E-02  0.1266605E+00
        -11   -1    0    0    0    0  0.00000000000E+00  0.00000000000E+00  0.45593999997E+02  0.45594000000E+02  0.51100000000E-03 0.  1.
         11   -1    0    0    0    0 -0.00000000000E+00 -0.00000000000E+00 -0.45593999997E+02  0.45594000000E+02  0.51100000000E-03 0. -1.
    9900012    2    1    2    0    0 -0.75198434557E+01 -0.21260083811E+02  0.22542847438E+02  0.59301965755E+02  0.50000039625E+02 0.  0.
         12    1    1    2    0    0  0.75198434557E+01  0.21260083811E+02 -0.22542847438E+02  0.31886034245E+02  0.00000000000E+00 0. -1.
         11    1    3    3    0    0 -0.20837887083E+02 -0.54157494861E+01  0.17736766226E+02  0.27895174439E+02  0.51100000000E-03 0. -1.
        -11    1    3    3    0    0  0.82641946066E+01 -0.21138025587E+02  0.70260107371E+01  0.23758742924E+02  0.51100000000E-03 0.  1.
         12    1    3    3    0    0  0.50538490208E+01  0.52936912619E+01 -0.22199295244E+01  0.76480483913E+01  0.00000000000E+00 0. -1.
</event>
<event>
 7    1  0.7012292E-013  0.5930187E+02  0.7816164E-02  0.1266605E+00
        -11   -1    0    0    0    0  0.00000000000E+00  0.00000000000E+00  0.45593999997E+02  0.45594000000E+02  0.51100000000E-03 0. -1.
         11   -1    0    0    0    0 -0.00000000000E+00 -0.00000000000E+00 -0.45593999997E+02  0.45594000000E+02  0.51100000000E-03 0.  1.
    9900012    2    1    2    0    0  0.22444013015E+02 -0.22649076802E+02 -0.10437516251E+00  0.59301869875E+02  0.49999864762E+02 0.  0.
         12    1    1    2    0    0 -0.22444013015E+02  0.22649076802E+02  0.10437516251E+00  0.31886130125E+02  0.00000000000E+00 0. -1.
         11    1    3    3    0    0 -0.24004018441E+01  0.40079292990E+01  0.40254860993E+01  0.61668439964E+01  0.51100000000E-03 0. -1.
        -11    1    3    3    0    0 -0.16692574259E+01  0.83867785162E+01  0.19555752522E+01  0.87720436080E+01  0.51100000000E-03 0.  1.
        -12    1    3    3    0    0  0.26513672285E+02 -0.35043784617E+02 -0.60854365140E+01  0.44362982270E+02  0.00000000000E+00 0.  1.
</event>
<event>
 7    1  0.7012292E-013  0.5930200E+02  0.7816164E-02  0.1266605E+00
        -11   -1    0    0    0    0  0.00000000000E+00  0.00000000000E+00  0.45593999997E+02  0.45594000000E+02  0.51100000000E-03 0.  1.
         11   -1    0    0    0    0 -0.00000000000E+00 -0.00000000000E+00 -0.45593999997E+02  0.45594000000E+02  0.51100000000E-03 0. -1.
    9900012    2    1    2    0    0 -0.79727500350E+01 -0.14578246135E+02  0.27214461553E+02  0.59302001174E+02  0.50000104221E+02 0.  0.
         12    1    1    2    0    0  0.79727500350E+01  0.14578246135E+02 -0.27214461553E+02  0.31885998826E+02  0.00000000000E+00 0. -1.
         11    1    3    3    0    0 -0.12920827615E+02  0.32483799383E+00 -0.27851112993E+01  0.13221578998E+02  0.51100000000E-03 0. -1.
        -11    1    3    3    0    0  0.62757881843E+01  0.90347678269E+01  0.91876541042E+01  0.14332673694E+02  0.51100000000E-03 0.  1.
        -12    1    3    3    0    0 -0.13277106041E+01 -0.23937851956E+02  0.20811918748E+02  0.31747748482E+02  0.00000000000E+00 0.  1.
</event>
<event>
 7    1  0.7012292E-013  0.5930195E+02  0.7816164E-02  0.1266605E+00
        -11   -1    0    0    0    0  0.00000000000E+00  0.00000000000E+00  0.45593999997E+02  0.45594000000E+02  0.51100000000E-03 0.  1.
         11   -1    0    0    0    0 -0.00000000000E+00 -0.00000000000E+00 -0.45593999997E+02  0.45594000000E+02  0.51100000000E-03 0. -1.
    9900012    2    1    2    0    0 -0.20288406721E+02  0.12108546538E+02  0.21412233248E+02  0.59301951653E+02  0.50000013906E+02 0.  0.
         12    1    1    2    0    0  0.20288406721E+02 -0.12108546538E+02 -0.21412233248E+02  0.31886048347E+02  0.00000000000E+00 0. -1.
         11    1    3    3    0    0  0.35141575679E+01  0.24210438481E+01  0.23770102321E+02  0.24150124665E+02  0.51100000000E-03 0.  1.
        -11    1    3    3    0    0  0.21171505481E+01  0.63809125744E+01 -0.56936375125E+01  0.88099875204E+01  0.51100000000E-03 0. -1.
        -12    1    3    3    0    0 -0.25919714837E+02  0.33065901153E+01  0.33357684395E+01  0.26341839467E+02  0.00000000000E+00 0.  1.
</event>
<event>
 7    1  0.7012292E-013  0.5930192E+02  0.7816164E-02  0.1266605E+00
        -11   -1    0    0    0    0  0.00000000000E+00  0.00000000000E+00  0.45593999997E+02  0.45594000000E+02  0.51100000000E-03 0.  1.
         11   -1    0    0    0    0 -0.00000000000E+00 -0.00000000000E+00 -0.45593999997E+02  0.45594000000E+02  0.51100000000E-03 0. -1.
    9900012    2    1    2    0    0  0.27344155256E+02  0.19681897323E+01  0.16283297869E+02  0.59301915465E+02  0.49999947908E+02 0.  0.
         12    1    1    2    0    0 -0.27344155256E+02 -0.19681897323E+01 -0.16283297869E+02  0.31886084535E+02  0.00000000000E+00 0. -1.
         11    1    3    3    0    0  0.16201206662E+02 -0.16400879567E+01 -0.82334690000E+00  0.16304811749E+02  0.51100000000E-03 0. -1.
        -11    1    3    3    0    0  0.15643740605E+02 -0.11002228724E+02 -0.11801116867E+01  0.19161636696E+02  0.51100000000E-03 0.  1.
         12    1    3    3    0    0 -0.45007920104E+01  0.14610506413E+02  0.18286756456E+02  0.23835467020E+02  0.00000000000E+00 0. -1.
</event>
<event>
 7    1  0.7012292E-013  0.5930193E+02  0.7816164E-02  0.1266605E+00
        -11   -1    0    0    0    0  0.00000000000E+00  0.00000000000E+00  0.45593999997E+02  0.45594000000E+02  0.51100000000E-03 0.  1.
         11   -1    0    0    0    0 -0.00000000000E+00 -0.00000000000E+00 -0.45593999997E+02  0.45594000000E+02  0.51100000000E-03 0. -1.
    9900012    2    1    2    0    0 -0.23568785577E+02 -0.12405541826E+02  0.17531006863E+02  0.59301932146E+02  0.49999978330E+02 0.  0.
         12    1    1    2    0    0  0.23568785577E+02  0.12405541826E+02 -0.17531006863E+02  0.31886067854E+02  0.00000000000E+00 0. -1.
         11    1    3    3    0    0 -0.15395999924E+01 -0.51419102171E+01 -0.79156195446E+01  0.95638194176E+01  0.51100000000E-03 0. -1.
        -11    1    3    3    0    0 -0.29751267211E+00 -0.13857815295E+02 -0.21193782248E+01  0.14022101228E+02  0.51100000000E-03 0.  1.
         12    1    3    3    0    0 -0.21731672912E+02  0.65941836854E+01  0.27566004633E+02  0.35716011500E+02  0.00000000000E+00 0. -1.
</event>
<event>
 7    1  0.7012292E-013  0.5930194E+02  0.7816164E-02  0.1266605E+00
        -11   -1    0    0    0    0  0.00000000000E+00  0.00000000000E+00  0.45593999997E+02  0.45594000000E+02  0.51100000000E-03 0. -1.
         11   -1    0    0    0    0 -0.00000000000E+00 -0.00000000000E+00 -0.45593999997E+02  0.45594000000E+02  0.51100000000E-03 0.  1.
    9900012    2    1    2    0    0  0.21335774165E+01 -0.21036120285E+02 -0.23867352246E+02  0.59301937018E+02  0.49999987216E+02 0.  0.
         12    1    1    2    0    0 -0.21335774165E+01  0.21036120285E+02  0.23867352246E+02  0.31886062982E+02  0.00000000000E+00 0. -1.
         11    1    3    3    0    0  0.10326104645E+01 -0.33592329713E+01  0.14630821320E+01  0.38067492842E+01  0.51100000000E-03 0. -1.
        -11    1    3    3    0    0  0.44182218353E+01 -0.27649482463E+02 -0.32404773293E+02  0.42826205728E+02  0.51100000000E-03 0.  1.
         12    1    3    3    0    0 -0.33172548833E+01  0.99725951490E+01  0.70743389152E+01  0.12668982005E+02  0.00000000000E+00 0. -1.
</event>
<event>
 7    1  0.7012292E-013  0.5930195E+02  0.7816164E-02  0.1266605E+00
        -11   -1    0    0    0    0  0.00000000000E+00  0.00000000000E+00  0.45593999997E+02  0.45594000000E+02  0.51100000000E-03 0.  1.
         11   -1    0    0    0    0 -0.00000000000E+00 -0.00000000000E+00 -0.45593999997E+02  0.45594000000E+02  0.51100000000E-03 0. -1.
    9900012    2    1    2    0    0  0.44867938489E+00  0.23340495299E+02  0.21719572702E+02  0.59301954896E+02  0.50000019821E+02 0.  0.
         12    1    1    2    0    0 -0.44867938489E+00 -0.23340495299E+02 -0.21719572702E+02  0.31886045104E+02  0.00000000000E+00 0. -1.
         11    1    3    3    0    0  0.49786348985E+01 -0.10363912670E+02 -0.67339129173E+01  0.13324529062E+02  0.51100000000E-03 0. -1.
        -11    1    3    3    0    0 -0.24953358689E+01  0.78252478535E+01  0.14091090310E+02  0.16310120522E+02  0.51100000000E-03 0.  1.
        -12    1    3    3    0    0 -0.20346196447E+01  0.25879160116E+02  0.14362395310E+02  0.29667305312E+02  0.00000000000E+00 0.  1.
</event>
<event>
 7    1  0.7012292E-013  0.5930192E+02  0.7816164E-02  0.1266605E+00
        -11   -1    0    0    0    0  0.00000000000E+00  0.00000000000E+00  0.45593999997E+02  0.45594000000E+02  0.51100000000E-03 0.  1.
         11   -1    0    0    0    0 -0.00000000000E+00 -0.00000000000E+00 -0.45593999997E+02  0.45594000000E+02  0.51100000000E-03 0. -1.
    9900012    2    1    2    0    0 -0.19091864707E+02  0.24629705307E+02  0.67527944589E+01  0.59301922874E+02  0.49999961420E+02 0.  0.
         12    1    1    2    0    0  0.19091864707E+02 -0.24629705307E+02 -0.67527944589E+01  0.31886077126E+02  0.00000000000E+00 0. -1.
         11    1    3    3    0    0 -0.50827267004E+01  0.21132094922E+01 -0.11642480174E+02  0.12878164075E+02  0.51100000000E-03 0. -1.
        -11    1    3    3    0    0 -0.12212457509E+02  0.25401524066E+02  0.47991634283E+00  0.28188860623E+02  0.51100000000E-03 0.  1.
         12    1    3    3    0    0 -0.17966804977E+01 -0.28850282509E+01  0.17915358290E+02  0.18234898176E+02  0.00000000000E+00 0. -1.
</event>
<event>
 7    1  0.7012292E-013  0.5930195E+02  0.7816164E-02  0.1266605E+00
        -11   -1    0    0    0    0  0.00000000000E+00  0.00000000000E+00  0.45593999997E+02  0.45594000000E+02  0.51100000000E-03 0. -1.
         11   -1    0    0    0    0 -0.00000000000E+00 -0.00000000000E+00 -0.45593999997E+02  0.45594000000E+02  0.51100000000E-03 0.  1.
    9900012    2    1    2    0    0 -0.15947572358E+02  0.76572334394E+01 -0.26528506993E+02  0.59301953344E+02  0.50000016990E+02 0.  0.
         12    1    1    2    0    0  0.15947572358E+02 -0.76572334394E+01  0.26528506993E+02  0.31886046656E+02  0.00000000000E+00 0. -1.
         11    1    3    3    0    0  0.13000211546E+02  0.52926158324E+01 -0.14011736376E+01  0.14106047299E+02  0.51100000000E-03 0. -1.
        -11    1    3    3    0    0 -0.35506214663E+01  0.75290272489E+01  0.10128369330E+01  0.83856426721E+01  0.51100000000E-03 0.  1.
        -12    1    3    3    0    0 -0.25397162438E+02 -0.51644096418E+01 -0.26140170289E+02  0.36810263373E+02  0.00000000000E+00 0.  1.
</event>
<event>
 7    1  0.7012292E-013  0.5930194E+02  0.7816164E-02  0.1266605E+00
        -11   -1    0    0    0    0  0.00000000000E+00  0.00000000000E+00  0.45593999997E+02  0.45594000000E+02  0.51100000000E-03 0. -1.
         11   -1    0    0    0    0 -0.00000000000E+00 -0.00000000000E+00 -0.45593999997E+02  0.45594000000E+02  0.51100000000E-03 0.  1.
    9900012    2    1    2    0    0  0.17218714543E+01 -0.26350699401E+02 -0.17871677526E+02  0.59301936307E+02  0.49999985920E+02 0.  0.
         12    1    1    2    0    0 -0.17218714543E+01  0.26350699401E+02  0.17871677526E+02  0.31886063693E+02  0.00000000000E+00 0. -1.
         11    1    3    3    0    0 -0.37172383650E+01 -0.80413875107E+01  0.12553584331E+02  0.15364708067E+02  0.51100000000E-03 0. -1.
        -11    1    3    3    0    0 -0.95438962398E+01 -0.41896596654E+01 -0.61297109803E+01  0.12091838591E+02  0.51100000000E-03 0.  1.
         12    1    3    3    0    0  0.14983006059E+02 -0.14119652225E+02 -0.24295550877E+02  0.31845389649E+02  0.00000000000E+00 0. -1.
</event>
<event>
 7    1  0.7012292E-013  0.5930195E+02  0.7816164E-02  0.1266605E+00
        -11   -1    0    0    0    0  0.00000000000E+00  0.00000000000E+00  0.45593999997E+02  0.45594000000E+02  0.51100000000E-03 0.  1.
         11   -1    0    0    0    0 -0.00000000000E+00 -0.00000000000E+00 -0.45593999997E+02  0.45594000000E+02  0.51100000000E-03 0. -1.
    9900012    2    1    2    0    0 -0.69216750529E+01 -0.19294244806E+02  0.24424228714E+02  0.59301946364E+02  0.50000004261E+02 0.  0.
         12    1    1    2    0    0  0.69216750529E+01  0.19294244806E+02 -0.24424228714E+02  0.31886053636E+02  0.00000000000E+00 0. -1.
         11    1    3    3    0    0  0.32784332115E+00 -0.40840551214E+01  0.47127582868E+01  0.62447640795E+01  0.51100000000E-03 0. -1.
        -11    1    3    3    0    0  0.65544110544E+01 -0.21907675212E+02  0.27569728379E+02  0.35818939971E+02  0.51100000000E-03 0.  1.
         12    1    3    3    0    0 -0.13803929428E+02  0.66974855275E+01 -0.78582579511E+01  0.17238242314E+02  0.00000000000E+00 0. -1.
</event>
<event>
 7    1  0.7012292E-013  0.5930194E+02  0.7816164E-02  0.1266605E+00
        -11   -1    0    0    0    0  0.00000000000E+00  0.00000000000E+00  0.45593999997E+02  0.45594000000E+02  0.51100000000E-03 0.  1.
         11   -1    0    0    0    0 -0.00000000000E+00 -0.00000000000E+00 -0.45593999997E+02  0.45594000000E+02  0.51100000000E-03 0. -1.
    9900012    2    1    2    0    0 -0.12414571341E+02 -0.16208409394E+02  0.24492591110E+02  0.59301935082E+02  0.49999983684E+02 0.  0.
         12    1    1    2    0    0  0.12414571341E+02  0.16208409394E+02 -0.24492591110E+02  0.31886064918E+02  0.00000000000E+00 0. -1.
         11    1    3    3    0    0  0.58786262731E+01  0.97347862946E+01 -0.15868266185E+01  0.11482261539E+02  0.51100000000E-03 0. -1.
        -11    1    3    3    0    0 -0.17759796345E+01  0.11786955759E+00  0.14894501531E+02  0.15000472427E+02  0.51100000000E-03 0.  1.
        -12    1    3    3    0    0 -0.16517217980E+02 -0.26061065246E+02  0.11184916198E+02  0.32819201116E+02  0.00000000000E+00 0.  1.
</event>
<event>
 7    1  0.7012292E-013  0.5930194E+02  0.7816164E-02  0.1266605E+00
        -11   -1    0    0    0    0  0.00000000000E+00  0.00000000000E+00  0.45593999997E+02  0.45594000000E+02  0.51100000000E-03 0.  1.
         11   -1    0    0    0    0 -0.00000000000E+00 -0.00000000000E+00 -0.45593999997E+02  0.45594000000E+02  0.51100000000E-03 0. -1.
    9900012    2    1    2    0    0 -0.85600503851E+01  0.12272785405E+02  0.28157146528E+02  0.59301943097E+02  0.49999998303E+02 0.  0.
         12    1    1    2    0    0  0.85600503851E+01 -0.12272785405E+02 -0.28157146528E+02  0.31886056903E+02  0.00000000000E+00 0. -1.
         11    1    3    3    0    0 -0.42595034660E+01  0.11907674607E+02 -0.48535613549E+01  0.13545964063E+02  0.51100000000E-03 0. -1.
        -11    1    3    3    0    0 -0.56127468029E+01  0.92947157770E+01 -0.67813144403E+00  0.10879086844E+02  0.51100000000E-03 0.  1.
        -12    1    3    3    0    0  0.13121998838E+01 -0.89296049787E+01  0.33688839327E+02  0.34876892190E+02  0.00000000000E+00 0.  1.
</event>
<event>
 7    1  0.7012292E-013  0.5930193E+02  0.7816164E-02  0.1266605E+00
        -11   -1    0    0    0    0  0.00000000000E+00  0.00000000000E+00  0.45593999997E+02  0.45594000000E+02  0.51100000000E-03 0. -1.
         11   -1    0    0    0    0 -0.00000000000E+00 -0.00000000000E+00 -0.45593999997E+02  0.45594000000E+02  0.51100000000E-03 0.  1.
    9900012    2    1    2    0    0  0.15942358950E+02  0.19077337026E+02 -0.19965419407E+02  0.59301928292E+02  0.49999971301E+02 0.  0.
         12    1    1    2    0    0 -0.15942358950E+02 -0.19077337026E+02  0.19965419407E+02  0.31886071708E+02  0.00000000000E+00 0. -1.
         11    1    3    3    0    0  0.94056006796E+01 -0.12265860518E+02  0.19150225445E+01  0.15575107383E+02  0.51100000000E-03 0. -1.
        -11    1    3    3    0    0  0.63285611829E+01  0.51092535864E+00 -0.85289374418E+00  0.64061813406E+01  0.51100000000E-03 0.  1.
        -12    1    3    3    0    0  0.20819708733E+00  0.30832272185E+02 -0.21027548207E+02  0.37320639568E+02  0.00000000000E+00 0.  1.
</event>
<event>
 7    1  0.7012292E-013  0.5930193E+02  0.7816164E-02  0.1266605E+00
        -11   -1    0    0    0    0  0.00000000000E+00  0.00000000000E+00  0.45593999997E+02  0.45594000000E+02  0.51100000000E-03 0.  1.
         11   -1    0    0    0    0 -0.00000000000E+00 -0.00000000000E+00 -0.45593999997E+02  0.45594000000E+02  0.51100000000E-03 0. -1.
    9900012    2    1    2    0    0 -0.26481224099E+02  0.16707328618E+02  0.60275423623E+01  0.59301932098E+02  0.49999978242E+02 0.  0.
         12    1    1    2    0    0  0.26481224099E+02 -0.16707328618E+02 -0.60275423623E+01  0.31886067902E+02  0.00000000000E+00 0. -1.
         11    1    3    3    0    0  0.26527690069E+01  0.55802042156E+01 -0.60697228812E+01  0.86612584887E+01  0.51100000000E-03 0. -1.
        -11    1    3    3    0    0 -0.79250060533E+01  0.18054645029E+02 -0.73504655614E+01  0.21042938775E+02  0.51100000000E-03 0.  1.
        -12    1    3    3    0    0 -0.21208987053E+02 -0.69275206261E+01  0.19447730805E+02  0.29597734834E+02  0.00000000000E+00 0.  1.
</event>
<event>
 7    1  0.7012292E-013  0.5930195E+02  0.7816164E-02  0.1266605E+00
        -11   -1    0    0    0    0  0.00000000000E+00  0.00000000000E+00  0.45593999997E+02  0.45594000000E+02  0.51100000000E-03 0.  1.
         11   -1    0    0    0    0 -0.00000000000E+00 -0.00000000000E+00 -0.45593999997E+02  0.45594000000E+02  0.51100000000E-03 0. -1.
    9900012    2    1    2    0    0 -0.11430442479E+02  0.24466035366E+02  0.16955191186E+02  0.59301946467E+02  0.50000004448E+02 0.  0.
         12    1    1    2    0    0  0.11430442479E+02 -0.24466035366E+02 -0.16955191186E+02  0.31886053533E+02  0.00000000000E+00 0. -1.
         11    1    3    3    0    0  0.73117902867E+01  0.45824296892E+01 -0.51020009668E+01  0.10024537554E+02  0.51100000000E-03 0. -1.
        -11    1    3    3    0    0  0.64253131018E+01  0.17582169747E+02  0.79871779109E+01  0.20352207563E+02  0.51100000000E-03 0.  1.
         12    1    3    3    0    0 -0.25167545867E+02  0.23014359299E+01  0.14070014241E+02  0.28925201349E+02  0.00000000000E+00 0. -1.
</event>
<event>
 7    1  0.7012292E-013  0.5930195E+02  0.7816164E-02  0.1266605E+00
        -11   -1    0    0    0    0  0.00000000000E+00  0.00000000000E+00  0.45593999997E+02  0.45594000000E+02  0.51100000000E-03 0.  1.
         11   -1    0    0    0    0 -0.00000000000E+00 -0.00000000000E+00 -0.45593999997E+02  0.45594000000E+02  0.51100000000E-03 0. -1.
    9900012    2    1    2    0    0  0.22886920813E+02  0.92878980072E+00  0.22182119285E+02  0.59301949589E+02  0.50000010143E+02 0.  0.
         12    1    1    2    0    0 -0.22886920813E+02 -0.92878980072E+00 -0.22182119285E+02  0.31886050411E+02  0.00000000000E+00 0. -1.
         11    1    3    3    0    0 -0.98247450237E+01  0.42964975712E+01 -0.62140640530E+01  0.12393550681E+02  0.51100000000E-03 0. -1.
        -11    1    3    3    0    0  0.15925022480E+00  0.27713405507E+01 -0.65033427261E+00  0.28510741852E+01  0.51100000000E-03 0.  1.
        -12    1    3    3    0    0  0.32552415612E+02 -0.61390483212E+01  0.29046517611E+02  0.44057324723E+02  0.00000000000E+00 0.  1.
</event>
<event>
 7    1  0.7012292E-013  0.5930188E+02  0.7816164E-02  0.1266605E+00
        -11   -1    0    0    0    0  0.00000000000E+00  0.00000000000E+00  0.45593999997E+02  0.45594000000E+02  0.51100000000E-03 0.  1.
         11   -1    0    0    0    0 -0.00000000000E+00 -0.00000000000E+00 -0.45593999997E+02  0.45594000000E+02  0.51100000000E-03 0. -1.
    9900012    2    1    2    0    0 -0.43499286186E+01 -0.19112763489E+02  0.25149648659E+02  0.59301883353E+02  0.49999889343E+02 0.  0.
         12    1    1    2    0    0  0.43499286186E+01  0.19112763489E+02 -0.25149648659E+02  0.31886116647E+02  0.00000000000E+00 0. -1.
         11    1    3    3    0    0 -0.12360304905E+02 -0.42265151210E+01  0.10787165278E+01  0.13107410004E+02  0.51100000000E-03 0. -1.
        -11    1    3    3    0    0 -0.13353695211E+02 -0.11806883003E+02  0.10198662858E+02  0.20536221327E+02  0.51100000000E-03 0.  1.
         12    1    3    3    0    0  0.21364071497E+02 -0.30793653651E+01  0.13872269273E+02  0.25658252021E+02  0.00000000000E+00 0. -1.
</event>
<event>
 7    1  0.7012292E-013  0.5930195E+02  0.7816164E-02  0.1266605E+00
        -11   -1    0    0    0    0  0.00000000000E+00  0.00000000000E+00  0.45593999997E+02  0.45594000000E+02  0.51100000000E-03 0. -1.
         11   -1    0    0    0    0 -0.00000000000E+00 -0.00000000000E+00 -0.45593999997E+02  0.45594000000E+02  0.51100000000E-03 0.  1.
    9900012    2    1    2    0    0 -0.84042435358E+01  0.58194413825E+01 -0.30203028630E+02  0.59301950608E+02  0.50000012001E+02 0.  0.
         12    1    1    2    0    0  0.84042435358E+01 -0.58194413825E+01  0.30203028630E+02  0.31886049392E+02  0.00000000000E+00 0. -1.
         11    1    3    3    0    0 -0.87208837031E+00 -0.14049925136E+02 -0.29238992408E+02  0.32451188141E+02  0.51100000000E-03 0. -1.
        -11    1    3    3    0    0 -0.10853586792E+01  0.59125796424E+01 -0.79477514949E+01  0.99651069023E+01  0.51100000000E-03 0.  1.
        -12    1    3    3    0    0 -0.64467964862E+01  0.13956786876E+02  0.69837152730E+01  0.16885655565E+02  0.00000000000E+00 0.  1.
</event>
<event>
 7    1  0.7012292E-013  0.5930190E+02  0.7816164E-02  0.1266605E+00
        -11   -1    0    0    0    0  0.00000000000E+00  0.00000000000E+00  0.45593999997E+02  0.45594000000E+02  0.51100000000E-03 0.  1.
         11   -1    0    0    0    0 -0.00000000000E+00 -0.00000000000E+00 -0.45593999997E+02  0.45594000000E+02  0.51100000000E-03 0. -1.
    9900012    2    1    2    0    0 -0.84904368352E+01 -0.29516129202E+02  0.85693806012E+01  0.59301895117E+02  0.49999910798E+02 0.  0.
         12    1    1    2    0    0  0.84904368352E+01  0.29516129202E+02 -0.85693806012E+01  0.31886104883E+02  0.00000000000E+00 0. -1.
         11    1    3    3    0    0 -0.92103114364E+01 -0.30182802101E+02  0.25282021267E+01  0.31657908738E+02  0.51100000000E-03 0. -1.
        -11    1    3    3    0    0  0.13246490410E+02 -0.56881783070E+00  0.70494887167E+01  0.15016269621E+02  0.51100000000E-03 0.  1.
        -12    1    3    3    0    0 -0.12526615809E+02  0.12354907293E+01 -0.10083102423E+01  0.12627716758E+02  0.00000000000E+00 0.  1.
</event>
<event>
 7    1  0.7012292E-013  0.5930211E+02  0.7816164E-02  0.1266604E+00
        -11   -1    0    0    0    0  0.00000000000E+00  0.00000000000E+00  0.45593999997E+02  0.45594000000E+02  0.51100000000E-03 0.  1.
         11   -1    0    0    0    0 -0.00000000000E+00 -0.00000000000E+00 -0.45593999997E+02  0.45594000000E+02  0.51100000000E-03 0. -1.
    9900012    2    1    2    0    0  0.14706112297E+02  0.25018669122E+02  0.13210086636E+02  0.59302110762E+02  0.50000304083E+02 0.  0.
         12    1    1    2    0    0 -0.14706112297E+02 -0.25018669122E+02 -0.13210086636E+02  0.31885889238E+02  0.00000000000E+00 0. -1.
         11    1    3    3    0    0 -0.45355403488E+01 -0.31288503817E+01  0.19507787843E+01  0.58452005177E+01  0.51100000000E-03 0. -1.
        -11    1    3    3    0    0 -0.14238007015E+01 -0.92629306186E+01  0.50215618191E+00  0.93851613292E+01  0.51100000000E-03 0.  1.
        -12    1    3    3    0    0  0.20665453347E+02  0.37410450123E+02  0.10757151670E+02  0.44071748915E+02  0.00000000000E+00 0.  1.
</event>
<event>
 7    1  0.7012292E-013  0.5930195E+02  0.7816164E-02  0.1266605E+00
        -11   -1    0    0    0    0  0.00000000000E+00  0.00000000000E+00  0.45593999997E+02  0.45594000000E+02  0.51100000000E-03 0. -1.
         11   -1    0    0    0    0 -0.00000000000E+00 -0.00000000000E+00 -0.45593999997E+02  0.45594000000E+02  0.51100000000E-03 0.  1.
    9900012    2    1    2    0    0  0.28957350785E+02  0.47283929181E+01 -0.12483370602E+02  0.59301946534E+02  0.50000004571E+02 0.  0.
         12    1    1    2    0    0 -0.28957350785E+02 -0.47283929181E+01  0.12483370602E+02  0.31886053466E+02  0.00000000000E+00 0. -1.
         11    1    3    3    0    0  0.63167691725E+01 -0.13471882436E+02 -0.10197487634E+02  0.18038346472E+02  0.51100000000E-03 0. -1.
        -11    1    3    3    0    0 -0.13525011894E+01 -0.42876490943E+01 -0.67163353303E+01  0.80822246167E+01  0.51100000000E-03 0.  1.
         12    1    3    3    0    0  0.23993082801E+02  0.22487924448E+02  0.44304523629E+01  0.33181375445E+02  0.00000000000E+00 0. -1.
</event>
<event>
 7    1  0.7012292E-013  0.5930196E+02  0.7816164E-02  0.1266605E+00
        -11   -1    0    0    0    0  0.00000000000E+00  0.00000000000E+00  0.45593999997E+02  0.45594000000E+02  0.51100000000E-03 0.  1.
         11   -1    0    0    0    0 -0.00000000000E+00 -0.00000000000E+00 -0.45593999997E+02  0.45594000000E+02  0.51100000000E-03 0. -1.
    9900012    2    1    2    0    0 -0.30384531597E+02 -0.92613872722E+01  0.27797048042E+01  0.59301955821E+02  0.50000021508E+02 0.  0.
         12    1    1    2    0    0  0.30384531597E+02  0.92613872722E+01 -0.27797048042E+01  0.31886044179E+02  0.00000000000E+00 0. -1.
         11    1    3    3    0    0  0.40512924256E+01  0.60367902499E+01 -0.25957881642E+01  0.77197100524E+01  0.51100000000E-03 0. -1.
        -11    1    3    3    0    0  0.56159288463E+01  0.39564169083E+00 -0.47773103501E+01  0.73836226608E+01  0.51100000000E-03 0.  1.
        -12    1    3    3    0    0 -0.40051752869E+02 -0.15693819213E+02  0.10152803318E+02  0.44198623108E+02  0.00000000000E+00 0.  1.
</event>
<event>
 7    1  0.7012292E-013  0.5930196E+02  0.7816164E-02  0.1266605E+00
        -11   -1    0    0    0    0  0.00000000000E+00  0.00000000000E+00  0.45593999997E+02  0.45594000000E+02  0.51100000000E-03 0.  1.
         11   -1    0    0    0    0 -0.00000000000E+00 -0.00000000000E+00 -0.45593999997E+02  0.45594000000E+02  0.51100000000E-03 0. -1.
    9900012    2    1    2    0    0  0.99627576937E+01 -0.12724709446E+02  0.27487176050E+02  0.59301958876E+02  0.50000027080E+02 0.  0.
         12    1    1    2    0    0 -0.99627576937E+01  0.12724709446E+02 -0.27487176050E+02  0.31886041124E+02  0.00000000000E+00 0. -1.
         11    1    3    3    0    0  0.16131947249E+02 -0.15426958012E+02  0.51662188314E+01  0.22911145166E+02  0.51100000000E-03 0. -1.
        -11    1    3    3    0    0 -0.16481340421E+01  0.33264875747E+01 -0.63517878167E+01  0.73571104474E+01  0.51100000000E-03 0.  1.
        -12    1    3    3    0    0 -0.45210555131E+01 -0.62423900823E+00  0.28672745035E+02  0.29033703263E+02  0.00000000000E+00 0.  1.
</event>
<event>
 7    1  0.7012292E-013  0.5930195E+02  0.7816164E-02  0.1266605E+00
        -11   -1    0    0    0    0  0.00000000000E+00  0.00000000000E+00  0.45593999997E+02  0.45594000000E+02  0.51100000000E-03 0.  1.
         11   -1    0    0    0    0 -0.00000000000E+00 -0.00000000000E+00 -0.45593999997E+02  0.45594000000E+02  0.51100000000E-03 0. -1.
    9900012    2    1    2    0    0 -0.28206371927E+02  0.27991617077E+01  0.14604305124E+02  0.59301945812E+02  0.50000003254E+02 0.  0.
         12    1    1    2    0    0  0.28206371927E+02 -0.27991617077E+01 -0.14604305124E+02  0.31886054188E+02  0.00000000000E+00 0. -1.
         11    1    3    3    0    0 -0.24141736714E+02  0.33089668129E+01 -0.11297603480E+02  0.26859049827E+02  0.51100000000E-03 0. -1.
        -11    1    3    3    0    0  0.57889609669E+01 -0.55957775526E+01  0.77708953469E+01  0.11189799384E+02  0.51100000000E-03 0.  1.
        -12    1    3    3    0    0 -0.98535961801E+01  0.50859724474E+01  0.18131013257E+02  0.21253096601E+02  0.00000000000E+00 0.  1.
</event>
<event>
 7    1  0.7012292E-013  0.5930193E+02  0.7816164E-02  0.1266605E+00
        -11   -1    0    0    0    0  0.00000000000E+00  0.00000000000E+00  0.45593999997E+02  0.45594000000E+02  0.51100000000E-03 0.  1.
         11   -1    0    0    0    0 -0.00000000000E+00 -0.00000000000E+00 -0.45593999997E+02  0.45594000000E+02  0.51100000000E-03 0. -1.
    9900012    2    1    2    0    0  0.31074862099E+02  0.42505834159E+01  0.57451561654E+01  0.59301931989E+02  0.49999978044E+02 0.  0.
         12    1    1    2    0    0 -0.31074862099E+02 -0.42505834159E+01 -0.57451561654E+01  0.31886068011E+02  0.00000000000E+00 0. -1.
         11    1    3    3    0    0  0.64224782414E+01  0.64267563174E+01  0.15766295443E+01  0.92215608497E+01  0.51100000000E-03 0. -1.
        -11    1    3    3    0    0  0.35722766328E+01  0.16744390404E+02  0.11740381220E+02  0.20759872875E+02  0.51100000000E-03 0.  1.
        -12    1    3    3    0    0  0.21080107225E+02 -0.18920563305E+02 -0.75718545994E+01  0.29320498264E+02  0.00000000000E+00 0.  1.
</event>
<event>
 7    1  0.7012292E-013  0.5930195E+02  0.7816164E-02  0.1266605E+00
        -11   -1    0    0    0    0  0.00000000000E+00  0.00000000000E+00  0.45593999997E+02  0.45594000000E+02  0.51100000000E-03 0. -1.
         11   -1    0    0    0    0 -0.00000000000E+00 -0.00000000000E+00 -0.45593999997E+02  0.45594000000E+02  0.51100000000E-03 0.  1.
    9900012    2    1    2    0    0  0.23817177274E+02  0.19924222912E+02 -0.72448129978E+01  0.59301954348E+02  0.50000018821E+02 0.  0.
         12    1    1    2    0    0 -0.23817177274E+02 -0.19924222912E+02  0.72448129978E+01  0.31886045652E+02  0.00000000000E+00 0. -1.
         11    1    3    3    0    0 -0.56324541817E+01  0.39137588408E+01  0.31776716058E+01  0.75590770249E+01  0.51100000000E-03 0. -1.
        -11    1    3    3    0    0  0.51417206626E+00 -0.91827041894E+01 -0.97042423182E+01  0.13370069124E+02  0.51100000000E-03 0.  1.
        -12    1    3    3    0    0  0.28935459389E+02  0.25193168261E+02 -0.71824228539E+00  0.38372808199E+02  0.00000000000E+00 0.  1.
</event>
<event>
 7    1  0.7012292E-013  0.5930197E+02  0.7816164E-02  0.1266605E+00
        -11   -1    0    0    0    0  0.00000000000E+00  0.00000000000E+00  0.45593999997E+02  0.45594000000E+02  0.51100000000E-03 0. -1.
         11   -1    0    0    0    0 -0.00000000000E+00 -0.00000000000E+00 -0.45593999997E+02  0.45594000000E+02  0.51100000000E-03 0.  1.
    9900012    2    1    2    0    0 -0.21246269257E+01 -0.31485155621E+02  0.45705105405E+01  0.59301974367E+02  0.50000055332E+02 0.  0.
         12    1    1    2    0    0  0.21246269257E+01  0.31485155621E+02 -0.45705105405E+01  0.31886025633E+02  0.00000000000E+00 0. -1.
         11    1    3    3    0    0 -0.45114230894E+01 -0.15875044634E+02 -0.34029049175E+01  0.16850808365E+02  0.51100000000E-03 0. -1.
        -11    1    3    3    0    0  0.10011295533E+02 -0.17807115226E+02 -0.10043925413E+02  0.22764002918E+02  0.51100000000E-03 0.  1.
         12    1    3    3    0    0 -0.76244993689E+01  0.21970042386E+01  0.18017340871E+02  0.19687163084E+02  0.00000000000E+00 0. -1.
</event>
<event>
 7    1  0.7012292E-013  0.5930194E+02  0.7816164E-02  0.1266605E+00
        -11   -1    0    0    0    0  0.00000000000E+00  0.00000000000E+00  0.45593999997E+02  0.45594000000E+02  0.51100000000E-03 0.  1.
         11   -1    0    0    0    0 -0.00000000000E+00 -0.00000000000E+00 -0.45593999997E+02  0.45594000000E+02  0.51100000000E-03 0. -1.
    9900012    2    1    2    0    0  0.92526895445E+01  0.79073897456E+01  0.29471712383E+02  0.59301938669E+02  0.49999990228E+02 0.  0.
         12    1    1    2    0    0 -0.92526895445E+01 -0.79073897456E+01 -0.29471712383E+02  0.31886061331E+02  0.00000000000E+00 0. -1.
         11    1    3    3    0    0  0.91950774572E+00 -0.12335830411E+02  0.20427566740E+01  0.12537585952E+02  0.51100000000E-03 0. -1.
        -11    1    3    3    0    0  0.75766616887E+01  0.27277427970E+01  0.28088612804E+02  0.29220139504E+02  0.51100000000E-03 0.  1.
         12    1    3    3    0    0  0.75652011013E+00  0.17515477359E+02 -0.65965709510E+00  0.17544213214E+02  0.00000000000E+00 0. -1.
</event>
<event>
 7    1  0.7012292E-013  0.5930194E+02  0.7816164E-02  0.1266605E+00
        -11   -1    0    0    0    0  0.00000000000E+00  0.00000000000E+00  0.45593999997E+02  0.45594000000E+02  0.51100000000E-03 0.  1.
         11   -1    0    0    0    0 -0.00000000000E+00 -0.00000000000E+00 -0.45593999997E+02  0.45594000000E+02  0.51100000000E-03 0. -1.
    9900012    2    1    2    0    0  0.17260066663E+02 -0.13002386923E+02  0.23446724681E+02  0.59301939328E+02  0.49999991428E+02 0.  0.
         12    1    1    2    0    0 -0.17260066663E+02  0.13002386923E+02 -0.23446724681E+02  0.31886060672E+02  0.00000000000E+00 0. -1.
         11    1    3    3    0    0  0.59470330115E+01 -0.70086699029E+00 -0.30227829102E+01  0.67078784247E+01  0.51100000000E-03 0. -1.
        -11    1    3    3    0    0  0.28773311854E+00 -0.25189176216E+02  0.25128105639E+02  0.35580880850E+02  0.51100000000E-03 0.  1.
         12    1    3    3    0    0  0.11025300533E+02  0.12887656283E+02  0.13414019528E+01  0.17013180053E+02  0.00000000000E+00 0. -1.
</event>
<event>
 7    1  0.7012292E-013  0.5930196E+02  0.7816164E-02  0.1266605E+00
        -11   -1    0    0    0    0  0.00000000000E+00  0.00000000000E+00  0.45593999997E+02  0.45594000000E+02  0.51100000000E-03 0. -1.
         11   -1    0    0    0    0 -0.00000000000E+00 -0.00000000000E+00 -0.45593999997E+02  0.45594000000E+02  0.51100000000E-03 0.  1.
    9900012    2    1    2    0    0  0.30492973475E+02 -0.45242513751E-01 -0.93217974499E+01  0.59301962524E+02  0.50000033732E+02 0.  0.
         12    1    1    2    0    0 -0.30492973475E+02  0.45242513751E-01  0.93217974499E+01  0.31886037476E+02  0.00000000000E+00 0. -1.
         11    1    3    3    0    0  0.38951297703E+01  0.44499130764E+01 -0.83530642461E+01  0.10234619918E+02  0.51100000000E-03 0. -1.
        -11    1    3    3    0    0  0.12154286997E+02  0.59059785997E+01 -0.19271486405E+02  0.23537150723E+02  0.51100000000E-03 0.  1.
         12    1    3    3    0    0  0.14443556708E+02 -0.10401134190E+02  0.18302753201E+02  0.25530191882E+02  0.00000000000E+00 0. -1.
</event>
<event>
 7    1  0.7012292E-013  0.5930193E+02  0.7816164E-02  0.1266605E+00
        -11   -1    0    0    0    0  0.00000000000E+00  0.00000000000E+00  0.45593999997E+02  0.45594000000E+02  0.51100000000E-03 0.  1.
         11   -1    0    0    0    0 -0.00000000000E+00 -0.00000000000E+00 -0.45593999997E+02  0.45594000000E+02  0.51100000000E-03 0. -1.
    9900012    2    1    2    0    0  0.20110599305E+02  0.24740351322E+02  0.44771068519E+00  0.59301927291E+02  0.49999969475E+02 0.  0.
         12    1    1    2    0    0 -0.20110599305E+02 -0.24740351322E+02 -0.44771068519E+00  0.31886072709E+02  0.00000000000E+00 0. -1.
         11    1    3    3    0    0  0.33358567958E+00  0.65555888837E-02 -0.34999905041E+01  0.35158578144E+01  0.51100000000E-03 0. -1.
        -11    1    3    3    0    0 -0.93157149468E+01  0.21361400173E+02  0.10834431174E+02  0.25699744385E+02  0.51100000000E-03 0.  1.
         12    1    3    3    0    0  0.29092728573E+02  0.33723955604E+01 -0.68867299848E+01  0.30086325091E+02  0.00000000000E+00 0. -1.
</event>
<event>
 7    1  0.7012292E-013  0.5930195E+02  0.7816164E-02  0.1266605E+00
        -11   -1    0    0    0    0  0.00000000000E+00  0.00000000000E+00  0.45593999997E+02  0.45594000000E+02  0.51100000000E-03 0. -1.
         11   -1    0    0    0    0 -0.00000000000E+00 -0.00000000000E+00 -0.45593999997E+02  0.45594000000E+02  0.51100000000E-03 0.  1.
    9900012    2    1    2    0    0 -0.17352336138E+02 -0.25279633727E+02 -0.87496736529E+01  0.59301949134E+02  0.50000009312E+02 0.  0.
         12    1    1    2    0    0  0.17352336138E+02  0.25279633727E+02  0.87496736529E+01  0.31886050866E+02  0.00000000000E+00 0. -1.
         11    1    3    3    0    0  0.12154255943E+02 -0.69321059465E+01  0.11482147539E+01  0.14039174754E+02  0.51100000000E-03 0.  1.
        -11    1    3    3    0    0  0.38771883162E+01  0.25247880633E+01  0.14980693655E+00  0.46292101252E+01  0.51100000000E-03 0. -1.
        -12    1    3    3    0    0 -0.33383780397E+02 -0.20872315844E+02 -0.10047695343E+02  0.40633564255E+02  0.00000000000E+00 0.  1.
</event>
<event>
 7    1  0.7012292E-013  0.5930195E+02  0.7816164E-02  0.1266605E+00
        -11   -1    0    0    0    0  0.00000000000E+00  0.00000000000E+00  0.45593999997E+02  0.45594000000E+02  0.51100000000E-03 0.  1.
         11   -1    0    0    0    0 -0.00000000000E+00 -0.00000000000E+00 -0.45593999997E+02  0.45594000000E+02  0.51100000000E-03 0. -1.
    9900012    2    1    2    0    0 -0.13107187479E+02 -0.22093059234E+02  0.18889637853E+02  0.59301952140E+02  0.50000014795E+02 0.  0.
         12    1    1    2    0    0  0.13107187479E+02  0.22093059234E+02 -0.18889637853E+02  0.31886047860E+02  0.00000000000E+00 0. -1.
         11    1    3    3    0    0 -0.36988663758E+00  0.43658730579E+01  0.20615723853E+02  0.21076188790E+02  0.51100000000E-03 0. -1.
        -11    1    3    3    0    0  0.44894318426E+01 -0.14928880797E+02  0.50986891862E+01  0.16401924028E+02  0.51100000000E-03 0.  1.
         12    1    3    3    0    0 -0.17226732684E+02 -0.11530051494E+02 -0.68247751860E+01  0.21823839322E+02  0.00000000000E+00 0. -1.
</event>
<event>
 7    1  0.7012292E-013  0.5930192E+02  0.7816164E-02  0.1266605E+00
        -11   -1    0    0    0    0  0.00000000000E+00  0.00000000000E+00  0.45593999997E+02  0.45594000000E+02  0.51100000000E-03 0. -1.
         11   -1    0    0    0    0 -0.00000000000E+00 -0.00000000000E+00 -0.45593999997E+02  0.45594000000E+02  0.51100000000E-03 0.  1.
    9900012    2    1    2    0    0  0.10484296635E+02 -0.30093368705E+02  0.10911541789E+01  0.59301922577E+02  0.49999960880E+02 0.  0.
         12    1    1    2    0    0 -0.10484296635E+02  0.30093368705E+02 -0.10911541789E+01  0.31886077423E+02  0.00000000000E+00 0. -1.
         11    1    3    3    0    0  0.12564133820E+02 -0.17582513742E+02 -0.61807031250E+01  0.22476728844E+02  0.51100000000E-03 0. -1.
        -11    1    3    3    0    0 -0.14291545868E+02 -0.14756975266E+02  0.11701744118E+02  0.23642068817E+02  0.51100000000E-03 0.  1.
         12    1    3    3    0    0  0.12211708683E+02  0.22461203029E+01 -0.44298868143E+01  0.13183124916E+02  0.00000000000E+00 0. -1.
</event>
<event>
 7    1  0.7012292E-013  0.5930195E+02  0.7816164E-02  0.1266605E+00
        -11   -1    0    0    0    0  0.00000000000E+00  0.00000000000E+00  0.45593999997E+02  0.45594000000E+02  0.51100000000E-03 0. -1.
         11   -1    0    0    0    0 -0.00000000000E+00 -0.00000000000E+00 -0.45593999997E+02  0.45594000000E+02  0.51100000000E-03 0.  1.
    9900012    2    1    2    0    0  0.14746353356E+02  0.20974386284E+02  0.18956274801E+02  0.59301950204E+02  0.50000011264E+02 0.  0.
         12    1    1    2    0    0 -0.14746353356E+02 -0.20974386284E+02 -0.18956274801E+02  0.31886049796E+02  0.00000000000E+00 0. -1.
         11    1    3    3    0    0  0.18002750555E+00 -0.20679678484E+01  0.34164686193E+00  0.21037166549E+01  0.51100000000E-03 0. -1.
        -11    1    3    3    0    0 -0.86857763825E+01 -0.87677765703E+01  0.12057560034E+02  0.17254024794E+02  0.51100000000E-03 0.  1.
        -12    1    3    3    0    0  0.23252102233E+02  0.31810130702E+02  0.65570679051E+01  0.39944208755E+02  0.00000000000E+00 0.  1.
</event>
<event>
 7    1  0.7012292E-013  0.5930193E+02  0.7816164E-02  0.1266605E+00
        -11   -1    0    0    0    0  0.00000000000E+00  0.00000000000E+00  0.45593999997E+02  0.45594000000E+02  0.51100000000E-03 0.  1.
         11   -1    0    0    0    0 -0.00000000000E+00 -0.00000000000E+00 -0.45593999997E+02  0.45594000000E+02  0.51100000000E-03 0. -1.
    9900012    2    1    2    0    0  0.61547925578E+01  0.30460752243E+02 -0.71402239574E+01  0.59301926287E+02  0.49999967646E+02 0.  0.
         12    1    1    2    0    0 -0.61547925578E+01 -0.30460752243E+02  0.71402239574E+01  0.31886073713E+02  0.00000000000E+00 0. -1.
         11    1    3    3    0    0  0.11569024089E+02  0.12257497546E+02 -0.87721726588E+01  0.19001041495E+02  0.51100000000E-03 0. -1.
        -11    1    3    3    0    0 -0.12789409161E+02  0.94526703125E+01  0.15576937260E+02  0.22261242944E+02  0.51100000000E-03 0.  1.
         12    1    3    3    0    0  0.73751776298E+01  0.87505843843E+01 -0.13944988559E+02  0.18039641849E+02  0.00000000000E+00 0. -1.
</event>
<event>
 7    1  0.7012292E-013  0.5930196E+02  0.7816164E-02  0.1266605E+00
        -11   -1    0    0    0    0  0.00000000000E+00  0.00000000000E+00  0.45593999997E+02  0.45594000000E+02  0.51100000000E-03 0. -1.
         11   -1    0    0    0    0 -0.00000000000E+00 -0.00000000000E+00 -0.45593999997E+02  0.45594000000E+02  0.51100000000E-03 0.  1.
    9900012    2    1    2    0    0  0.19597980187E+02 -0.11004174662E+02 -0.22617403372E+02  0.59301958811E+02  0.50000026961E+02 0.  0.
         12    1    1    2    0    0 -0.19597980187E+02  0.11004174662E+02  0.22617403372E+02  0.31886041189E+02  0.00000000000E+00 0. -1.
         11    1    3    3    0    0  0.15496005911E+02  0.12115542647E+02 -0.75138424070E+01  0.21056362478E+02  0.51100000000E-03 0. -1.
        -11    1    3    3    0    0 -0.80783532876E+01 -0.63747656181E+01 -0.14177495389E+02  0.17518527458E+02  0.51100000000E-03 0.  1.
         12    1    3    3    0    0  0.12180327564E+02 -0.16744951691E+02 -0.92606557635E+00  0.20727068875E+02  0.00000000000E+00 0. -1.
</event>
<event>
 7    1  0.7012292E-013  0.5930196E+02  0.7816164E-02  0.1266605E+00
        -11   -1    0    0    0    0  0.00000000000E+00  0.00000000000E+00  0.45593999997E+02  0.45594000000E+02  0.51100000000E-03 0. -1.
         11   -1    0    0    0    0 -0.00000000000E+00 -0.00000000000E+00 -0.45593999997E+02  0.45594000000E+02  0.51100000000E-03 0.  1.
    9900012    2    1    2    0    0 -0.13240229057E+02  0.14304703582E+02 -0.25234722071E+02  0.59301962177E+02  0.50000033100E+02 0.  0.
         12    1    1    2    0    0  0.13240229057E+02 -0.14304703582E+02  0.25234722071E+02  0.31886037823E+02  0.00000000000E+00 0. -1.
         11    1    3    3    0    0 -0.10072308879E+02  0.50151950939E+01 -0.13314374380E+02  0.17432043867E+02  0.51100000000E-03 0. -1.
        -11    1    3    3    0    0 -0.17251432773E+02 -0.79623514235E+00 -0.16570863653E+02  0.23934064544E+02  0.51100000000E-03 0.  1.
         12    1    3    3    0    0  0.14083512596E+02  0.10085743630E+02  0.46505159617E+01  0.17935853766E+02  0.00000000000E+00 0. -1.
</event>
<event>
 7    1  0.7012292E-013  0.5930197E+02  0.7816164E-02  0.1266605E+00
        -11   -1    0    0    0    0  0.00000000000E+00  0.00000000000E+00  0.45593999997E+02  0.45594000000E+02  0.51100000000E-03 0.  1.
         11   -1    0    0    0    0 -0.00000000000E+00 -0.00000000000E+00 -0.45593999997E+02  0.45594000000E+02  0.51100000000E-03 0. -1.
    9900012    2    1    2    0    0 -0.44477200267E+01 -0.17784853848E+02  0.26088990702E+02  0.59301973662E+02  0.50000054045E+02 0.  0.
         12    1    1    2    0    0  0.44477200267E+01  0.17784853848E+02 -0.26088990702E+02  0.31886026338E+02  0.00000000000E+00 0. -1.
         11    1    3    3    0    0 -0.10192314934E+02 -0.60997169551E+01  0.11841075684E+01  0.11936998854E+02  0.51100000000E-03 0. -1.
        -11    1    3    3    0    0  0.11575533534E+02  0.40232937100E+01 -0.48798577397E+01  0.13190636099E+02  0.51100000000E-03 0.  1.
         12    1    3    3    0    0 -0.58309386264E+01 -0.15708430603E+02  0.29784740873E+02  0.34174338708E+02  0.00000000000E+00 0. -1.
</event>
<event>
 7    1  0.7012292E-013  0.5930195E+02  0.7816164E-02  0.1266605E+00
        -11   -1    0    0    0    0  0.00000000000E+00  0.00000000000E+00  0.45593999997E+02  0.45594000000E+02  0.51100000000E-03 0.  1.
         11   -1    0    0    0    0 -0.00000000000E+00 -0.00000000000E+00 -0.45593999997E+02  0.45594000000E+02  0.51100000000E-03 0. -1.
    9900012    2    1    2    0    0  0.17514550834E+02  0.15897862592E+02  0.21382669672E+02  0.59301951511E+02  0.50000013648E+02 0.  0.
         12    1    1    2    0    0 -0.17514550834E+02 -0.15897862592E+02 -0.21382669672E+02  0.31886048489E+02  0.00000000000E+00 0. -1.
         11    1    3    3    0    0  0.11216236746E+02  0.82931823490E+01 -0.81313483716E+01  0.16146196668E+02  0.51100000000E-03 0. -1.
        -11    1    3    3    0    0  0.14124599349E+02  0.15080574077E+02  0.19289266302E+02  0.28266655550E+02  0.51100000000E-03 0.  1.
        -12    1    3    3    0    0 -0.78262852611E+01 -0.74758938336E+01  0.10224751741E+02  0.14889099294E+02  0.00000000000E+00 0.  1.
</event>
<event>
 7    1  0.7012292E-013  0.5930196E+02  0.7816164E-02  0.1266605E+00
        -11   -1    0    0    0    0  0.00000000000E+00  0.00000000000E+00  0.45593999997E+02  0.45594000000E+02  0.51100000000E-03 0.  1.
         11   -1    0    0    0    0 -0.00000000000E+00 -0.00000000000E+00 -0.45593999997E+02  0.45594000000E+02  0.51100000000E-03 0. -1.
    9900012    2    1    2    0    0 -0.10833919835E+02  0.22371788021E+01  0.29905525867E+02  0.59301964415E+02  0.50000037181E+02 0.  0.
         12    1    1    2    0    0  0.10833919835E+02 -0.22371788021E+01 -0.29905525867E+02  0.31886035585E+02  0.00000000000E+00 0. -1.
         11    1    3    3    0    0 -0.11476581994E+02  0.93318666933E+01 -0.17181812175E+01  0.14891199321E+02  0.51100000000E-03 0. -1.
        -11    1    3    3    0    0  0.26997269329E+01 -0.12801395693E+02  0.92190282447E+00  0.13115416969E+02  0.51100000000E-03 0.  1.
         12    1    3    3    0    0 -0.20570647736E+01  0.57067078018E+01  0.30701804260E+02  0.31295348124E+02  0.00000000000E+00 0. -1.
</event>
<event>
 7    1  0.7012292E-013  0.5930194E+02  0.7816164E-02  0.1266605E+00
        -11   -1    0    0    0    0  0.00000000000E+00  0.00000000000E+00  0.45593999997E+02  0.45594000000E+02  0.51100000000E-03 0.  1.
         11   -1    0    0    0    0 -0.00000000000E+00 -0.00000000000E+00 -0.45593999997E+02  0.45594000000E+02  0.51100000000E-03 0. -1.
    9900012    2    1    2    0    0 -0.18398722397E+02 -0.22537431334E+02  0.13048825597E+02  0.59301942758E+02  0.49999997685E+02 0.  0.
         12    1    1    2    0    0  0.18398722397E+02  0.22537431334E+02 -0.13048825597E+02  0.31886057242E+02  0.00000000000E+00 0. -1.
         11    1    3    3    0    0 -0.67938832167E+01 -0.48434997504E+01 -0.71095086579E+01  0.10961817943E+02  0.51100000000E-03 0. -1.
        -11    1    3    3    0    0 -0.11415765608E+02 -0.59964151032E+01 -0.97884898007E+01  0.16189231956E+02  0.51100000000E-03 0.  1.
        -12    1    3    3    0    0 -0.18907357238E+00 -0.11697516480E+02  0.29946824056E+02  0.32150892859E+02  0.00000000000E+00 0.  1.
</event>
<event>
 7    1  0.7012292E-013  0.5930192E+02  0.7816164E-02  0.1266605E+00
        -11   -1    0    0    0    0  0.00000000000E+00  0.00000000000E+00  0.45593999997E+02  0.45594000000E+02  0.51100000000E-03 0.  1.
         11   -1    0    0    0    0 -0.00000000000E+00 -0.00000000000E+00 -0.45593999997E+02  0.45594000000E+02  0.51100000000E-03 0. -1.
    9900012    2    1    2    0    0  0.31110511815E+02 -0.19955700910E+01 -0.66989340890E+01  0.59301922109E+02  0.49999960025E+02 0.  0.
         12    1    1    2    0    0 -0.31110511815E+02  0.19955700910E+01  0.66989340890E+01  0.31886077891E+02  0.00000000000E+00 0. -1.
         11    1    3    3    0    0  0.10908751270E+02  0.91392363008E+01 -0.20456711293E+01  0.14377456836E+02  0.51100000000E-03 0. -1.
        -11    1    3    3    0    0  0.57448925761E+01  0.14290855315E+02 -0.79635037745E+00  0.15422921595E+02  0.51100000000E-03 0.  1.
         12    1    3    3    0    0  0.14456867968E+02 -0.25425661707E+02 -0.38569125823E+01  0.29501543677E+02  0.00000000000E+00 0. -1.
</event>
<event>
 7    1  0.7012292E-013  0.5930192E+02  0.7816164E-02  0.1266605E+00
        -11   -1    0    0    0    0  0.00000000000E+00  0.00000000000E+00  0.45593999997E+02  0.45594000000E+02  0.51100000000E-03 0.  1.
         11   -1    0    0    0    0 -0.00000000000E+00 -0.00000000000E+00 -0.45593999997E+02  0.45594000000E+02  0.51100000000E-03 0. -1.
    9900012    2    1    2    0    0 -0.87062166899E+01 -0.13585242138E+02  0.27502094223E+02  0.59301918403E+02  0.49999953266E+02 0.  0.
         12    1    1    2    0    0  0.87062166899E+01  0.13585242138E+02 -0.27502094223E+02  0.31886081597E+02  0.00000000000E+00 0. -1.
         11    1    3    3    0    0 -0.12852649089E+01 -0.13232904131E+02  0.81535599851E+01  0.15596223848E+02  0.51100000000E-03 0. -1.
        -11    1    3    3    0    0 -0.21611111375E+01  0.27044951896E+00  0.30911096085E+02  0.30987729922E+02  0.51100000000E-03 0.  1.
        -12    1    3    3    0    0 -0.52598406435E+01 -0.62278752575E+00 -0.11562561848E+02  0.12717964632E+02  0.00000000000E+00 0.  1.
</event>
<event>
 7    1  0.7012292E-013  0.5930194E+02  0.7816164E-02  0.1266605E+00
        -11   -1    0    0    0    0  0.00000000000E+00  0.00000000000E+00  0.45593999997E+02  0.45594000000E+02  0.51100000000E-03 0.  1.
         11   -1    0    0    0    0 -0.00000000000E+00 -0.00000000000E+00 -0.45593999997E+02  0.45594000000E+02  0.51100000000E-03 0. -1.
    9900012    2    1    2    0    0  0.69381737959E+01 -0.11119891046E+02  0.29067689159E+02  0.59301940577E+02  0.49999993706E+02 0.  0.
         12    1    1    2    0    0 -0.69381737959E+01  0.11119891046E+02 -0.29067689159E+02  0.31886059423E+02  0.00000000000E+00 0. -1.
         11    1    3    3    0    0  0.17756389831E+02 -0.47330363704E+01  0.88934605679E+01  0.20415304412E+02  0.51100000000E-03 0. -1.
        -11    1    3    3    0    0  0.10711000630E+02 -0.26449525554E+01  0.95358060190E+01  0.14582623399E+02  0.51100000000E-03 0.  1.
         12    1    3    3    0    0 -0.21529216665E+02 -0.37419021207E+01  0.10638422572E+02  0.24304012765E+02  0.00000000000E+00 0. -1.
</event>
<event>
 7    1  0.7012292E-013  0.5930195E+02  0.7816164E-02  0.1266605E+00
        -11   -1    0    0    0    0  0.00000000000E+00  0.00000000000E+00  0.45593999997E+02  0.45594000000E+02  0.51100000000E-03 0.  1.
         11   -1    0    0    0    0 -0.00000000000E+00 -0.00000000000E+00 -0.45593999997E+02  0.45594000000E+02  0.51100000000E-03 0. -1.
    9900012    2    1    2    0    0  0.14355162179E+02 -0.22676975856E+02  0.17216394210E+02  0.59301950625E+02  0.50000012031E+02 0.  0.
         12    1    1    2    0    0 -0.14355162179E+02  0.22676975856E+02 -0.17216394210E+02  0.31886049375E+02  0.00000000000E+00 0. -1.
         11    1    3    3    0    0  0.54707825963E+01  0.10852094567E+01  0.14590261389E+02  0.15619951006E+02  0.51100000000E-03 0. -1.
        -11    1    3    3    0    0  0.21182479509E+02 -0.71500753704E+01 -0.21766344115E+01  0.22462385305E+02  0.51100000000E-03 0.  1.
         12    1    3    3    0    0 -0.12298099926E+02 -0.16612109942E+02  0.48027672331E+01  0.21219614314E+02  0.00000000000E+00 0. -1.
</event>
<event>
 7    1  0.7012292E-013  0.5930193E+02  0.7816164E-02  0.1266605E+00
        -11   -1    0    0    0    0  0.00000000000E+00  0.00000000000E+00  0.45593999997E+02  0.45594000000E+02  0.51100000000E-03 0.  1.
         11   -1    0    0    0    0 -0.00000000000E+00 -0.00000000000E+00 -0.45593999997E+02  0.45594000000E+02  0.51100000000E-03 0. -1.
    9900012    2    1    2    0    0 -0.65155771913E+01 -0.38740888256E+01  0.30971924945E+02  0.59301930234E+02  0.49999974843E+02 0.  0.
         12    1    1    2    0    0  0.65155771913E+01  0.38740888256E+01 -0.30971924945E+02  0.31886069766E+02  0.00000000000E+00 0. -1.
         11    1    3    3    0    0 -0.16962137414E+01 -0.15798863238E+01 -0.77431953843E+01  0.80827134598E+01  0.51100000000E-03 0. -1.
        -11    1    3    3    0    0  0.12358558165E+02 -0.74600332731E+01  0.24049189509E+02  0.28049056538E+02  0.51100000000E-03 0.  1.
        -12    1    3    3    0    0 -0.17177921615E+02  0.51658307712E+01  0.14665930820E+02  0.23170160236E+02  0.00000000000E+00 0.  1.
</event>
<event>
 7    1  0.7012292E-013  0.5930194E+02  0.7816164E-02  0.1266605E+00
        -11   -1    0    0    0    0  0.00000000000E+00  0.00000000000E+00  0.45593999997E+02  0.45594000000E+02  0.51100000000E-03 0. -1.
         11   -1    0    0    0    0 -0.00000000000E+00 -0.00000000000E+00 -0.45593999997E+02  0.45594000000E+02  0.51100000000E-03 0.  1.
    9900012    2    1    2    0    0 -0.24300237465E+02  0.10307750668E+01 -0.20619327626E+02  0.59301941763E+02  0.49999995870E+02 0.  0.
         12    1    1    2    0    0  0.24300237465E+02 -0.10307750668E+01  0.20619327626E+02  0.31886058237E+02  0.00000000000E+00 0. -1.
         11    1    3    3    0    0  0.31640186845E+01  0.72894247214E+01 -0.14370020762E+01  0.80753762905E+01  0.51100000000E-03 0. -1.
        -11    1    3    3    0    0  0.74455221710E+01  0.45473117515E+01  0.20504143149E+01  0.89620334572E+01  0.51100000000E-03 0.  1.
        -12    1    3    3    0    0 -0.34909778321E+02 -0.10805961406E+02 -0.21232739865E+02  0.42264532016E+02  0.00000000000E+00 0.  1.
</event>
<event>
 7    1  0.7012292E-013  0.5930194E+02  0.7816164E-02  0.1266605E+00
        -11   -1    0    0    0    0  0.00000000000E+00  0.00000000000E+00  0.45593999997E+02  0.45594000000E+02  0.51100000000E-03 0. -1.
         11   -1    0    0    0    0 -0.00000000000E+00 -0.00000000000E+00 -0.45593999997E+02  0.45594000000E+02  0.51100000000E-03 0.  1.
    9900012    2    1    2    0    0 -0.16617985361E+02  0.26194795400E+02 -0.73753532547E+01  0.59301943813E+02  0.49999999609E+02 0.  0.
         12    1    1    2    0    0  0.16617985361E+02 -0.26194795400E+02  0.73753532547E+01  0.31886056187E+02  0.00000000000E+00 0. -1.
         11    1    3    3    0    0 -0.22796199031E+01  0.12072973060E+02 -0.18861799155E+02  0.22510460080E+02  0.51100000000E-03 0. -1.
        -11    1    3    3    0    0 -0.42532838951E+01  0.21834333310E+02  0.68559209622E+01  0.23277289092E+02  0.51100000000E-03 0.  1.
         12    1    3    3    0    0 -0.10085081563E+02 -0.77125109702E+01  0.46305249379E+01  0.13514194641E+02  0.00000000000E+00 0. -1.
</event>
<event>
 7    1  0.7012292E-013  0.5930193E+02  0.7816164E-02  0.1266605E+00
        -11   -1    0    0    0    0  0.00000000000E+00  0.00000000000E+00  0.45593999997E+02  0.45594000000E+02  0.51100000000E-03 0.  1.
         11   -1    0    0    0    0 -0.00000000000E+00 -0.00000000000E+00 -0.45593999997E+02  0.45594000000E+02  0.51100000000E-03 0. -1.
    9900012    2    1    2    0    0  0.69142594532E+01 -0.16707581144E+01  0.31082523777E+02  0.59301926225E+02  0.49999967532E+02 0.  0.
         12    1    1    2    0    0 -0.69142594532E+01  0.16707581144E+01 -0.31082523777E+02  0.31886073775E+02  0.00000000000E+00 0. -1.
         11    1    3    3    0    0  0.28855027391E+01  0.14663694580E+01  0.15924843195E+02  0.16250446039E+02  0.51100000000E-03 0. -1.
        -11    1    3    3    0    0  0.20157710717E+02 -0.59847896769E+01  0.16340938867E+02  0.26630382876E+02  0.51100000000E-03 0.  1.
         12    1    3    3    0    0 -0.16128954002E+02  0.28476621045E+01 -0.11832582849E+01  0.16421097309E+02  0.00000000000E+00 0. -1.
</event>
<event>
 7    1  0.7012292E-013  0.5930195E+02  0.7816164E-02  0.1266605E+00
        -11   -1    0    0    0    0  0.00000000000E+00  0.00000000000E+00  0.45593999997E+02  0.45594000000E+02  0.51100000000E-03 0.  1.
         11   -1    0    0    0    0 -0.00000000000E+00 -0.00000000000E+00 -0.45593999997E+02  0.45594000000E+02  0.51100000000E-03 0. -1.
    9900012    2    1    2    0    0 -0.74640578101E+01 -0.27944384167E+02  0.13420855127E+02  0.59301951047E+02  0.50000012802E+02 0.  0.
         12    1    1    2    0    0  0.74640578101E+01  0.27944384167E+02 -0.13420855127E+02  0.31886048953E+02  0.00000000000E+00 0. -1.
         11    1    3    3    0    0 -0.18990720955E+02 -0.27763995252E+02 -0.43101537289E+01  0.33912598546E+02  0.51100000000E-03 0. -1.
        -11    1    3    3    0    0  0.58265062260E+01 -0.70613957035E+01  0.10177089556E+02  0.13688850798E+02  0.51100000000E-03 0.  1.
        -12    1    3    3    0    0  0.57001569185E+01  0.68810067882E+01  0.75539192997E+01  0.11700501703E+02  0.00000000000E+00 0.  1.
</event>
<event>
 7    1  0.7012292E-013  0.5930196E+02  0.7816164E-02  0.1266605E+00
        -11   -1    0    0    0    0  0.00000000000E+00  0.00000000000E+00  0.45593999997E+02  0.45594000000E+02  0.51100000000E-03 0.  1.
         11   -1    0    0    0    0 -0.00000000000E+00 -0.00000000000E+00 -0.45593999997E+02  0.45594000000E+02  0.51100000000E-03 0. -1.
    9900012    2    1    2    0    0  0.73426794131E+01 -0.25271319844E+02  0.18004579385E+02  0.59301961888E+02  0.50000032573E+02 0.  0.
         12    1    1    2    0    0 -0.73426794131E+01  0.25271319844E+02 -0.18004579385E+02  0.31886038112E+02  0.00000000000E+00 0. -1.
         11    1    3    3    0    0 -0.16643887404E+01 -0.17780152314E+02  0.10287334539E+02  0.20609057678E+02  0.51100000000E-03 0.  1.
        -11    1    3    3    0    0 -0.12045672278E+02 -0.10279218515E+02 -0.69558013611E+00  0.15850690392E+02  0.51100000000E-03 0. -1.
         12    1    3    3    0    0  0.21052740431E+02  0.27880509848E+01  0.84128249821E+01  0.22842213819E+02  0.00000000000E+00 0. -1.
</event>
<event>
 7    1  0.7012292E-013  0.5930193E+02  0.7816164E-02  0.1266605E+00
        -11   -1    0    0    0    0  0.00000000000E+00  0.00000000000E+00  0.45593999997E+02  0.45594000000E+02  0.51100000000E-03 0.  1.
         11   -1    0    0    0    0 -0.00000000000E+00 -0.00000000000E+00 -0.45593999997E+02  0.45594000000E+02  0.51100000000E-03 0. -1.
    9900012    2    1    2    0    0 -0.89888190026E+01  0.30456707374E+02  0.28830064580E+01  0.59301927533E+02  0.49999969918E+02 0.  0.
         12    1    1    2    0    0  0.89888190026E+01 -0.30456707374E+02 -0.28830064580E+01  0.31886072467E+02  0.00000000000E+00 0. -1.
         11    1    3    3    0    0  0.33155046991E+01  0.76593711669E+01 -0.58108478352E+01  0.10169783228E+02  0.51100000000E-03 0. -1.
        -11    1    3    3    0    0  0.83369362993E+01 -0.75380330702E+01 -0.68555652501E+00  0.11260392419E+02  0.51100000000E-03 0.  1.
        -12    1    3    3    0    0 -0.20641260001E+02  0.30335369277E+02  0.93794108182E+01  0.37871751886E+02  0.00000000000E+00 0.  1.
</event>
<event>
 7    1  0.7012292E-013  0.5930198E+02  0.7816164E-02  0.1266605E+00
        -11   -1    0    0    0    0  0.00000000000E+00  0.00000000000E+00  0.45593999997E+02  0.45594000000E+02  0.51100000000E-03 0.  1.
         11   -1    0    0    0    0 -0.00000000000E+00 -0.00000000000E+00 -0.45593999997E+02  0.45594000000E+02  0.51100000000E-03 0. -1.
    9900012    2    1    2    0    0 -0.19567080154E+02 -0.21322944274E+02  0.13385803940E+02  0.59301979154E+02  0.50000064062E+02 0.  0.
         12    1    1    2    0    0  0.19567080154E+02  0.21322944274E+02 -0.13385803940E+02  0.31886020846E+02  0.00000000000E+00 0. -1.
         11    1    3    3    0    0 -0.96330153198E+01  0.57911367912E+01 -0.22785349679E+01  0.11468390094E+02  0.51100000000E-03 0. -1.
        -11    1    3    3    0    0 -0.44703350191E+01 -0.79774687412E+01  0.24431442421E+02  0.26086764493E+02  0.51100000000E-03 0.  1.
        -12    1    3    3    0    0 -0.54637298153E+01 -0.19136612324E+02 -0.87671035127E+01  0.21746824567E+02  0.00000000000E+00 0.  1.
</event>
<event>
 7    1  0.7012292E-013  0.5930205E+02  0.7816164E-02  0.1266604E+00
        -11   -1    0    0    0    0  0.00000000000E+00  0.00000000000E+00  0.45593999997E+02  0.45594000000E+02  0.51100000000E-03 0.  1.
         11   -1    0    0    0    0 -0.00000000000E+00 -0.00000000000E+00 -0.45593999997E+02  0.45594000000E+02  0.51100000000E-03 0. -1.
    9900012    2    1    2    0    0 -0.13466008015E+02  0.16384552994E+02  0.23810226369E+02  0.59302049671E+02  0.50000192667E+02 0.  0.
         12    1    1    2    0    0  0.13466008015E+02 -0.16384552994E+02 -0.23810226369E+02  0.31885950329E+02  0.00000000000E+00 0. -1.
         11    1    3    3    0    0  0.48083363832E+01  0.34221387101E+01 -0.11061823342E+01  0.60045625771E+01  0.51100000000E-03 0.  1.
        -11    1    3    3    0    0  0.63689976686E+01  0.17507762288E+02  0.99977069561E+00  0.18657047283E+02  0.51100000000E-03 0. -1.
        -12    1    3    3    0    0 -0.24643342067E+02 -0.45453480035E+01  0.23916638007E+02  0.34640439810E+02  0.00000000000E+00 0.  1.
</event>
<event>
 7    1  0.7012292E-013  0.5930195E+02  0.7816164E-02  0.1266605E+00
        -11   -1    0    0    0    0  0.00000000000E+00  0.00000000000E+00  0.45593999997E+02  0.45594000000E+02  0.51100000000E-03 0.  1.
         11   -1    0    0    0    0 -0.00000000000E+00 -0.00000000000E+00 -0.45593999997E+02  0.45594000000E+02  0.51100000000E-03 0. -1.
    9900012    2    1    2    0    0 -0.26127183953E+02 -0.11056867572E+02  0.14554599011E+02  0.59301946400E+02  0.50000004326E+02 0.  0.
         12    1    1    2    0    0  0.26127183953E+02  0.11056867572E+02 -0.14554599011E+02  0.31886053600E+02  0.00000000000E+00 0. -1.
         11    1    3    3    0    0  0.16576972407E+01 -0.71188530004E+01  0.12942456679E+02  0.14863822299E+02  0.51100000000E-03 0.  1.
        -11    1    3    3    0    0  0.13210344988E-01 -0.11702254651E+02  0.88623508774E+01  0.14679380156E+02  0.51100000000E-03 0. -1.
         12    1    3    3    0    0 -0.27798091539E+02  0.77642400797E+01 -0.72502085458E+01  0.29758743945E+02  0.00000000000E+00 0. -1.
</event>
<event>
 7    1  0.7012292E-013  0.5930195E+02  0.7816164E-02  0.1266605E+00
        -11   -1    0    0    0    0  0.00000000000E+00  0.00000000000E+00  0.45593999997E+02  0.45594000000E+02  0.51100000000E-03 0.  1.
         11   -1    0    0    0    0 -0.00000000000E+00 -0.00000000000E+00 -0.45593999997E+02  0.45594000000E+02  0.51100000000E-03 0. -1.
    9900012    2    1    2    0    0  0.10084612932E+02  0.27154593351E+02  0.13328505545E+02  0.59301946339E+02  0.50000004215E+02 0.  0.
         12    1    1    2    0    0 -0.10084612932E+02 -0.27154593351E+02 -0.13328505545E+02  0.31886053661E+02  0.00000000000E+00 0. -1.
         11    1    3    3    0    0  0.49814725032E+01 -0.33191902650E+01 -0.39148730872E+00  0.59987794500E+01  0.51100000000E-03 0. -1.
        -11    1    3    3    0    0 -0.71241015328E+01  0.81134866950E+00  0.19434059745E+02  0.20714579111E+02  0.51100000000E-03 0.  1.
        -12    1    3    3    0    0  0.12227241962E+02  0.29662434946E+02 -0.57140668912E+01  0.32588587778E+02  0.00000000000E+00 0.  1.
</event>
<event>
 7    1  0.7012292E-013  0.5930187E+02  0.7816164E-02  0.1266605E+00
        -11   -1    0    0    0    0  0.00000000000E+00  0.00000000000E+00  0.45593999997E+02  0.45594000000E+02  0.51100000000E-03 0.  1.
         11   -1    0    0    0    0 -0.00000000000E+00 -0.00000000000E+00 -0.45593999997E+02  0.45594000000E+02  0.51100000000E-03 0. -1.
    9900012    2    1    2    0    0  0.82600243803E+01  0.20015373688E+02  0.23406881457E+02  0.59301870003E+02  0.49999864996E+02 0.  0.
         12    1    1    2    0    0 -0.82600243803E+01 -0.20015373688E+02 -0.23406881457E+02  0.31886129997E+02  0.00000000000E+00 0. -1.
         11    1    3    3    0    0  0.21192563632E+00  0.94777944566E+01  0.22085666390E+02  0.24034353755E+02  0.51100000000E-03 0. -1.
        -11    1    3    3    0    0  0.70259988382E+01 -0.10317660030E+02  0.60299912530E+01  0.13862884366E+02  0.51100000000E-03 0.  1.
         12    1    3    3    0    0  0.10220999058E+01  0.20855239261E+02 -0.47087761862E+01  0.21404631883E+02  0.00000000000E+00 0. -1.
</event>
<event>
 7    1  0.7012292E-013  0.5930195E+02  0.7816164E-02  0.1266605E+00
        -11   -1    0    0    0    0  0.00000000000E+00  0.00000000000E+00  0.45593999997E+02  0.45594000000E+02  0.51100000000E-03 0. -1.
         11   -1    0    0    0    0 -0.00000000000E+00 -0.00000000000E+00 -0.45593999997E+02  0.45594000000E+02  0.51100000000E-03 0.  1.
    9900012    2    1    2    0    0 -0.80176651632E+01  0.15337830538E+02 -0.26780364327E+02  0.59301954247E+02  0.50000018637E+02 0.  0.
         12    1    1    2    0    0  0.80176651632E+01 -0.15337830538E+02  0.26780364327E+02  0.31886045753E+02  0.00000000000E+00 0. -1.
         11    1    3    3    0    0  0.12000214730E+01 -0.92848568114E+00  0.13268952205E+01  0.20156359749E+01  0.51100000000E-03 0. -1.
        -11    1    3    3    0    0  0.16462428242E+02  0.17699171768E+02 -0.14527378562E+02  0.28201364382E+02  0.51100000000E-03 0.  1.
        -12    1    3    3    0    0 -0.25680114878E+02 -0.14328555493E+01 -0.13579880986E+02  0.29084953890E+02  0.00000000000E+00 0.  1.
</event>
<event>
 7    1  0.7012292E-013  0.5930197E+02  0.7816164E-02  0.1266605E+00
        -11   -1    0    0    0    0  0.00000000000E+00  0.00000000000E+00  0.45593999997E+02  0.45594000000E+02  0.51100000000E-03 0.  1.
         11   -1    0    0    0    0 -0.00000000000E+00 -0.00000000000E+00 -0.45593999997E+02  0.45594000000E+02  0.51100000000E-03 0. -1.
    9900012    2    1    2    0    0 -0.11233724937E+02  0.73099352613E+01  0.28932458570E+02  0.59301970326E+02  0.50000047961E+02 0.  0.
         12    1    1    2    0    0  0.11233724937E+02 -0.73099352613E+01 -0.28932458570E+02  0.31886029674E+02  0.00000000000E+00 0. -1.
         11    1    3    3    0    0 -0.17251279765E+02  0.16680861384E+02  0.35820795868E+02  0.43115973919E+02  0.51100000000E-03 0. -1.
        -11    1    3    3    0    0  0.65744571518E+00 -0.42306738862E+01  0.18964932826E+01  0.46826833581E+01  0.51100000000E-03 0.  1.
        -12    1    3    3    0    0  0.53601091127E+01 -0.51402522369E+01 -0.87848305813E+01  0.11503313049E+02  0.00000000000E+00 0.  1.
</event>
<event>
 7    1  0.7012292E-013  0.5930196E+02  0.7816164E-02  0.1266605E+00
        -11   -1    0    0    0    0  0.00000000000E+00  0.00000000000E+00  0.45593999997E+02  0.45594000000E+02  0.51100000000E-03 0.  1.
         11   -1    0    0    0    0 -0.00000000000E+00 -0.00000000000E+00 -0.45593999997E+02  0.45594000000E+02  0.51100000000E-03 0. -1.
    9900012    2    1    2    0    0  0.29646118369E+02  0.72968928959E+01  0.91968782700E+01  0.59301959948E+02  0.50000029034E+02 0.  0.
         12    1    1    2    0    0 -0.29646118369E+02 -0.72968928959E+01 -0.91968782700E+01  0.31886040052E+02  0.00000000000E+00 0. -1.
         11    1    3    3    0    0  0.15524238772E+02 -0.62852874143E+01  0.11633400128E+02  0.20392224649E+02  0.51100000000E-03 0.  1.
        -11    1    3    3    0    0  0.19505487425E+02  0.73538953448E+00 -0.11150150919E+02  0.22479561900E+02  0.51100000000E-03 0. -1.
        -12    1    3    3    0    0 -0.53836078276E+01  0.12846790776E+02  0.87136290616E+01  0.16430173398E+02  0.00000000000E+00 0.  1.
</event>
<event>
 7    1  0.7012292E-013  0.5930198E+02  0.7816164E-02  0.1266605E+00
        -11   -1    0    0    0    0  0.00000000000E+00  0.00000000000E+00  0.45593999997E+02  0.45594000000E+02  0.51100000000E-03 0.  1.
         11   -1    0    0    0    0 -0.00000000000E+00 -0.00000000000E+00 -0.45593999997E+02  0.45594000000E+02  0.51100000000E-03 0. -1.
    9900012    2    1    2    0    0  0.25354268698E+02  0.11649920003E+02  0.15432388143E+02  0.59301981417E+02  0.50000068188E+02 0.  0.
         12    1    1    2    0    0 -0.25354268698E+02 -0.11649920003E+02 -0.15432388143E+02  0.31886018583E+02  0.00000000000E+00 0. -1.
         11    1    3    3    0    0 -0.45868639591E+01  0.35381144592E+01  0.48358172848E+01  0.75460389596E+01  0.51100000000E-03 0. -1.
        -11    1    3    3    0    0  0.13592175840E+02 -0.11710716354E+02  0.17590894234E+02  0.25126234931E+02  0.51100000000E-03 0.  1.
        -12    1    3    3    0    0  0.16348956817E+02  0.19822521898E+02 -0.69943233758E+01  0.26629707526E+02  0.00000000000E+00 0.  1.
</event>
<event>
 7    1  0.7012292E-013  0.5930194E+02  0.7816164E-02  0.1266605E+00
        -11   -1    0    0    0    0  0.00000000000E+00  0.00000000000E+00  0.45593999997E+02  0.45594000000E+02  0.51100000000E-03 0.  1.
         11   -1    0    0    0    0 -0.00000000000E+00 -0.00000000000E+00 -0.45593999997E+02  0.45594000000E+02  0.51100000000E-03 0. -1.
    9900012    2    1    2    0    0  0.13466591033E+02  0.27597240020E+02  0.85886032113E+01  0.59301939787E+02  0.49999992266E+02 0.  0.
         12    1    1    2    0    0 -0.13466591033E+02 -0.27597240020E+02 -0.85886032113E+01  0.31886060213E+02  0.00000000000E+00 0. -1.
         11    1    3    3    0    0 -0.63899542946E+01  0.12284087333E+02 -0.37414789050E+01  0.14343255633E+02  0.51100000000E-03 0. -1.
        -11    1    3    3    0    0 -0.48874957723E+01  0.13221953524E+02  0.14260298452E+02  0.20051528174E+02  0.51100000000E-03 0.  1.
        -12    1    3    3    0    0  0.24744041100E+02  0.20911991635E+01 -0.19302163361E+01  0.24907155980E+02  0.00000000000E+00 0.  1.
</event>
<event>
 7    1  0.7012292E-013  0.5930199E+02  0.7816164E-02  0.1266605E+00
        -11   -1    0    0    0    0  0.00000000000E+00  0.00000000000E+00  0.45593999997E+02  0.45594000000E+02  0.51100000000E-03 0. -1.
         11   -1    0    0    0    0 -0.00000000000E+00 -0.00000000000E+00 -0.45593999997E+02  0.45594000000E+02  0.51100000000E-03 0.  1.
    9900012    2    1    2    0    0 -0.45119748147E+00  0.25087789731E+02  0.19675283038E+02  0.59301991542E+02  0.50000086654E+02 0.  0.
         12    1    1    2    0    0  0.45119748147E+00 -0.25087789731E+02 -0.19675283038E+02  0.31886008458E+02  0.00000000000E+00 0. -1.
         11    1    3    3    0    0 -0.67437061443E+01 -0.16423668696E+01 -0.16772017988E+01  0.71405845440E+01  0.51100000000E-03 0. -1.
        -11    1    3    3    0    0  0.58339153884E+01  0.34450154788E+01 -0.10625249901E+02  0.12601533087E+02  0.51100000000E-03 0.  1.
         12    1    3    3    0    0  0.45859327439E+00  0.23285141122E+02  0.31977734738E+02  0.39559873911E+02  0.00000000000E+00 0. -1.
</event>
<event>
 7    1  0.7012292E-013  0.5930194E+02  0.7816164E-02  0.1266605E+00
        -11   -1    0    0    0    0  0.00000000000E+00  0.00000000000E+00  0.45593999997E+02  0.45594000000E+02  0.51100000000E-03 0.  1.
         11   -1    0    0    0    0 -0.00000000000E+00 -0.00000000000E+00 -0.45593999997E+02  0.45594000000E+02  0.51100000000E-03 0. -1.
    9900012    2    1    2    0    0  0.22322128236E+02  0.86774111092E+01  0.21051037325E+02  0.59301936508E+02  0.49999986287E+02 0.  0.
         12    1    1    2    0    0 -0.22322128236E+02 -0.86774111092E+01 -0.21051037325E+02  0.31886063492E+02  0.00000000000E+00 0. -1.
         11    1    3    3    0    0 -0.69887868553E+01  0.41202650198E+01  0.55835135303E+01  0.98486216877E+01  0.51100000000E-03 0. -1.
        -11    1    3    3    0    0  0.15442382024E+02  0.19579495676E+02  0.14799046389E+02  0.28997165169E+02  0.51100000000E-03 0.  1.
        -12    1    3    3    0    0  0.13868533067E+02 -0.15022349587E+02  0.66847740514E+00  0.20456149652E+02  0.00000000000E+00 0.  1.
</event>
<event>
 7    1  0.7012292E-013  0.5930193E+02  0.7816164E-02  0.1266605E+00
        -11   -1    0    0    0    0  0.00000000000E+00  0.00000000000E+00  0.45593999997E+02  0.45594000000E+02  0.51100000000E-03 0.  1.
         11   -1    0    0    0    0 -0.00000000000E+00 -0.00000000000E+00 -0.45593999997E+02  0.45594000000E+02  0.51100000000E-03 0. -1.
    9900012    2    1    2    0    0  0.28680850898E+02 -0.13678314877E+02  0.26521060844E+01  0.59301934504E+02  0.49999982631E+02 0.  0.
         12    1    1    2    0    0 -0.28680850898E+02  0.13678314877E+02 -0.26521060844E+01  0.31886065496E+02  0.00000000000E+00 0. -1.
         11    1    3    3    0    0  0.10692608445E+02 -0.18710696852E+02 -0.27818675395E+01  0.21729262281E+02  0.51100000000E-03 0. -1.
        -11    1    3    3    0    0  0.13361282600E+02 -0.12760958573E+02  0.51695463194E+01  0.19185675537E+02  0.51100000000E-03 0.  1.
         12    1    3    3    0    0  0.46269598543E+01  0.17793340547E+02  0.26442730460E+00  0.18386996686E+02  0.00000000000E+00 0. -1.
</event>
<event>
 7    1  0.7012292E-013  0.5930195E+02  0.7816164E-02  0.1266605E+00
        -11   -1    0    0    0    0  0.00000000000E+00  0.00000000000E+00  0.45593999997E+02  0.45594000000E+02  0.51100000000E-03 0. -1.
         11   -1    0    0    0    0 -0.00000000000E+00 -0.00000000000E+00 -0.45593999997E+02  0.45594000000E+02  0.51100000000E-03 0.  1.
    9900012    2    1    2    0    0  0.20077889619E+02  0.58748215163E+01 -0.24064185543E+02  0.59301949676E+02  0.50000010301E+02 0.  0.
         12    1    1    2    0    0 -0.20077889619E+02 -0.58748215163E+01  0.24064185543E+02  0.31886050324E+02  0.00000000000E+00 0. -1.
         11    1    3    3    0    0  0.17117918945E+02  0.20447151702E+01  0.72265784230E+01  0.18692978497E+02  0.51100000000E-03 0. -1.
        -11    1    3    3    0    0 -0.32502708323E+01 -0.62921852647E+01  0.62166591669E-01  0.70823527754E+01  0.51100000000E-03 0.  1.
        -12    1    3    3    0    0  0.62102415067E+01  0.10122291611E+02 -0.31352930557E+02  0.33526618403E+02  0.00000000000E+00 0.  1.
</event>
<event>
 7    1  0.7012292E-013  0.5930190E+02  0.7816164E-02  0.1266605E+00
        -11   -1    0    0    0    0  0.00000000000E+00  0.00000000000E+00  0.45593999997E+02  0.45594000000E+02  0.51100000000E-03 0. -1.
         11   -1    0    0    0    0 -0.00000000000E+00 -0.00000000000E+00 -0.45593999997E+02  0.45594000000E+02  0.51100000000E-03 0.  1.
    9900012    2    1    2    0    0 -0.12262442305E+01 -0.34684988348E+01 -0.31673158458E+02  0.59301903880E+02  0.49999926780E+02 0.  0.
         12    1    1    2    0    0  0.12262442305E+01  0.34684988348E+01  0.31673158458E+02  0.31886096120E+02  0.00000000000E+00 0. -1.
         11    1    3    3    0    0  0.93905215332E+00  0.10389970108E+02  0.40488750605E-01  0.10432398448E+02  0.51100000000E-03 0. -1.
        -11    1    3    3    0    0 -0.74435268998E+01 -0.21662070690E+02 -0.96056530409E+01  0.24837873699E+02  0.51100000000E-03 0.  1.
        -12    1    3    3    0    0  0.52782305159E+01  0.78036017475E+01 -0.22107994168E+02  0.24031631733E+02  0.00000000000E+00 0.  1.
</event>
<event>
 7    1  0.7012292E-013  0.5930193E+02  0.7816164E-02  0.1266605E+00
        -11   -1    0    0    0    0  0.00000000000E+00  0.00000000000E+00  0.45593999997E+02  0.45594000000E+02  0.51100000000E-03 0.  1.
         11   -1    0    0    0    0 -0.00000000000E+00 -0.00000000000E+00 -0.45593999997E+02  0.45594000000E+02  0.51100000000E-03 0. -1.
    9900012    2    1    2    0    0  0.17352585205E+02 -0.18575499286E+02  0.19249939357E+02  0.59301928554E+02  0.49999971779E+02 0.  0.
         12    1    1    2    0    0 -0.17352585205E+02  0.18575499286E+02 -0.19249939357E+02  0.31886071446E+02  0.00000000000E+00 0. -1.
         11    1    3    3    0    0  0.29920329925E+01 -0.83507239093E+01  0.10401199488E+02  0.13670106155E+02  0.51100000000E-03 0.  1.
        -11    1    3    3    0    0  0.33783594203E+01 -0.14457329009E+02  0.22906768973E+02  0.27297394372E+02  0.51100000000E-03 0. -1.
         12    1    3    3    0    0  0.10982192792E+02  0.42325536323E+01 -0.14058029104E+02  0.18334428027E+02  0.00000000000E+00 0. -1.
</event>
<event>
 7    1  0.7012292E-013  0.5930195E+02  0.7816164E-02  0.1266605E+00
        -11   -1    0    0    0    0  0.00000000000E+00  0.00000000000E+00  0.45593999997E+02  0.45594000000E+02  0.51100000000E-03 0.  1.
         11   -1    0    0    0    0 -0.00000000000E+00 -0.00000000000E+00 -0.45593999997E+02  0.45594000000E+02  0.51100000000E-03 0. -1.
    9900012    2    1    2    0    0  0.41462810846E+00 -0.18076117882E+02  0.26264087493E+02  0.59301949037E+02  0.50000009136E+02 0.  0.
         12    1    1    2    0    0 -0.41462810846E+00  0.18076117882E+02 -0.26264087493E+02  0.31886050963E+02  0.00000000000E+00 0. -1.
         11    1    3    3    0    0 -0.20965305593E+01 -0.32935155627E+01 -0.20698985377E+01  0.44189552346E+01  0.51100000000E-03 0. -1.
        -11    1    3    3    0    0  0.63906917441E+01 -0.29078865431E+02  0.10208625535E+02  0.31474392628E+02  0.51100000000E-03 0.  1.
         12    1    3    3    0    0 -0.38795330764E+01  0.14296263112E+02  0.18125360496E+02  0.23408601175E+02  0.00000000000E+00 0. -1.
</event>
<event>
 7    1  0.7012292E-013  0.5930195E+02  0.7816164E-02  0.1266605E+00
        -11   -1    0    0    0    0  0.00000000000E+00  0.00000000000E+00  0.45593999997E+02  0.45594000000E+02  0.51100000000E-03 0.  1.
         11   -1    0    0    0    0 -0.00000000000E+00 -0.00000000000E+00 -0.45593999997E+02  0.45594000000E+02  0.51100000000E-03 0. -1.
    9900012    2    1    2    0    0 -0.16371820653E+02 -0.20131483022E+02  0.18531240266E+02  0.59301953115E+02  0.50000016573E+02 0.  0.
         12    1    1    2    0    0  0.16371820653E+02  0.20131483022E+02 -0.18531240266E+02  0.31886046885E+02  0.00000000000E+00 0. -1.
         11    1    3    3    0    0 -0.22083230957E+02 -0.13466767689E+02  0.16357973349E+02  0.30604022838E+02  0.51100000000E-03 0. -1.
        -11    1    3    3    0    0 -0.50704479348E+01 -0.14328081468E+02 -0.48108134836E+00  0.15206406556E+02  0.51100000000E-03 0.  1.
         12    1    3    3    0    0  0.10781858239E+02  0.76633661359E+01  0.26543482655E+01  0.13491523722E+02  0.00000000000E+00 0. -1.
</event>
<event>
 7    1  0.7012292E-013  0.5930196E+02  0.7816164E-02  0.1266605E+00
        -11   -1    0    0    0    0  0.00000000000E+00  0.00000000000E+00  0.45593999997E+02  0.45594000000E+02  0.51100000000E-03 0.  1.
         11   -1    0    0    0    0 -0.00000000000E+00 -0.00000000000E+00 -0.45593999997E+02  0.45594000000E+02  0.51100000000E-03 0. -1.
    9900012    2    1    2    0    0 -0.22027606263E+02  0.16798938961E+02  0.15789239094E+02  0.59301955105E+02  0.50000020202E+02 0.  0.
         12    1    1    2    0    0  0.22027606263E+02 -0.16798938961E+02 -0.15789239094E+02  0.31886044895E+02  0.00000000000E+00 0. -1.
         11    1    3    3    0    0 -0.50104630120E+01  0.10603228326E+01 -0.37700370100E+01  0.63594184814E+01  0.51100000000E-03 0. -1.
        -11    1    3    3    0    0 -0.12701073242E+02  0.12881756529E+02 -0.11512361532E+02  0.21442746584E+02  0.51100000000E-03 0.  1.
        -12    1    3    3    0    0 -0.43160700087E+01  0.28568595993E+01  0.31071637637E+02  0.31499790039E+02  0.00000000000E+00 0.  1.
</event>
<event>
 7    1  0.7012292E-013  0.5930187E+02  0.7816164E-02  0.1266605E+00
        -11   -1    0    0    0    0  0.00000000000E+00  0.00000000000E+00  0.45593999997E+02  0.45594000000E+02  0.51100000000E-03 0. -1.
         11   -1    0    0    0    0 -0.00000000000E+00 -0.00000000000E+00 -0.45593999997E+02  0.45594000000E+02  0.51100000000E-03 0.  1.
    9900012    2    1    2    0    0 -0.12052261464E+02 -0.80442858252E+01  0.28403486187E+02  0.59301865578E+02  0.49999856926E+02 0.  0.
         12    1    1    2    0    0  0.12052261464E+02  0.80442858252E+01 -0.28403486187E+02  0.31886134422E+02  0.00000000000E+00 0. -1.
         11    1    3    3    0    0  0.74333624536E+01 -0.13851474555E+01  0.22475093498E+02  0.23712936107E+02  0.51100000000E-03 0. -1.
        -11    1    3    3    0    0 -0.75039462888E+01 -0.13833092607E+02  0.12554475326E+02  0.20131530293E+02  0.51100000000E-03 0.  1.
        -12    1    3    3    0    0 -0.11981677629E+02  0.71739542378E+01 -0.66260826366E+01  0.15457399177E+02  0.00000000000E+00 0.  1.
</event>
<event>
 7    1  0.7012292E-013  0.5930193E+02  0.7816164E-02  0.1266605E+00
        -11   -1    0    0    0    0  0.00000000000E+00  0.00000000000E+00  0.45593999997E+02  0.45594000000E+02  0.51100000000E-03 0. -1.
         11   -1    0    0    0    0 -0.00000000000E+00 -0.00000000000E+00 -0.45593999997E+02  0.45594000000E+02  0.51100000000E-03 0.  1.
    9900012    2    1    2    0    0 -0.89281375175E+00 -0.28699824167E+02 -0.13865233085E+02  0.59301926047E+02  0.49999967207E+02 0.  0.
         12    1    1    2    0    0  0.89281375175E+00  0.28699824167E+02  0.13865233085E+02  0.31886073953E+02  0.00000000000E+00 0. -1.
         11    1    3    3    0    0  0.33500660014E+01 -0.49260810710E+01 -0.11910376387E+02  0.13317142444E+02  0.51100000000E-03 0. -1.
        -11    1    3    3    0    0  0.10406402519E+01 -0.14869456885E+02 -0.20141607180E+02  0.25057294751E+02  0.51100000000E-03 0.  1.
         12    1    3    3    0    0 -0.52835200051E+01 -0.89042862117E+01  0.18186750481E+02  0.20927488852E+02  0.00000000000E+00 0. -1.
</event>
<event>
 7    1  0.7012292E-013  0.5930190E+02  0.7816164E-02  0.1266605E+00
        -11   -1    0    0    0    0  0.00000000000E+00  0.00000000000E+00  0.45593999997E+02  0.45594000000E+02  0.51100000000E-03 0.  1.
         11   -1    0    0    0    0 -0.00000000000E+00 -0.00000000000E+00 -0.45593999997E+02  0.45594000000E+02  0.51100000000E-03 0. -1.
    9900012    2    1    2    0    0  0.21307746100E+02  0.21787837138E+01  0.23621094558E+02  0.59301901925E+02  0.49999923214E+02 0.  0.
         12    1    1    2    0    0 -0.21307746100E+02 -0.21787837138E+01 -0.23621094558E+02  0.31886098075E+02  0.00000000000E+00 0. -1.
         11    1    3    3    0    0 -0.36586488116E+01 -0.44707854190E+01  0.25799377604E+02  0.26438258612E+02  0.51100000000E-03 0. -1.
        -11    1    3    3    0    0  0.96945546837E+01 -0.39930766664E+01  0.64890407454E+01  0.12330316372E+02  0.51100000000E-03 0.  1.
         12    1    3    3    0    0  0.15271840228E+02  0.10642645799E+02 -0.86673237917E+01  0.20533326941E+02  0.00000000000E+00 0. -1.
</event>
<event>
 7    1  0.7012292E-013  0.5930195E+02  0.7816164E-02  0.1266605E+00
        -11   -1    0    0    0    0  0.00000000000E+00  0.00000000000E+00  0.45593999997E+02  0.45594000000E+02  0.51100000000E-03 0. -1.
         11   -1    0    0    0    0 -0.00000000000E+00 -0.00000000000E+00 -0.45593999997E+02  0.45594000000E+02  0.51100000000E-03 0.  1.
    9900012    2    1    2    0    0 -0.69323603351E+01 -0.26702743719E+02 -0.15988310899E+02  0.59301949330E+02  0.50000009669E+02 0.  0.
         12    1    1    2    0    0  0.69323603351E+01  0.26702743719E+02  0.15988310899E+02  0.31886050670E+02  0.00000000000E+00 0. -1.
         11    1    3    3    0    0  0.52678637220E+01 -0.81806177430E+01 -0.13152349144E+02  0.16360231756E+02  0.51100000000E-03 0. -1.
        -11    1    3    3    0    0 -0.74184537912E+01  0.35247559952E+01 -0.15155254817E+02  0.17237723466E+02  0.51100000000E-03 0.  1.
         12    1    3    3    0    0 -0.47817702659E+01 -0.22046881971E+02  0.12319293061E+02  0.25703994107E+02  0.00000000000E+00 0. -1.
</event>
<event>
 7    1  0.7012292E-013  0.5930195E+02  0.7816164E-02  0.1266605E+00
        -11   -1    0    0    0    0  0.00000000000E+00  0.00000000000E+00  0.45593999997E+02  0.45594000000E+02  0.51100000000E-03 0. -1.
         11   -1    0    0    0    0 -0.00000000000E+00 -0.00000000000E+00 -0.45593999997E+02  0.45594000000E+02  0.51100000000E-03 0.  1.
    9900012    2    1    2    0    0 -0.16273245996E+01 -0.21735718095E+01 -0.31770229914E+02  0.59301951193E+02  0.50000013067E+02 0.  0.
         12    1    1    2    0    0  0.16273245996E+01  0.21735718095E+01  0.31770229914E+02  0.31886048807E+02  0.00000000000E+00 0. -1.
         11    1    3    3    0    0 -0.15748196476E+02  0.10958636666E+02 -0.25861289211E+02  0.32200988956E+02  0.51100000000E-03 0. -1.
        -11    1    3    3    0    0 -0.16421410516E+01 -0.54648160851E+01  0.39968545518E+01  0.69667559629E+01  0.51100000000E-03 0.  1.
        -12    1    3    3    0    0  0.15763012929E+02 -0.76673923903E+01 -0.99057952547E+01  0.20134206274E+02  0.00000000000E+00 0.  1.
</event>
<event>
 7    1  0.7012292E-013  0.5930195E+02  0.7816164E-02  0.1266605E+00
        -11   -1    0    0    0    0  0.00000000000E+00  0.00000000000E+00  0.45593999997E+02  0.45594000000E+02  0.51100000000E-03 0. -1.
         11   -1    0    0    0    0 -0.00000000000E+00 -0.00000000000E+00 -0.45593999997E+02  0.45594000000E+02  0.51100000000E-03 0.  1.
    9900012    2    1    2    0    0 -0.56744762033E+01  0.31364597458E+02  0.88453021653E+00  0.59301952149E+02  0.50000014810E+02 0.  0.
         12    1    1    2    0    0  0.56744762033E+01 -0.31364597458E+02 -0.88453021653E+00  0.31886047851E+02  0.00000000000E+00 0. -1.
         11    1    3    3    0    0 -0.12236970298E+02  0.37048591073E+02  0.11455539980E+02  0.40664123488E+02  0.51100000000E-03 0. -1.
        -11    1    3    3    0    0  0.28629665877E+01  0.25140755914E+01 -0.86341860694E+01  0.94374955949E+01  0.51100000000E-03 0.  1.
        -12    1    3    3    0    0  0.36995275074E+01 -0.81980692064E+01 -0.19368236944E+01  0.92003330654E+01  0.00000000000E+00 0.  1.
</event>
<event>
 7    1  0.7012292E-013  0.5930193E+02  0.7816164E-02  0.1266605E+00
        -11   -1    0    0    0    0  0.00000000000E+00  0.00000000000E+00  0.45593999997E+02  0.45594000000E+02  0.51100000000E-03 0. -1.
         11   -1    0    0    0    0 -0.00000000000E+00 -0.00000000000E+00 -0.45593999997E+02  0.45594000000E+02  0.51100000000E-03 0.  1.
    9900012    2    1    2    0    0 -0.21567220792E+02 -0.67998427191E+01 -0.22479731989E+02  0.59301933702E+02  0.49999981168E+02 0.  0.
         12    1    1    2    0    0  0.21567220792E+02  0.67998427191E+01  0.22479731989E+02  0.31886066298E+02  0.00000000000E+00 0. -1.
         11    1    3    3    0    0 -0.12447567473E+02 -0.10739609637E+02  0.43214774693E+01  0.16998715214E+02  0.51100000000E-03 0. -1.
        -11    1    3    3    0    0  0.95877559978E+01  0.85827577034E+01 -0.69138308993E+01  0.14607869552E+02  0.51100000000E-03 0.  1.
        -12    1    3    3    0    0 -0.18707409316E+02 -0.46429907859E+01 -0.19887378559E+02  0.27695348936E+02  0.00000000000E+00 0.  1.
</event>
<event>
 7    1  0.7012292E-013  0.5930195E+02  0.7816164E-02  0.1266605E+00
        -11   -1    0    0    0    0  0.00000000000E+00  0.00000000000E+00  0.45593999997E+02  0.45594000000E+02  0.51100000000E-03 0.  1.
         11   -1    0    0    0    0 -0.00000000000E+00 -0.00000000000E+00 -0.45593999997E+02  0.45594000000E+02  0.51100000000E-03 0. -1.
    9900012    2    1    2    0    0  0.24717575290E+02 -0.18679911015E+02  0.75380731789E+01  0.59301950527E+02  0.50000011854E+02 0.  0.
         12    1    1    2    0    0 -0.24717575290E+02  0.18679911015E+02 -0.75380731789E+01  0.31886049473E+02  0.00000000000E+00 0. -1.
         11    1    3    3    0    0  0.29763971663E+02  0.37413524250E+01 -0.51213969157E+01  0.30432226894E+02  0.51100000000E-03 0. -1.
        -11    1    3    3    0    0 -0.95400326643E+00 -0.61678318160E+01  0.10159749836E+02  0.11923623130E+02  0.51100000000E-03 0.  1.
        -12    1    3    3    0    0 -0.40923931070E+01 -0.16253431624E+02  0.24997202584E+01  0.16946100503E+02  0.00000000000E+00 0.  1.
</event>
<event>
 7    1  0.7012292E-013  0.5930193E+02  0.7816164E-02  0.1266605E+00
        -11   -1    0    0    0    0  0.00000000000E+00  0.00000000000E+00  0.45593999997E+02  0.45594000000E+02  0.51100000000E-03 0.  1.
         11   -1    0    0    0    0 -0.00000000000E+00 -0.00000000000E+00 -0.45593999997E+02  0.45594000000E+02  0.51100000000E-03 0. -1.
    9900012    2    1    2    0    0 -0.18998089366E+02 -0.94818036014E+01  0.23788436665E+02  0.59301925954E+02  0.49999967038E+02 0.  0.
         12    1    1    2    0    0  0.18998089366E+02  0.94818036014E+01 -0.23788436665E+02  0.31886074046E+02  0.00000000000E+00 0. -1.
         11    1    3    3    0    0 -0.69330510309E+01 -0.23096196261E+01 -0.36205669366E+01  0.81553690670E+01  0.51100000000E-03 0. -1.
        -11    1    3    3    0    0 -0.18644856985E+02  0.12493274199E+02  0.14479262077E+02  0.26708830427E+02  0.51100000000E-03 0.  1.
        -12    1    3    3    0    0  0.65798186500E+01 -0.19665458174E+02  0.12929741524E+02  0.24437726460E+02  0.00000000000E+00 0.  1.
</event>
<event>
 7    1  0.7012292E-013  0.5930195E+02  0.7816164E-02  0.1266605E+00
        -11   -1    0    0    0    0  0.00000000000E+00  0.00000000000E+00  0.45593999997E+02  0.45594000000E+02  0.51100000000E-03 0.  1.
         11   -1    0    0    0    0 -0.00000000000E+00 -0.00000000000E+00 -0.45593999997E+02  0.45594000000E+02  0.51100000000E-03 0. -1.
    9900012    2    1    2    0    0 -0.21053064772E+02 -0.16468183490E+02 -0.17386427043E+02  0.59301945853E+02  0.50000003329E+02 0.  0.
         12    1    1    2    0    0  0.21053064772E+02  0.16468183490E+02  0.17386427043E+02  0.31886054147E+02  0.00000000000E+00 0. -1.
         11    1    3    3    0    0 -0.16860511587E+01 -0.10345582302E+02  0.74458059391E+01  0.12857444070E+02  0.51100000000E-03 0. -1.
        -11    1    3    3    0    0 -0.16306292928E+02 -0.19251700468E+02 -0.12425427753E+02  0.28123200655E+02  0.51100000000E-03 0.  1.
         12    1    3    3    0    0 -0.30607206849E+01  0.13129099280E+02 -0.12406805229E+02  0.18321301128E+02  0.00000000000E+00 0. -1.
</event>
<event>
 7    1  0.7012292E-013  0.5930176E+02  0.7816164E-02  0.1266605E+00
        -11   -1    0    0    0    0  0.00000000000E+00  0.00000000000E+00  0.45593999997E+02  0.45594000000E+02  0.51100000000E-03 0. -1.
         11   -1    0    0    0    0 -0.00000000000E+00 -0.00000000000E+00 -0.45593999997E+02  0.45594000000E+02  0.51100000000E-03 0.  1.
    9900012    2    1    2    0    0  0.35991871031E+01 -0.27969499680E+02  0.14882376011E+02  0.59301761968E+02  0.49999667965E+02 0.  0.
         12    1    1    2    0    0 -0.35991871031E+01  0.27969499680E+02 -0.14882376011E+02  0.31886238032E+02  0.00000000000E+00 0. -1.
         11    1    3    3    0    0 -0.14129006266E+02 -0.11009129510E+02  0.76593094551E+01  0.19480625561E+02  0.51100000000E-03 0. -1.
        -11    1    3    3    0    0  0.12620585622E+02 -0.47621752423E+01 -0.10930261731E+02  0.17361685294E+02  0.51100000000E-03 0.  1.
         12    1    3    3    0    0  0.51076077474E+01 -0.12198194927E+02  0.18153328287E+02  0.22459451113E+02  0.00000000000E+00 0. -1.
</event>
<event>
 7    1  0.7012292E-013  0.5930195E+02  0.7816164E-02  0.1266605E+00
        -11   -1    0    0    0    0  0.00000000000E+00  0.00000000000E+00  0.45593999997E+02  0.45594000000E+02  0.51100000000E-03 0.  1.
         11   -1    0    0    0    0 -0.00000000000E+00 -0.00000000000E+00 -0.45593999997E+02  0.45594000000E+02  0.51100000000E-03 0. -1.
    9900012    2    1    2    0    0  0.18295215914E+02  0.23109879226E+02  0.12163008458E+02  0.59301949478E+02  0.50000009939E+02 0.  0.
         12    1    1    2    0    0 -0.18295215914E+02 -0.23109879226E+02 -0.12163008458E+02  0.31886050522E+02  0.00000000000E+00 0. -1.
         11    1    3    3    0    0  0.60620234080E+01  0.60106488630E+01  0.36013854228E+01  0.92653119094E+01  0.51100000000E-03 0. -1.
        -11    1    3    3    0    0  0.11982475323E+02  0.31083281958E+02 -0.59737893670E+00  0.33318268173E+02  0.51100000000E-03 0.  1.
         12    1    3    3    0    0  0.25071718248E+00 -0.13984051595E+02  0.91590019714E+01  0.16718369395E+02  0.00000000000E+00 0. -1.
</event>
<event>
 7    1  0.7012292E-013  0.5930194E+02  0.7816164E-02  0.1266605E+00
        -11   -1    0    0    0    0  0.00000000000E+00  0.00000000000E+00  0.45593999997E+02  0.45594000000E+02  0.51100000000E-03 0.  1.
         11   -1    0    0    0    0 -0.00000000000E+00 -0.00000000000E+00 -0.45593999997E+02  0.45594000000E+02  0.51100000000E-03 0. -1.
    9900012    2    1    2    0    0 -0.13714371927E+01  0.22294762548E+02  0.22754857255E+02  0.59301940260E+02  0.49999993128E+02 0.  0.
         12    1    1    2    0    0  0.13714371927E+01 -0.22294762548E+02 -0.22754857255E+02  0.31886059740E+02  0.00000000000E+00 0. -1.
         11    1    3    3    0    0 -0.89748202878E+01  0.20751445573E+02  0.41012850432E+01  0.22978042385E+02  0.51100000000E-03 0. -1.
        -11    1    3    3    0    0  0.16446610556E+01  0.89495442581E+01  0.23824286453E+02  0.25502860186E+02  0.51100000000E-03 0.  1.
        -12    1    3    3    0    0  0.59587220394E+01 -0.74062272830E+01 -0.51707142409E+01  0.10821037689E+02  0.00000000000E+00 0.  1.
</event>
<event>
 7    1  0.7012292E-013  0.5930194E+02  0.7816164E-02  0.1266605E+00
        -11   -1    0    0    0    0  0.00000000000E+00  0.00000000000E+00  0.45593999997E+02  0.45594000000E+02  0.51100000000E-03 0.  1.
         11   -1    0    0    0    0 -0.00000000000E+00 -0.00000000000E+00 -0.45593999997E+02  0.45594000000E+02  0.51100000000E-03 0. -1.
    9900012    2    1    2    0    0 -0.19653174467E+02 -0.25077474192E+02  0.12625264638E+01  0.59301937974E+02  0.49999988959E+02 0.  0.
         12    1    1    2    0    0  0.19653174467E+02  0.25077474192E+02 -0.12625264638E+01  0.31886062026E+02  0.00000000000E+00 0. -1.
         11    1    3    3    0    0 -0.24059338951E+02 -0.12150324453E+02 -0.14940203194E+01  0.26994708223E+02  0.51100000000E-03 0. -1.
        -11    1    3    3    0    0 -0.11328625170E+02  0.71282905065E+00  0.14368160575E+01  0.11441604526E+02  0.51100000000E-03 0.  1.
        -12    1    3    3    0    0  0.15734789653E+02 -0.13639978790E+02  0.13197307258E+01  0.20865625225E+02  0.00000000000E+00 0.  1.
</event>
<event>
 7    1  0.7012292E-013  0.5930195E+02  0.7816164E-02  0.1266605E+00
        -11   -1    0    0    0    0  0.00000000000E+00  0.00000000000E+00  0.45593999997E+02  0.45594000000E+02  0.51100000000E-03 0. -1.
         11   -1    0    0    0    0 -0.00000000000E+00 -0.00000000000E+00 -0.45593999997E+02  0.45594000000E+02  0.51100000000E-03 0.  1.
    9900012    2    1    2    0    0  0.40407168871E+01  0.19264701084E+02 -0.25085133463E+02  0.59301952555E+02  0.50000015552E+02 0.  0.
         12    1    1    2    0    0 -0.40407168871E+01 -0.19264701084E+02  0.25085133463E+02  0.31886047445E+02  0.00000000000E+00 0. -1.
         11    1    3    3    0    0 -0.49743054610E+01  0.11749814702E+02  0.60547064442E+01  0.14123077948E+02  0.51100000000E-03 0. -1.
        -11    1    3    3    0    0 -0.82512148790E+01  0.51168883988E+01 -0.25289185378E+00  0.97123142668E+01  0.51100000000E-03 0.  1.
        -12    1    3    3    0    0  0.17266237227E+02  0.23979979832E+01 -0.30886948053E+02  0.35466560340E+02  0.00000000000E+00 0.  1.
</event>
<event>
 7    1  0.7012292E-013  0.5930194E+02  0.7816164E-02  0.1266605E+00
        -11   -1    0    0    0    0  0.00000000000E+00  0.00000000000E+00  0.45593999997E+02  0.45594000000E+02  0.51100000000E-03 0.  1.
         11   -1    0    0    0    0 -0.00000000000E+00 -0.00000000000E+00 -0.45593999997E+02  0.45594000000E+02  0.51100000000E-03 0. -1.
    9900012    2    1    2    0    0  0.27424171011E+02  0.11817052741E+02  0.11180019315E+02  0.59301941557E+02  0.49999995495E+02 0.  0.
         12    1    1    2    0    0 -0.27424171011E+02 -0.11817052741E+02 -0.11180019315E+02  0.31886058443E+02  0.00000000000E+00 0. -1.
         11    1    3    3    0    0 -0.25740578064E+01  0.84217915815E+01 -0.37067856150E+01  0.95547164735E+01  0.51100000000E-03 0. -1.
        -11    1    3    3    0    0  0.23310358947E+02  0.10888860288E+02 -0.61346984967E+01  0.26449473312E+02  0.51100000000E-03 0.  1.
         12    1    3    3    0    0  0.66878698706E+01 -0.74935991283E+01  0.21021503426E+02  0.23297751771E+02  0.00000000000E+00 0. -1.
</event>
<event>
 7    1  0.7012292E-013  0.5930194E+02  0.7816164E-02  0.1266605E+00
        -11   -1    0    0    0    0  0.00000000000E+00  0.00000000000E+00  0.45593999997E+02  0.45594000000E+02  0.51100000000E-03 0.  1.
         11   -1    0    0    0    0 -0.00000000000E+00 -0.00000000000E+00 -0.45593999997E+02  0.45594000000E+02  0.51100000000E-03 0. -1.
    9900012    2    1    2    0    0  0.20638800280E+02 -0.23123798592E+02 -0.74867189831E+01  0.59301935654E+02  0.49999984729E+02 0.  0.
         12    1    1    2    0    0 -0.20638800280E+02  0.23123798592E+02  0.74867189831E+01  0.31886064346E+02  0.00000000000E+00 0. -1.
         11    1    3    3    0    0  0.10564965786E+02 -0.19205212231E+02 -0.26913915441E+01  0.22083982150E+02  0.51100000000E-03 0.  1.
        -11    1    3    3    0    0  0.18051392353E+02 -0.14743460544E+02 -0.46703991441E+01  0.23770465354E+02  0.51100000000E-03 0. -1.
        -12    1    3    3    0    0 -0.79775578595E+01  0.10824874183E+02 -0.12492829488E+00  0.13447488150E+02  0.00000000000E+00 0.  1.
</event>
<event>
 7    1  0.7012292E-013  0.5930194E+02  0.7816164E-02  0.1266605E+00
        -11   -1    0    0    0    0  0.00000000000E+00  0.00000000000E+00  0.45593999997E+02  0.45594000000E+02  0.51100000000E-03 0. -1.
         11   -1    0    0    0    0 -0.00000000000E+00 -0.00000000000E+00 -0.45593999997E+02  0.45594000000E+02  0.51100000000E-03 0.  1.
    9900012    2    1    2    0    0 -0.71211978129E+01 -0.34145051170E+01 -0.30892569164E+02  0.59301935128E+02  0.49999983769E+02 0.  0.
         12    1    1    2    0    0  0.71211978129E+01  0.34145051170E+01  0.30892569164E+02  0.31886064872E+02  0.00000000000E+00 0. -1.
         11    1    3    3    0    0 -0.13832823822E+02 -0.10835979716E+02 -0.17471041669E+02  0.24779079251E+02  0.51100000000E-03 0. -1.
        -11    1    3    3    0    0  0.15846097195E+02 -0.18591901734E+01 -0.14362385349E+02  0.21467032809E+02  0.51100000000E-03 0.  1.
         12    1    3    3    0    0 -0.91344711863E+01  0.92806647728E+01  0.94085785383E+00  0.13055823068E+02  0.00000000000E+00 0. -1.
</event>
<event>
 7    1  0.7012292E-013  0.5930193E+02  0.7816164E-02  0.1266605E+00
        -11   -1    0    0    0    0  0.00000000000E+00  0.00000000000E+00  0.45593999997E+02  0.45594000000E+02  0.51100000000E-03 0. -1.
         11   -1    0    0    0    0 -0.00000000000E+00 -0.00000000000E+00 -0.45593999997E+02  0.45594000000E+02  0.51100000000E-03 0.  1.
    9900012    2    1    2    0    0 -0.30457282190E+02 -0.94325508765E+01 -0.32006335276E+00  0.59301929452E+02  0.49999973418E+02 0.  0.
         12    1    1    2    0    0  0.30457282190E+02  0.94325508765E+01  0.32006335276E+00  0.31886070548E+02  0.00000000000E+00 0. -1.
         11    1    3    3    0    0 -0.95015204516E+01 -0.48987547044E+01  0.27277958401E+01  0.11032568103E+02  0.51100000000E-03 0. -1.
        -11    1    3    3    0    0 -0.20651592268E+02  0.16762713574E+02 -0.42544028866E+01  0.26936532326E+02  0.51100000000E-03 0.  1.
         12    1    3    3    0    0 -0.30416947010E+00 -0.21296509746E+02  0.12065436937E+01  0.21332829023E+02  0.00000000000E+00 0. -1.
</event>
<event>
 7    1  0.7012292E-013  0.5930194E+02  0.7816164E-02  0.1266605E+00
        -11   -1    0    0    0    0  0.00000000000E+00  0.00000000000E+00  0.45593999997E+02  0.45594000000E+02  0.51100000000E-03 0. -1.
         11   -1    0    0    0    0 -0.00000000000E+00 -0.00000000000E+00 -0.45593999997E+02  0.45594000000E+02  0.51100000000E-03 0.  1.
    9900012    2    1    2    0    0 -0.17654944529E+02  0.25909473355E+02  0.58071252279E+01  0.59301943811E+02  0.49999999605E+02 0.  0.
         12    1    1    2    0    0  0.17654944529E+02 -0.25909473355E+02 -0.58071252279E+01  0.31886056189E+02  0.00000000000E+00 0. -1.
         11    1    3    3    0    0 -0.14090779655E+02 -0.60433819954E+01 -0.15090999587E+01  0.15406165005E+02  0.51100000000E-03 0. -1.
        -11    1    3    3    0    0  0.72259069317E+01  0.79445349055E+01 -0.80462334531E+01  0.13419062519E+02  0.51100000000E-03 0.  1.
         12    1    3    3    0    0 -0.10790071806E+02  0.24008320445E+02  0.15362458640E+02  0.30476716287E+02  0.00000000000E+00 0. -1.
</event>
<event>
 7    1  0.7012292E-013  0.5930186E+02  0.7816164E-02  0.1266605E+00
        -11   -1    0    0    0    0  0.00000000000E+00  0.00000000000E+00  0.45593999997E+02  0.45594000000E+02  0.51100000000E-03 0.  1.
         11   -1    0    0    0    0 -0.00000000000E+00 -0.00000000000E+00 -0.45593999997E+02  0.45594000000E+02  0.51100000000E-03 0. -1.
    9900012    2    1    2    0    0  0.11941243608E+02  0.28424027499E+02  0.81367749746E+01  0.59301862806E+02  0.49999851871E+02 0.  0.
         12    1    1    2    0    0 -0.11941243608E+02 -0.28424027499E+02 -0.81367749746E+01  0.31886137194E+02  0.00000000000E+00 0. -1.
         11    1    3    3    0    0 -0.86006996516E+01 -0.20728280801E+01  0.42656363761E+01  0.98216243412E+01  0.51100000000E-03 0. -1.
        -11    1    3    3    0    0 -0.21284633043E+01  0.16028300390E+02  0.13346551751E+02  0.20965858278E+02  0.51100000000E-03 0.  1.
        -12    1    3    3    0    0  0.22670406564E+02  0.14468555189E+02 -0.94754131530E+01  0.28514380187E+02  0.00000000000E+00 0.  1.
</event>
<event>
 7    1  0.7012292E-013  0.5930195E+02  0.7816164E-02  0.1266605E+00
        -11   -1    0    0    0    0  0.00000000000E+00  0.00000000000E+00  0.45593999997E+02  0.45594000000E+02  0.51100000000E-03 0.  1.
         11   -1    0    0    0    0 -0.00000000000E+00 -0.00000000000E+00 -0.45593999997E+02  0.45594000000E+02  0.51100000000E-03 0. -1.
    9900012    2    1    2    0    0 -0.56175858678E+01 -0.24884365249E+02  0.19129323652E+02  0.59301954020E+02  0.50000018224E+02 0.  0.
         12    1    1    2    0    0  0.56175858678E+01  0.24884365249E+02 -0.19129323652E+02  0.31886045980E+02  0.00000000000E+00 0. -1.
         11    1    3    3    0    0 -0.47280608064E+01 -0.27057775034E+02 -0.15589821898E+01  0.27511964207E+02  0.51100000000E-03 0. -1.
        -11    1    3    3    0    0 -0.19859476584E+01 -0.10354231613E+02  0.49573280560E+01  0.11650287640E+02  0.51100000000E-03 0.  1.
        -12    1    3    3    0    0  0.10964225970E+01  0.12527641398E+02  0.15730977786E+02  0.20139702173E+02  0.00000000000E+00 0.  1.
</event>
<event>
 7    1  0.7012292E-013  0.5930207E+02  0.7816164E-02  0.1266604E+00
        -11   -1    0    0    0    0  0.00000000000E+00  0.00000000000E+00  0.45593999997E+02  0.45594000000E+02  0.51100000000E-03 0. -1.
         11   -1    0    0    0    0 -0.00000000000E+00 -0.00000000000E+00 -0.45593999997E+02  0.45594000000E+02  0.51100000000E-03 0.  1.
    9900012    2    1    2    0    0 -0.82164230162E+00  0.18442028674E+01 -0.31821946666E+02  0.59302070973E+02  0.50000231518E+02 0.  0.
         12    1    1    2    0    0  0.82164230162E+00 -0.18442028674E+01  0.31821946666E+02  0.31885929027E+02  0.00000000000E+00 0. -1.
         11    1    3    3    0    0 -0.36895352772E+01  0.61617029299E+01 -0.24713506430E+01  0.75951845152E+01  0.51100000000E-03 0. -1.
        -11    1    3    3    0    0  0.11810865249E+02 -0.17417006421E+02 -0.34345096874E+01  0.21322394511E+02  0.51100000000E-03 0.  1.
         12    1    3    3    0    0 -0.89429722737E+01  0.13099506359E+02 -0.25916086336E+02  0.30384491947E+02  0.00000000000E+00 0. -1.
</event>
<event>
 7    1  0.7012292E-013  0.5930195E+02  0.7816164E-02  0.1266605E+00
        -11   -1    0    0    0    0  0.00000000000E+00  0.00000000000E+00  0.45593999997E+02  0.45594000000E+02  0.51100000000E-03 0. -1.
         11   -1    0    0    0    0 -0.00000000000E+00 -0.00000000000E+00 -0.45593999997E+02  0.45594000000E+02  0.51100000000E-03 0.  1.
    9900012    2    1    2    0    0 -0.11188734351E+02 -0.91486060647E+01 -0.28422446971E+02  0.59301948800E+02  0.50000008703E+02 0.  0.
         12    1    1    2    0    0  0.11188734351E+02  0.91486060647E+01  0.28422446971E+02  0.31886051200E+02  0.00000000000E+00 0. -1.
         11    1    3    3    0    0 -0.19052901314E+02 -0.10081040200E+02  0.41714861265E+01  0.21955448453E+02  0.51100000000E-03 0. -1.
        -11    1    3    3    0    0  0.10543512859E+02 -0.49444147885E+01 -0.18785992628E+02  0.22102633786E+02  0.51100000000E-03 0.  1.
        -12    1    3    3    0    0 -0.26793458957E+01  0.58768489236E+01 -0.13807940470E+02  0.15243866561E+02  0.00000000000E+00 0.  1.
</event>
<event>
 7    1  0.7012292E-013  0.5930196E+02  0.7816164E-02  0.1266605E+00
        -11   -1    0    0    0    0  0.00000000000E+00  0.00000000000E+00  0.45593999997E+02  0.45594000000E+02  0.51100000000E-03 0. -1.
         11   -1    0    0    0    0 -0.00000000000E+00 -0.00000000000E+00 -0.45593999997E+02  0.45594000000E+02  0.51100000000E-03 0.  1.
    9900012    2    1    2    0    0  0.17276036816E+02  0.25102312922E+02 -0.93878754324E+01  0.59301956545E+02  0.50000022828E+02 0.  0.
         12    1    1    2    0    0 -0.17276036816E+02 -0.25102312922E+02  0.93878754324E+01  0.31886043455E+02  0.00000000000E+00 0. -1.
         11    1    3    3    0    0  0.11123548964E+02  0.17521531534E+02 -0.14499493038E+02  0.25317438802E+02  0.51100000000E-03 0. -1.
        -11    1    3    3    0    0 -0.45845445651E+00  0.17588009815E+02 -0.50070502854E+01  0.18292589280E+02  0.51100000000E-03 0.  1.
         12    1    3    3    0    0  0.66109423088E+01 -0.10007228427E+02  0.10118667891E+02  0.15691928463E+02  0.00000000000E+00 0. -1.
</event>
<event>
 7    1  0.7012292E-013  0.5930195E+02  0.7816164E-02  0.1266605E+00
        -11   -1    0    0    0    0  0.00000000000E+00  0.00000000000E+00  0.45593999997E+02  0.45594000000E+02  0.51100000000E-03 0.  1.
         11   -1    0    0    0    0 -0.00000000000E+00 -0.00000000000E+00 -0.45593999997E+02  0.45594000000E+02  0.51100000000E-03 0. -1.
    9900012    2    1    2    0    0  0.76424729223E+00  0.16772840256E+02  0.27107342020E+02  0.59301949201E+02  0.50000009435E+02 0.  0.
         12    1    1    2    0    0 -0.76424729223E+00 -0.16772840256E+02 -0.27107342020E+02  0.31886050799E+02  0.00000000000E+00 0. -1.
         11    1    3    3    0    0 -0.62300454124E+01  0.18586520045E+02  0.13660717684E+02  0.23893250116E+02  0.51100000000E-03 0.  1.
        -11    1    3    3    0    0  0.89464936591E+00  0.80098234858E+01 -0.78021393769E+01  0.11217443955E+02  0.51100000000E-03 0. -1.
        -12    1    3    3    0    0  0.60996433388E+01 -0.98235032742E+01  0.21248763713E+02  0.24191255130E+02  0.00000000000E+00 0.  1.
</event>
<event>
 7    1  0.7012292E-013  0.5930194E+02  0.7816164E-02  0.1266605E+00
        -11   -1    0    0    0    0  0.00000000000E+00  0.00000000000E+00  0.45593999997E+02  0.45594000000E+02  0.51100000000E-03 0. -1.
         11   -1    0    0    0    0 -0.00000000000E+00 -0.00000000000E+00 -0.45593999997E+02  0.45594000000E+02  0.51100000000E-03 0.  1.
    9900012    2    1    2    0    0 -0.23341694910E+02  0.21116164322E+02 -0.50983917219E+01  0.59301941681E+02  0.49999995720E+02 0.  0.
         12    1    1    2    0    0  0.23341694910E+02 -0.21116164322E+02  0.50983917219E+01  0.31886058319E+02  0.00000000000E+00 0. -1.
         11    1    3    3    0    0 -0.47604960351E+01  0.16840569598E+02  0.17398328380E+02  0.24677295994E+02  0.51100000000E-03 0. -1.
        -11    1    3    3    0    0  0.10300366005E+01 -0.46569609645E+01 -0.42023689699E+01  0.63567417789E+01  0.51100000000E-03 0.  1.
        -12    1    3    3    0    0 -0.19611235476E+02  0.89325556888E+01 -0.18294351132E+02  0.28267903908E+02  0.00000000000E+00 0.  1.
</event>
<event>
 7    1  0.7012292E-013  0.5930197E+02  0.7816164E-02  0.1266605E+00
        -11   -1    0    0    0    0  0.00000000000E+00  0.00000000000E+00  0.45593999997E+02  0.45594000000E+02  0.51100000000E-03 0.  1.
         11   -1    0    0    0    0 -0.00000000000E+00 -0.00000000000E+00 -0.45593999997E+02  0.45594000000E+02  0.51100000000E-03 0. -1.
    9900012    2    1    2    0    0  0.30386960002E+02  0.43965134818E+01 -0.86036030046E+01  0.59301974007E+02  0.50000054675E+02 0.  0.
         12    1    1    2    0    0 -0.30386960002E+02 -0.43965134818E+01  0.86036030046E+01  0.31886025993E+02  0.00000000000E+00 0. -1.
         11    1    3    3    0    0  0.12554011937E+02 -0.31729865596E+00 -0.17996985700E+02  0.21945281696E+02  0.51100000000E-03 0. -1.
        -11    1    3    3    0    0  0.11363320471E+02  0.16082026377E+02 -0.22824414170E+01  0.19823374173E+02  0.51100000000E-03 0.  1.
        -12    1    3    3    0    0  0.64696275939E+01 -0.11368214240E+02  0.11675824113E+02  0.17533318138E+02  0.00000000000E+00 0.  1.
</event>
<event>
 7    1  0.7012292E-013  0.5930194E+02  0.7816164E-02  0.1266605E+00
        -11   -1    0    0    0    0  0.00000000000E+00  0.00000000000E+00  0.45593999997E+02  0.45594000000E+02  0.51100000000E-03 0. -1.
         11   -1    0    0    0    0 -0.00000000000E+00 -0.00000000000E+00 -0.45593999997E+02  0.45594000000E+02  0.51100000000E-03 0.  1.
    9900012    2    1    2    0    0 -0.23005886491E+02 -0.14850166659E+02 -0.16337765473E+02  0.59301939665E+02  0.49999992043E+02 0.  0.
         12    1    1    2    0    0  0.23005886491E+02  0.14850166659E+02  0.16337765473E+02  0.31886060335E+02  0.00000000000E+00 0. -1.
         11    1    3    3    0    0  0.54010799279E+01  0.24952000989E+01 -0.46063607712E+01  0.75243769003E+01  0.51100000000E-03 0.  1.
        -11    1    3    3    0    0 -0.30775781989E+02 -0.31214177934E+00 -0.15054962068E+02  0.34262195970E+02  0.51100000000E-03 0. -1.
         12    1    3    3    0    0  0.23688155701E+01 -0.17033224979E+02  0.33235573668E+01  0.17515366795E+02  0.00000000000E+00 0. -1.
</event>
<event>
 7    1  0.8403811E-013  0.5930196E+02  0.7816164E-02  0.1266605E+00
        -11   -1    0    0    0    0  0.00000000000E+00  0.00000000000E+00  0.45593999997E+02  0.45594000000E+02  0.51100000000E-03 0. -1.
         11   -1    0    0    0    0 -0.00000000000E+00 -0.00000000000E+00 -0.45593999997E+02  0.45594000000E+02  0.51100000000E-03 0.  1.
    9900012    2    1    2    0    0 -0.21976816920E+02 -0.11230623604E+02 -0.20189399797E+02  0.59301964614E+02  0.50000037544E+02 0.  0.
         12    1    1    2    0    0  0.21976816920E+02  0.11230623604E+02  0.20189399797E+02  0.31886035386E+02  0.00000000000E+00 0. -1.
         11    1    3    3    0    0 -0.19273658732E+02 -0.94679986863E+01 -0.32312161091E+01  0.21715378833E+02  0.51100000000E-03 0. -1.
        -11    1    3    3    0    0 -0.81167564269E+01 -0.13187620339E+02 -0.19283818615E+02  0.24731775628E+02  0.51100000000E-03 0.  1.
         12    1    3    3    0    0  0.54135982390E+01  0.11424995421E+02  0.23256349261E+01  0.12854810153E+02  0.00000000000E+00 0. -1.
</event>
<event>
 7    1  0.8339059E-013  0.5930170E+02  0.7816164E-02  0.1266606E+00
        -11   -1    0    0    0    0  0.00000000000E+00  0.00000000000E+00  0.45593999997E+02  0.45594000000E+02  0.51100000000E-03 0. -1.
         11   -1    0    0    0    0 -0.00000000000E+00 -0.00000000000E+00 -0.45593999997E+02  0.45594000000E+02  0.51100000000E-03 0.  1.
    9900012    2    1    2    0    0 -0.23699192787E+02  0.13408971469E+02 -0.16591675335E+02  0.59301702864E+02  0.49999560173E+02 0.  0.
         12    1    1    2    0    0  0.23699192787E+02 -0.13408971469E+02  0.16591675335E+02  0.31886297136E+02  0.00000000000E+00 0. -1.
         11    1    3    3    0    0 -0.57877089391E+01 -0.87936959762E+01 -0.27260199655E+01  0.10874642468E+02  0.51100000000E-03 0. -1.
        -11    1    3    3    0    0 -0.15084774480E+02  0.19405199397E+01 -0.21717647724E+02  0.26513624077E+02  0.51100000000E-03 0.  1.
         12    1    3    3    0    0 -0.28267093674E+01  0.20262147506E+02  0.78519923545E+01  0.21913436320E+02  0.00000000000E+00 0. -1.
</event>
<event>
 7    1  0.7012292E-013  0.5930195E+02  0.7816164E-02  0.1266605E+00
        -11   -1    0    0    0    0  0.00000000000E+00  0.00000000000E+00  0.45593999997E+02  0.45594000000E+02  0.51100000000E-03 0. -1.
         11   -1    0    0    0    0 -0.00000000000E+00 -0.00000000000E+00 -0.45593999997E+02  0.45594000000E+02  0.51100000000E-03 0.  1.
    9900012    2    1    2    0    0  0.27641078811E+02 -0.88609755892E+01 -0.13197511394E+02  0.59301946102E+02  0.50000003782E+02 0.  0.
         12    1    1    2    0    0 -0.27641078811E+02  0.88609755892E+01  0.13197511394E+02  0.31886053898E+02  0.00000000000E+00 0. -1.
         11    1    3    3    0    0  0.11998022097E+02 -0.26143040043E+02  0.24813218505E+01  0.28871578331E+02  0.51100000000E-03 0. -1.
        -11    1    3    3    0    0 -0.33702365310E-01 -0.15439393278E+01 -0.13363701079E+01  0.20422462691E+01  0.51100000000E-03 0.  1.
        -12    1    3    3    0    0  0.15676759079E+02  0.18826003781E+02 -0.14342463137E+02  0.28388121502E+02  0.00000000000E+00 0.  1.
</event>
<event>
 7    1  0.7012292E-013  0.5930197E+02  0.7816164E-02  0.1266605E+00
        -11   -1    0    0    0    0  0.00000000000E+00  0.00000000000E+00  0.45593999997E+02  0.45594000000E+02  0.51100000000E-03 0. -1.
         11   -1    0    0    0    0 -0.00000000000E+00 -0.00000000000E+00 -0.45593999997E+02  0.45594000000E+02  0.51100000000E-03 0.  1.
    9900012    2    1    2    0    0  0.16904468963E+02  0.14037760783E+02 -0.23106257163E+02  0.59301969848E+02  0.50000047090E+02 0.  0.
         12    1    1    2    0    0 -0.16904468963E+02 -0.14037760783E+02  0.23106257163E+02  0.31886030152E+02  0.00000000000E+00 0. -1.
         11    1    3    3    0    0 -0.13594076384E+02  0.72126644846E+01 -0.16519551368E+02  0.22576913415E+02  0.51100000000E-03 0. -1.
        -11    1    3    3    0    0  0.17138977260E+02 -0.15815149879E+00 -0.11761393854E+02  0.20787013713E+02  0.51100000000E-03 0.  1.
        -12    1    3    3    0    0  0.13359568087E+02  0.69832477971E+01  0.51746880587E+01  0.15938042721E+02  0.00000000000E+00 0.  1.
</event>
<event>
 7    1  0.7012292E-013  0.5930194E+02  0.7816164E-02  0.1266605E+00
        -11   -1    0    0    0    0  0.00000000000E+00  0.00000000000E+00  0.45593999997E+02  0.45594000000E+02  0.51100000000E-03 0.  1.
         11   -1    0    0    0    0 -0.00000000000E+00 -0.00000000000E+00 -0.45593999997E+02  0.45594000000E+02  0.51100000000E-03 0. -1.
    9900012    2    1    2    0    0 -0.12439249864E+02 -0.15154393071E+02  0.25146182954E+02  0.59301935902E+02  0.49999985181E+02 0.  0.
         12    1    1    2    0    0  0.12439249864E+02  0.15154393071E+02 -0.25146182954E+02  0.31886064098E+02  0.00000000000E+00 0. -1.
         11    1    3    3    0    0  0.36219867144E+01 -0.10274907698E+02  0.13160333397E+02  0.17084697578E+02  0.51100000000E-03 0. -1.
        -11    1    3    3    0    0  0.11250740520E+02 -0.59227594782E+01  0.97844703172E+00  0.12752082220E+02  0.51100000000E-03 0.  1.
        -12    1    3    3    0    0 -0.27311977099E+02  0.10432741047E+01  0.11007402525E+02  0.29465156104E+02  0.00000000000E+00 0.  1.
</event>
<event>
 7    1  0.7012292E-013  0.5930196E+02  0.7816164E-02  0.1266605E+00
        -11   -1    0    0    0    0  0.00000000000E+00  0.00000000000E+00  0.45593999997E+02  0.45594000000E+02  0.51100000000E-03 0.  1.
         11   -1    0    0    0    0 -0.00000000000E+00 -0.00000000000E+00 -0.45593999997E+02  0.45594000000E+02  0.51100000000E-03 0. -1.
    9900012    2    1    2    0    0  0.31774355504E+02  0.20707343856E+00 -0.26584219230E+01  0.59301956749E+02  0.50000023200E+02 0.  0.
         12    1    1    2    0    0 -0.31774355504E+02 -0.20707343856E+00  0.26584219230E+01  0.31886043251E+02  0.00000000000E+00 0. -1.
         11    1    3    3    0    0 -0.10567320781E+00 -0.98544424059E+01 -0.11604650583E+02  0.15224622077E+02  0.51100000000E-03 0. -1.
        -11    1    3    3    0    0  0.27452753392E+02 -0.45362209687E+01  0.70610277001E+01  0.28706951805E+02  0.51100000000E-03 0.  1.
         12    1    3    3    0    0  0.44272753199E+01  0.14597736813E+02  0.18852009600E+01  0.15370382867E+02  0.00000000000E+00 0. -1.
</event>
<event>
 7    1  0.7012292E-013  0.5930194E+02  0.7816164E-02  0.1266605E+00
        -11   -1    0    0    0    0  0.00000000000E+00  0.00000000000E+00  0.45593999997E+02  0.45594000000E+02  0.51100000000E-03 0. -1.
         11   -1    0    0    0    0 -0.00000000000E+00 -0.00000000000E+00 -0.45593999997E+02  0.45594000000E+02  0.51100000000E-03 0.  1.
    9900012    2    1    2    0    0 -0.22507294098E+02  0.22576069628E+02 -0.68096186020E+00  0.59301938523E+02  0.49999989961E+02 0.  0.
         12    1    1    2    0    0  0.22507294098E+02 -0.22576069628E+02  0.68096186020E+00  0.31886061477E+02  0.00000000000E+00 0. -1.
         11    1    3    3    0    0 -0.80138861850E+00 -0.33522864058E+01 -0.70455099094E+01  0.78434213204E+01  0.51100000000E-03 0. -1.
        -11    1    3    3    0    0 -0.10692112449E+02  0.13506489242E+02 -0.16064081748E+02  0.23554219217E+02  0.51100000000E-03 0.  1.
         12    1    3    3    0    0 -0.11013793030E+02  0.12421866792E+02  0.22428629797E+02  0.27904297986E+02  0.00000000000E+00 0. -1.
</event>
<event>
 7    1  0.7012292E-013  0.5930195E+02  0.7816164E-02  0.1266605E+00
        -11   -1    0    0    0    0  0.00000000000E+00  0.00000000000E+00  0.45593999997E+02  0.45594000000E+02  0.51100000000E-03 0. -1.
         11   -1    0    0    0    0 -0.00000000000E+00 -0.00000000000E+00 -0.45593999997E+02  0.45594000000E+02  0.51100000000E-03 0.  1.
    9900012    2    1    2    0    0 -0.59535589309E+01  0.28665868971E+02 -0.12631046831E+02  0.59301948946E+02  0.50000008969E+02 0.  0.
         12    1    1    2    0    0  0.59535589309E+01 -0.28665868971E+02  0.12631046831E+02  0.31886051054E+02  0.00000000000E+00 0. -1.
         11    1    3    3    0    0  0.10382021196E+02  0.19489814330E+01  0.10316300211E+02  0.14765193634E+02  0.51100000000E-03 0. -1.
        -11    1    3    3    0    0 -0.87376130149E+01 -0.11166549348E+01 -0.24437339470E+01  0.91413694437E+01  0.51100000000E-03 0.  1.
        -12    1    3    3    0    0 -0.75979671122E+01  0.27833542473E+02 -0.20503613095E+02  0.35395385868E+02  0.00000000000E+00 0.  1.
</event>
<event>
 7    1  0.7012292E-013  0.5930201E+02  0.7816164E-02  0.1266605E+00
        -11   -1    0    0    0    0  0.00000000000E+00  0.00000000000E+00  0.45593999997E+02  0.45594000000E+02  0.51100000000E-03 0.  1.
         11   -1    0    0    0    0 -0.00000000000E+00 -0.00000000000E+00 -0.45593999997E+02  0.45594000000E+02  0.51100000000E-03 0. -1.
    9900012    2    1    2    0    0  0.24194560060E+02 -0.62720382704E+01  0.19799015876E+02  0.59302012008E+02  0.50000123979E+02 0.  0.
         12    1    1    2    0    0 -0.24194560060E+02  0.62720382704E+01 -0.19799015876E+02  0.31885987992E+02  0.00000000000E+00 0. -1.
         11    1    3    3    0    0 -0.20597593426E+01 -0.11014133297E+02  0.11139547631E+02  0.15800103244E+02  0.51100000000E-03 0. -1.
        -11    1    3    3    0    0 -0.18874413860E+00  0.10899590990E+02  0.11923734640E+02  0.16155870639E+02  0.51100000000E-03 0.  1.
         12    1    3    3    0    0  0.26443063541E+02 -0.61574959628E+01 -0.32642663948E+01  0.27346038124E+02  0.00000000000E+00 0. -1.
</event>
<event>
 7    1  0.7012292E-013  0.5930195E+02  0.7816164E-02  0.1266605E+00
        -11   -1    0    0    0    0  0.00000000000E+00  0.00000000000E+00  0.45593999997E+02  0.45594000000E+02  0.51100000000E-03 0. -1.
         11   -1    0    0    0    0 -0.00000000000E+00 -0.00000000000E+00 -0.45593999997E+02  0.45594000000E+02  0.51100000000E-03 0.  1.
    9900012    2    1    2    0    0  0.27961264306E+02 -0.12552960975E+02  0.87926757039E+01  0.59301948553E+02  0.50000008254E+02 0.  0.
         12    1    1    2    0    0 -0.27961264306E+02  0.12552960975E+02 -0.87926757039E+01  0.31886051447E+02  0.00000000000E+00 0. -1.
         11    1    3    3    0    0 -0.10289964026E+01 -0.28430802273E+01 -0.75740860274E+00  0.31169868187E+01  0.51100000000E-03 0. -1.
        -11    1    3    3    0    0  0.11545355696E+00  0.66481454711E+01 -0.13995207851E+02  0.15494418698E+02  0.51100000000E-03 0.  1.
         12    1    3    3    0    0  0.28874807151E+02 -0.16358026219E+02  0.23545292158E+02  0.40690543037E+02  0.00000000000E+00 0. -1.
</event>
<event>
 7    1  0.7012292E-013  0.5930196E+02  0.7816164E-02  0.1266605E+00
        -11   -1    0    0    0    0  0.00000000000E+00  0.00000000000E+00  0.45593999997E+02  0.45594000000E+02  0.51100000000E-03 0.  1.
         11   -1    0    0    0    0 -0.00000000000E+00 -0.00000000000E+00 -0.45593999997E+02  0.45594000000E+02  0.51100000000E-03 0. -1.
    9900012    2    1    2    0    0 -0.13068369493E+02  0.16733407508E+02  0.23789291432E+02  0.59301959247E+02  0.50000027757E+02 0.  0.
         12    1    1    2    0    0  0.13068369493E+02 -0.16733407508E+02 -0.23789291432E+02  0.31886040753E+02  0.00000000000E+00 0. -1.
         11    1    3    3    0    0  0.30221987784E+01  0.22960059096E+01  0.30361553770E+01  0.48604082470E+01  0.51100000000E-03 0. -1.
        -11    1    3    3    0    0  0.41917879064E+01  0.11661967249E+02  0.29638557661E+02  0.32125016210E+02  0.51100000000E-03 0.  1.
        -12    1    3    3    0    0 -0.20282356178E+02  0.27754343499E+01 -0.88854216060E+01  0.22316534791E+02  0.00000000000E+00 0.  1.
</event>
<event>
 7    1  0.7012292E-013  0.5930193E+02  0.7816164E-02  0.1266605E+00
        -11   -1    0    0    0    0  0.00000000000E+00  0.00000000000E+00  0.45593999997E+02  0.45594000000E+02  0.51100000000E-03 0.  1.
         11   -1    0    0    0    0 -0.00000000000E+00 -0.00000000000E+00 -0.45593999997E+02  0.45594000000E+02  0.51100000000E-03 0. -1.
    9900012    2    1    2    0    0 -0.14307516730E+02 -0.70777837529E+01  0.27602926661E+02  0.59301927521E+02  0.49999969896E+02 0.  0.
         12    1    1    2    0    0  0.14307516730E+02  0.70777837529E+01 -0.27602926661E+02  0.31886072479E+02  0.00000000000E+00 0. -1.
         11    1    3    3    0    0  0.10514098960E+01  0.11793036685E+02  0.46794809100E+01  0.12731014055E+02  0.51100000000E-03 0. -1.
        -11    1    3    3    0    0  0.63815613266E+01  0.48114135751E+01  0.73138847411E+01  0.10833602163E+02  0.51100000000E-03 0.  1.
        -12    1    3    3    0    0 -0.21740487953E+02 -0.23682234013E+02  0.15609561010E+02  0.35737311304E+02  0.00000000000E+00 0.  1.
</event>
<event>
 7    1  0.7012292E-013  0.5930194E+02  0.7816164E-02  0.1266605E+00
        -11   -1    0    0    0    0  0.00000000000E+00  0.00000000000E+00  0.45593999997E+02  0.45594000000E+02  0.51100000000E-03 0. -1.
         11   -1    0    0    0    0 -0.00000000000E+00 -0.00000000000E+00 -0.45593999997E+02  0.45594000000E+02  0.51100000000E-03 0.  1.
    9900012    2    1    2    0    0  0.29939727447E+02 -0.10881085669E+02 -0.13911727478E+01  0.59301942442E+02  0.49999997108E+02 0.  0.
         12    1    1    2    0    0 -0.29939727447E+02  0.10881085669E+02  0.13911727478E+01  0.31886057558E+02  0.00000000000E+00 0. -1.
         11    1    3    3    0    0 -0.83511416864E+00 -0.21066698213E+01 -0.24706800493E+01  0.33525711891E+01  0.51100000000E-03 0. -1.
        -11    1    3    3    0    0  0.74430652497E+01 -0.20382870974E+00 -0.21262134164E+02  0.22528184923E+02  0.51100000000E-03 0.  1.
        -12    1    3    3    0    0  0.23331776366E+02 -0.85705871382E+01  0.22341641466E+02  0.33421186330E+02  0.00000000000E+00 0.  1.
</event>
<event>
 7    1  0.7012292E-013  0.5930197E+02  0.7816164E-02  0.1266605E+00
        -11   -1    0    0    0    0  0.00000000000E+00  0.00000000000E+00  0.45593999997E+02  0.45594000000E+02  0.51100000000E-03 0.  1.
         11   -1    0    0    0    0 -0.00000000000E+00 -0.00000000000E+00 -0.45593999997E+02  0.45594000000E+02  0.51100000000E-03 0. -1.
    9900012    2    1    2    0    0  0.37638455480E+01 -0.26896116504E+02  0.16707817356E+02  0.59301972071E+02  0.50000051143E+02 0.  0.
         12    1    1    2    0    0 -0.37638455480E+01  0.26896116504E+02 -0.16707817356E+02  0.31886027929E+02  0.00000000000E+00 0. -1.
         11    1    3    3    0    0 -0.12025467361E+01 -0.64306512454E+01 -0.28636737651E+01  0.71414299539E+01  0.51100000000E-03 0. -1.
        -11    1    3    3    0    0  0.74878504871E+01  0.81710917928E+00 -0.11900778011E+02  0.14084178707E+02  0.51100000000E-03 0.  1.
        -12    1    3    3    0    0 -0.25214582031E+01 -0.21282574438E+02  0.31472269132E+02  0.38076363410E+02  0.00000000000E+00 0.  1.
</event>
<event>
 7    1  0.7012292E-013  0.5930197E+02  0.7816164E-02  0.1266605E+00
        -11   -1    0    0    0    0  0.00000000000E+00  0.00000000000E+00  0.45593999997E+02  0.45594000000E+02  0.51100000000E-03 0.  1.
         11   -1    0    0    0    0 -0.00000000000E+00 -0.00000000000E+00 -0.45593999997E+02  0.45594000000E+02  0.51100000000E-03 0. -1.
    9900012    2    1    2    0    0  0.18050658954E+02  0.62538386687E+01  0.25530026321E+02  0.59301968093E+02  0.50000043890E+02 0.  0.
         12    1    1    2    0    0 -0.18050658954E+02 -0.62538386687E+01 -0.25530026321E+02  0.31886031907E+02  0.00000000000E+00 0. -1.
         11    1    3    3    0    0  0.10008866079E+02  0.63006342896E+01 -0.89422515586E+00  0.11860650552E+02  0.51100000000E-03 0. -1.
        -11    1    3    3    0    0  0.56016813582E+01  0.17842412406E+02  0.21957704326E+02  0.28842179080E+02  0.51100000000E-03 0.  1.
         12    1    3    3    0    0  0.24401115172E+01 -0.17889208027E+02  0.44665471510E+01  0.18599138462E+02  0.00000000000E+00 0. -1.
</event>
<event>
 7    1  0.7012292E-013  0.5930194E+02  0.7816164E-02  0.1266605E+00
        -11   -1    0    0    0    0  0.00000000000E+00  0.00000000000E+00  0.45593999997E+02  0.45594000000E+02  0.51100000000E-03 0. -1.
         11   -1    0    0    0    0 -0.00000000000E+00 -0.00000000000E+00 -0.45593999997E+02  0.45594000000E+02  0.51100000000E-03 0.  1.
    9900012    2    1    2    0    0 -0.41930972689E+01 -0.26588999737E+02 -0.17092802256E+02  0.59301939398E+02  0.49999991557E+02 0.  0.
         12    1    1    2    0    0  0.41930972689E+01  0.26588999737E+02  0.17092802256E+02  0.31886060602E+02  0.00000000000E+00 0. -1.
         11    1    3    3    0    0 -0.31747717040E+00 -0.33005708995E+01 -0.53141792270E+01  0.62637896784E+01  0.51100000000E-03 0. -1.
        -11    1    3    3    0    0 -0.10292075922E+02 -0.32409480965E+02 -0.19755892636E+02  0.39326792106E+02  0.51100000000E-03 0.  1.
         12    1    3    3    0    0  0.64164558237E+01  0.91210521272E+01  0.79772696068E+01  0.13711357614E+02  0.00000000000E+00 0. -1.
</event>
<event>
 7    1  0.7012292E-013  0.5930187E+02  0.7816164E-02  0.1266605E+00
        -11   -1    0    0    0    0  0.00000000000E+00  0.00000000000E+00  0.45593999997E+02  0.45594000000E+02  0.51100000000E-03 0.  1.
         11   -1    0    0    0    0 -0.00000000000E+00 -0.00000000000E+00 -0.45593999997E+02  0.45594000000E+02  0.51100000000E-03 0. -1.
    9900012    2    1    2    0    0 -0.19176715724E+00  0.25421034913E+02  0.19247320752E+02  0.59301872189E+02  0.49999868983E+02 0.  0.
         12    1    1    2    0    0  0.19176715724E+00 -0.25421034913E+02 -0.19247320752E+02  0.31886127811E+02  0.00000000000E+00 0. -1.
         11    1    3    3    0    0 -0.85277644881E+01 -0.33547581681E+00  0.16302318983E+02  0.18401111805E+02  0.51100000000E-03 0. -1.
        -11    1    3    3    0    0 -0.25281097594E+01  0.26200246073E+02  0.97545713718E+01  0.28071264599E+02  0.51100000000E-03 0.  1.
        -12    1    3    3    0    0  0.10864107090E+02 -0.44373534354E+00 -0.68095696028E+01  0.12829495785E+02  0.00000000000E+00 0.  1.
</event>
<event>
 7    1  0.7012292E-013  0.5930195E+02  0.7816164E-02  0.1266605E+00
        -11   -1    0    0    0    0  0.00000000000E+00  0.00000000000E+00  0.45593999997E+02  0.45594000000E+02  0.51100000000E-03 0. -1.
         11   -1    0    0    0    0 -0.00000000000E+00 -0.00000000000E+00 -0.45593999997E+02  0.45594000000E+02  0.51100000000E-03 0.  1.
    9900012    2    1    2    0    0  0.18759376553E+02 -0.21779088293E+02  0.13801347739E+02  0.59301951406E+02  0.50000013457E+02 0.  0.
         12    1    1    2    0    0 -0.18759376553E+02  0.21779088293E+02 -0.13801347739E+02  0.31886048594E+02  0.00000000000E+00 0. -1.
         11    1    3    3    0    0 -0.67603062475E+01  0.91155018436E+01 -0.25079796536E+01  0.11622567557E+02  0.51100000000E-03 0.  1.
        -11    1    3    3    0    0  0.98196892354E+01 -0.94954032653E-01  0.63825693873E+01  0.11712066649E+02  0.51100000000E-03 0. -1.
        -12    1    3    3    0    0  0.15699993565E+02 -0.30799636104E+02  0.99267580049E+01  0.35967317200E+02  0.00000000000E+00 0.  1.
</event>
<event>
 7    1  0.7012292E-013  0.5930196E+02  0.7816164E-02  0.1266605E+00
        -11   -1    0    0    0    0  0.00000000000E+00  0.00000000000E+00  0.45593999997E+02  0.45594000000E+02  0.51100000000E-03 0.  1.
         11   -1    0    0    0    0 -0.00000000000E+00 -0.00000000000E+00 -0.45593999997E+02  0.45594000000E+02  0.51100000000E-03 0. -1.
    9900012    2    1    2    0    0 -0.20599728274E+02  0.23255289457E+02  0.71806901652E+01  0.59301959105E+02  0.50000027497E+02 0.  0.
         12    1    1    2    0    0  0.20599728274E+02 -0.23255289457E+02 -0.71806901652E+01  0.31886040895E+02  0.00000000000E+00 0. -1.
         11    1    3    3    0    0 -0.55478699663E+01  0.25356908379E+02  0.29553364429E+01  0.26124426835E+02  0.51100000000E-03 0. -1.
        -11    1    3    3    0    0  0.78615880836E-01 -0.91601738150E+01  0.11721117830E+02  0.14876140905E+02  0.51100000000E-03 0.  1.
         12    1    3    3    0    0 -0.15130474189E+02  0.70585548932E+01 -0.74957641073E+01  0.18301391365E+02  0.00000000000E+00 0. -1.
</event>
<event>
 7    1  0.7012292E-013  0.5930193E+02  0.7816164E-02  0.1266605E+00
        -11   -1    0    0    0    0  0.00000000000E+00  0.00000000000E+00  0.45593999997E+02  0.45594000000E+02  0.51100000000E-03 0.  1.
         11   -1    0    0    0    0 -0.00000000000E+00 -0.00000000000E+00 -0.45593999997E+02  0.45594000000E+02  0.51100000000E-03 0. -1.
    9900012    2    1    2    0    0 -0.60577486725E+01  0.31229861853E+02  0.21728184170E+01  0.59301925763E+02  0.49999966690E+02 0.  0.
         12    1    1    2    0    0  0.60577486725E+01 -0.31229861853E+02 -0.21728184170E+01  0.31886074237E+02  0.00000000000E+00 0. -1.
         11    1    3    3    0    0 -0.13564614288E+02  0.33378385044E+02 -0.43606625411E+01  0.36292295698E+02  0.51100000000E-03 0. -1.
        -11    1    3    3    0    0  0.26481383940E-02  0.34501034341E+01  0.11781669665E+02  0.12276439267E+02  0.51100000000E-03 0.  1.
        -12    1    3    3    0    0  0.75042174774E+01 -0.55986266251E+01 -0.52481887066E+01  0.10733190799E+02  0.00000000000E+00 0.  1.
</event>
<event>
 7    1  0.7012292E-013  0.5930200E+02  0.7816164E-02  0.1266605E+00
        -11   -1    0    0    0    0  0.00000000000E+00  0.00000000000E+00  0.45593999997E+02  0.45594000000E+02  0.51100000000E-03 0. -1.
         11   -1    0    0    0    0 -0.00000000000E+00 -0.00000000000E+00 -0.45593999997E+02  0.45594000000E+02  0.51100000000E-03 0.  1.
    9900012    2    1    2    0    0 -0.25904781163E+02  0.18504518575E+02 -0.18005882357E+01  0.59301999736E+02  0.50000101599E+02 0.  0.
         12    1    1    2    0    0  0.25904781163E+02 -0.18504518575E+02  0.18005882357E+01  0.31886000264E+02  0.00000000000E+00 0. -1.
         11    1    3    3    0    0 -0.23414282599E+01  0.91868798722E+01 -0.96141501350E+01  0.13502330583E+02  0.51100000000E-03 0. -1.
        -11    1    3    3    0    0 -0.93459445010E+01  0.10943258721E+02 -0.13760489384E+02  0.19911118964E+02  0.51100000000E-03 0.  1.
         12    1    3    3    0    0 -0.14217408402E+02 -0.16256200183E+01  0.21574051284E+02  0.25888550189E+02  0.00000000000E+00 0. -1.
</event>
<event>
 7    1  0.7012292E-013  0.5930194E+02  0.7816164E-02  0.1266605E+00
        -11   -1    0    0    0    0  0.00000000000E+00  0.00000000000E+00  0.45593999997E+02  0.45594000000E+02  0.51100000000E-03 0.  1.
         11   -1    0    0    0    0 -0.00000000000E+00 -0.00000000000E+00 -0.45593999997E+02  0.45594000000E+02  0.51100000000E-03 0. -1.
    9900012    2    1    2    0    0 -0.17998998860E+02 -0.10773419985E+02  0.24014383035E+02  0.59301935165E+02  0.49999983836E+02 0.  0.
         12    1    1    2    0    0  0.17998998860E+02  0.10773419985E+02 -0.24014383035E+02  0.31886064835E+02  0.00000000000E+00 0. -1.
         11    1    3    3    0    0 -0.14250167164E+02  0.93120996954E+01  0.83689882804E+01  0.18968986004E+02  0.51100000000E-03 0. -1.
        -11    1    3    3    0    0 -0.38666037118E+01  0.57479917466E+01 -0.38895345511E+01  0.79447160219E+01  0.51100000000E-03 0.  1.
        -12    1    3    3    0    0  0.11777201574E+00 -0.25833511427E+02  0.19534929305E+02  0.32388233139E+02  0.00000000000E+00 0.  1.
</event>
<event>
 7    1  0.7012292E-013  0.5930195E+02  0.7816164E-02  0.1266605E+00
        -11   -1    0    0    0    0  0.00000000000E+00  0.00000000000E+00  0.45593999997E+02  0.45594000000E+02  0.51100000000E-03 0. -1.
         11   -1    0    0    0    0 -0.00000000000E+00 -0.00000000000E+00 -0.45593999997E+02  0.45594000000E+02  0.51100000000E-03 0.  1.
    9900012    2    1    2    0    0  0.29990476448E+02 -0.10700475849E+02 -0.16707615941E+01  0.59301948108E+02  0.50000007441E+02 0.  0.
         12    1    1    2    0    0 -0.29990476448E+02  0.10700475849E+02  0.16707615941E+01  0.31886051892E+02  0.00000000000E+00 0. -1.
         11    1    3    3    0    0  0.42220962447E+01 -0.90492347474E+01 -0.16990693696E+01  0.10129243960E+02  0.51100000000E-03 0. -1.
        -11    1    3    3    0    0  0.35258304888E+02  0.41289600927E+01  0.68219088970E+01  0.36148787204E+02  0.51100000000E-03 0.  1.
         12    1    3    3    0    0 -0.94899246850E+01 -0.57802011941E+01 -0.67936011215E+01  0.13023916944E+02  0.00000000000E+00 0. -1.
</event>
<event>
 7    1  0.7012292E-013  0.5930194E+02  0.7816164E-02  0.1266605E+00
        -11   -1    0    0    0    0  0.00000000000E+00  0.00000000000E+00  0.45593999997E+02  0.45594000000E+02  0.51100000000E-03 0.  1.
         11   -1    0    0    0    0 -0.00000000000E+00 -0.00000000000E+00 -0.45593999997E+02  0.45594000000E+02  0.51100000000E-03 0. -1.
    9900012    2    1    2    0    0 -0.10402346754E+02 -0.10039151342E+02  0.28420547186E+02  0.59301939095E+02  0.49999991005E+02 0.  0.
         12    1    1    2    0    0  0.10402346754E+02  0.10039151342E+02 -0.28420547186E+02  0.31886060905E+02  0.00000000000E+00 0. -1.
         11    1    3    3    0    0  0.88544838040E+01 -0.77459669282E+01  0.54757884928E+01  0.12976368790E+02  0.51100000000E-03 0. -1.
        -11    1    3    3    0    0  0.10150137088E+02  0.16818098284E+01  0.83803887317E+01  0.13269690379E+02  0.51100000000E-03 0.  1.
         12    1    3    3    0    0 -0.29406967646E+02 -0.39749942423E+01  0.14564369961E+02  0.33055879927E+02  0.00000000000E+00 0. -1.
</event>
<event>
 7    1  0.7012292E-013  0.5930165E+02  0.7816164E-02  0.1266606E+00
        -11   -1    0    0    0    0  0.00000000000E+00  0.00000000000E+00  0.45593999997E+02  0.45594000000E+02  0.51100000000E-03 0.  1.
         11   -1    0    0    0    0 -0.00000000000E+00 -0.00000000000E+00 -0.45593999997E+02  0.45594000000E+02  0.51100000000E-03 0. -1.
    9900012    2    1    2    0    0  0.33564064114E+01  0.10793465616E+02  0.29815681206E+02  0.59301651671E+02  0.49999466808E+02 0.  0.
         12    1    1    2    0    0 -0.33564064114E+01 -0.10793465616E+02 -0.29815681206E+02  0.31886348329E+02  0.00000000000E+00 0. -1.
         11    1    3    3    0    0 -0.55022707579E+01  0.76428304561E+01  0.32637148766E+02  0.33968681468E+02  0.51100000000E-03 0. -1.
        -11    1    3    3    0    0  0.68257690098E+00  0.37685158953E+01  0.96643640659E+01  0.10395554643E+02  0.51100000000E-03 0.  1.
         12    1    3    3    0    0  0.81761002683E+01 -0.61788073493E+00 -0.12485831626E+02  0.14937415559E+02  0.00000000000E+00 0. -1.
</event>
<event>
 7    1  0.7012292E-013  0.5930198E+02  0.7816164E-02  0.1266605E+00
        -11   -1    0    0    0    0  0.00000000000E+00  0.00000000000E+00  0.45593999997E+02  0.45594000000E+02  0.51100000000E-03 0.  1.
         11   -1    0    0    0    0 -0.00000000000E+00 -0.00000000000E+00 -0.45593999997E+02  0.45594000000E+02  0.51100000000E-03 0. -1.
    9900012    2    1    2    0    0 -0.13631365708E+01  0.31665609200E+02  0.34855725762E+01  0.59301981693E+02  0.50000068692E+02 0.  0.
         12    1    1    2    0    0  0.13631365708E+01 -0.31665609200E+02 -0.34855725762E+01  0.31886018307E+02  0.00000000000E+00 0. -1.
         11    1    3    3    0    0  0.22736499906E+01 -0.12766445635E+01  0.92800572501E+01  0.96394381811E+01  0.51100000000E-03 0. -1.
        -11    1    3    3    0    0 -0.35180894733E+01  0.50541601830E+01  0.14112916867E+02  0.15397919062E+02  0.51100000000E-03 0.  1.
         12    1    3    3    0    0 -0.11869708814E+00  0.27888093580E+02 -0.19907401541E+02  0.34264624449E+02  0.00000000000E+00 0. -1.
</event>
<event>
 7    1  0.8135626E-013  0.5930194E+02  0.7816164E-02  0.1266605E+00
        -11   -1    0    0    0    0  0.00000000000E+00  0.00000000000E+00  0.45593999997E+02  0.45594000000E+02  0.51100000000E-03 0. -1.
         11   -1    0    0    0    0 -0.00000000000E+00 -0.00000000000E+00 -0.45593999997E+02  0.45594000000E+02  0.51100000000E-03 0.  1.
    9900012    2    1    2    0    0 -0.13606378473E+02 -0.41173075055E+01 -0.28541812442E+02  0.59301940135E+02  0.49999992900E+02 0.  0.
         12    1    1    2    0    0  0.13606378473E+02  0.41173075055E+01  0.28541812442E+02  0.31886059865E+02  0.00000000000E+00 0. -1.
         11    1    3    3    0    0  0.47026147779E+01 -0.77021629950E+01 -0.26016976722E+02  0.27537628412E+02  0.51100000000E-03 0. -1.
        -11    1    3    3    0    0 -0.11270993763E+02 -0.65501590567E+00 -0.13789330197E+02  0.17821615353E+02  0.51100000000E-03 0.  1.
         12    1    3    3    0    0 -0.70379994873E+01  0.42398713952E+01  0.11264494477E+02  0.13942696369E+02  0.00000000000E+00 0. -1.
</event>
<event>
 7    1  0.7012292E-013  0.5930198E+02  0.7816164E-02  0.1266605E+00
        -11   -1    0    0    0    0  0.00000000000E+00  0.00000000000E+00  0.45593999997E+02  0.45594000000E+02  0.51100000000E-03 0. -1.
         11   -1    0    0    0    0 -0.00000000000E+00 -0.00000000000E+00 -0.45593999997E+02  0.45594000000E+02  0.51100000000E-03 0.  1.
    9900012    2    1    2    0    0 -0.30724480152E+02  0.68768474069E+01 -0.50431872677E+01  0.59301977221E+02  0.50000060536E+02 0.  0.
         12    1    1    2    0    0  0.30724480152E+02 -0.68768474069E+01  0.50431872677E+01  0.31886022779E+02  0.00000000000E+00 0. -1.
         11    1    3    3    0    0 -0.20791452547E+02  0.81777686901E+01 -0.15538413596E+02  0.27214016556E+02  0.51100000000E-03 0. -1.
        -11    1    3    3    0    0 -0.67084190518E+01  0.74788496576E+01 -0.70031908724E+01  0.12246663261E+02  0.51100000000E-03 0.  1.
         12    1    3    3    0    0 -0.32246085528E+01 -0.87797709408E+01  0.17498417201E+02  0.19841297403E+02  0.00000000000E+00 0. -1.
</event>
<event>
 7    1  0.7012292E-013  0.5930200E+02  0.7816164E-02  0.1266605E+00
        -11   -1    0    0    0    0  0.00000000000E+00  0.00000000000E+00  0.45593999997E+02  0.45594000000E+02  0.51100000000E-03 0.  1.
         11   -1    0    0    0    0 -0.00000000000E+00 -0.00000000000E+00 -0.45593999997E+02  0.45594000000E+02  0.51100000000E-03 0. -1.
    9900012    2    1    2    0    0 -0.20545373872E+02 -0.10447780572E+02  0.22032902570E+02  0.59301995201E+02  0.50000093327E+02 0.  0.
         12    1    1    2    0    0  0.20545373872E+02  0.10447780572E+02 -0.22032902570E+02  0.31886004799E+02  0.00000000000E+00 0. -1.
         11    1    3    3    0    0 -0.39130777242E+01 -0.24799475396E+02  0.11070906814E+02  0.27438861768E+02  0.51100000000E-03 0. -1.
        -11    1    3    3    0    0 -0.75920427240E+01  0.83666730601E+00 -0.49589638223E+01  0.91066155818E+01  0.51100000000E-03 0.  1.
        -12    1    3    3    0    0 -0.90402534239E+01  0.13515027518E+02  0.15920959578E+02  0.22756517850E+02  0.00000000000E+00 0.  1.
</event>
<event>
 7    1  0.7012292E-013  0.5930195E+02  0.7816164E-02  0.1266605E+00
        -11   -1    0    0    0    0  0.00000000000E+00  0.00000000000E+00  0.45593999997E+02  0.45594000000E+02  0.51100000000E-03 0. -1.
         11   -1    0    0    0    0 -0.00000000000E+00 -0.00000000000E+00 -0.45593999997E+02  0.45594000000E+02  0.51100000000E-03 0.  1.
    9900012    2    1    2    0    0  0.27106586989E+02  0.22216077622E+01 -0.16643849417E+02  0.59301947835E+02  0.50000006944E+02 0.  0.
         12    1    1    2    0    0 -0.27106586989E+02 -0.22216077622E+01  0.16643849417E+02  0.31886052165E+02  0.00000000000E+00 0. -1.
         11    1    3    3    0    0  0.22892000194E+02 -0.13795558861E+01  0.42667787676E+01  0.23327071154E+02  0.51100000000E-03 0. -1.
        -11    1    3    3    0    0  0.15771923100E+02 -0.28080734311E+01 -0.12367730662E+02  0.20238567061E+02  0.51100000000E-03 0.  1.
         12    1    3    3    0    0 -0.11557336305E+02  0.64092370795E+01 -0.85428975220E+01  0.15736309621E+02  0.00000000000E+00 0. -1.
</event>
<event>
 7    1  0.7012292E-013  0.5930195E+02  0.7816164E-02  0.1266605E+00
        -11   -1    0    0    0    0  0.00000000000E+00  0.00000000000E+00  0.45593999997E+02  0.45594000000E+02  0.51100000000E-03 0.  1.
         11   -1    0    0    0    0 -0.00000000000E+00 -0.00000000000E+00 -0.45593999997E+02  0.45594000000E+02  0.51100000000E-03 0. -1.
    9900012    2    1    2    0    0 -0.12554685991E+02  0.25410693145E+02  0.14608114320E+02  0.59301945518E+02  0.50000002718E+02 0.  0.
         12    1    1    2    0    0  0.12554685991E+02 -0.25410693145E+02 -0.14608114320E+02  0.31886054482E+02  0.00000000000E+00 0. -1.
         11    1    3    3    0    0  0.74919146696E+01 -0.81498468884E+00  0.33731498807E+01  0.82565807595E+01  0.51100000000E-03 0. -1.
        -11    1    3    3    0    0  0.85993090326E+00 -0.85969707786E+01  0.49151768569E+01  0.99401384056E+01  0.51100000000E-03 0.  1.
         12    1    3    3    0    0 -0.20906531564E+02  0.34822648613E+02  0.63197875829E+01  0.41105226353E+02  0.00000000000E+00 0. -1.
</event>
<event>
 7    1  0.7012292E-013  0.5930193E+02  0.7816164E-02  0.1266605E+00
        -11   -1    0    0    0    0  0.00000000000E+00  0.00000000000E+00  0.45593999997E+02  0.45594000000E+02  0.51100000000E-03 0.  1.
         11   -1    0    0    0    0 -0.00000000000E+00 -0.00000000000E+00 -0.45593999997E+02  0.45594000000E+02  0.51100000000E-03 0. -1.
    9900012    2    1    2    0    0 -0.56275092460E-01  0.21695456125E+02  0.23367186945E+02  0.59301930799E+02  0.49999975875E+02 0.  0.
         12    1    1    2    0    0  0.56275092460E-01 -0.21695456125E+02 -0.23367186945E+02  0.31886069201E+02  0.00000000000E+00 0. -1.
         11    1    3    3    0    0  0.76867248639E+01 -0.30101878542E+01  0.25454346682E+02  0.26759498039E+02  0.51100000000E-03 0.  1.
        -11    1    3    3    0    0  0.23846797485E+01 -0.14732355688E+01 -0.34434084218E+01  0.44400655811E+01  0.51100000000E-03 0. -1.
         12    1    3    3    0    0 -0.10127679705E+02  0.26178879547E+02  0.13562486851E+01  0.28102367179E+02  0.00000000000E+00 0. -1.
</event>
<event>
 7    1  0.7012292E-013  0.5930194E+02  0.7816164E-02  0.1266605E+00
        -11   -1    0    0    0    0  0.00000000000E+00  0.00000000000E+00  0.45593999997E+02  0.45594000000E+02  0.51100000000E-03 0.  1.
         11   -1    0    0    0    0 -0.00000000000E+00 -0.00000000000E+00 -0.45593999997E+02  0.45594000000E+02  0.51100000000E-03 0. -1.
    9900012    2    1    2    0    0  0.10268571894E+02  0.21765063903E+02  0.20917921441E+02  0.59301937012E+02  0.49999987205E+02 0.  0.
         12    1    1    2    0    0 -0.10268571894E+02 -0.21765063903E+02 -0.20917921441E+02  0.31886062988E+02  0.00000000000E+00 0. -1.
         11    1    3    3    0    0  0.20914010947E+02  0.62147496592E+01 -0.29239919174E+01  0.22012921119E+02  0.51100000000E-03 0. -1.
        -11    1    3    3    0    0 -0.46246705716E+01  0.12685763921E+02  0.10515174347E+01  0.13543333169E+02  0.51100000000E-03 0.  1.
         12    1    3    3    0    0 -0.60207684811E+01  0.28645503229E+01  0.22790395924E+02  0.23745682724E+02  0.00000000000E+00 0. -1.
</event>
<event>
 7    1  0.7012292E-013  0.5930195E+02  0.7816164E-02  0.1266605E+00
        -11   -1    0    0    0    0  0.00000000000E+00  0.00000000000E+00  0.45593999997E+02  0.45594000000E+02  0.51100000000E-03 0. -1.
         11   -1    0    0    0    0 -0.00000000000E+00 -0.00000000000E+00 -0.45593999997E+02  0.45594000000E+02  0.51100000000E-03 0.  1.
    9900012    2    1    2    0    0  0.19737088736E+02  0.21938165022E+02 -0.12078270603E+02  0.59301946982E+02  0.50000005388E+02 0.  0.
         12    1    1    2    0    0 -0.19737088736E+02 -0.21938165022E+02  0.12078270603E+02  0.31886053018E+02  0.00000000000E+00 0. -1.
         11    1    3    3    0    0  0.78262424510E+01 -0.51866258684E+01 -0.26674446976E+00  0.93926732975E+01  0.51100000000E-03 0. -1.
        -11    1    3    3    0    0  0.20558443776E+02  0.20881207801E+02 -0.20821308293E+02  0.35947201964E+02  0.51100000000E-03 0.  1.
         12    1    3    3    0    0 -0.86475974915E+01  0.62435830893E+01  0.90097821597E+01  0.13962071721E+02  0.00000000000E+00 0. -1.
</event>
<event>
 7    1  0.7012292E-013  0.5930193E+02  0.7816164E-02  0.1266605E+00
        -11   -1    0    0    0    0  0.00000000000E+00  0.00000000000E+00  0.45593999997E+02  0.45594000000E+02  0.51100000000E-03 0.  1.
         11   -1    0    0    0    0 -0.00000000000E+00 -0.00000000000E+00 -0.45593999997E+02  0.45594000000E+02  0.51100000000E-03 0. -1.
    9900012    2    1    2    0    0  0.28582632709E+02 -0.89269802865E+01 -0.10957356007E+02  0.59301929056E+02  0.49999972695E+02 0.  0.
         12    1    1    2    0    0 -0.28582632709E+02  0.89269802865E+01  0.10957356007E+02  0.31886070944E+02  0.00000000000E+00 0. -1.
         11    1    3    3    0    0  0.24487211306E+02 -0.61638154515E+01 -0.12454891108E+02  0.28155646880E+02  0.51100000000E-03 0. -1.
        -11    1    3    3    0    0  0.11290114822E+02 -0.84343993577E+01 -0.93769217518E+01  0.16927269331E+02  0.51100000000E-03 0.  1.
         12    1    3    3    0    0 -0.71946934194E+01  0.56712345227E+01  0.10874456853E+02  0.14219012844E+02  0.00000000000E+00 0. -1.
</event>
<event>
 7    1  0.7012292E-013  0.5930191E+02  0.7816164E-02  0.1266605E+00
        -11   -1    0    0    0    0  0.00000000000E+00  0.00000000000E+00  0.45593999997E+02  0.45594000000E+02  0.51100000000E-03 0. -1.
         11   -1    0    0    0    0 -0.00000000000E+00 -0.00000000000E+00 -0.45593999997E+02  0.45594000000E+02  0.51100000000E-03 0.  1.
    9900012    2    1    2    0    0  0.17509377800E+02  0.22359835427E+02 -0.14497653679E+02  0.59301913482E+02  0.49999944292E+02 0.  0.
         12    1    1    2    0    0 -0.17509377800E+02 -0.22359835427E+02  0.14497653679E+02  0.31886086518E+02  0.00000000000E+00 0. -1.
         11    1    3    3    0    0  0.15972394109E+02  0.21152509934E+02  0.64074682692E+01  0.27269061222E+02  0.51100000000E-03 0. -1.
        -11    1    3    3    0    0  0.11410992126E+02 -0.31306955215E+00 -0.18530113240E+02  0.21764049504E+02  0.51100000000E-03 0.  1.
        -12    1    3    3    0    0 -0.98740084352E+01  0.15203950451E+01 -0.23750087082E+01  0.10268802756E+02  0.00000000000E+00 0.  1.
</event>
<event>
 7    1  0.7012292E-013  0.5930192E+02  0.7816164E-02  0.1266605E+00
        -11   -1    0    0    0    0  0.00000000000E+00  0.00000000000E+00  0.45593999997E+02  0.45594000000E+02  0.51100000000E-03 0. -1.
         11   -1    0    0    0    0 -0.00000000000E+00 -0.00000000000E+00 -0.45593999997E+02  0.45594000000E+02  0.51100000000E-03 0.  1.
    9900012    2    1    2    0    0 -0.31131754585E+02  0.11357569503E+01  0.68004350184E+01  0.59301921473E+02  0.49999958866E+02 0.  0.
         12    1    1    2    0    0  0.31131754585E+02 -0.11357569503E+01 -0.68004350184E+01  0.31886078527E+02  0.00000000000E+00 0. -1.
         11    1    3    3    0    0 -0.41995144379E+01  0.84036195591E+01 -0.66214271613E+01  0.11493478199E+02  0.51100000000E-03 0. -1.
        -11    1    3    3    0    0 -0.13379215463E+02 -0.58138480173E+01 -0.12048474635E+02  0.18920094515E+02  0.51100000000E-03 0.  1.
         12    1    3    3    0    0 -0.13553024684E+02 -0.14540145915E+01  0.25470336815E+02  0.28888348759E+02  0.00000000000E+00 0. -1.
</event>
<event>
 7    1  0.7012292E-013  0.5930193E+02  0.7816164E-02  0.1266605E+00
        -11   -1    0    0    0    0  0.00000000000E+00  0.00000000000E+00  0.45593999997E+02  0.45594000000E+02  0.51100000000E-03 0. -1.
         11   -1    0    0    0    0 -0.00000000000E+00 -0.00000000000E+00 -0.45593999997E+02  0.45594000000E+02  0.51100000000E-03 0.  1.
    9900012    2    1    2    0    0  0.17585921870E+01 -0.31585799468E+02 -0.39957926923E+01  0.59301925708E+02  0.49999966590E+02 0.  0.
         12    1    1    2    0    0 -0.17585921870E+01  0.31585799468E+02  0.39957926923E+01  0.31886074292E+02  0.00000000000E+00 0. -1.
         11    1    3    3    0    0  0.48036334208E+01 -0.45624578549E+01  0.10947147063E+02  0.12795739322E+02  0.51100000000E-03 0. -1.
        -11    1    3    3    0    0  0.93919142859E+01 -0.29842875534E+02 -0.10802086708E+02  0.33098192573E+02  0.51100000000E-03 0.  1.
        -12    1    3    3    0    0 -0.12436955520E+02  0.28195339207E+01 -0.41408530480E+01  0.13407993813E+02  0.00000000000E+00 0.  1.
</event>
<event>
 7    1  0.7012292E-013  0.5930195E+02  0.7816164E-02  0.1266605E+00
        -11   -1    0    0    0    0  0.00000000000E+00  0.00000000000E+00  0.45593999997E+02  0.45594000000E+02  0.51100000000E-03 0.  1.
         11   -1    0    0    0    0 -0.00000000000E+00 -0.00000000000E+00 -0.45593999997E+02  0.45594000000E+02  0.51100000000E-03 0. -1.
    9900012    2    1    2    0    0  0.12903359492E+02  0.28679925068E+02  0.52617188241E+01  0.59301945476E+02  0.50000002642E+02 0.  0.
         12    1    1    2    0    0 -0.12903359492E+02 -0.28679925068E+02 -0.52617188241E+01  0.31886054524E+02  0.00000000000E+00 0. -1.
         11    1    3    3    0    0 -0.14520038436E+02  0.83496849177E+01 -0.80732140865E+00  0.16769034633E+02  0.51100000000E-03 0. -1.
        -11    1    3    3    0    0 -0.34187449933E+01 -0.21604678406E+00  0.42092955486E+01  0.54270307553E+01  0.51100000000E-03 0.  1.
        -12    1    3    3    0    0  0.30842142922E+02  0.20546286935E+02  0.18597446842E+01  0.37105880088E+02  0.00000000000E+00 0.  1.
</event>
<event>
 7    1  0.7012292E-013  0.5930194E+02  0.7816164E-02  0.1266605E+00
        -11   -1    0    0    0    0  0.00000000000E+00  0.00000000000E+00  0.45593999997E+02  0.45594000000E+02  0.51100000000E-03 0.  1.
         11   -1    0    0    0    0 -0.00000000000E+00 -0.00000000000E+00 -0.45593999997E+02  0.45594000000E+02  0.51100000000E-03 0. -1.
    9900012    2    1    2    0    0 -0.56688130148E+01 -0.15407194481E+02  0.27335032373E+02  0.59301935997E+02  0.49999985353E+02 0.  0.
         12    1    1    2    0    0  0.56688130148E+01  0.15407194481E+02 -0.27335032373E+02  0.31886064003E+02  0.00000000000E+00 0. -1.
         11    1    3    3    0    0 -0.12006168636E+02 -0.11269677751E+02  0.23304328308E+02  0.28534986246E+02  0.51100000000E-03 0. -1.
        -11    1    3    3    0    0 -0.56267027982E+01 -0.22524467713E+01  0.13886771782E+02  0.15151756718E+02  0.51100000000E-03 0.  1.
         12    1    3    3    0    0  0.11964058419E+02 -0.18850699587E+01 -0.98560677171E+01  0.15615193033E+02  0.00000000000E+00 0. -1.
</event>
<event>
 7    1  0.7012292E-013  0.5930196E+02  0.7816164E-02  0.1266605E+00
        -11   -1    0    0    0    0  0.00000000000E+00  0.00000000000E+00  0.45593999997E+02  0.45594000000E+02  0.51100000000E-03 0.  1.
         11   -1    0    0    0    0 -0.00000000000E+00 -0.00000000000E+00 -0.45593999997E+02  0.45594000000E+02  0.51100000000E-03 0. -1.
    9900012    2    1    2    0    0 -0.14791062936E+02  0.20864588034E+02  0.19042398445E+02  0.59301960498E+02  0.50000030038E+02 0.  0.
         12    1    1    2    0    0  0.14791062936E+02 -0.20864588034E+02 -0.19042398445E+02  0.31886039502E+02  0.00000000000E+00 0. -1.
         11    1    3    3    0    0 -0.29041283076E+02  0.89400308490E+01  0.10784361335E+02  0.32243181046E+02  0.51100000000E-03 0. -1.
        -11    1    3    3    0    0  0.12791079337E-01 -0.35634154078E+01 -0.15024310278E+01  0.38672202206E+01  0.51100000000E-03 0.  1.
        -12    1    3    3    0    0  0.14237429061E+02  0.15487972593E+02  0.97604681382E+01  0.23191559231E+02  0.00000000000E+00 0.  1.
</event>
<event>
 7    1  0.7012292E-013  0.5930194E+02  0.7816164E-02  0.1266605E+00
        -11   -1    0    0    0    0  0.00000000000E+00  0.00000000000E+00  0.45593999997E+02  0.45594000000E+02  0.51100000000E-03 0.  1.
         11   -1    0    0    0    0 -0.00000000000E+00 -0.00000000000E+00 -0.45593999997E+02  0.45594000000E+02  0.51100000000E-03 0. -1.
    9900012    2    1    2    0    0  0.27658803271E+02  0.15686195719E+02  0.23779533123E+01  0.59301940405E+02  0.49999993394E+02 0.  0.
         12    1    1    2    0    0 -0.27658803271E+02 -0.15686195719E+02 -0.23779533123E+01  0.31886059595E+02  0.00000000000E+00 0. -1.
         11    1    3    3    0    0  0.58736571903E+01 -0.10757220528E+02 -0.17887783688E+01  0.12386176593E+02  0.51100000000E-03 0. -1.
        -11    1    3    3    0    0  0.20911002473E+02  0.58628750672E+01  0.12077676144E+02  0.24849820719E+02  0.51100000000E-03 0.  1.
         12    1    3    3    0    0  0.87414360745E+00  0.20580541180E+02 -0.79109444627E+01  0.22065943093E+02  0.00000000000E+00 0. -1.
</event>
<event>
 7    1  0.7012292E-013  0.5930181E+02  0.7816164E-02  0.1266605E+00
        -11   -1    0    0    0    0  0.00000000000E+00  0.00000000000E+00  0.45593999997E+02  0.45594000000E+02  0.51100000000E-03 0.  1.
         11   -1    0    0    0    0 -0.00000000000E+00 -0.00000000000E+00 -0.45593999997E+02  0.45594000000E+02  0.51100000000E-03 0. -1.
    9900012    2    1    2    0    0  0.40104504278E+01 -0.16224469223E+02  0.27155326050E+02  0.59301814166E+02  0.49999763162E+02 0.  0.
         12    1    1    2    0    0 -0.40104504278E+01  0.16224469223E+02 -0.27155326050E+02  0.31886185834E+02  0.00000000000E+00 0. -1.
         11    1    3    3    0    0  0.11257717017E+02 -0.85913511256E+01  0.21572874131E+02  0.25805743646E+02  0.51100000000E-03 0.  1.
        -11    1    3    3    0    0  0.92193211888E+01 -0.74150055507E+01  0.11005023047E+02  0.16158240096E+02  0.51100000000E-03 0. -1.
         12    1    3    3    0    0 -0.16466587778E+02 -0.21811254695E+00 -0.54225711275E+01  0.17337830423E+02  0.00000000000E+00 0. -1.
</event>
<event>
 7    1  0.7012292E-013  0.5930183E+02  0.7816164E-02  0.1266605E+00
        -11   -1    0    0    0    0  0.00000000000E+00  0.00000000000E+00  0.45593999997E+02  0.45594000000E+02  0.51100000000E-03 0.  1.
         11   -1    0    0    0    0 -0.00000000000E+00 -0.00000000000E+00 -0.45593999997E+02  0.45594000000E+02  0.51100000000E-03 0. -1.
    9900012    2    1    2    0    0 -0.29632990328E+01 -0.19141066872E+02  0.25329157403E+02  0.59301830633E+02  0.49999793195E+02 0.  0.
         12    1    1    2    0    0  0.29632990328E+01  0.19141066872E+02 -0.25329157403E+02  0.31886169367E+02  0.00000000000E+00 0. -1.
         11    1    3    3    0    0  0.68017888418E+01 -0.32797982898E+01  0.32969897254E+02  0.33823594331E+02  0.51100000000E-03 0.  1.
        -11    1    3    3    0    0  0.38750980635E+00 -0.13024686066E+02 -0.11097495104E+01  0.13077620395E+02  0.51100000000E-03 0. -1.
        -12    1    3    3    0    0 -0.10152597681E+02 -0.28365825164E+01 -0.65309903406E+01  0.12400615907E+02  0.00000000000E+00 0.  1.
</event>
<event>
 7    1  0.7012292E-013  0.5930197E+02  0.7816164E-02  0.1266605E+00
        -11   -1    0    0    0    0  0.00000000000E+00  0.00000000000E+00  0.45593999997E+02  0.45594000000E+02  0.51100000000E-03 0.  1.
         11   -1    0    0    0    0 -0.00000000000E+00 -0.00000000000E+00 -0.45593999997E+02  0.45594000000E+02  0.51100000000E-03 0. -1.
    9900012    2    1    2    0    0  0.28447558784E+02 -0.12516614911E+02  0.71266862449E+01  0.59301970043E+02  0.50000047445E+02 0.  0.
         12    1    1    2    0    0 -0.28447558784E+02  0.12516614911E+02 -0.71266862449E+01  0.31886029957E+02  0.00000000000E+00 0. -1.
         11    1    3    3    0    0 -0.23858714726E+01 -0.13852500793E+02  0.23319332261E+01  0.14248581464E+02  0.51100000000E-03 0. -1.
        -11    1    3    3    0    0 -0.44373954524E+01  0.35416857914E+01  0.77311101030E+01  0.95918757462E+01  0.51100000000E-03 0.  1.
         12    1    3    3    0    0  0.35270825709E+02 -0.22057999093E+01 -0.29363570842E+01  0.35461512833E+02  0.00000000000E+00 0. -1.
</event>
<event>
 7    1  0.7012292E-013  0.5930196E+02  0.7816164E-02  0.1266605E+00
        -11   -1    0    0    0    0  0.00000000000E+00  0.00000000000E+00  0.45593999997E+02  0.45594000000E+02  0.51100000000E-03 0.  1.
         11   -1    0    0    0    0 -0.00000000000E+00 -0.00000000000E+00 -0.45593999997E+02  0.45594000000E+02  0.51100000000E-03 0. -1.
    9900012    2    1    2    0    0  0.25670801429E+02  0.18849723822E+02 -0.15548440567E+01  0.59301958003E+02  0.50000025488E+02 0.  0.
         12    1    1    2    0    0 -0.25670801429E+02 -0.18849723822E+02  0.15548440567E+01  0.31886041997E+02  0.00000000000E+00 0. -1.
         11    1    3    3    0    0  0.91837990901E+01  0.14900541081E+01 -0.12920200544E+02  0.15921495198E+02  0.51100000000E-03 0. -1.
        -11    1    3    3    0    0  0.21311153060E+02 -0.24632700939E+01  0.63140802043E+01  0.22362928104E+02  0.51100000000E-03 0.  1.
         12    1    3    3    0    0 -0.48241507216E+01  0.19822939808E+02  0.50512762830E+01  0.21017534701E+02  0.00000000000E+00 0. -1.
</event>
<event>
 7    1  0.7012292E-013  0.5930194E+02  0.7816164E-02  0.1266605E+00
        -11   -1    0    0    0    0  0.00000000000E+00  0.00000000000E+00  0.45593999997E+02  0.45594000000E+02  0.51100000000E-03 0.  1.
         11   -1    0    0    0    0 -0.00000000000E+00 -0.00000000000E+00 -0.45593999997E+02  0.45594000000E+02  0.51100000000E-03 0. -1.
    9900012    2    1    2    0    0 -0.20914431030E+02  0.24049180186E+02 -0.97178458502E+00  0.59301939438E+02  0.49999991629E+02 0.  0.
         12    1    1    2    0    0  0.20914431030E+02 -0.24049180186E+02  0.97178458502E+00  0.31886060562E+02  0.00000000000E+00 0. -1.
         11    1    3    3    0    0 -0.12762833434E+02  0.15344695748E+02  0.50662877093E+01  0.20591670071E+02  0.51100000000E-03 0. -1.
        -11    1    3    3    0    0 -0.21162467298E+02  0.68087982677E-01  0.17967894747E+01  0.21238717259E+02  0.51100000000E-03 0.  1.
         12    1    3    3    0    0  0.13010869703E+02  0.86363964545E+01 -0.78348617689E+01  0.17471552108E+02  0.00000000000E+00 0. -1.
</event>
<event>
 7    1  0.7012292E-013  0.5930198E+02  0.7816164E-02  0.1266605E+00
        -11   -1    0    0    0    0  0.00000000000E+00  0.00000000000E+00  0.45593999997E+02  0.45594000000E+02  0.51100000000E-03 0.  1.
         11   -1    0    0    0    0 -0.00000000000E+00 -0.00000000000E+00 -0.45593999997E+02  0.45594000000E+02  0.51100000000E-03 0. -1.
    9900012    2    1    2    0    0 -0.31288848642E+01 -0.35791577845E+01  0.31529638254E+02  0.59301978307E+02  0.50000062518E+02 0.  0.
         12    1    1    2    0    0  0.31288848642E+01  0.35791577845E+01 -0.31529638254E+02  0.31886021693E+02  0.00000000000E+00 0. -1.
         11    1    3    3    0    0  0.76631141753E+01 -0.75580155595E+01 -0.34401668690E+01  0.11299631251E+02  0.51100000000E-03 0. -1.
        -11    1    3    3    0    0  0.71605203836E+00  0.14232526345E+02  0.65757423893E+01  0.15694518945E+02  0.51100000000E-03 0.  1.
         12    1    3    3    0    0 -0.11508051078E+02 -0.10253668570E+02  0.28394062734E+02  0.32307828112E+02  0.00000000000E+00 0. -1.
</event>
<event>
 7    1  0.7012292E-013  0.5930199E+02  0.7816164E-02  0.1266605E+00
        -11   -1    0    0    0    0  0.00000000000E+00  0.00000000000E+00  0.45593999997E+02  0.45594000000E+02  0.51100000000E-03 0. -1.
         11   -1    0    0    0    0 -0.00000000000E+00 -0.00000000000E+00 -0.45593999997E+02  0.45594000000E+02  0.51100000000E-03 0.  1.
    9900012    2    1    2    0    0 -0.27177931760E+02  0.86894525524E+01 -0.14232752583E+02  0.59301987291E+02  0.50000078901E+02 0.  0.
         12    1    1    2    0    0  0.27177931760E+02 -0.86894525524E+01  0.14232752583E+02  0.31886012709E+02  0.00000000000E+00 0. -1.
         11    1    3    3    0    0 -0.92217178364E+00 -0.48646817169E+01 -0.17947935353E+01  0.52665750826E+01  0.51100000000E-03 0. -1.
        -11    1    3    3    0    0 -0.10488760687E+02 -0.15950126015E+02 -0.34869704593E+01  0.19405658553E+02  0.51100000000E-03 0.  1.
        -12    1    3    3    0    0 -0.15766999290E+02  0.29504260284E+02 -0.89509885882E+01  0.34629753655E+02  0.00000000000E+00 0.  1.
</event>
<event>
 7    1  0.7012292E-013  0.5930195E+02  0.7816164E-02  0.1266605E+00
        -11   -1    0    0    0    0  0.00000000000E+00  0.00000000000E+00  0.45593999997E+02  0.45594000000E+02  0.51100000000E-03 0.  1.
         11   -1    0    0    0    0 -0.00000000000E+00 -0.00000000000E+00 -0.45593999997E+02  0.45594000000E+02  0.51100000000E-03 0. -1.
    9900012    2    1    2    0    0 -0.17327236958E+02  0.24214796492E+02 -0.11407484115E+02  0.59301949703E+02  0.50000010350E+02 0.  0.
         12    1    1    2    0    0  0.17327236958E+02 -0.24214796492E+02  0.11407484115E+02  0.31886050297E+02  0.00000000000E+00 0. -1.
         11    1    3    3    0    0  0.11470720356E+02 -0.61656896433E+01 -0.43725534900E+01  0.13737262411E+02  0.51100000000E-03 0. -1.
        -11    1    3    3    0    0 -0.81400061006E+01  0.42466584577E+01  0.46123975935E+01  0.10274629881E+02  0.51100000000E-03 0.  1.
        -12    1    3    3    0    0 -0.20657951213E+02  0.26133827678E+02 -0.11647328218E+02  0.35290057410E+02  0.00000000000E+00 0.  1.
</event>
<event>
 7    1  0.7012292E-013  0.5930197E+02  0.7816164E-02  0.1266605E+00
        -11   -1    0    0    0    0  0.00000000000E+00  0.00000000000E+00  0.45593999997E+02  0.45594000000E+02  0.51100000000E-03 0.  1.
         11   -1    0    0    0    0 -0.00000000000E+00 -0.00000000000E+00 -0.45593999997E+02  0.45594000000E+02  0.51100000000E-03 0. -1.
    9900012    2    1    2    0    0  0.17188162380E+02 -0.18282502198E+02 -0.19673234100E+02  0.59301969319E+02  0.50000046125E+02 0.  0.
         12    1    1    2    0    0 -0.17188162380E+02  0.18282502198E+02  0.19673234100E+02  0.31886030681E+02  0.00000000000E+00 0. -1.
         11    1    3    3    0    0 -0.14125479787E+02  0.21279128492E+01 -0.76960558073E+01  0.16226104509E+02  0.51100000000E-03 0.  1.
        -11    1    3    3    0    0  0.34400820100E+01 -0.11132513918E+02 -0.59643882675E+01  0.13089727195E+02  0.51100000000E-03 0. -1.
        -12    1    3    3    0    0  0.27873560157E+02 -0.92779011301E+01 -0.60127900253E+01  0.29986137615E+02  0.00000000000E+00 0.  1.
</event>
<event>
 7    1  0.7012292E-013  0.5930193E+02  0.7816164E-02  0.1266605E+00
        -11   -1    0    0    0    0  0.00000000000E+00  0.00000000000E+00  0.45593999997E+02  0.45594000000E+02  0.51100000000E-03 0. -1.
         11   -1    0    0    0    0 -0.00000000000E+00 -0.00000000000E+00 -0.45593999997E+02  0.45594000000E+02  0.51100000000E-03 0.  1.
    9900012    2    1    2    0    0 -0.23750918338E+02 -0.20053932291E+02  0.71031625720E+01  0.59301933439E+02  0.49999980688E+02 0.  0.
         12    1    1    2    0    0  0.23750918338E+02  0.20053932291E+02 -0.71031625720E+01  0.31886066561E+02  0.00000000000E+00 0. -1.
         11    1    3    3    0    0  0.20524138965E+01 -0.78345168323E+01  0.66106151618E+01  0.10454295284E+02  0.51100000000E-03 0. -1.
        -11    1    3    3    0    0 -0.16250509599E+02 -0.26108606051E+02  0.55466496272E+01  0.31249059098E+02  0.51100000000E-03 0.  1.
         12    1    3    3    0    0 -0.95528226356E+01  0.13889190592E+02 -0.50541022170E+01  0.17598579057E+02  0.00000000000E+00 0. -1.
</event>
<event>
 7    1  0.7012292E-013  0.5930194E+02  0.7816164E-02  0.1266605E+00
        -11   -1    0    0    0    0  0.00000000000E+00  0.00000000000E+00  0.45593999997E+02  0.45594000000E+02  0.51100000000E-03 0.  1.
         11   -1    0    0    0    0 -0.00000000000E+00 -0.00000000000E+00 -0.45593999997E+02  0.45594000000E+02  0.51100000000E-03 0. -1.
    9900012    2    1    2    0    0  0.64387144562E+01  0.68278028232E+01  0.30473672636E+02  0.59301942558E+02  0.49999997320E+02 0.  0.
         12    1    1    2    0    0 -0.64387144562E+01 -0.68278028232E+01 -0.30473672636E+02  0.31886057442E+02  0.00000000000E+00 0. -1.
         11    1    3    3    0    0 -0.31853447426E+01 -0.66753405444E+01  0.15833622732E+02  0.17475989288E+02  0.51100000000E-03 0. -1.
        -11    1    3    3    0    0  0.17806407948E+02 -0.53410439476E+01  0.79666730413E+01  0.20225300840E+02  0.51100000000E-03 0.  1.
         12    1    3    3    0    0 -0.81823487495E+01  0.18844187315E+02  0.66733768627E+01  0.21600652430E+02  0.00000000000E+00 0. -1.
</event>
<event>
 7    1  0.7012292E-013  0.5930196E+02  0.7816164E-02  0.1266605E+00
        -11   -1    0    0    0    0  0.00000000000E+00  0.00000000000E+00  0.45593999997E+02  0.45594000000E+02  0.51100000000E-03 0.  1.
         11   -1    0    0    0    0 -0.00000000000E+00 -0.00000000000E+00 -0.45593999997E+02  0.45594000000E+02  0.51100000000E-03 0. -1.
    9900012    2    1    2    0    0 -0.26425975108E+02 -0.17751860247E+02  0.18051408343E+01  0.59301964874E+02  0.50000038018E+02 0.  0.
         12    1    1    2    0    0  0.26425975108E+02  0.17751860247E+02 -0.18051408343E+01  0.31886035126E+02  0.00000000000E+00 0. -1.
         11    1    3    3    0    0 -0.11675688571E+02 -0.13598889026E+02  0.95452512594E+00  0.17948888679E+02  0.51100000000E-03 0. -1.
        -11    1    3    3    0    0 -0.10177294649E+02 -0.94777413595E+01  0.18044475743E+02  0.22781747359E+02  0.51100000000E-03 0.  1.
         12    1    3    3    0    0 -0.45729918874E+01  0.53247701381E+01 -0.17193860034E+02  0.18571328835E+02  0.00000000000E+00 0. -1.
</event>
<event>
 7    1  0.7012292E-013  0.5930196E+02  0.7816164E-02  0.1266605E+00
        -11   -1    0    0    0    0  0.00000000000E+00  0.00000000000E+00  0.45593999997E+02  0.45594000000E+02  0.51100000000E-03 0.  1.
         11   -1    0    0    0    0 -0.00000000000E+00 -0.00000000000E+00 -0.45593999997E+02  0.45594000000E+02  0.51100000000E-03 0. -1.
    9900012    2    1    2    0    0  0.49701162178E+01 -0.30540128465E+02 -0.77018265515E+01  0.59301958632E+02  0.50000026635E+02 0.  0.
         12    1    1    2    0    0 -0.49701162178E+01  0.30540128465E+02  0.77018265515E+01  0.31886041368E+02  0.00000000000E+00 0. -1.
         11    1    3    3    0    0  0.10706982570E+02 -0.15542331094E+02 -0.20265215912E+02  0.27692643569E+02  0.51100000000E-03 0. -1.
        -11    1    3    3    0    0  0.35551013662E+01  0.35046240919E+01 -0.28947654474E+01  0.57706847952E+01  0.51100000000E-03 0.  1.
        -12    1    3    3    0    0 -0.92919677182E+01 -0.18502421463E+02  0.15458154808E+02  0.25838630268E+02  0.00000000000E+00 0.  1.
</event>
<event>
 7    1  0.7012292E-013  0.5930198E+02  0.7816164E-02  0.1266605E+00
        -11   -1    0    0    0    0  0.00000000000E+00  0.00000000000E+00  0.45593999997E+02  0.45594000000E+02  0.51100000000E-03 0. -1.
         11   -1    0    0    0    0 -0.00000000000E+00 -0.00000000000E+00 -0.45593999997E+02  0.45594000000E+02  0.51100000000E-03 0.  1.
    9900012    2    1    2    0    0 -0.15487396590E+02 -0.26263732303E+02  0.93314162071E+01  0.59301977733E+02  0.50000061470E+02 0.  0.
         12    1    1    2    0    0  0.15487396590E+02  0.26263732303E+02 -0.93314162071E+01  0.31886022267E+02  0.00000000000E+00 0. -1.
         11    1    3    3    0    0 -0.82456054075E+01 -0.54469411013E+01 -0.65065480884E+01  0.11831920562E+02  0.51100000000E-03 0. -1.
        -11    1    3    3    0    0 -0.15531344482E+02 -0.20080283264E+02  0.24625310136E+02  0.35367306046E+02  0.51100000000E-03 0.  1.
         12    1    3    3    0    0  0.82895532997E+01 -0.73650793704E+00 -0.87873458409E+01  0.12102751124E+02  0.00000000000E+00 0. -1.
</event>
<event>
 7    1  0.7012292E-013  0.5930177E+02  0.7816164E-02  0.1266605E+00
        -11   -1    0    0    0    0  0.00000000000E+00  0.00000000000E+00  0.45593999997E+02  0.45594000000E+02  0.51100000000E-03 0. -1.
         11   -1    0    0    0    0 -0.00000000000E+00 -0.00000000000E+00 -0.45593999997E+02  0.45594000000E+02  0.51100000000E-03 0.  1.
    9900012    2    1    2    0    0 -0.26080529496E+02 -0.18247314141E+02 -0.18902440488E+01  0.59301772335E+02  0.49999686872E+02 0.  0.
         12    1    1    2    0    0  0.26080529496E+02  0.18247314141E+02  0.18902440488E+01  0.31886227665E+02  0.00000000000E+00 0. -1.
         11    1    3    3    0    0 -0.87945356511E+01 -0.81683693663E+01  0.19133610129E+02  0.22586747270E+02  0.51100000000E-03 0. -1.
        -11    1    3    3    0    0 -0.13886254922E+02  0.46720109208E+01 -0.77125217115E+01  0.16557136021E+02  0.51100000000E-03 0.  1.
        -12    1    3    3    0    0 -0.33997389232E+01 -0.14750955695E+02 -0.13311332466E+02  0.20157889044E+02  0.00000000000E+00 0.  1.
</event>
<event>
 7    1  0.7012292E-013  0.5930194E+02  0.7816164E-02  0.1266605E+00
        -11   -1    0    0    0    0  0.00000000000E+00  0.00000000000E+00  0.45593999997E+02  0.45594000000E+02  0.51100000000E-03 0.  1.
         11   -1    0    0    0    0 -0.00000000000E+00 -0.00000000000E+00 -0.45593999997E+02  0.45594000000E+02  0.51100000000E-03 0. -1.
    9900012    2    1    2    0    0  0.25838323811E+02 -0.40121035388E+01  0.18248425309E+02  0.59301937553E+02  0.49999988191E+02 0.  0.
         12    1    1    2    0    0 -0.25838323811E+02  0.40121035388E+01 -0.18248425309E+02  0.31886062447E+02  0.00000000000E+00 0. -1.
         11    1    3    3    0    0  0.38301139394E+01 -0.46680232824E+01 -0.93730874691E+01  0.11149662915E+02  0.51100000000E-03 0. -1.
        -11    1    3    3    0    0  0.33834651886E+01  0.78903667136E+01 -0.49727141334E+01  0.99213713604E+01  0.51100000000E-03 0.  1.
        -12    1    3    3    0    0  0.18624744683E+02 -0.72344469699E+01  0.32594226911E+02  0.38230903277E+02  0.00000000000E+00 0.  1.
</event>
<event>
 7    1  0.7012292E-013  0.5930190E+02  0.7816164E-02  0.1266605E+00
        -11   -1    0    0    0    0  0.00000000000E+00  0.00000000000E+00  0.45593999997E+02  0.45594000000E+02  0.51100000000E-03 0.  1.
         11   -1    0    0    0    0 -0.00000000000E+00 -0.00000000000E+00 -0.45593999997E+02  0.45594000000E+02  0.51100000000E-03 0. -1.
    9900012    2    1    2    0    0 -0.21045237191E+02 -0.19941763549E+02  0.13272054829E+02  0.59301899874E+02  0.49999919474E+02 0.  0.
         12    1    1    2    0    0  0.21045237191E+02  0.19941763549E+02 -0.13272054829E+02  0.31886100126E+02  0.00000000000E+00 0. -1.
         11    1    3    3    0    0  0.10420050908E+01 -0.11617206468E+02 -0.44962857404E+01  0.12500473849E+02  0.51100000000E-03 0. -1.
        -11    1    3    3    0    0  0.63088755632E+01 -0.10872660760E+02 -0.10914230052E+01  0.12617759996E+02  0.51100000000E-03 0.  1.
         12    1    3    3    0    0 -0.28396117845E+02  0.25481036795E+01  0.18859763575E+02  0.34183666028E+02  0.00000000000E+00 0. -1.
</event>
<event>
 7    1  0.7012292E-013  0.5930196E+02  0.7816164E-02  0.1266605E+00
        -11   -1    0    0    0    0  0.00000000000E+00  0.00000000000E+00  0.45593999997E+02  0.45594000000E+02  0.51100000000E-03 0.  1.
         11   -1    0    0    0    0 -0.00000000000E+00 -0.00000000000E+00 -0.45593999997E+02  0.45594000000E+02  0.51100000000E-03 0. -1.
    9900012    2    1    2    0    0 -0.13246967312E+02  0.66691308539E+01  0.28226934374E+02  0.59301964288E+02  0.50000036949E+02 0.  0.
         12    1    1    2    0    0  0.13246967312E+02 -0.66691308539E+01 -0.28226934374E+02  0.31886035712E+02  0.00000000000E+00 0. -1.
         11    1    3    3    0    0 -0.70169866106E+01  0.34745441468E+01 -0.52327128807E+01  0.94176346539E+01  0.51100000000E-03 0.  1.
        -11    1    3    3    0    0 -0.48068119810E+01 -0.38135423845E+01 -0.67045749208E+01  0.90884471759E+01  0.51100000000E-03 0. -1.
        -12    1    3    3    0    0 -0.14231687202E+01  0.70081290915E+01  0.40164222175E+02  0.40795882458E+02  0.00000000000E+00 0.  1.
</event>
<event>
 7    1  0.7012292E-013  0.5930195E+02  0.7816164E-02  0.1266605E+00
        -11   -1    0    0    0    0  0.00000000000E+00  0.00000000000E+00  0.45593999997E+02  0.45594000000E+02  0.51100000000E-03 0.  1.
         11   -1    0    0    0    0 -0.00000000000E+00 -0.00000000000E+00 -0.45593999997E+02  0.45594000000E+02  0.51100000000E-03 0. -1.
    9900012    2    1    2    0    0 -0.85195573083E+01 -0.16538682216E+02  0.25896119811E+02  0.59301954660E+02  0.50000019390E+02 0.  0.
         12    1    1    2    0    0  0.85195573083E+01  0.16538682216E+02 -0.25896119811E+02  0.31886045340E+02  0.00000000000E+00 0. -1.
         11    1    3    3    0    0 -0.33213223819E+01 -0.15581878847E+02  0.27297171947E+02  0.31606355806E+02  0.51100000000E-03 0. -1.
        -11    1    3    3    0    0  0.48872761894E+01  0.47631508449E+01  0.95560763659E+01  0.11742728401E+02  0.51100000000E-03 0.  1.
         12    1    3    3    0    0 -0.10085511116E+02 -0.57199542147E+01 -0.10957128502E+02  0.15952870453E+02  0.00000000000E+00 0. -1.
</event>
<event>
 7    1  0.7012292E-013  0.5930192E+02  0.7816164E-02  0.1266605E+00
        -11   -1    0    0    0    0  0.00000000000E+00  0.00000000000E+00  0.45593999997E+02  0.45594000000E+02  0.51100000000E-03 0. -1.
         11   -1    0    0    0    0 -0.00000000000E+00 -0.00000000000E+00 -0.45593999997E+02  0.45594000000E+02  0.51100000000E-03 0.  1.
    9900012    2    1    2    0    0 -0.16553416478E+01  0.18794926758E+01 -0.31787567765E+02  0.59301919759E+02  0.49999955740E+02 0.  0.
         12    1    1    2    0    0  0.16553416478E+01 -0.18794926758E+01  0.31787567765E+02  0.31886080241E+02  0.00000000000E+00 0. -1.
         11    1    3    3    0    0 -0.12213529717E+02 -0.24245120214E+00 -0.36306743096E+02  0.38306770749E+02  0.51100000000E-03 0. -1.
        -11    1    3    3    0    0  0.88982553301E+01 -0.14447628303E+01 -0.52719965650E+01  0.10443190872E+02  0.51100000000E-03 0.  1.
         12    1    3    3    0    0  0.16599327389E+01  0.35667067082E+01  0.97911718960E+01  0.10551958138E+02  0.00000000000E+00 0. -1.
</event>
<event>
 7    1  0.7012292E-013  0.5930196E+02  0.7816164E-02  0.1266605E+00
        -11   -1    0    0    0    0  0.00000000000E+00  0.00000000000E+00  0.45593999997E+02  0.45594000000E+02  0.51100000000E-03 0. -1.
         11   -1    0    0    0    0 -0.00000000000E+00 -0.00000000000E+00 -0.45593999997E+02  0.45594000000E+02  0.51100000000E-03 0.  1.
    9900012    2    1    2    0    0 -0.20027256387E+02  0.20955278488E+02 -0.13285518090E+02  0.59301957821E+02  0.50000025156E+02 0.  0.
         12    1    1    2    0    0  0.20027256387E+02 -0.20955278488E+02  0.13285518090E+02  0.31886042179E+02  0.00000000000E+00 0. -1.
         11    1    3    3    0    0  0.34885727557E+01 -0.10407179628E+02  0.28957681074E+01  0.11351872130E+02  0.51100000000E-03 0. -1.
        -11    1    3    3    0    0  0.21581921217E+01 -0.18751238502E+01  0.20860174047E+00  0.28666003619E+01  0.51100000000E-03 0.  1.
        -12    1    3    3    0    0 -0.25674021264E+02  0.33237581966E+02 -0.16389887938E+02  0.45083485329E+02  0.00000000000E+00 0.  1.
</event>
<event>
 7    1  0.7936406E-013  0.5930193E+02  0.7816164E-02  0.1266605E+00
        -11   -1    0    0    0    0  0.00000000000E+00  0.00000000000E+00  0.45593999997E+02  0.45594000000E+02  0.51100000000E-03 0. -1.
         11   -1    0    0    0    0 -0.00000000000E+00 -0.00000000000E+00 -0.45593999997E+02  0.45594000000E+02  0.51100000000E-03 0.  1.
    9900012    2    1    2    0    0  0.36258428172E+00  0.25488525025E+01 -0.31781967903E+02  0.59301927802E+02  0.49999970409E+02 0.  0.
         12    1    1    2    0    0 -0.36258428172E+00 -0.25488525025E+01  0.31781967903E+02  0.31886072198E+02  0.00000000000E+00 0. -1.
         11    1    3    3    0    0 -0.11460569514E+01 -0.74957829077E+01  0.65917257339E+00  0.76114858391E+01  0.51100000000E-03 0. -1.
        -11    1    3    3    0    0  0.18898628493E+02  0.34142550954E+01 -0.25284112153E+02  0.31750616126E+02  0.51100000000E-03 0.  1.
         12    1    3    3    0    0 -0.17389987259E+02  0.66303803148E+01 -0.71570283234E+01  0.19939825837E+02  0.00000000000E+00 0. -1.
</event>
<event>
 7    1  0.7012292E-013  0.5930195E+02  0.7816164E-02  0.1266605E+00
        -11   -1    0    0    0    0  0.00000000000E+00  0.00000000000E+00  0.45593999997E+02  0.45594000000E+02  0.51100000000E-03 0. -1.
         11   -1    0    0    0    0 -0.00000000000E+00 -0.00000000000E+00 -0.45593999997E+02  0.45594000000E+02  0.51100000000E-03 0.  1.
    9900012    2    1    2    0    0  0.15990162100E+02  0.22852810239E+02 -0.15452635697E+02  0.59301950233E+02  0.50000011316E+02 0.  0.
         12    1    1    2    0    0 -0.15990162100E+02 -0.22852810239E+02  0.15452635697E+02  0.31886049767E+02  0.00000000000E+00 0. -1.
         11    1    3    3    0    0 -0.32215293770E+00  0.75830351653E+01  0.11080301639E+02  0.13430535712E+02  0.51100000000E-03 0. -1.
        -11    1    3    3    0    0  0.14207414340E+01  0.17341286201E+02 -0.25783349742E+01  0.17589386710E+02  0.51100000000E-03 0.  1.
        -12    1    3    3    0    0  0.14891573603E+02 -0.20715111276E+01 -0.23954602362E+02  0.28282027810E+02  0.00000000000E+00 0.  1.
</event>
<event>
 7    1  0.7012292E-013  0.5930194E+02  0.7816164E-02  0.1266605E+00
        -11   -1    0    0    0    0  0.00000000000E+00  0.00000000000E+00  0.45593999997E+02  0.45594000000E+02  0.51100000000E-03 0. -1.
         11   -1    0    0    0    0 -0.00000000000E+00 -0.00000000000E+00 -0.45593999997E+02  0.45594000000E+02  0.51100000000E-03 0.  1.
    9900012    2    1    2    0    0  0.20007454564E+02 -0.24801518037E+02 -0.11433190990E+01  0.59301941705E+02  0.49999995763E+02 0.  0.
         12    1    1    2    0    0 -0.20007454564E+02  0.24801518037E+02  0.11433190990E+01  0.31886058295E+02  0.00000000000E+00 0. -1.
         11    1    3    3    0    0 -0.34103403556E+01 -0.13811680219E+01  0.99628763463E+01  0.10620590935E+02  0.51100000000E-03 0.  1.
        -11    1    3    3    0    0 -0.71311788707E+01  0.10039325640E+01 -0.57262077834E+01  0.92006004434E+01  0.51100000000E-03 0. -1.
        -12    1    3    3    0    0  0.30548973790E+02 -0.24424282579E+02 -0.53799876618E+01  0.39480750327E+02  0.00000000000E+00 0.  1.
</event>
<event>
 7    1  0.7012292E-013  0.5930218E+02  0.7816164E-02  0.1266604E+00
        -11   -1    0    0    0    0  0.00000000000E+00  0.00000000000E+00  0.45593999997E+02  0.45594000000E+02  0.51100000000E-03 0. -1.
         11   -1    0    0    0    0 -0.00000000000E+00 -0.00000000000E+00 -0.45593999997E+02  0.45594000000E+02  0.51100000000E-03 0.  1.
    9900012    2    1    2    0    0  0.11821167641E+02  0.93163171584E+01 -0.28109991956E+02  0.59302181560E+02  0.50000433201E+02 0.  0.
         12    1    1    2    0    0 -0.11821167641E+02 -0.93163171584E+01  0.28109991956E+02  0.31885818440E+02  0.00000000000E+00 0. -1.
         11    1    3    3    0    0  0.22136271143E+02 -0.12198867951E+01 -0.11920623141E+02  0.25171489432E+02  0.51100000000E-03 0.  1.
        -11    1    3    3    0    0  0.45158313130E+01  0.81594605584E+01  0.29684141408E+01  0.97867773973E+01  0.51100000000E-03 0. -1.
        -12    1    3    3    0    0 -0.14830934815E+02  0.23767433952E+01 -0.19157782956E+02  0.24343914731E+02  0.00000000000E+00 0.  1.
</event>
<event>
 7    1  0.7012292E-013  0.5930194E+02  0.7816164E-02  0.1266605E+00
        -11   -1    0    0    0    0  0.00000000000E+00  0.00000000000E+00  0.45593999997E+02  0.45594000000E+02  0.51100000000E-03 0. -1.
         11   -1    0    0    0    0 -0.00000000000E+00 -0.00000000000E+00 -0.45593999997E+02  0.45594000000E+02  0.51100000000E-03 0.  1.
    9900012    2    1    2    0    0  0.17654543802E+02 -0.24937441157E+02  0.91193025930E+01  0.59301943987E+02  0.49999999925E+02 0.  0.
         12    1    1    2    0    0 -0.17654543802E+02  0.24937441157E+02 -0.91193025930E+01  0.31886056013E+02  0.00000000000E+00 0. -1.
         11    1    3    3    0    0  0.17249966794E+02 -0.11581279626E+02  0.10413070668E+02  0.23240469728E+02  0.51100000000E-03 0. -1.
        -11    1    3    3    0    0  0.13013802984E+01 -0.22168171393E+02  0.76372646764E+01  0.23482956065E+02  0.51100000000E-03 0.  1.
         12    1    3    3    0    0 -0.89680329069E+00  0.88120098617E+01 -0.89310327510E+01  0.12578518193E+02  0.00000000000E+00 0. -1.
</event>
<event>
 7    1  0.7012292E-013  0.5930196E+02  0.7816164E-02  0.1266605E+00
        -11   -1    0    0    0    0  0.00000000000E+00  0.00000000000E+00  0.45593999997E+02  0.45594000000E+02  0.51100000000E-03 0.  1.
         11   -1    0    0    0    0 -0.00000000000E+00 -0.00000000000E+00 -0.45593999997E+02  0.45594000000E+02  0.51100000000E-03 0. -1.
    9900012    2    1    2    0    0  0.12162190558E+02  0.23778202791E+02  0.17418320141E+02  0.59301957855E+02  0.50000025217E+02 0.  0.
         12    1    1    2    0    0 -0.12162190558E+02 -0.23778202791E+02 -0.17418320141E+02  0.31886042145E+02  0.00000000000E+00 0. -1.
         11    1    3    3    0    0  0.35035506518E+01  0.11995337456E+01 -0.26667176064E+01  0.45634560839E+01  0.51100000000E-03 0. -1.
        -11    1    3    3    0    0  0.21879052014E+02  0.18519053065E+02 -0.19417040538E+01  0.28730096734E+02  0.51100000000E-03 0.  1.
         12    1    3    3    0    0 -0.13220412107E+02  0.40596159801E+01  0.22026741801E+02  0.26008405037E+02  0.00000000000E+00 0. -1.
</event>
<event>
 7    1  0.7012292E-013  0.5930191E+02  0.7816164E-02  0.1266605E+00
        -11   -1    0    0    0    0  0.00000000000E+00  0.00000000000E+00  0.45593999997E+02  0.45594000000E+02  0.51100000000E-03 0. -1.
         11   -1    0    0    0    0 -0.00000000000E+00 -0.00000000000E+00 -0.45593999997E+02  0.45594000000E+02  0.51100000000E-03 0.  1.
    9900012    2    1    2    0    0 -0.27398095840E+01  0.23650749624E+02 -0.21209860671E+02  0.59301910494E+02  0.49999938842E+02 0.  0.
         12    1    1    2    0    0  0.27398095840E+01 -0.23650749624E+02  0.21209860671E+02  0.31886089506E+02  0.00000000000E+00 0. -1.
         11    1    3    3    0    0  0.95221485686E+01 -0.15790375051E+01 -0.12324544041E+01  0.97305507000E+01  0.51100000000E-03 0. -1.
        -11    1    3    3    0    0 -0.46613102248E+00  0.31013448385E+02 -0.85871073045E+01  0.32183686411E+02  0.51100000000E-03 0.  1.
         12    1    3    3    0    0 -0.11795827130E+02 -0.57836612563E+01 -0.11390298962E+02  0.17387673383E+02  0.00000000000E+00 0. -1.
</event>
<event>
 7    1  0.7012292E-013  0.5930195E+02  0.7816164E-02  0.1266605E+00
        -11   -1    0    0    0    0  0.00000000000E+00  0.00000000000E+00  0.45593999997E+02  0.45594000000E+02  0.51100000000E-03 0. -1.
         11   -1    0    0    0    0 -0.00000000000E+00 -0.00000000000E+00 -0.45593999997E+02  0.45594000000E+02  0.51100000000E-03 0.  1.
    9900012    2    1    2    0    0 -0.26548136799E+02 -0.94231492944E+01 -0.14937234862E+02  0.59301948262E+02  0.50000007722E+02 0.  0.
         12    1    1    2    0    0  0.26548136799E+02  0.94231492944E+01  0.14937234862E+02  0.31886051738E+02  0.00000000000E+00 0. -1.
         11    1    3    3    0    0  0.59270321986E+01 -0.11449230729E+02 -0.47825453565E+01  0.13750903073E+02  0.51100000000E-03 0. -1.
        -11    1    3    3    0    0 -0.19461475707E+02 -0.11861124633E+02 -0.13107543509E+02  0.26291500744E+02  0.51100000000E-03 0.  1.
        -12    1    3    3    0    0 -0.13013693291E+02  0.13887206068E+02  0.29528540038E+01  0.19259544445E+02  0.00000000000E+00 0.  1.
</event>
<event>
 7    1  0.7012292E-013  0.5930194E+02  0.7816164E-02  0.1266605E+00
        -11   -1    0    0    0    0  0.00000000000E+00  0.00000000000E+00  0.45593999997E+02  0.45594000000E+02  0.51100000000E-03 0.  1.
         11   -1    0    0    0    0 -0.00000000000E+00 -0.00000000000E+00 -0.45593999997E+02  0.45594000000E+02  0.51100000000E-03 0. -1.
    9900012    2    1    2    0    0 -0.30124486481E+01  0.11357506224E+02  0.29642087386E+02  0.59301935033E+02  0.49999983596E+02 0.  0.
         12    1    1    2    0    0  0.30124486481E+01 -0.11357506224E+02 -0.29642087386E+02  0.31886064967E+02  0.00000000000E+00 0. -1.
         11    1    3    3    0    0  0.10610674439E+02 -0.40838916128E+01 -0.44771974272E+01  0.12219242195E+02  0.51100000000E-03 0. -1.
        -11    1    3    3    0    0  0.50580962959E+01 -0.20559844606E+01  0.15823617746E+01  0.56846529611E+01  0.51100000000E-03 0.  1.
        -12    1    3    3    0    0 -0.18681219383E+02  0.17497382297E+02  0.32536923038E+02  0.41398039877E+02  0.00000000000E+00 0.  1.
</event>
<event>
 7    1  0.7012292E-013  0.5930195E+02  0.7816164E-02  0.1266605E+00
        -11   -1    0    0    0    0  0.00000000000E+00  0.00000000000E+00  0.45593999997E+02  0.45594000000E+02  0.51100000000E-03 0.  1.
         11   -1    0    0    0    0 -0.00000000000E+00 -0.00000000000E+00 -0.45593999997E+02  0.45594000000E+02  0.51100000000E-03 0. -1.
    9900012    2    1    2    0    0  0.17270897100E+02 -0.25700453649E+02  0.76107186844E+01  0.59301949080E+02  0.50000009214E+02 0.  0.
         12    1    1    2    0    0 -0.17270897100E+02  0.25700453649E+02 -0.76107186844E+01  0.31886050920E+02  0.00000000000E+00 0. -1.
         11    1    3    3    0    0 -0.21910864859E+01 -0.29194832859E+01  0.81450589740E+00  0.37400083908E+01  0.51100000000E-03 0. -1.
        -11    1    3    3    0    0 -0.94563391473E-01 -0.32836336310E+02  0.69838438781E+01  0.33570939815E+02  0.51100000000E-03 0.  1.
        -12    1    3    3    0    0  0.19556546978E+02  0.10055365947E+02 -0.18763109112E+00  0.21991000874E+02  0.00000000000E+00 0.  1.
</event>
<event>
 7    1  0.7012292E-013  0.5930194E+02  0.7816164E-02  0.1266605E+00
        -11   -1    0    0    0    0  0.00000000000E+00  0.00000000000E+00  0.45593999997E+02  0.45594000000E+02  0.51100000000E-03 0.  1.
         11   -1    0    0    0    0 -0.00000000000E+00 -0.00000000000E+00 -0.45593999997E+02  0.45594000000E+02  0.51100000000E-03 0. -1.
    9900012    2    1    2    0    0  0.25142059390E+02 -0.64629641763E+00 -0.19600506275E+02  0.59301941986E+02  0.49999996277E+02 0.  0.
         12    1    1    2    0    0 -0.25142059390E+02  0.64629641763E+00  0.19600506275E+02  0.31886058014E+02  0.00000000000E+00 0. -1.
         11    1    3    3    0    0  0.10697932214E+02 -0.19876096171E+02  0.12260546380E+01  0.22605489663E+02  0.51100000000E-03 0. -1.
        -11    1    3    3    0    0  0.48231491381E+01 -0.20037573400E+01  0.30629940998E+00  0.52317903892E+01  0.51100000000E-03 0.  1.
        -12    1    3    3    0    0  0.96209780374E+01  0.21233557093E+02 -0.21132860323E+02  0.31464661935E+02  0.00000000000E+00 0.  1.
</event>
<event>
 7    1  0.7012292E-013  0.5930196E+02  0.7816164E-02  0.1266605E+00
        -11   -1    0    0    0    0  0.00000000000E+00  0.00000000000E+00  0.45593999997E+02  0.45594000000E+02  0.51100000000E-03 0.  1.
         11   -1    0    0    0    0 -0.00000000000E+00 -0.00000000000E+00 -0.45593999997E+02  0.45594000000E+02  0.51100000000E-03 0. -1.
    9900012    2    1    2    0    0 -0.16039394960E+02  0.64290315630E+01  0.26797852552E+02  0.59301960125E+02  0.50000029357E+02 0.  0.
         12    1    1    2    0    0  0.16039394960E+02 -0.64290315630E+01 -0.26797852552E+02  0.31886039875E+02  0.00000000000E+00 0. -1.
         11    1    3    3    0    0  0.29904036247E+01 -0.53368639113E+01 -0.12793163888E+01  0.62499024737E+01  0.51100000000E-03 0. -1.
        -11    1    3    3    0    0 -0.17611026898E+02 -0.59508509790E+01 -0.13884317782E+01  0.18641047150E+02  0.51100000000E-03 0.  1.
         12    1    3    3    0    0 -0.14187716871E+01  0.17716746453E+02  0.29465600719E+02  0.34411010501E+02  0.00000000000E+00 0. -1.
</event>
<event>
 7    1  0.7012292E-013  0.5930193E+02  0.7816164E-02  0.1266605E+00
        -11   -1    0    0    0    0  0.00000000000E+00  0.00000000000E+00  0.45593999997E+02  0.45594000000E+02  0.51100000000E-03 0. -1.
         11   -1    0    0    0    0 -0.00000000000E+00 -0.00000000000E+00 -0.45593999997E+02  0.45594000000E+02  0.51100000000E-03 0.  1.
    9900012    2    1    2    0    0 -0.21462906585E+02 -0.63853130350E+01 -0.22700058177E+02  0.59301933719E+02  0.49999981200E+02 0.  0.
         12    1    1    2    0    0  0.21462906585E+02  0.63853130350E+01  0.22700058177E+02  0.31886066281E+02  0.00000000000E+00 0. -1.
         11    1    3    3    0    0  0.59141503934E+00 -0.60693938261E+00 -0.79730777947E+01  0.80179870881E+01  0.51100000000E-03 0.  1.
        -11    1    3    3    0    0  0.91228359150E+01  0.77987667966E+01 -0.12310663271E+02  0.17193002330E+02  0.51100000000E-03 0. -1.
        -12    1    3    3    0    0 -0.31177157539E+02 -0.13577140449E+02 -0.24163171111E+01  0.34090944301E+02  0.00000000000E+00 0.  1.
</event>
<event>
 7    1  0.7012292E-013  0.5930186E+02  0.7816164E-02  0.1266605E+00
        -11   -1    0    0    0    0  0.00000000000E+00  0.00000000000E+00  0.45593999997E+02  0.45594000000E+02  0.51100000000E-03 0.  1.
         11   -1    0    0    0    0 -0.00000000000E+00 -0.00000000000E+00 -0.45593999997E+02  0.45594000000E+02  0.51100000000E-03 0. -1.
    9900012    2    1    2    0    0  0.10527816037E+02 -0.25385894065E+02  0.16169325546E+02  0.59301864822E+02  0.49999855547E+02 0.  0.
         12    1    1    2    0    0 -0.10527816037E+02  0.25385894065E+02 -0.16169325546E+02  0.31886135178E+02  0.00000000000E+00 0. -1.
         11    1    3    3    0    0  0.84643071106E+00 -0.65293343549E+01  0.28087284929E+01  0.71580449897E+01  0.51100000000E-03 0. -1.
        -11    1    3    3    0    0  0.15318285141E+02 -0.20858563788E+02  0.26908801045E+02  0.37333806622E+02  0.51100000000E-03 0.  1.
        -12    1    3    3    0    0 -0.56368998147E+01  0.20020040780E+01 -0.13548203992E+02  0.14810013209E+02  0.00000000000E+00 0.  1.
</event>
<event>
 7    1  0.7012292E-013  0.5930194E+02  0.7816164E-02  0.1266605E+00
        -11   -1    0    0    0    0  0.00000000000E+00  0.00000000000E+00  0.45593999997E+02  0.45594000000E+02  0.51100000000E-03 0. -1.
         11   -1    0    0    0    0 -0.00000000000E+00 -0.00000000000E+00 -0.45593999997E+02  0.45594000000E+02  0.51100000000E-03 0.  1.
    9900012    2    1    2    0    0 -0.15905637253E+01  0.99907488563E+00 -0.31830693031E+02  0.59301936235E+02  0.49999985787E+02 0.  0.
         12    1    1    2    0    0  0.15905637253E+01 -0.99907488563E+00  0.31830693031E+02  0.31886063765E+02  0.00000000000E+00 0. -1.
         11    1    3    3    0    0  0.30476731838E+01 -0.92852355823E+00  0.82819459145E+01  0.88736179896E+01  0.51100000000E-03 0. -1.
        -11    1    3    3    0    0 -0.43987182665E+01  0.87257167526E+01 -0.29198201710E-01  0.97717812107E+01  0.51100000000E-03 0.  1.
        -12    1    3    3    0    0 -0.23951864269E+00 -0.67981183087E+01 -0.40083440744E+02  0.40656537034E+02  0.00000000000E+00 0.  1.
</event>
<event>
 7    1  0.7012292E-013  0.5930194E+02  0.7816164E-02  0.1266605E+00
        -11   -1    0    0    0    0  0.00000000000E+00  0.00000000000E+00  0.45593999997E+02  0.45594000000E+02  0.51100000000E-03 0. -1.
         11   -1    0    0    0    0 -0.00000000000E+00 -0.00000000000E+00 -0.45593999997E+02  0.45594000000E+02  0.51100000000E-03 0.  1.
    9900012    2    1    2    0    0 -0.28402543440E+02  0.72619541436E+01 -0.12541143403E+02  0.59301941452E+02  0.49999995303E+02 0.  0.
         12    1    1    2    0    0  0.28402543440E+02 -0.72619541436E+01  0.12541143403E+02  0.31886058548E+02  0.00000000000E+00 0. -1.
         11    1    3    3    0    0 -0.19157658599E+01 -0.88529126352E+01 -0.12193301166E+02  0.15189496850E+02  0.51100000000E-03 0. -1.
        -11    1    3    3    0    0  0.43314857880E+01 -0.18491503896E+01 -0.63843850952E+01  0.79335678985E+01  0.51100000000E-03 0.  1.
         12    1    3    3    0    0 -0.30818263368E+02  0.17964017168E+02  0.60365428588E+01  0.36178876704E+02  0.00000000000E+00 0. -1.
</event>
<event>
 7    1  0.7012292E-013  0.5930192E+02  0.7816164E-02  0.1266605E+00
        -11   -1    0    0    0    0  0.00000000000E+00  0.00000000000E+00  0.45593999997E+02  0.45594000000E+02  0.51100000000E-03 0. -1.
         11   -1    0    0    0    0 -0.00000000000E+00 -0.00000000000E+00 -0.45593999997E+02  0.45594000000E+02  0.51100000000E-03 0.  1.
    9900012    2    1    2    0    0  0.95243766455E+01 -0.23876111146E+02 -0.18866361702E+02  0.59301920940E+02  0.49999957894E+02 0.  0.
         12    1    1    2    0    0 -0.95243766455E+01  0.23876111146E+02  0.18866361702E+02  0.31886079060E+02  0.00000000000E+00 0. -1.
         11    1    3    3    0    0 -0.27986631792E+01  0.42475647411E+01  0.91348531459E+00  0.51680535506E+01  0.51100000000E-03 0. -1.
        -11    1    3    3    0    0  0.90242182482E+01 -0.68075199691E+00 -0.24477622028E+02  0.26097009765E+02  0.51100000000E-03 0.  1.
         12    1    3    3    0    0  0.32988215765E+01 -0.27442923890E+02  0.46977750110E+01  0.28036857625E+02  0.00000000000E+00 0. -1.
</event>
<event>
 7    1  0.7012292E-013  0.5930196E+02  0.7816164E-02  0.1266605E+00
        -11   -1    0    0    0    0  0.00000000000E+00  0.00000000000E+00  0.45593999997E+02  0.45594000000E+02  0.51100000000E-03 0.  1.
         11   -1    0    0    0    0 -0.00000000000E+00 -0.00000000000E+00 -0.45593999997E+02  0.45594000000E+02  0.51100000000E-03 0. -1.
    9900012    2    1    2    0    0  0.30343679624E+01 -0.15384215618E+02  0.27763974323E+02  0.59301956825E+02  0.50000023340E+02 0.  0.
         12    1    1    2    0    0 -0.30343679624E+01  0.15384215618E+02 -0.27763974323E+02  0.31886043175E+02  0.00000000000E+00 0. -1.
         11    1    3    3    0    0 -0.13158386464E+02 -0.77749370993E+01  0.14977439665E+01  0.15356953424E+02  0.51100000000E-03 0. -1.
        -11    1    3    3    0    0 -0.44911609481E+01  0.16050483436E+01 -0.39452994807E+01  0.61896764940E+01  0.51100000000E-03 0.  1.
        -12    1    3    3    0    0  0.20683915374E+02 -0.92143268626E+01  0.30211529837E+02  0.37755326907E+02  0.00000000000E+00 0.  1.
</event>
<event>
 7    1  0.7012292E-013  0.5930193E+02  0.7816164E-02  0.1266605E+00
        -11   -1    0    0    0    0  0.00000000000E+00  0.00000000000E+00  0.45593999997E+02  0.45594000000E+02  0.51100000000E-03 0. -1.
         11   -1    0    0    0    0 -0.00000000000E+00 -0.00000000000E+00 -0.45593999997E+02  0.45594000000E+02  0.51100000000E-03 0.  1.
    9900012    2    1    2    0    0 -0.44584861966E+01  0.25316144205E+02  0.18866276697E+02  0.59301926975E+02  0.49999968900E+02 0.  0.
         12    1    1    2    0    0  0.44584861966E+01 -0.25316144205E+02 -0.18866276697E+02  0.31886073025E+02  0.00000000000E+00 0. -1.
         11    1    3    3    0    0  0.12402718289E+02 -0.37784344546E+01 -0.18328036282E+00  0.12966787568E+02  0.51100000000E-03 0. -1.
        -11    1    3    3    0    0  0.13341697652E+01 -0.65867952397E+00 -0.41761751466E+01  0.44333178089E+01  0.51100000000E-03 0.  1.
        -12    1    3    3    0    0 -0.18195374251E+02  0.29753258183E+02  0.23225732207E+02  0.41901821598E+02  0.00000000000E+00 0.  1.
</event>
<event>
 7    1  0.7012292E-013  0.5930195E+02  0.7816164E-02  0.1266605E+00
        -11   -1    0    0    0    0  0.00000000000E+00  0.00000000000E+00  0.45593999997E+02  0.45594000000E+02  0.51100000000E-03 0.  1.
         11   -1    0    0    0    0 -0.00000000000E+00 -0.00000000000E+00 -0.45593999997E+02  0.45594000000E+02  0.51100000000E-03 0. -1.
    9900012    2    1    2    0    0  0.18529760748E+02  0.18418308897E+02  0.18279331308E+02  0.59301951498E+02  0.50000013624E+02 0.  0.
         12    1    1    2    0    0 -0.18529760748E+02 -0.18418308897E+02 -0.18279331308E+02  0.31886048502E+02  0.00000000000E+00 0. -1.
         11    1    3    3    0    0 -0.64459844149E+00  0.25714729713E+02  0.23570733683E+02  0.34888999957E+02  0.51100000000E-03 0.  1.
        -11    1    3    3    0    0  0.74437542007E+01 -0.53520000046E+01  0.32993112610E+01  0.97436561777E+01  0.51100000000E-03 0. -1.
        -12    1    3    3    0    0  0.11730604989E+02 -0.19444208111E+01 -0.85907136359E+01  0.14669295364E+02  0.00000000000E+00 0.  1.
</event>
<event>
 7    1  0.7012292E-013  0.5930196E+02  0.7816164E-02  0.1266605E+00
        -11   -1    0    0    0    0  0.00000000000E+00  0.00000000000E+00  0.45593999997E+02  0.45594000000E+02  0.51100000000E-03 0. -1.
         11   -1    0    0    0    0 -0.00000000000E+00 -0.00000000000E+00 -0.45593999997E+02  0.45594000000E+02  0.51100000000E-03 0.  1.
    9900012    2    1    2    0    0 -0.10172486704E+02  0.27254686756E+02 -0.13054589268E+02  0.59301957021E+02  0.50000023697E+02 0.  0.
         12    1    1    2    0    0  0.10172486704E+02 -0.27254686756E+02  0.13054589268E+02  0.31886042979E+02  0.00000000000E+00 0. -1.
         11    1    3    3    0    0 -0.81398725884E+01 -0.20299942144E+01 -0.10667066541E+02  0.13570729940E+02  0.51100000000E-03 0. -1.
        -11    1    3    3    0    0  0.10853145445E+02 -0.24566011759E+01 -0.27883957680E+01  0.11471739476E+02  0.51100000000E-03 0.  1.
         12    1    3    3    0    0 -0.12885759561E+02  0.31741282146E+02  0.40087304114E+00  0.34259487605E+02  0.00000000000E+00 0. -1.
</event>
<event>
 7    1  0.7012292E-013  0.5930200E+02  0.7816164E-02  0.1266605E+00
        -11   -1    0    0    0    0  0.00000000000E+00  0.00000000000E+00  0.45593999997E+02  0.45594000000E+02  0.51100000000E-03 0. -1.
         11   -1    0    0    0    0 -0.00000000000E+00 -0.00000000000E+00 -0.45593999997E+02  0.45594000000E+02  0.51100000000E-03 0.  1.
    9900012    2    1    2    0    0  0.27927654239E+02 -0.91735092047E+01 -0.12353528532E+02  0.59302002922E+02  0.50000107410E+02 0.  0.
         12    1    1    2    0    0 -0.27927654239E+02  0.91735092047E+01  0.12353528532E+02  0.31885997078E+02  0.00000000000E+00 0. -1.
         11    1    3    3    0    0  0.21850712438E+02 -0.19094055743E+02 -0.53397553546E+01  0.29505077296E+02  0.51100000000E-03 0.  1.
        -11    1    3    3    0    0  0.44721429262E+01 -0.88171005199E+01 -0.51630586922E+00  0.98998937339E+01  0.51100000000E-03 0. -1.
         12    1    3    3    0    0  0.16047988752E+01  0.18737647058E+02 -0.64974673084E+01  0.19897031892E+02  0.00000000000E+00 0. -1.
</event>
<event>
 7    1  0.7012292E-013  0.5930195E+02  0.7816164E-02  0.1266605E+00
        -11   -1    0    0    0    0  0.00000000000E+00  0.00000000000E+00  0.45593999997E+02  0.45594000000E+02  0.51100000000E-03 0.  1.
         11   -1    0    0    0    0 -0.00000000000E+00 -0.00000000000E+00 -0.45593999997E+02  0.45594000000E+02  0.51100000000E-03 0. -1.
    9900012    2    1    2    0    0  0.13312192582E+02 -0.25058423946E+01  0.28865666160E+02  0.59301946617E+02  0.50000004723E+02 0.  0.
         12    1    1    2    0    0 -0.13312192582E+02  0.25058423946E+01 -0.28865666160E+02  0.31886053383E+02  0.00000000000E+00 0. -1.
         11    1    3    3    0    0  0.84560670489E+00  0.66891073721E+01  0.91775719686E+01  0.11388021586E+02  0.51100000000E-03 0. -1.
        -11    1    3    3    0    0  0.21280909692E+02  0.75845185498E+01  0.17998461890E+02  0.28885059626E+02  0.51100000000E-03 0.  1.
         12    1    3    3    0    0 -0.88143238150E+01 -0.16779468317E+02  0.16896323021E+01  0.19028865405E+02  0.00000000000E+00 0. -1.
</event>
<event>
 7    1  0.7012292E-013  0.5930201E+02  0.7816164E-02  0.1266605E+00
        -11   -1    0    0    0    0  0.00000000000E+00  0.00000000000E+00  0.45593999997E+02  0.45594000000E+02  0.51100000000E-03 0.  1.
         11   -1    0    0    0    0 -0.00000000000E+00 -0.00000000000E+00 -0.45593999997E+02  0.45594000000E+02  0.51100000000E-03 0. -1.
    9900012    2    1    2    0    0  0.22211110561E+01  0.13671382325E+02  0.28720662278E+02  0.59302008237E+02  0.50000117103E+02 0.  0.
         12    1    1    2    0    0 -0.22211110561E+01 -0.13671382325E+02 -0.28720662278E+02  0.31885991763E+02  0.00000000000E+00 0. -1.
         11    1    3    3    0    0 -0.87911484301E+01  0.21105197741E+02  0.50871271721E+01  0.23422052120E+02  0.51100000000E-03 0. -1.
        -11    1    3    3    0    0 -0.16954894171E+00  0.79397846942E+01  0.60336786960E+01  0.99736756866E+01  0.51100000000E-03 0.  1.
        -12    1    3    3    0    0  0.11181808428E+02 -0.15373600110E+02  0.17599856410E+02  0.25906280430E+02  0.00000000000E+00 0.  1.
</event>
<event>
 7    1  0.7012292E-013  0.5930192E+02  0.7816164E-02  0.1266605E+00
        -11   -1    0    0    0    0  0.00000000000E+00  0.00000000000E+00  0.45593999997E+02  0.45594000000E+02  0.51100000000E-03 0. -1.
         11   -1    0    0    0    0 -0.00000000000E+00 -0.00000000000E+00 -0.45593999997E+02  0.45594000000E+02  0.51100000000E-03 0.  1.
    9900012    2    1    2    0    0 -0.57135971907E+01  0.16200439809E+02 -0.26863030816E+02  0.59301923611E+02  0.49999962764E+02 0.  0.
         12    1    1    2    0    0  0.57135971907E+01 -0.16200439809E+02  0.26863030816E+02  0.31886076389E+02  0.00000000000E+00 0. -1.
         11    1    3    3    0    0  0.87175610805E+01 -0.62637870353E+01  0.15460310431E+00  0.10735678907E+02  0.51100000000E-03 0. -1.
        -11    1    3    3    0    0  0.84309950938E+01  0.13149949828E+02 -0.92981228077E+01  0.18178502325E+02  0.51100000000E-03 0.  1.
        -12    1    3    3    0    0 -0.22862153365E+02  0.93142770159E+01 -0.17719511113E+02  0.30387742379E+02  0.00000000000E+00 0.  1.
</event>
<event>
 7    1  0.7012292E-013  0.5930194E+02  0.7816164E-02  0.1266605E+00
        -11   -1    0    0    0    0  0.00000000000E+00  0.00000000000E+00  0.45593999997E+02  0.45594000000E+02  0.51100000000E-03 0.  1.
         11   -1    0    0    0    0 -0.00000000000E+00 -0.00000000000E+00 -0.45593999997E+02  0.45594000000E+02  0.51100000000E-03 0. -1.
    9900012    2    1    2    0    0 -0.18280282738E+02  0.26049049483E+02  0.19997644213E+01  0.59301940762E+02  0.49999994045E+02 0.  0.
         12    1    1    2    0    0  0.18280282738E+02 -0.26049049483E+02 -0.19997644213E+01  0.31886059238E+02  0.00000000000E+00 0. -1.
         11    1    3    3    0    0  0.79414858786E+01  0.47771027161E+01 -0.10743422303E+02  0.14188341389E+02  0.51100000000E-03 0. -1.
        -11    1    3    3    0    0 -0.23275054726E+00 -0.55507051682E+01  0.37352115712E+01  0.66944982205E+01  0.51100000000E-03 0.  1.
        -12    1    3    3    0    0 -0.25989018069E+02  0.26822651936E+02  0.90079751531E+01  0.38419101153E+02  0.00000000000E+00 0.  1.
</event>
<event>
 7    1  0.7012292E-013  0.5930227E+02  0.7816164E-02  0.1266604E+00
        -11   -1    0    0    0    0  0.00000000000E+00  0.00000000000E+00  0.45593999997E+02  0.45594000000E+02  0.51100000000E-03 0.  1.
         11   -1    0    0    0    0 -0.00000000000E+00 -0.00000000000E+00 -0.45593999997E+02  0.45594000000E+02  0.51100000000E-03 0. -1.
    9900012    2    1    2    0    0 -0.25119564362E+02  0.51138937911E+01  0.18961946271E+02  0.59302269181E+02  0.50000592998E+02 0.  0.
         12    1    1    2    0    0  0.25119564362E+02 -0.51138937911E+01 -0.18961946271E+02  0.31885730819E+02  0.00000000000E+00 0. -1.
         11    1    3    3    0    0 -0.38376406695E+01  0.39000776635E+01 -0.25676653197E+01  0.60440877843E+01  0.51100000000E-03 0. -1.
        -11    1    3    3    0    0 -0.19485587524E+02  0.18219926330E+02  0.12155181447E+01  0.26704518742E+02  0.51100000000E-03 0.  1.
         12    1    3    3    0    0 -0.17963361691E+01 -0.17006110202E+02  0.20314093446E+02  0.26553662655E+02  0.00000000000E+00 0. -1.
</event>
<event>
 7    1  0.7012292E-013  0.5930195E+02  0.7816164E-02  0.1266605E+00
        -11   -1    0    0    0    0  0.00000000000E+00  0.00000000000E+00  0.45593999997E+02  0.45594000000E+02  0.51100000000E-03 0. -1.
         11   -1    0    0    0    0 -0.00000000000E+00 -0.00000000000E+00 -0.45593999997E+02  0.45594000000E+02  0.51100000000E-03 0.  1.
    9900012    2    1    2    0    0  0.19960081898E+02  0.35347085134E+01 -0.24613436269E+02  0.59301948525E+02  0.50000008203E+02 0.  0.
         12    1    1    2    0    0 -0.19960081898E+02 -0.35347085134E+01  0.24613436269E+02  0.31886051475E+02  0.00000000000E+00 0. -1.
         11    1    3    3    0    0 -0.61045255462E+01 -0.25978795298E+01 -0.41941777070E+01  0.78489067452E+01  0.51100000000E-03 0. -1.
        -11    1    3    3    0    0  0.59651539448E+01  0.20357383772E+02 -0.15674985795E+02  0.26376340071E+02  0.51100000000E-03 0.  1.
        -12    1    3    3    0    0  0.20099453500E+02 -0.14224795728E+02 -0.47442727669E+01  0.25076701709E+02  0.00000000000E+00 0.  1.
</event>
<event>
 7    1  0.7012292E-013  0.5930192E+02  0.7816164E-02  0.1266605E+00
        -11   -1    0    0    0    0  0.00000000000E+00  0.00000000000E+00  0.45593999997E+02  0.45594000000E+02  0.51100000000E-03 0.  1.
         11   -1    0    0    0    0 -0.00000000000E+00 -0.00000000000E+00 -0.45593999997E+02  0.45594000000E+02  0.51100000000E-03 0. -1.
    9900012    2    1    2    0    0  0.20578148024E+02 -0.20175897218E+02  0.13645336253E+02  0.59301918302E+02  0.49999953082E+02 0.  0.
         12    1    1    2    0    0 -0.20578148024E+02  0.20175897218E+02 -0.13645336253E+02  0.31886081698E+02  0.00000000000E+00 0. -1.
         11    1    3    3    0    0  0.42075436405E+01  0.82201898496E+00 -0.18537718533E+00  0.42910958578E+01  0.51100000000E-03 0. -1.
        -11    1    3    3    0    0  0.22801240661E+02  0.45671439077E+01  0.16501969443E+02  0.28514388910E+02  0.51100000000E-03 0.  1.
         12    1    3    3    0    0 -0.64306362779E+01 -0.25565060110E+02 -0.26712560042E+01  0.26496433534E+02  0.00000000000E+00 0. -1.
</event>
<event>
 7    1  0.7012292E-013  0.5930195E+02  0.7816164E-02  0.1266605E+00
        -11   -1    0    0    0    0  0.00000000000E+00  0.00000000000E+00  0.45593999997E+02  0.45594000000E+02  0.51100000000E-03 0.  1.
         11   -1    0    0    0    0 -0.00000000000E+00 -0.00000000000E+00 -0.45593999997E+02  0.45594000000E+02  0.51100000000E-03 0. -1.
    9900012    2    1    2    0    0 -0.25282049530E+02  0.13894834655E+02  0.13582039037E+02  0.59301949085E+02  0.50000009224E+02 0.  0.
         12    1    1    2    0    0  0.25282049530E+02 -0.13894834655E+02 -0.13582039037E+02  0.31886050915E+02  0.00000000000E+00 0. -1.
         11    1    3    3    0    0 -0.17499976151E+02 -0.39124410608E+01  0.24193733338E+02  0.30114665754E+02  0.51100000000E-03 0. -1.
        -11    1    3    3    0    0 -0.69736740524E+01  0.60732181614E+00  0.26172017339E+01  0.74733335771E+01  0.51100000000E-03 0.  1.
        -12    1    3    3    0    0 -0.80839932651E+00  0.17199953899E+02 -0.13228896036E+02  0.21713949754E+02  0.00000000000E+00 0.  1.
</event>
<event>
 7    1  0.7012292E-013  0.5930195E+02  0.7816164E-02  0.1266605E+00
        -11   -1    0    0    0    0  0.00000000000E+00  0.00000000000E+00  0.45593999997E+02  0.45594000000E+02  0.51100000000E-03 0.  1.
         11   -1    0    0    0    0 -0.00000000000E+00 -0.00000000000E+00 -0.45593999997E+02  0.45594000000E+02  0.51100000000E-03 0. -1.
    9900012    2    1    2    0    0 -0.29630003922E+02  0.18942574948E+01 -0.11627337755E+02  0.59301947764E+02  0.50000006815E+02 0.  0.
         12    1    1    2    0    0  0.29630003922E+02 -0.18942574948E+01  0.11627337755E+02  0.31886052236E+02  0.00000000000E+00 0. -1.
         11    1    3    3    0    0 -0.86518527717E+01  0.29111425465E+01 -0.14041062914E+02  0.16747559682E+02  0.51100000000E-03 0. -1.
        -11    1    3    3    0    0 -0.28550696492E+01  0.28150096528E+01 -0.15964655504E+02  0.16460435221E+02  0.51100000000E-03 0.  1.
        -12    1    3    3    0    0 -0.18123081502E+02 -0.38318947045E+01  0.18378380663E+02  0.26093952861E+02  0.00000000000E+00 0.  1.
</event>
<event>
 7    1  0.7012292E-013  0.5930195E+02  0.7816164E-02  0.1266605E+00
        -11   -1    0    0    0    0  0.00000000000E+00  0.00000000000E+00  0.45593999997E+02  0.45594000000E+02  0.51100000000E-03 0. -1.
         11   -1    0    0    0    0 -0.00000000000E+00 -0.00000000000E+00 -0.45593999997E+02  0.45594000000E+02  0.51100000000E-03 0.  1.
    9900012    2    1    2    0    0  0.20895630451E+02  0.22099413456E+02 -0.95764779305E+01  0.59301946990E+02  0.50000005402E+02 0.  0.
         12    1    1    2    0    0 -0.20895630451E+02 -0.22099413456E+02  0.95764779305E+01  0.31886053010E+02  0.00000000000E+00 0. -1.
         11    1    3    3    0    0  0.41118478069E+01  0.78621846029E+01  0.12744536360E+02  0.15528826305E+02  0.51100000000E-03 0. -1.
        -11    1    3    3    0    0  0.23319776058E+02  0.11500180717E+02 -0.70529317591E+01  0.26940860391E+02  0.51100000000E-03 0.  1.
        -12    1    3    3    0    0 -0.65359934137E+01  0.27370481354E+01 -0.15268082532E+02  0.16832260294E+02  0.00000000000E+00 0.  1.
</event>
<event>
 7    1  0.7012292E-013  0.5930194E+02  0.7816164E-02  0.1266605E+00
        -11   -1    0    0    0    0  0.00000000000E+00  0.00000000000E+00  0.45593999997E+02  0.45594000000E+02  0.51100000000E-03 0.  1.
         11   -1    0    0    0    0 -0.00000000000E+00 -0.00000000000E+00 -0.45593999997E+02  0.45594000000E+02  0.51100000000E-03 0. -1.
    9900012    2    1    2    0    0  0.30991882913E+01  0.11526403923E+01  0.31714152276E+02  0.59301937174E+02  0.49999987500E+02 0.  0.
         12    1    1    2    0    0 -0.30991882913E+01 -0.11526403923E+01 -0.31714152276E+02  0.31886062826E+02  0.00000000000E+00 0. -1.
         11    1    3    3    0    0  0.17747917807E+01 -0.79775853611E+01  0.12446040205E+01  0.82668490664E+01  0.51100000000E-03 0. -1.
        -11    1    3    3    0    0  0.49306205083E+01 -0.19491038116E+01  0.37202336998E+02  0.37578237088E+02  0.51100000000E-03 0.  1.
         12    1    3    3    0    0 -0.36062239977E+01  0.11079329565E+02 -0.67327887418E+01  0.13456851020E+02  0.00000000000E+00 0. -1.
</event>
<event>
 7    1  0.7012292E-013  0.5930199E+02  0.7816164E-02  0.1266605E+00
        -11   -1    0    0    0    0  0.00000000000E+00  0.00000000000E+00  0.45593999997E+02  0.45594000000E+02  0.51100000000E-03 0. -1.
         11   -1    0    0    0    0 -0.00000000000E+00 -0.00000000000E+00 -0.45593999997E+02  0.45594000000E+02  0.51100000000E-03 0.  1.
    9900012    2    1    2    0    0 -0.57700286287E+01 -0.24407644034E+02 -0.19689878283E+02  0.59301990145E+02  0.50000084107E+02 0.  0.
         12    1    1    2    0    0  0.57700286287E+01  0.24407644034E+02  0.19689878283E+02  0.31886009855E+02  0.00000000000E+00 0. -1.
         11    1    3    3    0    0  0.23412901280E+01  0.23305125667E+01  0.75938713399E+00  0.33896308600E+01  0.51100000000E-03 0. -1.
        -11    1    3    3    0    0 -0.60766123432E+01  0.11541257679E+02 -0.92034245627E+01  0.15963360245E+02  0.51100000000E-03 0.  1.
        -12    1    3    3    0    0 -0.20347064135E+01 -0.38279414280E+02 -0.11245840854E+02  0.39948999040E+02  0.00000000000E+00 0.  1.
</event>
<event>
 7    1  0.7012292E-013  0.5930194E+02  0.7816164E-02  0.1266605E+00
        -11   -1    0    0    0    0  0.00000000000E+00  0.00000000000E+00  0.45593999997E+02  0.45594000000E+02  0.51100000000E-03 0.  1.
         11   -1    0    0    0    0 -0.00000000000E+00 -0.00000000000E+00 -0.45593999997E+02  0.45594000000E+02  0.51100000000E-03 0. -1.
    9900012    2    1    2    0    0  0.58065317560E+01  0.27203113278E+02  0.15588308603E+02  0.59301944300E+02  0.50000000496E+02 0.  0.
         12    1    1    2    0    0 -0.58065317560E+01 -0.27203113278E+02 -0.15588308603E+02  0.31886055700E+02  0.00000000000E+00 0. -1.
         11    1    3    3    0    0  0.10119142465E+01  0.32326034347E+02 -0.18496901701E+01  0.32394719030E+02  0.51100000000E-03 0. -1.
        -11    1    3    3    0    0  0.72653220645E+01  0.52823626298E+01  0.42771742987E+01  0.99489939138E+01  0.51100000000E-03 0.  1.
        -12    1    3    3    0    0 -0.24707045550E+01 -0.10405283700E+02  0.13160824474E+02  0.16958231355E+02  0.00000000000E+00 0.  1.
</event>
<event>
 7    1  0.7012292E-013  0.5930194E+02  0.7816164E-02  0.1266605E+00
        -11   -1    0    0    0    0  0.00000000000E+00  0.00000000000E+00  0.45593999997E+02  0.45594000000E+02  0.51100000000E-03 0. -1.
         11   -1    0    0    0    0 -0.00000000000E+00 -0.00000000000E+00 -0.45593999997E+02  0.45594000000E+02  0.51100000000E-03 0.  1.
    9900012    2    1    2    0    0 -0.77443294763E+01  0.17305185904E+02 -0.25637410237E+02  0.59301938753E+02  0.49999990380E+02 0.  0.
         12    1    1    2    0    0  0.77443294763E+01 -0.17305185904E+02  0.25637410237E+02  0.31886061247E+02  0.00000000000E+00 0. -1.
         11    1    3    3    0    0 -0.13225986529E+02 -0.36441620062E+01  0.50701200932E+00  0.13728208108E+02  0.51100000000E-03 0. -1.
        -11    1    3    3    0    0 -0.43993886691E+01 -0.65584621725E+01 -0.36965039969E+01  0.87196438454E+01  0.51100000000E-03 0.  1.
        -12    1    3    3    0    0  0.98810457223E+01  0.27507810083E+02 -0.22447918250E+02  0.36854086800E+02  0.00000000000E+00 0.  1.
</event>
<event>
 7    1  0.7012292E-013  0.5930197E+02  0.7816164E-02  0.1266605E+00
        -11   -1    0    0    0    0  0.00000000000E+00  0.00000000000E+00  0.45593999997E+02  0.45594000000E+02  0.51100000000E-03 0. -1.
         11   -1    0    0    0    0 -0.00000000000E+00 -0.00000000000E+00 -0.45593999997E+02  0.45594000000E+02  0.51100000000E-03 0.  1.
    9900012    2    1    2    0    0  0.24568107948E+02 -0.56478254145E+00  0.20317672805E+02  0.59301972720E+02  0.50000052328E+02 0.  0.
         12    1    1    2    0    0 -0.24568107948E+02  0.56478254145E+00 -0.20317672805E+02  0.31886027280E+02  0.00000000000E+00 0. -1.
         11    1    3    3    0    0  0.20059542012E+02 -0.10636787992E+01  0.17437662235E+01  0.20163267573E+02  0.51100000000E-03 0. -1.
        -11    1    3    3    0    0 -0.52608443347E+00  0.14263804371E+02 -0.14245097293E+01  0.14344410347E+02  0.51100000000E-03 0.  1.
         12    1    3    3    0    0  0.50346503702E+01 -0.13764908114E+02  0.19998416310E+02  0.24794294800E+02  0.00000000000E+00 0. -1.
</event>
<event>
 7    1  0.7012292E-013  0.5930208E+02  0.7816164E-02  0.1266604E+00
        -11   -1    0    0    0    0  0.00000000000E+00  0.00000000000E+00  0.45593999997E+02  0.45594000000E+02  0.51100000000E-03 0. -1.
         11   -1    0    0    0    0 -0.00000000000E+00 -0.00000000000E+00 -0.45593999997E+02  0.45594000000E+02  0.51100000000E-03 0.  1.
    9900012    2    1    2    0    0 -0.29585858895E+02 -0.11881615354E+02 -0.46461248172E+00  0.59302083129E+02  0.50000253686E+02 0.  0.
         12    1    1    2    0    0  0.29585858895E+02  0.11881615354E+02  0.46461248172E+00  0.31885916871E+02  0.00000000000E+00 0. -1.
         11    1    3    3    0    0 -0.18365715481E+02  0.12145151885E+02  0.87581061792E+01  0.23696173605E+02  0.51100000000E-03 0.  1.
        -11    1    3    3    0    0  0.27425727022E+01  0.23113134043E+01  0.15522148699E+01  0.39081000426E+01  0.51100000000E-03 0. -1.
        -12    1    3    3    0    0 -0.13962716117E+02 -0.26338080643E+02 -0.10774933531E+02  0.31697809481E+02  0.00000000000E+00 0.  1.
</event>
<event>
 7    1  0.7012292E-013  0.5930195E+02  0.7816164E-02  0.1266605E+00
        -11   -1    0    0    0    0  0.00000000000E+00  0.00000000000E+00  0.45593999997E+02  0.45594000000E+02  0.51100000000E-03 0.  1.
         11   -1    0    0    0    0 -0.00000000000E+00 -0.00000000000E+00 -0.45593999997E+02  0.45594000000E+02  0.51100000000E-03 0. -1.
    9900012    2    1    2    0    0  0.69498866879E+01 -0.28377531041E+02  0.12772422458E+02  0.59301953390E+02  0.50000017075E+02 0.  0.
         12    1    1    2    0    0 -0.69498866879E+01  0.28377531041E+02 -0.12772422458E+02  0.31886046610E+02  0.00000000000E+00 0. -1.
         11    1    3    3    0    0  0.10438822706E+00 -0.33267093375E+00  0.16809844688E+01  0.17167632037E+01  0.51100000000E-03 0. -1.
        -11    1    3    3    0    0 -0.63611856884E+01 -0.13533886492E+02  0.27961256351E+02  0.31709030637E+02  0.51100000000E-03 0.  1.
         12    1    3    3    0    0  0.13206684149E+02 -0.14510973615E+02 -0.16869818362E+02  0.25876159549E+02  0.00000000000E+00 0. -1.
</event>
<event>
 7    1  0.7012292E-013  0.5930194E+02  0.7816164E-02  0.1266605E+00
        -11   -1    0    0    0    0  0.00000000000E+00  0.00000000000E+00  0.45593999997E+02  0.45594000000E+02  0.51100000000E-03 0. -1.
         11   -1    0    0    0    0 -0.00000000000E+00 -0.00000000000E+00 -0.45593999997E+02  0.45594000000E+02  0.51100000000E-03 0.  1.
    9900012    2    1    2    0    0  0.21610111188E+02  0.16902004302E+02 -0.16249494996E+02  0.59301941250E+02  0.49999994933E+02 0.  0.
         12    1    1    2    0    0 -0.21610111188E+02 -0.16902004302E+02  0.16249494996E+02  0.31886058750E+02  0.00000000000E+00 0. -1.
         11    1    3    3    0    0 -0.20030358188E+01  0.41822435724E+00  0.13130619984E+01  0.24312951646E+01  0.51100000000E-03 0. -1.
        -11    1    3    3    0    0 -0.86120857089E+01  0.21516976064E+01  0.90585684775E+01  0.12682881611E+02  0.51100000000E-03 0.  1.
        -12    1    3    3    0    0  0.32225232716E+02  0.14332082339E+02 -0.26621125472E+02  0.44187764474E+02  0.00000000000E+00 0.  1.
</event>
<event>
 7    1  0.7012292E-013  0.5930192E+02  0.7816164E-02  0.1266605E+00
        -11   -1    0    0    0    0  0.00000000000E+00  0.00000000000E+00  0.45593999997E+02  0.45594000000E+02  0.51100000000E-03 0.  1.
         11   -1    0    0    0    0 -0.00000000000E+00 -0.00000000000E+00 -0.45593999997E+02  0.45594000000E+02  0.51100000000E-03 0. -1.
    9900012    2    1    2    0    0 -0.24184068472E+02  0.16536741409E+02 -0.12585263238E+02  0.59301924120E+02  0.49999963693E+02 0.  0.
         12    1    1    2    0    0  0.24184068472E+02 -0.16536741409E+02  0.12585263238E+02  0.31886075880E+02  0.00000000000E+00 0. -1.
         11    1    3    3    0    0  0.83300056149E+01  0.21842006256E+01 -0.57364056730E+01  0.10347273855E+02  0.51100000000E-03 0. -1.
        -11    1    3    3    0    0 -0.79013613037E+01  0.21238853649E+02 -0.72136212492E+00  0.22672467407E+02  0.51100000000E-03 0.  1.
        -12    1    3    3    0    0 -0.24612712783E+02 -0.68863128657E+01 -0.61274954396E+01  0.26282182858E+02  0.00000000000E+00 0.  1.
</event>
<event>
 7    1  0.7012292E-013  0.5930195E+02  0.7816164E-02  0.1266605E+00
        -11   -1    0    0    0    0  0.00000000000E+00  0.00000000000E+00  0.45593999997E+02  0.45594000000E+02  0.51100000000E-03 0.  1.
         11   -1    0    0    0    0 -0.00000000000E+00 -0.00000000000E+00 -0.45593999997E+02  0.45594000000E+02  0.51100000000E-03 0. -1.
    9900012    2    1    2    0    0  0.30073827835E+02 -0.43231962950E+00  0.10587628839E+02  0.59301954379E+02  0.50000018878E+02 0.  0.
         12    1    1    2    0    0 -0.30073827835E+02  0.43231962950E+00 -0.10587628839E+02  0.31886045621E+02  0.00000000000E+00 0. -1.
         11    1    3    3    0    0  0.11787995079E+02 -0.13505135990E+01  0.14233887141E+02  0.18530630275E+02  0.51100000000E-03 0. -1.
        -11    1    3    3    0    0  0.22354949954E+01  0.10469185486E+02  0.12233444493E+02  0.16256028021E+02  0.51100000000E-03 0.  1.
         12    1    3    3    0    0  0.16050337760E+02 -0.95509915162E+01 -0.15879702795E+02  0.24515296083E+02  0.00000000000E+00 0. -1.
</event>
<event>
 7    1  0.7012292E-013  0.5930192E+02  0.7816164E-02  0.1266605E+00
        -11   -1    0    0    0    0  0.00000000000E+00  0.00000000000E+00  0.45593999997E+02  0.45594000000E+02  0.51100000000E-03 0. -1.
         11   -1    0    0    0    0 -0.00000000000E+00 -0.00000000000E+00 -0.45593999997E+02  0.45594000000E+02  0.51100000000E-03 0.  1.
    9900012    2    1    2    0    0 -0.19985537506E+02 -0.17291130868E+02  0.17841453116E+02  0.59301915803E+02  0.49999948525E+02 0.  0.
         12    1    1    2    0    0  0.19985537506E+02  0.17291130868E+02 -0.17841453116E+02  0.31886084197E+02  0.00000000000E+00 0. -1.
         11    1    3    3    0    0 -0.83320445764E+01 -0.19959886347E+02  0.15480739607E+02  0.26598370793E+02  0.51100000000E-03 0. -1.
        -11    1    3    3    0    0 -0.10739455209E+02 -0.28773438220E+01  0.15116072402E+02  0.18764611661E+02  0.51100000000E-03 0.  1.
        -12    1    3    3    0    0 -0.91403772030E+00  0.55460993015E+01 -0.12755358893E+02  0.13938933349E+02  0.00000000000E+00 0.  1.
</event>
<event>
 7    1  0.7012292E-013  0.5930197E+02  0.7816164E-02  0.1266605E+00
        -11   -1    0    0    0    0  0.00000000000E+00  0.00000000000E+00  0.45593999997E+02  0.45594000000E+02  0.51100000000E-03 0.  1.
         11   -1    0    0    0    0 -0.00000000000E+00 -0.00000000000E+00 -0.45593999997E+02  0.45594000000E+02  0.51100000000E-03 0. -1.
    9900012    2    1    2    0    0  0.22566483677E+02  0.20141316974E+02  0.10089610557E+02  0.59301967381E+02  0.50000042591E+02 0.  0.
         12    1    1    2    0    0 -0.22566483677E+02 -0.20141316974E+02 -0.10089610557E+02  0.31886032619E+02  0.00000000000E+00 0. -1.
         11    1    3    3    0    0  0.71778043059E+01  0.15757280222E+02 -0.50649993848E+01  0.18040703248E+02  0.51100000000E-03 0. -1.
        -11    1    3    3    0    0  0.95501458411E+01 -0.11582733308E+01 -0.10578321035E+02  0.14298522961E+02  0.51100000000E-03 0.  1.
        -12    1    3    3    0    0  0.58385335296E+01  0.55423100833E+01  0.25732930977E+02  0.26962741172E+02  0.00000000000E+00 0.  1.
</event>
<event>
 7    1  0.7012292E-013  0.5930193E+02  0.7816164E-02  0.1266605E+00
        -11   -1    0    0    0    0  0.00000000000E+00  0.00000000000E+00  0.45593999997E+02  0.45594000000E+02  0.51100000000E-03 0.  1.
         11   -1    0    0    0    0 -0.00000000000E+00 -0.00000000000E+00 -0.45593999997E+02  0.45594000000E+02  0.51100000000E-03 0. -1.
    9900012    2    1    2    0    0 -0.15767426492E+02  0.16726690359E+01  0.27664266189E+02  0.59301934334E+02  0.49999982321E+02 0.  0.
         12    1    1    2    0    0  0.15767426492E+02 -0.16726690359E+01 -0.27664266189E+02  0.31886065666E+02  0.00000000000E+00 0. -1.
         11    1    3    3    0    0 -0.14056115560E+02 -0.85807278500E+00 -0.44936390525E+01  0.14781862729E+02  0.51100000000E-03 0. -1.
        -11    1    3    3    0    0 -0.12277397522E+02  0.10833976400E+02  0.12029075755E+02  0.20317681914E+02  0.51100000000E-03 0.  1.
        -12    1    3    3    0    0  0.10566086590E+02 -0.83032345794E+01  0.20128829486E+02  0.24202389692E+02  0.00000000000E+00 0.  1.
</event>
<event>
 7    1  0.7012292E-013  0.5930193E+02  0.7816164E-02  0.1266605E+00
        -11   -1    0    0    0    0  0.00000000000E+00  0.00000000000E+00  0.45593999997E+02  0.45594000000E+02  0.51100000000E-03 0. -1.
         11   -1    0    0    0    0 -0.00000000000E+00 -0.00000000000E+00 -0.45593999997E+02  0.45594000000E+02  0.51100000000E-03 0.  1.
    9900012    2    1    2    0    0 -0.15923517338E+01 -0.31494660076E+02  0.47193160807E+01  0.59301934994E+02  0.49999983524E+02 0.  0.
         12    1    1    2    0    0  0.15923517338E+01  0.31494660076E+02 -0.47193160807E+01  0.31886065006E+02  0.00000000000E+00 0. -1.
         11    1    3    3    0    0 -0.86826350808E+01 -0.97714771250E+01 -0.48220672331E+01  0.13932776099E+02  0.51100000000E-03 0. -1.
        -11    1    3    3    0    0 -0.42684009920E+01  0.74193150862E+01 -0.59901281060E+01  0.10447349825E+02  0.51100000000E-03 0.  1.
         12    1    3    3    0    0  0.11358684339E+02 -0.29142498037E+02  0.15531511420E+02  0.34921809070E+02  0.00000000000E+00 0. -1.
</event>
<event>
 7    1  0.7012292E-013  0.5930195E+02  0.7816164E-02  0.1266605E+00
        -11   -1    0    0    0    0  0.00000000000E+00  0.00000000000E+00  0.45593999997E+02  0.45594000000E+02  0.51100000000E-03 0. -1.
         11   -1    0    0    0    0 -0.00000000000E+00 -0.00000000000E+00 -0.45593999997E+02  0.45594000000E+02  0.51100000000E-03 0.  1.
    9900012    2    1    2    0    0 -0.21546076002E+02 -0.84120522315E+01 -0.21948221369E+02  0.59301946073E+02  0.50000003729E+02 0.  0.
         12    1    1    2    0    0  0.21546076002E+02  0.84120522315E+01  0.21948221369E+02  0.31886053927E+02  0.00000000000E+00 0. -1.
         11    1    3    3    0    0 -0.18226322533E+02 -0.63902333972E+01 -0.33887947024E+02  0.39005472305E+02  0.51100000000E-03 0.  1.
        -11    1    3    3    0    0  0.43197745021E+01 -0.63129959595E+01  0.56976207549E+01  0.95381996341E+01  0.51100000000E-03 0. -1.
        -12    1    3    3    0    0 -0.76395279711E+01  0.42911771252E+01  0.62421049008E+01  0.10758274134E+02  0.00000000000E+00 0.  1.
</event>
<event>
 7    1  0.7012292E-013  0.5930195E+02  0.7816164E-02  0.1266605E+00
        -11   -1    0    0    0    0  0.00000000000E+00  0.00000000000E+00  0.45593999997E+02  0.45594000000E+02  0.51100000000E-03 0. -1.
         11   -1    0    0    0    0 -0.00000000000E+00 -0.00000000000E+00 -0.45593999997E+02  0.45594000000E+02  0.51100000000E-03 0.  1.
    9900012    2    1    2    0    0 -0.14766611736E+02  0.28232799565E+02 -0.12555548066E+01  0.59301949581E+02  0.50000010128E+02 0.  0.
         12    1    1    2    0    0  0.14766611736E+02 -0.28232799565E+02  0.12555548066E+01  0.31886050419E+02  0.00000000000E+00 0. -1.
         11    1    3    3    0    0 -0.97344156712E+01 -0.31725155552E+01  0.23647630013E+01  0.10507892639E+02  0.51100000000E-03 0. -1.
        -11    1    3    3    0    0  0.84645504067E+00  0.18363198507E+02  0.16096550673E+02  0.24434043656E+02  0.51100000000E-03 0.  1.
        -12    1    3    3    0    0 -0.58786511056E+01  0.13042116613E+02 -0.19716868481E+02  0.24360013286E+02  0.00000000000E+00 0.  1.
</event>
<event>
 7    1  0.7012292E-013  0.5930195E+02  0.7816164E-02  0.1266605E+00
        -11   -1    0    0    0    0  0.00000000000E+00  0.00000000000E+00  0.45593999997E+02  0.45594000000E+02  0.51100000000E-03 0.  1.
         11   -1    0    0    0    0 -0.00000000000E+00 -0.00000000000E+00 -0.45593999997E+02  0.45594000000E+02  0.51100000000E-03 0. -1.
    9900012    2    1    2    0    0 -0.25331610736E+02  0.98476231511E+01  0.16674959808E+02  0.59301945544E+02  0.50000002765E+02 0.  0.
         12    1    1    2    0    0  0.25331610736E+02 -0.98476231511E+01 -0.16674959808E+02  0.31886054456E+02  0.00000000000E+00 0. -1.
         11    1    3    3    0    0 -0.13072248616E+02 -0.11351375486E+02 -0.39076892168E+01  0.17748449075E+02  0.51100000000E-03 0. -1.
        -11    1    3    3    0    0 -0.18872047824E+01  0.23616704199E+02  0.78604862103E+01  0.24961921056E+02  0.51100000000E-03 0.  1.
         12    1    3    3    0    0 -0.10372157337E+02 -0.24177055619E+01  0.12722162814E+02  0.16591575413E+02  0.00000000000E+00 0. -1.
</event>
<event>
 7    1  0.7267623E-013  0.5930192E+02  0.7816164E-02  0.1266605E+00
        -11   -1    0    0    0    0  0.00000000000E+00  0.00000000000E+00  0.45593999997E+02  0.45594000000E+02  0.51100000000E-03 0. -1.
         11   -1    0    0    0    0 -0.00000000000E+00 -0.00000000000E+00 -0.45593999997E+02  0.45594000000E+02  0.51100000000E-03 0.  1.
    9900012    2    1    2    0    0 -0.15108232429E+02 -0.83581444870E+01 -0.26806808542E+02  0.59301917604E+02  0.49999951809E+02 0.  0.
         12    1    1    2    0    0  0.15108232429E+02  0.83581444870E+01  0.26806808542E+02  0.31886082396E+02  0.00000000000E+00 0. -1.
         11    1    3    3    0    0 -0.85012375394E+01 -0.13245012423E+02 -0.20399098671E+02  0.25764794209E+02  0.51100000000E-03 0. -1.
        -11    1    3    3    0    0 -0.87638364133E+01 -0.23396543359E+01 -0.17740162899E+02  0.19924662884E+02  0.51100000000E-03 0.  1.
         12    1    3    3    0    0  0.21568415236E+01  0.72265222716E+01  0.11332453029E+02  0.13612460511E+02  0.00000000000E+00 0. -1.
</event>
<event>
 7    1  0.7012292E-013  0.5930195E+02  0.7816164E-02  0.1266605E+00
        -11   -1    0    0    0    0  0.00000000000E+00  0.00000000000E+00  0.45593999997E+02  0.45594000000E+02  0.51100000000E-03 0.  1.
         11   -1    0    0    0    0 -0.00000000000E+00 -0.00000000000E+00 -0.45593999997E+02  0.45594000000E+02  0.51100000000E-03 0. -1.
    9900012    2    1    2    0    0 -0.10165871485E+02 -0.82570950606E+01  0.29072244196E+02  0.59301953766E+02  0.50000017760E+02 0.  0.
         12    1    1    2    0    0  0.10165871485E+02  0.82570950606E+01 -0.29072244196E+02  0.31886046234E+02  0.00000000000E+00 0. -1.
         11    1    3    3    0    0 -0.65367289063E+01 -0.13549588424E+01  0.57162115001E+01  0.87886183461E+01  0.51100000000E-03 0. -1.
        -11    1    3    3    0    0 -0.17304334722E+02  0.11909042332E+02  0.14954403117E+02  0.25785644501E+02  0.51100000000E-03 0.  1.
        -12    1    3    3    0    0  0.13675192143E+02 -0.18811178551E+02  0.84016295781E+01  0.24727690919E+02  0.00000000000E+00 0.  1.
</event>
<event>
 7    1  0.7012292E-013  0.5930194E+02  0.7816164E-02  0.1266605E+00
        -11   -1    0    0    0    0  0.00000000000E+00  0.00000000000E+00  0.45593999997E+02  0.45594000000E+02  0.51100000000E-03 0.  1.
         11   -1    0    0    0    0 -0.00000000000E+00 -0.00000000000E+00 -0.45593999997E+02  0.45594000000E+02  0.51100000000E-03 0. -1.
    9900012    2    1    2    0    0  0.44916600858E+01 -0.31064933264E+02 -0.56138682349E+01  0.59301943399E+02  0.49999998852E+02 0.  0.
         12    1    1    2    0    0 -0.44916600858E+01  0.31064933264E+02  0.56138682349E+01  0.31886056601E+02  0.00000000000E+00 0. -1.
         11    1    3    3    0    0  0.17567684527E+02 -0.14076572677E+02 -0.67388555252E+01  0.23498630003E+02  0.51100000000E-03 0. -1.
        -11    1    3    3    0    0 -0.18690091114E+02 -0.11389589622E+02 -0.83703317264E+01  0.23432983402E+02  0.51100000000E-03 0.  1.
         12    1    3    3    0    0  0.56140666731E+01 -0.55987709655E+01  0.94953190166E+01  0.12370329994E+02  0.00000000000E+00 0. -1.
</event>
<event>
 7    1  0.7012292E-013  0.5930194E+02  0.7816164E-02  0.1266605E+00
        -11   -1    0    0    0    0  0.00000000000E+00  0.00000000000E+00  0.45593999997E+02  0.45594000000E+02  0.51100000000E-03 0.  1.
         11   -1    0    0    0    0 -0.00000000000E+00 -0.00000000000E+00 -0.45593999997E+02  0.45594000000E+02  0.51100000000E-03 0. -1.
    9900012    2    1    2    0    0  0.28445551717E+02  0.10713976530E+02  0.96323397316E+01  0.59301942321E+02  0.49999996888E+02 0.  0.
         12    1    1    2    0    0 -0.28445551717E+02 -0.10713976530E+02 -0.96323397316E+01  0.31886057679E+02  0.00000000000E+00 0. -1.
         11    1    3    3    0    0  0.13572663569E+02  0.18423023996E+01 -0.89085539135E+01  0.16339327024E+02  0.51100000000E-03 0. -1.
        -11    1    3    3    0    0  0.18155239458E+02  0.19359278787E+02  0.17782930845E+02  0.31947253789E+02  0.51100000000E-03 0.  1.
         12    1    3    3    0    0 -0.32823513105E+01 -0.10487604657E+02  0.75796280029E+00  0.11015361509E+02  0.00000000000E+00 0. -1.
</event>
<event>
 7    1  0.7012292E-013  0.5930195E+02  0.7816164E-02  0.1266605E+00
        -11   -1    0    0    0    0  0.00000000000E+00  0.00000000000E+00  0.45593999997E+02  0.45594000000E+02  0.51100000000E-03 0.  1.
         11   -1    0    0    0    0 -0.00000000000E+00 -0.00000000000E+00 -0.45593999997E+02  0.45594000000E+02  0.51100000000E-03 0. -1.
    9900012    2    1    2    0    0 -0.10645006367E+02 -0.15050195373E+02  0.26017219705E+02  0.59301948779E+02  0.50000008665E+02 0.  0.
         12    1    1    2    0    0  0.10645006367E+02  0.15050195373E+02 -0.26017219705E+02  0.31886051221E+02  0.00000000000E+00 0. -1.
         11    1    3    3    0    0 -0.11103131622E+02 -0.74217453282E+01  0.24706040675E+02  0.28084698354E+02  0.51100000000E-03 0. -1.
        -11    1    3    3    0    0 -0.79032072942E+01  0.10440367169E+01  0.12467399995E+02  0.14798201279E+02  0.51100000000E-03 0.  1.
         12    1    3    3    0    0  0.83613325500E+01 -0.86724867619E+01 -0.11156220965E+02  0.16419049146E+02  0.00000000000E+00 0. -1.
</event>
<event>
 7    1  0.7012292E-013  0.5930194E+02  0.7816164E-02  0.1266605E+00
        -11   -1    0    0    0    0  0.00000000000E+00  0.00000000000E+00  0.45593999997E+02  0.45594000000E+02  0.51100000000E-03 0. -1.
         11   -1    0    0    0    0 -0.00000000000E+00 -0.00000000000E+00 -0.45593999997E+02  0.45594000000E+02  0.51100000000E-03 0.  1.
    9900012    2    1    2    0    0  0.21995355105E+02  0.58974566634E+01 -0.22319165082E+02  0.59301940801E+02  0.49999994115E+02 0.  0.
         12    1    1    2    0    0 -0.21995355105E+02 -0.58974566634E+01  0.22319165082E+02  0.31886059199E+02  0.00000000000E+00 0. -1.
         11    1    3    3    0    0 -0.35605307355E+01  0.18958241635E+02 -0.66114979290E+01  0.20391277796E+02  0.51100000000E-03 0. -1.
        -11    1    3    3    0    0  0.12963485770E+02  0.22712628209E+01 -0.13654085381E+02  0.18964299248E+02  0.51100000000E-03 0.  1.
         12    1    3    3    0    0  0.12592400070E+02 -0.15332047793E+02 -0.20535817722E+01  0.19946363757E+02  0.00000000000E+00 0. -1.
</event>
<event>
 7    1  0.7012292E-013  0.5930196E+02  0.7816164E-02  0.1266605E+00
        -11   -1    0    0    0    0  0.00000000000E+00  0.00000000000E+00  0.45593999997E+02  0.45594000000E+02  0.51100000000E-03 0.  1.
         11   -1    0    0    0    0 -0.00000000000E+00 -0.00000000000E+00 -0.45593999997E+02  0.45594000000E+02  0.51100000000E-03 0. -1.
    9900012    2    1    2    0    0  0.50609518856E+01  0.32917195078E+01  0.31309278090E+02  0.59301960017E+02  0.50000029160E+02 0.  0.
         12    1    1    2    0    0 -0.50609518856E+01 -0.32917195078E+01 -0.31309278090E+02  0.31886039983E+02  0.00000000000E+00 0. -1.
         11    1    3    3    0    0  0.18544546452E+01 -0.83089313632E+01 -0.68513479348E+01  0.10927868558E+02  0.51100000000E-03 0. -1.
        -11    1    3    3    0    0  0.12704429999E+02  0.25533391636E+01  0.73744474500E+01  0.14909881218E+02  0.51100000000E-03 0.  1.
        -12    1    3    3    0    0 -0.94979327584E+01  0.90473117074E+01  0.30786178575E+02  0.33464210241E+02  0.00000000000E+00 0.  1.
</event>
<event>
 7    1  0.7012292E-013  0.5930188E+02  0.7816164E-02  0.1266605E+00
        -11   -1    0    0    0    0  0.00000000000E+00  0.00000000000E+00  0.45593999997E+02  0.45594000000E+02  0.51100000000E-03 0. -1.
         11   -1    0    0    0    0 -0.00000000000E+00 -0.00000000000E+00 -0.45593999997E+02  0.45594000000E+02  0.51100000000E-03 0.  1.
    9900012    2    1    2    0    0  0.26079468127E+02  0.92476967580E+01 -0.15845062243E+02  0.59301881538E+02  0.49999886033E+02 0.  0.
         12    1    1    2    0    0 -0.26079468127E+02 -0.92476967580E+01  0.15845062243E+02  0.31886118462E+02  0.00000000000E+00 0. -1.
         11    1    3    3    0    0  0.21069213435E+02 -0.12863040267E+02 -0.19960398273E+02  0.31745662053E+02  0.51100000000E-03 0. -1.
        -11    1    3    3    0    0 -0.27432936649E+01  0.11415750478E+00 -0.20563762343E+01  0.34303608478E+01  0.51100000000E-03 0.  1.
         12    1    3    3    0    0  0.77535483566E+01  0.21996579520E+02  0.61717122643E+01  0.24125858637E+02  0.00000000000E+00 0. -1.
</event>
<event>
 7    1  0.7012292E-013  0.5930198E+02  0.7816164E-02  0.1266605E+00
        -11   -1    0    0    0    0  0.00000000000E+00  0.00000000000E+00  0.45593999997E+02  0.45594000000E+02  0.51100000000E-03 0.  1.
         11   -1    0    0    0    0 -0.00000000000E+00 -0.00000000000E+00 -0.45593999997E+02  0.45594000000E+02  0.51100000000E-03 0. -1.
    9900012    2    1    2    0    0 -0.16683591892E+02  0.33800801783E+01  0.26962030538E+02  0.59301980005E+02  0.50000065613E+02 0.  0.
         12    1    1    2    0    0  0.16683591892E+02 -0.33800801783E+01 -0.26962030538E+02  0.31886019995E+02  0.00000000000E+00 0. -1.
         11    1    3    3    0    0  0.74716360721E+01  0.28712647572E+01 -0.35144383369E+01  0.87418981912E+01  0.51100000000E-03 0. -1.
        -11    1    3    3    0    0 -0.27601826482E+01  0.14465930025E+02  0.12597512141E+02  0.19379862026E+02  0.51100000000E-03 0.  1.
         12    1    3    3    0    0 -0.21395045316E+02 -0.13957114604E+02  0.17878956734E+02  0.31180219788E+02  0.00000000000E+00 0. -1.
</event>
