<event>
 7    1  0.3220798E-013  0.5930195E+02  0.7816164E-02  0.1266605E+00
        -11   -1    0    0    0    0  0.00000000000E+00  0.00000000000E+00  0.45593999997E+02  0.45594000000E+02  0.51100000000E-03 0.  1.
         11   -1    0    0    0    0 -0.00000000000E+00 -0.00000000000E+00 -0.45593999997E+02  0.45594000000E+02  0.51100000000E-03 0. -1.
    9900012    2    1    2    0    0  0.13311945448E+02  0.17028032280E+02  0.23442663617E+02  0.59301948937E+02  0.50000008953E+02 0.  0.
         12    1    1    2    0    0 -0.13311945448E+02 -0.17028032280E+02 -0.23442663617E+02  0.31886051063E+02  0.00000000000E+00 0. -1.
         11    1    3    3    0    0 -0.10020231388E+01  0.14812441800E+01 -0.12170350638E+02  0.12301039371E+02  0.51100000000E-03 0. -1.
        -11    1    3    3    0    0 -0.45209093565E+01  0.22175784390E+01  0.15814858507E+02  0.16597169198E+02  0.51100000000E-03 0.  1.
        -12    1    3    3    0    0  0.18834877944E+02  0.13329209661E+02  0.19798155748E+02  0.30403740368E+02  0.00000000000E+00 0.  1.
</event>
<event>
 7    1  0.3220798E-013  0.5930192E+02  0.7816164E-02  0.1266605E+00
        -11   -1    0    0    0    0  0.00000000000E+00  0.00000000000E+00  0.45593999997E+02  0.45594000000E+02  0.51100000000E-03 0. -1.
         11   -1    0    0    0    0 -0.00000000000E+00 -0.00000000000E+00 -0.45593999997E+02  0.45594000000E+02  0.51100000000E-03 0.  1.
    9900012    2    1    2    0    0 -0.11088353920E+01 -0.24128316461E+02  0.20816265946E+02  0.59301919979E+02  0.49999956141E+02 0.  0.
         12    1    1    2    0    0  0.11088353920E+01  0.24128316461E+02 -0.20816265946E+02  0.31886080021E+02  0.00000000000E+00 0. -1.
         11    1    3    3    0    0  0.37690758379E+01  0.54606417835E+00  0.15057481047E+02  0.15531640432E+02  0.51100000000E-03 0. -1.
        -11    1    3    3    0    0  0.15030831853E+02 -0.14879828250E+02  0.38799148650E+01  0.21503230793E+02  0.51100000000E-03 0.  1.
         12    1    3    3    0    0 -0.19908743082E+02 -0.97945523895E+01  0.18788700341E+01  0.22267048754E+02  0.00000000000E+00 0. -1.
</event>
<event>
 7    1  0.3220798E-013  0.5930195E+02  0.7816164E-02  0.1266605E+00
        -11   -1    0    0    0    0  0.00000000000E+00  0.00000000000E+00  0.45593999997E+02  0.45594000000E+02  0.51100000000E-03 0. -1.
         11   -1    0    0    0    0 -0.00000000000E+00 -0.00000000000E+00 -0.45593999997E+02  0.45594000000E+02  0.51100000000E-03 0.  1.
    9900012    2    1    2    0    0  0.18271459720E+02  0.24447103073E+02 -0.92310858670E+01  0.59301952342E+02  0.50000015163E+02 0.  0.
         12    1    1    2    0    0 -0.18271459720E+02 -0.24447103073E+02  0.92310858670E+01  0.31886047658E+02  0.00000000000E+00 0. -1.
         11    1    3    3    0    0  0.12558760150E+02 -0.53496801580E+01 -0.13738417780E+01  0.13719656548E+02  0.51100000000E-03 0. -1.
        -11    1    3    3    0    0  0.11498505888E+02  0.18215427596E+01 -0.11996434980E+02  0.16716701474E+02  0.51100000000E-03 0.  1.
        -12    1    3    3    0    0 -0.57858063179E+01  0.27975240472E+02  0.41391908913E+01  0.28865594320E+02  0.00000000000E+00 0.  1.
</event>
<event>
 7    1  0.3220798E-013  0.5930193E+02  0.7816164E-02  0.1266605E+00
        -11   -1    0    0    0    0  0.00000000000E+00  0.00000000000E+00  0.45593999997E+02  0.45594000000E+02  0.51100000000E-03 0.  1.
         11   -1    0    0    0    0 -0.00000000000E+00 -0.00000000000E+00 -0.45593999997E+02  0.45594000000E+02  0.51100000000E-03 0. -1.
    9900012    2    1    2    0    0  0.24729854024E+01 -0.21756627487E+02  0.23178759151E+02  0.59301931378E+02  0.49999976929E+02 0.  0.
         12    1    1    2    0    0 -0.24729854024E+01  0.21756627487E+02 -0.23178759151E+02  0.31886068622E+02  0.00000000000E+00 0. -1.
         11    1    3    3    0    0  0.17907303586E+02  0.34112388804E+00  0.12005683474E+02  0.21562103867E+02  0.51100000000E-03 0. -1.
        -11    1    3    3    0    0  0.56860428599E+00  0.47536465723E+01  0.16191035181E+01  0.50539057205E+01  0.51100000000E-03 0.  1.
        -12    1    3    3    0    0 -0.16002922469E+02 -0.26851397947E+02  0.95539721584E+01  0.32685921790E+02  0.00000000000E+00 0.  1.
</event>
<event>
 7    1  0.3220798E-013  0.5930194E+02  0.7816164E-02  0.1266605E+00
        -11   -1    0    0    0    0  0.00000000000E+00  0.00000000000E+00  0.45593999997E+02  0.45594000000E+02  0.51100000000E-03 0. -1.
         11   -1    0    0    0    0 -0.00000000000E+00 -0.00000000000E+00 -0.45593999997E+02  0.45594000000E+02  0.51100000000E-03 0.  1.
    9900012    2    1    2    0    0 -0.14721804613E+01  0.26282402850E+02 -0.17994131940E+02  0.59301940363E+02  0.49999993317E+02 0.  0.
         12    1    1    2    0    0  0.14721804613E+01 -0.26282402850E+02  0.17994131940E+02  0.31886059637E+02  0.00000000000E+00 0. -1.
         11    1    3    3    0    0  0.14932371982E+01 -0.42364963437E+01 -0.96096394197E+01  0.10607677816E+02  0.51100000000E-03 0. -1.
        -11    1    3    3    0    0  0.11683850470E+01 -0.84261088097E+01  0.54928319981E+00  0.85244440045E+01  0.51100000000E-03 0.  1.
        -12    1    3    3    0    0 -0.41338027066E+01  0.38945008003E+02 -0.89337757197E+01  0.40169818543E+02  0.00000000000E+00 0.  1.
</event>
<event>
 7    1  0.3220798E-013  0.5930194E+02  0.7816164E-02  0.1266605E+00
        -11   -1    0    0    0    0  0.00000000000E+00  0.00000000000E+00  0.45593999997E+02  0.45594000000E+02  0.51100000000E-03 0. -1.
         11   -1    0    0    0    0 -0.00000000000E+00 -0.00000000000E+00 -0.45593999997E+02  0.45594000000E+02  0.51100000000E-03 0.  1.
    9900012    2    1    2    0    0 -0.95962010082E+01  0.25683523187E+02 -0.16278518601E+02  0.59301943409E+02  0.49999998871E+02 0.  0.
         12    1    1    2    0    0  0.95962010082E+01 -0.25683523187E+02  0.16278518601E+02  0.31886056591E+02  0.00000000000E+00 0. -1.
         11    1    3    3    0    0  0.17768131276E+01 -0.12209403659E+02 -0.62007706272E+01  0.13808553843E+02  0.51100000000E-03 0. -1.
        -11    1    3    3    0    0  0.30962310029E+01  0.11174383414E+02  0.36430426535E+01  0.12154227707E+02  0.51100000000E-03 0.  1.
        -12    1    3    3    0    0 -0.14469245139E+02  0.26718543432E+02 -0.13720790627E+02  0.33339161859E+02  0.00000000000E+00 0.  1.
</event>
<event>
 7    1  0.3220798E-013  0.5930193E+02  0.7816164E-02  0.1266605E+00
        -11   -1    0    0    0    0  0.00000000000E+00  0.00000000000E+00  0.45593999997E+02  0.45594000000E+02  0.51100000000E-03 0. -1.
         11   -1    0    0    0    0 -0.00000000000E+00 -0.00000000000E+00 -0.45593999997E+02  0.45594000000E+02  0.51100000000E-03 0.  1.
    9900012    2    1    2    0    0  0.17841878666E+02  0.20985273519E+02 -0.16062594371E+02  0.59301932872E+02  0.49999979654E+02 0.  0.
         12    1    1    2    0    0 -0.17841878666E+02 -0.20985273519E+02  0.16062594371E+02  0.31886067128E+02  0.00000000000E+00 0. -1.
         11    1    3    3    0    0  0.86605812035E+01  0.13416432992E+02  0.83179053423E+01  0.18005385043E+02  0.51100000000E-03 0. -1.
        -11    1    3    3    0    0 -0.94131789306E+01 -0.30747016352E+01 -0.16129060352E+01  0.10033104896E+02  0.51100000000E-03 0.  1.
         12    1    3    3    0    0  0.18594476393E+02  0.10643542163E+02 -0.22767593678E+02  0.31263442932E+02  0.00000000000E+00 0. -1.
</event>
<event>
 7    1  0.3220798E-013  0.5930196E+02  0.7816164E-02  0.1266605E+00
        -11   -1    0    0    0    0  0.00000000000E+00  0.00000000000E+00  0.45593999997E+02  0.45594000000E+02  0.51100000000E-03 0. -1.
         11   -1    0    0    0    0 -0.00000000000E+00 -0.00000000000E+00 -0.45593999997E+02  0.45594000000E+02  0.51100000000E-03 0.  1.
    9900012    2    1    2    0    0 -0.27038013056E+02 -0.11553157842E+02 -0.12336525297E+02  0.59301961323E+02  0.50000031542E+02 0.  0.
         12    1    1    2    0    0  0.27038013056E+02  0.11553157842E+02  0.12336525297E+02  0.31886038677E+02  0.00000000000E+00 0. -1.
         11    1    3    3    0    0  0.55446118411E+00 -0.11423590204E+02 -0.10471001484E+01  0.11484870889E+02  0.51100000000E-03 0. -1.
        -11    1    3    3    0    0 -0.18931014883E+02 -0.16539181500E+02  0.16554614154E+01  0.25192625944E+02  0.51100000000E-03 0.  1.
        -12    1    3    3    0    0 -0.86614593566E+01  0.16409613862E+02 -0.12944886564E+02  0.22624464490E+02  0.00000000000E+00 0.  1.
</event>
<event>
 7    1  0.3220798E-013  0.5930195E+02  0.7816164E-02  0.1266605E+00
        -11   -1    0    0    0    0  0.00000000000E+00  0.00000000000E+00  0.45593999997E+02  0.45594000000E+02  0.51100000000E-03 0.  1.
         11   -1    0    0    0    0 -0.00000000000E+00 -0.00000000000E+00 -0.45593999997E+02  0.45594000000E+02  0.51100000000E-03 0. -1.
    9900012    2    1    2    0    0 -0.14620704006E+02  0.81476858274E+01  0.27139832702E+02  0.59301948362E+02  0.50000007905E+02 0.  0.
         12    1    1    2    0    0  0.14620704006E+02 -0.81476858274E+01 -0.27139832702E+02  0.31886051638E+02  0.00000000000E+00 0. -1.
         11    1    3    3    0    0  0.75505324465E+00  0.15137619000E+02  0.43044327230E+01  0.15755816568E+02  0.51100000000E-03 0. -1.
        -11    1    3    3    0    0 -0.63233604230E+01  0.12672739906E+02  0.14724021155E+02  0.20429880641E+02  0.51100000000E-03 0.  1.
         12    1    3    3    0    0 -0.90523968278E+01 -0.19662673079E+02  0.81113788238E+01  0.23116251153E+02  0.00000000000E+00 0. -1.
</event>
<event>
 7    1  0.3220798E-013  0.5930195E+02  0.7816164E-02  0.1266605E+00
        -11   -1    0    0    0    0  0.00000000000E+00  0.00000000000E+00  0.45593999997E+02  0.45594000000E+02  0.51100000000E-03 0. -1.
         11   -1    0    0    0    0 -0.00000000000E+00 -0.00000000000E+00 -0.45593999997E+02  0.45594000000E+02  0.51100000000E-03 0.  1.
    9900012    2    1    2    0    0 -0.28650037774E+02 -0.52807292533E+01  0.12961837319E+02  0.59301953011E+02  0.50000016383E+02 0.  0.
         12    1    1    2    0    0  0.28650037774E+02  0.52807292533E+01 -0.12961837319E+02  0.31886046989E+02  0.00000000000E+00 0. -1.
         11    1    3    3    0    0 -0.15068185540E+02  0.63922272823E+01  0.55579686348E+01  0.17285884435E+02  0.51100000000E-03 0. -1.
        -11    1    3    3    0    0 -0.19428966631E+02 -0.36412613692E+01  0.18533976686E+02  0.27097081407E+02  0.51100000000E-03 0.  1.
        -12    1    3    3    0    0  0.58471143964E+01 -0.80316951664E+01 -0.11130108002E+02  0.14918987169E+02  0.00000000000E+00 0.  1.
</event>
<event>
 7    1  0.3220798E-013  0.5930194E+02  0.7816164E-02  0.1266605E+00
        -11   -1    0    0    0    0  0.00000000000E+00  0.00000000000E+00  0.45593999997E+02  0.45594000000E+02  0.51100000000E-03 0. -1.
         11   -1    0    0    0    0 -0.00000000000E+00 -0.00000000000E+00 -0.45593999997E+02  0.45594000000E+02  0.51100000000E-03 0.  1.
    9900012    2    1    2    0    0  0.21365416806E+02  0.19174390414E+02 -0.13877409173E+02  0.59301940846E+02  0.49999994196E+02 0.  0.
         12    1    1    2    0    0 -0.21365416806E+02 -0.19174390414E+02  0.13877409173E+02  0.31886059154E+02  0.00000000000E+00 0. -1.
         11    1    3    3    0    0  0.12341217337E+02  0.27175754846E+02 -0.19249114270E+02  0.35515569787E+02  0.51100000000E-03 0.  1.
        -11    1    3    3    0    0 -0.60554291143E+01 -0.37079833689E+00  0.46562096247E-01  0.60669499301E+01  0.51100000000E-03 0. -1.
        -12    1    3    3    0    0  0.15079628584E+02 -0.76305660953E+01  0.53251430012E+01  0.17719421129E+02  0.00000000000E+00 0.  1.
</event>
<event>
 7    1  0.3220798E-013  0.5930194E+02  0.7816164E-02  0.1266605E+00
        -11   -1    0    0    0    0  0.00000000000E+00  0.00000000000E+00  0.45593999997E+02  0.45594000000E+02  0.51100000000E-03 0. -1.
         11   -1    0    0    0    0 -0.00000000000E+00 -0.00000000000E+00 -0.45593999997E+02  0.45594000000E+02  0.51100000000E-03 0.  1.
    9900012    2    1    2    0    0 -0.70680727202E+01  0.30087718985E+02 -0.78416863321E+01  0.59301944580E+02  0.50000001008E+02 0.  0.
         12    1    1    2    0    0  0.70680727202E+01 -0.30087718985E+02  0.78416863321E+01  0.31886055420E+02  0.00000000000E+00 0. -1.
         11    1    3    3    0    0  0.37613839557E+01  0.11057268048E+02  0.17436860802E+02  0.20987026965E+02  0.51100000000E-03 0. -1.
        -11    1    3    3    0    0  0.17193301280E+01 -0.92552249942E+00 -0.10078201170E+02  0.10265613818E+02  0.51100000000E-03 0.  1.
        -12    1    3    3    0    0 -0.12548786804E+02  0.19955973436E+02 -0.15200345965E+02  0.28049303797E+02  0.00000000000E+00 0.  1.
</event>
<event>
 7    1  0.3220798E-013  0.5930195E+02  0.7816164E-02  0.1266605E+00
        -11   -1    0    0    0    0  0.00000000000E+00  0.00000000000E+00  0.45593999997E+02  0.45594000000E+02  0.51100000000E-03 0.  1.
         11   -1    0    0    0    0 -0.00000000000E+00 -0.00000000000E+00 -0.45593999997E+02  0.45594000000E+02  0.51100000000E-03 0. -1.
    9900012    2    1    2    0    0  0.26728343924E+02  0.53128073226E+01  0.16555661140E+02  0.59301949659E+02  0.50000010270E+02 0.  0.
         12    1    1    2    0    0 -0.26728343924E+02 -0.53128073226E+01 -0.16555661140E+02  0.31886050341E+02  0.00000000000E+00 0. -1.
         11    1    3    3    0    0  0.11395547336E+02  0.73987723970E+01  0.34130822923E+00  0.13591056752E+02  0.51100000000E-03 0. -1.
        -11    1    3    3    0    0  0.25702294133E+02  0.79397023463E+01  0.15972491406E+02  0.31285256576E+02  0.51100000000E-03 0.  1.
         12    1    3    3    0    0 -0.10369497545E+02 -0.10025667421E+02  0.24186150498E+00  0.14425636331E+02  0.00000000000E+00 0. -1.
</event>
<event>
 7    1  0.3220798E-013  0.5930194E+02  0.7816164E-02  0.1266605E+00
        -11   -1    0    0    0    0  0.00000000000E+00  0.00000000000E+00  0.45593999997E+02  0.45594000000E+02  0.51100000000E-03 0. -1.
         11   -1    0    0    0    0 -0.00000000000E+00 -0.00000000000E+00 -0.45593999997E+02  0.45594000000E+02  0.51100000000E-03 0.  1.
    9900012    2    1    2    0    0 -0.10658469252E+02  0.11905527537E+02 -0.27593043376E+02  0.59301943557E+02  0.49999999142E+02 0.  0.
         12    1    1    2    0    0  0.10658469252E+02 -0.11905527537E+02  0.27593043376E+02  0.31886056443E+02  0.00000000000E+00 0. -1.
         11    1    3    3    0    0  0.22057400261E+01  0.92437121874E+01 -0.17626209627E+02  0.20024853811E+02  0.51100000000E-03 0. -1.
        -11    1    3    3    0    0 -0.19036191254E+02  0.16732903651E+01 -0.19868911445E+02  0.27567192827E+02  0.51100000000E-03 0.  1.
         12    1    3    3    0    0  0.61719819759E+01  0.98852498492E+00  0.99020776966E+01  0.11709896920E+02  0.00000000000E+00 0. -1.
</event>
<event>
 7    1  0.3220798E-013  0.5930190E+02  0.7816164E-02  0.1266605E+00
        -11   -1    0    0    0    0  0.00000000000E+00  0.00000000000E+00  0.45593999997E+02  0.45594000000E+02  0.51100000000E-03 0. -1.
         11   -1    0    0    0    0 -0.00000000000E+00 -0.00000000000E+00 -0.45593999997E+02  0.45594000000E+02  0.51100000000E-03 0.  1.
    9900012    2    1    2    0    0 -0.28704646034E+02 -0.81721646474E+01 -0.11224199780E+02  0.59301895822E+02  0.49999912084E+02 0.  0.
         12    1    1    2    0    0  0.28704646034E+02  0.81721646474E+01  0.11224199780E+02  0.31886104178E+02  0.00000000000E+00 0. -1.
         11    1    3    3    0    0 -0.12126429500E+02  0.13209013128E+02 -0.40685904314E+01  0.18386999445E+02  0.51100000000E-03 0. -1.
        -11    1    3    3    0    0 -0.35421793099E+00 -0.87783959694E+01 -0.16230694603E+02  0.18455924623E+02  0.51100000000E-03 0.  1.
        -12    1    3    3    0    0 -0.16223998603E+02 -0.12602781806E+02  0.90750852539E+01  0.22458971754E+02  0.00000000000E+00 0.  1.
</event>
<event>
 7    1  0.3220798E-013  0.5930204E+02  0.7816164E-02  0.1266604E+00
        -11   -1    0    0    0    0  0.00000000000E+00  0.00000000000E+00  0.45593999997E+02  0.45594000000E+02  0.51100000000E-03 0.  1.
         11   -1    0    0    0    0 -0.00000000000E+00 -0.00000000000E+00 -0.45593999997E+02  0.45594000000E+02  0.51100000000E-03 0. -1.
    9900012    2    1    2    0    0  0.11380559751E+02  0.97513163971E+00  0.29769889825E+02  0.59302041301E+02  0.50000177404E+02 0.  0.
         12    1    1    2    0    0 -0.11380559751E+02 -0.97513163971E+00 -0.29769889825E+02  0.31885958699E+02  0.00000000000E+00 0. -1.
         11    1    3    3    0    0  0.20068657492E+02 -0.82764340246E+01  0.90111116472E+00  0.21726996462E+02  0.51100000000E-03 0. -1.
        -11    1    3    3    0    0  0.60230108720E+01 -0.10178148992E+01  0.75565169547E+01  0.97166638246E+01  0.51100000000E-03 0.  1.
        -12    1    3    3    0    0 -0.14711108612E+02  0.10269380564E+02  0.21312261705E+02  0.27858381015E+02  0.00000000000E+00 0.  1.
</event>
<event>
 7    1  0.3220798E-013  0.5930194E+02  0.7816164E-02  0.1266605E+00
        -11   -1    0    0    0    0  0.00000000000E+00  0.00000000000E+00  0.45593999997E+02  0.45594000000E+02  0.51100000000E-03 0. -1.
         11   -1    0    0    0    0 -0.00000000000E+00 -0.00000000000E+00 -0.45593999997E+02  0.45594000000E+02  0.51100000000E-03 0.  1.
    9900012    2    1    2    0    0 -0.64480659881E+01  0.25359975318E+02 -0.18221281509E+02  0.59301937168E+02  0.49999987490E+02 0.  0.
         12    1    1    2    0    0  0.64480659881E+01 -0.25359975318E+02  0.18221281509E+02  0.31886062832E+02  0.00000000000E+00 0. -1.
         11    1    3    3    0    0 -0.97644009099E+01  0.88728383182E+01 -0.14401868444E+01  0.13271960042E+02  0.51100000000E-03 0. -1.
        -11    1    3    3    0    0 -0.32615346112E+01  0.51946336534E+01 -0.28087387428E+02  0.28749315811E+02  0.51100000000E-03 0.  1.
         12    1    3    3    0    0  0.65778695329E+01  0.11292503346E+02  0.11306292764E+02  0.17280661315E+02  0.00000000000E+00 0. -1.
</event>
<event>
 7    1  0.3220798E-013  0.5930194E+02  0.7816164E-02  0.1266605E+00
        -11   -1    0    0    0    0  0.00000000000E+00  0.00000000000E+00  0.45593999997E+02  0.45594000000E+02  0.51100000000E-03 0. -1.
         11   -1    0    0    0    0 -0.00000000000E+00 -0.00000000000E+00 -0.45593999997E+02  0.45594000000E+02  0.51100000000E-03 0.  1.
    9900012    2    1    2    0    0  0.13438519407E+02 -0.23852517530E+02 -0.16345773796E+02  0.59301941646E+02  0.49999995656E+02 0.  0.
         12    1    1    2    0    0 -0.13438519407E+02  0.23852517530E+02  0.16345773796E+02  0.31886058354E+02  0.00000000000E+00 0. -1.
         11    1    3    3    0    0  0.21210514996E+02 -0.24880682750E+02 -0.28094918494E+01  0.32815050894E+02  0.51100000000E-03 0. -1.
        -11    1    3    3    0    0  0.50120835437E+01 -0.61250772283E+01 -0.64697188856E+01  0.10222270551E+02  0.51100000000E-03 0.  1.
         12    1    3    3    0    0 -0.12784079132E+02  0.71532424483E+01 -0.70665630606E+01  0.16264620201E+02  0.00000000000E+00 0. -1.
</event>
<event>
 7    1  0.3220798E-013  0.5930195E+02  0.7816164E-02  0.1266605E+00
        -11   -1    0    0    0    0  0.00000000000E+00  0.00000000000E+00  0.45593999997E+02  0.45594000000E+02  0.51100000000E-03 0.  1.
         11   -1    0    0    0    0 -0.00000000000E+00 -0.00000000000E+00 -0.45593999997E+02  0.45594000000E+02  0.51100000000E-03 0. -1.
    9900012    2    1    2    0    0 -0.20001177104E+02  0.21819286491E+02  0.11857131492E+02  0.59301954216E+02  0.50000018581E+02 0.  0.
         12    1    1    2    0    0  0.20001177104E+02 -0.21819286491E+02 -0.11857131492E+02  0.31886045784E+02  0.00000000000E+00 0. -1.
         11    1    3    3    0    0 -0.16935330612E+02  0.27174086731E+02  0.19236172142E+02  0.37353269356E+02  0.51100000000E-03 0.  1.
        -11    1    3    3    0    0 -0.91413864938E+01 -0.80269078211E+01 -0.19358334673E+00  0.12166908850E+02  0.51100000000E-03 0. -1.
        -12    1    3    3    0    0  0.60755400022E+01  0.26721075809E+01 -0.71854573037E+01  0.97817760098E+01  0.00000000000E+00 0.  1.
</event>
<event>
 7    1  0.3220798E-013  0.5930195E+02  0.7816164E-02  0.1266605E+00
        -11   -1    0    0    0    0  0.00000000000E+00  0.00000000000E+00  0.45593999997E+02  0.45594000000E+02  0.51100000000E-03 0. -1.
         11   -1    0    0    0    0 -0.00000000000E+00 -0.00000000000E+00 -0.45593999997E+02  0.45594000000E+02  0.51100000000E-03 0.  1.
    9900012    2    1    2    0    0  0.16300339336E+02  0.62155985355E+01 -0.26690548003E+02  0.59301951635E+02  0.50000013874E+02 0.  0.
         12    1    1    2    0    0 -0.16300339336E+02 -0.62155985355E+01  0.26690548003E+02  0.31886048365E+02  0.00000000000E+00 0. -1.
         11    1    3    3    0    0 -0.14322632362E+02 -0.72313887743E+01 -0.88750924388E+00  0.16069177151E+02  0.51100000000E-03 0. -1.
        -11    1    3    3    0    0  0.12118312119E+02  0.61542541376E+01 -0.16198987642E+02  0.21145579526E+02  0.51100000000E-03 0.  1.
        -12    1    3    3    0    0  0.18504659579E+02  0.72927331722E+01 -0.96040511170E+01  0.22087194958E+02  0.00000000000E+00 0.  1.
</event>
<event>
 7    1  0.3220798E-013  0.5930193E+02  0.7816164E-02  0.1266605E+00
        -11   -1    0    0    0    0  0.00000000000E+00  0.00000000000E+00  0.45593999997E+02  0.45594000000E+02  0.51100000000E-03 0.  1.
         11   -1    0    0    0    0 -0.00000000000E+00 -0.00000000000E+00 -0.45593999997E+02  0.45594000000E+02  0.51100000000E-03 0. -1.
    9900012    2    1    2    0    0 -0.16062956409E+02 -0.26957697083E+02  0.56555698633E+01  0.59301929827E+02  0.49999974101E+02 0.  0.
         12    1    1    2    0    0  0.16062956409E+02  0.26957697083E+02 -0.56555698633E+01  0.31886070173E+02  0.00000000000E+00 0. -1.
         11    1    3    3    0    0  0.30427732306E+01 -0.87259287692E+01 -0.23879199610E+01  0.95447610667E+01  0.51100000000E-03 0. -1.
        -11    1    3    3    0    0 -0.17261602546E+02 -0.31077730120E+02  0.24767437456E+01  0.35635971878E+02  0.51100000000E-03 0.  1.
         12    1    3    3    0    0 -0.18441270935E+01  0.12845961806E+02  0.55667460788E+01  0.14121196882E+02  0.00000000000E+00 0. -1.
</event>
<event>
 7    1  0.3220798E-013  0.5930193E+02  0.7816164E-02  0.1266605E+00
        -11   -1    0    0    0    0  0.00000000000E+00  0.00000000000E+00  0.45593999997E+02  0.45594000000E+02  0.51100000000E-03 0. -1.
         11   -1    0    0    0    0 -0.00000000000E+00 -0.00000000000E+00 -0.45593999997E+02  0.45594000000E+02  0.51100000000E-03 0.  1.
    9900012    2    1    2    0    0  0.14763777363E+02 -0.19084095249E+02 -0.20845857685E+02  0.59301927866E+02  0.49999970526E+02 0.  0.
         12    1    1    2    0    0 -0.14763777363E+02  0.19084095249E+02  0.20845857685E+02  0.31886072134E+02  0.00000000000E+00 0. -1.
         11    1    3    3    0    0 -0.17549573937E+00  0.59652018121E+01  0.10635340914E+01  0.60618096669E+01  0.51100000000E-03 0. -1.
        -11    1    3    3    0    0  0.46535921664E+01  0.53079553571E+01 -0.19911178208E+02  0.21125466338E+02  0.51100000000E-03 0.  1.
         12    1    3    3    0    0  0.10285680936E+02 -0.30357252418E+02 -0.19982135684E+01  0.32114651861E+02  0.00000000000E+00 0. -1.
</event>
<event>
 7    1  0.3220798E-013  0.5930199E+02  0.7816164E-02  0.1266605E+00
        -11   -1    0    0    0    0  0.00000000000E+00  0.00000000000E+00  0.45593999997E+02  0.45594000000E+02  0.51100000000E-03 0. -1.
         11   -1    0    0    0    0 -0.00000000000E+00 -0.00000000000E+00 -0.45593999997E+02  0.45594000000E+02  0.51100000000E-03 0.  1.
    9900012    2    1    2    0    0  0.20555144442E+02 -0.22295046429E+02  0.98557023209E+01  0.59301985408E+02  0.50000075468E+02 0.  0.
         12    1    1    2    0    0 -0.20555144442E+02  0.22295046429E+02 -0.98557023209E+01  0.31886014592E+02  0.00000000000E+00 0. -1.
         11    1    3    3    0    0 -0.45392273136E+01 -0.69202544730E+01  0.18192720689E+02  0.19986735424E+02  0.51100000000E-03 0. -1.
        -11    1    3    3    0    0 -0.44523077708E+01  0.10990705058E+01 -0.12266639730E+01  0.47471786597E+01  0.51100000000E-03 0.  1.
         12    1    3    3    0    0  0.29546679526E+02 -0.16473862462E+02 -0.71103543956E+01  0.34568071324E+02  0.00000000000E+00 0. -1.
</event>
<event>
 7    1  0.3220798E-013  0.5930194E+02  0.7816164E-02  0.1266605E+00
        -11   -1    0    0    0    0  0.00000000000E+00  0.00000000000E+00  0.45593999997E+02  0.45594000000E+02  0.51100000000E-03 0. -1.
         11   -1    0    0    0    0 -0.00000000000E+00 -0.00000000000E+00 -0.45593999997E+02  0.45594000000E+02  0.51100000000E-03 0.  1.
    9900012    2    1    2    0    0 -0.15247330558E+02 -0.25031565716E+02 -0.12556284228E+02  0.59301942782E+02  0.49999997727E+02 0.  0.
         12    1    1    2    0    0  0.15247330558E+02  0.25031565716E+02  0.12556284228E+02  0.31886057218E+02  0.00000000000E+00 0. -1.
         11    1    3    3    0    0 -0.21027951797E+02 -0.16629141171E+02 -0.15395992086E+01  0.26852811004E+02  0.51100000000E-03 0. -1.
        -11    1    3    3    0    0 -0.66028507955E+01 -0.15017215056E+02 -0.70870898270E+01  0.17870121128E+02  0.51100000000E-03 0.  1.
         12    1    3    3    0    0  0.12383472034E+02  0.66147905110E+01 -0.39295951928E+01  0.14579010649E+02  0.00000000000E+00 0. -1.
</event>
<event>
 7    1  0.3220798E-013  0.5930194E+02  0.7816164E-02  0.1266605E+00
        -11   -1    0    0    0    0  0.00000000000E+00  0.00000000000E+00  0.45593999997E+02  0.45594000000E+02  0.51100000000E-03 0. -1.
         11   -1    0    0    0    0 -0.00000000000E+00 -0.00000000000E+00 -0.45593999997E+02  0.45594000000E+02  0.51100000000E-03 0.  1.
    9900012    2    1    2    0    0  0.23854483878E+02 -0.83129067245E+01 -0.19457128243E+02  0.59301942565E+02  0.49999997332E+02 0.  0.
         12    1    1    2    0    0 -0.23854483878E+02  0.83129067245E+01  0.19457128243E+02  0.31886057435E+02  0.00000000000E+00 0. -1.
         11    1    3    3    0    0  0.32312320883E+01  0.83862666313E+01  0.12330786020E+02  0.15258394835E+02  0.51100000000E-03 0. -1.
        -11    1    3    3    0    0  0.85701280291E+01 -0.16200989552E+02 -0.17459485561E+02  0.25313095291E+02  0.51100000000E-03 0.  1.
        -12    1    3    3    0    0  0.12053123760E+02 -0.49818380334E+00 -0.14328428702E+02  0.18730452439E+02  0.00000000000E+00 0.  1.
</event>
<event>
 7    1  0.3220798E-013  0.5930193E+02  0.7816164E-02  0.1266605E+00
        -11   -1    0    0    0    0  0.00000000000E+00  0.00000000000E+00  0.45593999997E+02  0.45594000000E+02  0.51100000000E-03 0.  1.
         11   -1    0    0    0    0 -0.00000000000E+00 -0.00000000000E+00 -0.45593999997E+02  0.45594000000E+02  0.51100000000E-03 0. -1.
    9900012    2    1    2    0    0  0.98894519713E+00 -0.15929629991E+02  0.27604173297E+02  0.59301929254E+02  0.49999973055E+02 0.  0.
         12    1    1    2    0    0 -0.98894519713E+00  0.15929629991E+02 -0.27604173297E+02  0.31886070746E+02  0.00000000000E+00 0. -1.
         11    1    3    3    0    0  0.39599219254E+01 -0.11080129019E+02 -0.57536391056E+01  0.13097885476E+02  0.51100000000E-03 0.  1.
        -11    1    3    3    0    0 -0.50692054064E+01  0.24600373663E+01 -0.47347575460E+01  0.73597932428E+01  0.51100000000E-03 0. -1.
        -12    1    3    3    0    0  0.20982286781E+01 -0.73095383380E+01  0.38092569949E+02  0.38844250535E+02  0.00000000000E+00 0.  1.
</event>
<event>
 7    1  0.3220798E-013  0.5930195E+02  0.7816164E-02  0.1266605E+00
        -11   -1    0    0    0    0  0.00000000000E+00  0.00000000000E+00  0.45593999997E+02  0.45594000000E+02  0.51100000000E-03 0.  1.
         11   -1    0    0    0    0 -0.00000000000E+00 -0.00000000000E+00 -0.45593999997E+02  0.45594000000E+02  0.51100000000E-03 0. -1.
    9900012    2    1    2    0    0  0.10981528838E+02  0.29365931237E+02  0.58110418320E+01  0.59301951324E+02  0.50000013306E+02 0.  0.
         12    1    1    2    0    0 -0.10981528838E+02 -0.29365931237E+02 -0.58110418320E+01  0.31886048676E+02  0.00000000000E+00 0. -1.
         11    1    3    3    0    0  0.77998919631E+01  0.30487515945E+01  0.90034756616E+01  0.12296169126E+02  0.51100000000E-03 0. -1.
        -11    1    3    3    0    0  0.64092206902E+01  0.30506218793E+02  0.10045336706E+02  0.32750821130E+02  0.51100000000E-03 0.  1.
         12    1    3    3    0    0 -0.32275838152E+01 -0.41890391510E+01 -0.13237770535E+02  0.14254961067E+02  0.00000000000E+00 0. -1.
</event>
<event>
 7    1  0.3220798E-013  0.5930195E+02  0.7816164E-02  0.1266605E+00
        -11   -1    0    0    0    0  0.00000000000E+00  0.00000000000E+00  0.45593999997E+02  0.45594000000E+02  0.51100000000E-03 0. -1.
         11   -1    0    0    0    0 -0.00000000000E+00 -0.00000000000E+00 -0.45593999997E+02  0.45594000000E+02  0.51100000000E-03 0.  1.
    9900012    2    1    2    0    0  0.11255470661E+02 -0.28759186503E+02 -0.79337195048E+01  0.59301947668E+02  0.50000006639E+02 0.  0.
         12    1    1    2    0    0 -0.11255470661E+02  0.28759186503E+02  0.79337195048E+01  0.31886052332E+02  0.00000000000E+00 0. -1.
         11    1    3    3    0    0  0.97902619646E+01 -0.13218766371E+02  0.14868229542E+02  0.22173165397E+02  0.51100000000E-03 0. -1.
        -11    1    3    3    0    0 -0.77133445331E+00 -0.98265857063E+01  0.32384932109E+01  0.10375190698E+02  0.51100000000E-03 0.  1.
        -12    1    3    3    0    0  0.22365431498E+01 -0.57138344253E+01 -0.26040442258E+02  0.26753591574E+02  0.00000000000E+00 0.  1.
</event>
<event>
 7    1  0.3220798E-013  0.5930194E+02  0.7816164E-02  0.1266605E+00
        -11   -1    0    0    0    0  0.00000000000E+00  0.00000000000E+00  0.45593999997E+02  0.45594000000E+02  0.51100000000E-03 0.  1.
         11   -1    0    0    0    0 -0.00000000000E+00 -0.00000000000E+00 -0.45593999997E+02  0.45594000000E+02  0.51100000000E-03 0. -1.
    9900012    2    1    2    0    0  0.31280787040E+02 -0.12830184856E+01 -0.60487221107E+01  0.59301940139E+02  0.49999992908E+02 0.  0.
         12    1    1    2    0    0 -0.31280787040E+02  0.12830184856E+01  0.60487221107E+01  0.31886059861E+02  0.00000000000E+00 0. -1.
         11    1    3    3    0    0 -0.90141464741E+01  0.10767119818E+02 -0.54157341695E+01  0.15050444601E+02  0.51100000000E-03 0.  1.
        -11    1    3    3    0    0  0.19036395883E+02 -0.12568689499E+02  0.16134335146E+01  0.22868307588E+02  0.51100000000E-03 0. -1.
        -12    1    3    3    0    0  0.21258537631E+02  0.51855119538E+00 -0.22464214558E+01  0.21383187950E+02  0.00000000000E+00 0.  1.
</event>
<event>
 7    1  0.3220798E-013  0.5930195E+02  0.7816164E-02  0.1266605E+00
        -11   -1    0    0    0    0  0.00000000000E+00  0.00000000000E+00  0.45593999997E+02  0.45594000000E+02  0.51100000000E-03 0. -1.
         11   -1    0    0    0    0 -0.00000000000E+00 -0.00000000000E+00 -0.45593999997E+02  0.45594000000E+02  0.51100000000E-03 0.  1.
    9900012    2    1    2    0    0  0.48209732653E+00  0.29431462012E+02 -0.12258733346E+02  0.59301954193E+02  0.50000018538E+02 0.  0.
         12    1    1    2    0    0 -0.48209732653E+00 -0.29431462012E+02  0.12258733346E+02  0.31886045807E+02  0.00000000000E+00 0. -1.
         11    1    3    3    0    0  0.82219147024E+00 -0.20160960115E+01 -0.58267697972E+01  0.62202804175E+01  0.51100000000E-03 0.  1.
        -11    1    3    3    0    0 -0.14796553472E+02 -0.20572251843E+00 -0.10357606951E+02  0.18062678052E+02  0.51100000000E-03 0. -1.
         12    1    3    3    0    0  0.14456459328E+02  0.31653280542E+02  0.39256434017E+01  0.35018995723E+02  0.00000000000E+00 0. -1.
</event>
<event>
 7    1  0.3220798E-013  0.5930197E+02  0.7816164E-02  0.1266605E+00
        -11   -1    0    0    0    0  0.00000000000E+00  0.00000000000E+00  0.45593999997E+02  0.45594000000E+02  0.51100000000E-03 0. -1.
         11   -1    0    0    0    0 -0.00000000000E+00 -0.00000000000E+00 -0.45593999997E+02  0.45594000000E+02  0.51100000000E-03 0.  1.
    9900012    2    1    2    0    0  0.15512236002E+01  0.21395367452E+02 -0.23591331638E+02  0.59301969022E+02  0.50000045584E+02 0.  0.
         12    1    1    2    0    0 -0.15512236002E+01 -0.21395367452E+02  0.23591331638E+02  0.31886030978E+02  0.00000000000E+00 0. -1.
         11    1    3    3    0    0 -0.58754697040E+01 -0.15702996765E+01  0.29604544466E+01  0.67639689612E+01  0.51100000000E-03 0. -1.
        -11    1    3    3    0    0 -0.12989624657E+02  0.10705938880E+02 -0.22936840544E+02  0.28450766781E+02  0.51100000000E-03 0.  1.
        -12    1    3    3    0    0  0.20416317961E+02  0.12259728249E+02 -0.36149455408E+01  0.24087233280E+02  0.00000000000E+00 0.  1.
</event>
<event>
 7    1  0.3220798E-013  0.5930195E+02  0.7816164E-02  0.1266605E+00
        -11   -1    0    0    0    0  0.00000000000E+00  0.00000000000E+00  0.45593999997E+02  0.45594000000E+02  0.51100000000E-03 0.  1.
         11   -1    0    0    0    0 -0.00000000000E+00 -0.00000000000E+00 -0.45593999997E+02  0.45594000000E+02  0.51100000000E-03 0. -1.
    9900012    2    1    2    0    0  0.26933088831E+02 -0.15331759746E+02  0.75010900004E+01  0.59301945335E+02  0.50000002385E+02 0.  0.
         12    1    1    2    0    0 -0.26933088831E+02  0.15331759746E+02 -0.75010900004E+01  0.31886054665E+02  0.00000000000E+00 0. -1.
         11    1    3    3    0    0  0.66269087261E+01 -0.20689958849E+02 -0.62966904478E+00  0.21734461112E+02  0.51100000000E-03 0. -1.
        -11    1    3    3    0    0  0.20706310417E+02  0.47916562633E+01 -0.70337213069E+01  0.22387150255E+02  0.51100000000E-03 0.  1.
         12    1    3    3    0    0 -0.40013031265E+00  0.56654284031E+00  0.15164480352E+02  0.15180333969E+02  0.00000000000E+00 0. -1.
</event>
<event>
 7    1  0.3220798E-013  0.5930195E+02  0.7816164E-02  0.1266605E+00
        -11   -1    0    0    0    0  0.00000000000E+00  0.00000000000E+00  0.45593999997E+02  0.45594000000E+02  0.51100000000E-03 0. -1.
         11   -1    0    0    0    0 -0.00000000000E+00 -0.00000000000E+00 -0.45593999997E+02  0.45594000000E+02  0.51100000000E-03 0.  1.
    9900012    2    1    2    0    0  0.27151995132E+02 -0.58610236707E+01 -0.15656881290E+02  0.59301947095E+02  0.50000005594E+02 0.  0.
         12    1    1    2    0    0 -0.27151995132E+02  0.58610236707E+01  0.15656881290E+02  0.31886052905E+02  0.00000000000E+00 0. -1.
         11    1    3    3    0    0 -0.11238845145E+02  0.76210495057E+00 -0.16851068555E+01  0.11389996906E+02  0.51100000000E-03 0. -1.
        -11    1    3    3    0    0  0.41771305823E+01 -0.54317085943E+01 -0.11754359305E+02  0.13605764995E+02  0.51100000000E-03 0.  1.
        -12    1    3    3    0    0  0.34213709694E+02 -0.11914200270E+01 -0.22174151299E+01  0.34306185194E+02  0.00000000000E+00 0.  1.
</event>
<event>
 7    1  0.3220798E-013  0.5930194E+02  0.7816164E-02  0.1266605E+00
        -11   -1    0    0    0    0  0.00000000000E+00  0.00000000000E+00  0.45593999997E+02  0.45594000000E+02  0.51100000000E-03 0. -1.
         11   -1    0    0    0    0 -0.00000000000E+00 -0.00000000000E+00 -0.45593999997E+02  0.45594000000E+02  0.51100000000E-03 0.  1.
    9900012    2    1    2    0    0  0.14801885739E+02 -0.12485354929E+02 -0.25332603006E+02  0.59301942166E+02  0.49999996605E+02 0.  0.
         12    1    1    2    0    0 -0.14801885739E+02  0.12485354929E+02  0.25332603006E+02  0.31886057834E+02  0.00000000000E+00 0. -1.
         11    1    3    3    0    0 -0.12890801071E+02 -0.38590759932E+01  0.36919802623E+01  0.13953348641E+02  0.51100000000E-03 0.  1.
        -11    1    3    3    0    0  0.16804193198E+02 -0.95005524716E+01 -0.65931722441E+01  0.20398806995E+02  0.51100000000E-03 0. -1.
        -12    1    3    3    0    0  0.10888493611E+02  0.87427353605E+00 -0.22431411025E+02  0.24949786530E+02  0.00000000000E+00 0.  1.
</event>
<event>
 7    1  0.3220798E-013  0.5930190E+02  0.7816164E-02  0.1266605E+00
        -11   -1    0    0    0    0  0.00000000000E+00  0.00000000000E+00  0.45593999997E+02  0.45594000000E+02  0.51100000000E-03 0.  1.
         11   -1    0    0    0    0 -0.00000000000E+00 -0.00000000000E+00 -0.45593999997E+02  0.45594000000E+02  0.51100000000E-03 0. -1.
    9900012    2    1    2    0    0  0.42092423056E+01 -0.28621603406E+02  0.13409303051E+02  0.59301900981E+02  0.49999921494E+02 0.  0.
         12    1    1    2    0    0 -0.42092423056E+01  0.28621603406E+02 -0.13409303051E+02  0.31886099019E+02  0.00000000000E+00 0. -1.
         11    1    3    3    0    0  0.14514688648E+02 -0.74537799483E+01  0.94924116257E+01  0.18876993956E+02  0.51100000000E-03 0. -1.
        -11    1    3    3    0    0 -0.15361799353E+02 -0.16388750756E+02  0.15233220231E+02  0.27140873780E+02  0.51100000000E-03 0.  1.
         12    1    3    3    0    0  0.50563530102E+01 -0.47790727016E+01 -0.11316328805E+02  0.13284033246E+02  0.00000000000E+00 0. -1.
</event>
<event>
 7    1  0.3220798E-013  0.5930196E+02  0.7816164E-02  0.1266605E+00
        -11   -1    0    0    0    0  0.00000000000E+00  0.00000000000E+00  0.45593999997E+02  0.45594000000E+02  0.51100000000E-03 0. -1.
         11   -1    0    0    0    0 -0.00000000000E+00 -0.00000000000E+00 -0.45593999997E+02  0.45594000000E+02  0.51100000000E-03 0.  1.
    9900012    2    1    2    0    0  0.20543033741E+02  0.24356994381E+02  0.11999996878E+01  0.59301962150E+02  0.50000033050E+02 0.  0.
         12    1    1    2    0    0 -0.20543033741E+02 -0.24356994381E+02 -0.11999996878E+01  0.31886037850E+02  0.00000000000E+00 0. -1.
         11    1    3    3    0    0 -0.73126861268E+01  0.23289917073E+01 -0.94387221573E+01  0.12165075297E+02  0.51100000000E-03 0. -1.
        -11    1    3    3    0    0  0.84408046014E+01  0.10940641127E+02 -0.97234099888E+01  0.16896434910E+02  0.51100000000E-03 0.  1.
         12    1    3    3    0    0  0.19414915267E+02  0.11087361546E+02  0.20362131834E+02  0.30240451942E+02  0.00000000000E+00 0. -1.
</event>
<event>
 7    1  0.3220798E-013  0.5930196E+02  0.7816164E-02  0.1266605E+00
        -11   -1    0    0    0    0  0.00000000000E+00  0.00000000000E+00  0.45593999997E+02  0.45594000000E+02  0.51100000000E-03 0. -1.
         11   -1    0    0    0    0 -0.00000000000E+00 -0.00000000000E+00 -0.45593999997E+02  0.45594000000E+02  0.51100000000E-03 0.  1.
    9900012    2    1    2    0    0 -0.70622583084E+01 -0.87920334139E+01 -0.29825226913E+02  0.59301960666E+02  0.50000030344E+02 0.  0.
         12    1    1    2    0    0  0.70622583084E+01  0.87920334139E+01  0.29825226913E+02  0.31886039334E+02  0.00000000000E+00 0. -1.
         11    1    3    3    0    0  0.41805745060E+00  0.67897455480E+01  0.39506549948E+01  0.78665806923E+01  0.51100000000E-03 0. -1.
        -11    1    3    3    0    0  0.10439511167E+02  0.40876641196E+00 -0.58157495354E+00  0.10463685444E+02  0.51100000000E-03 0.  1.
         12    1    3    3    0    0 -0.17919826926E+02 -0.15990545374E+02 -0.33194306955E+02  0.40971694530E+02  0.00000000000E+00 0. -1.
</event>
<event>
 7    1  0.3220798E-013  0.5930196E+02  0.7816164E-02  0.1266605E+00
        -11   -1    0    0    0    0  0.00000000000E+00  0.00000000000E+00  0.45593999997E+02  0.45594000000E+02  0.51100000000E-03 0.  1.
         11   -1    0    0    0    0 -0.00000000000E+00 -0.00000000000E+00 -0.45593999997E+02  0.45594000000E+02  0.51100000000E-03 0. -1.
    9900012    2    1    2    0    0 -0.42450870295E+01 -0.30821843172E+02 -0.69794664287E+01  0.59301957097E+02  0.50000023834E+02 0.  0.
         12    1    1    2    0    0  0.42450870295E+01  0.30821843172E+02  0.69794664287E+01  0.31886042903E+02  0.00000000000E+00 0. -1.
         11    1    3    3    0    0 -0.11864493852E+02 -0.20625259877E+02  0.10056122478E+02  0.25832018096E+02  0.51100000000E-03 0. -1.
        -11    1    3    3    0    0  0.50816803063E+01 -0.39651058138E+01  0.64026109113E+01  0.90850957943E+01  0.51100000000E-03 0.  1.
         12    1    3    3    0    0  0.25377265161E+01 -0.62314774814E+01 -0.23438199818E+02  0.24384843206E+02  0.00000000000E+00 0. -1.
</event>
<event>
 7    1  0.3220798E-013  0.5930187E+02  0.7816164E-02  0.1266605E+00
        -11   -1    0    0    0    0  0.00000000000E+00  0.00000000000E+00  0.45593999997E+02  0.45594000000E+02  0.51100000000E-03 0.  1.
         11   -1    0    0    0    0 -0.00000000000E+00 -0.00000000000E+00 -0.45593999997E+02  0.45594000000E+02  0.51100000000E-03 0. -1.
    9900012    2    1    2    0    0  0.27605664141E+02 -0.15926440889E+02  0.10005447670E+01  0.59301869757E+02  0.49999864548E+02 0.  0.
         12    1    1    2    0    0 -0.27605664141E+02  0.15926440889E+02 -0.10005447670E+01  0.31886130243E+02  0.00000000000E+00 0. -1.
         11    1    3    3    0    0 -0.94630399384E+01 -0.49373506461E+00  0.48935610257E+01  0.10664888136E+02  0.51100000000E-03 0. -1.
        -11    1    3    3    0    0  0.44471816285E+01 -0.15206919671E+02 -0.70997801402E+00  0.15859757229E+02  0.51100000000E-03 0.  1.
        -12    1    3    3    0    0  0.32621522451E+02 -0.22578615320E+00 -0.31830382447E+01  0.32777224392E+02  0.00000000000E+00 0.  1.
</event>
<event>
 7    1  0.3220798E-013  0.5930194E+02  0.7816164E-02  0.1266605E+00
        -11   -1    0    0    0    0  0.00000000000E+00  0.00000000000E+00  0.45593999997E+02  0.45594000000E+02  0.51100000000E-03 0.  1.
         11   -1    0    0    0    0 -0.00000000000E+00 -0.00000000000E+00 -0.45593999997E+02  0.45594000000E+02  0.51100000000E-03 0. -1.
    9900012    2    1    2    0    0 -0.18260641654E+02 -0.20273947908E+02  0.16499607499E+02  0.59301936508E+02  0.49999986285E+02 0.  0.
         12    1    1    2    0    0  0.18260641654E+02  0.20273947908E+02 -0.16499607499E+02  0.31886063492E+02  0.00000000000E+00 0. -1.
         11    1    3    3    0    0  0.23385041498E+01 -0.11430392575E+02  0.20511716864E+02  0.23597733049E+02  0.51100000000E-03 0. -1.
        -11    1    3    3    0    0 -0.16242755902E+02 -0.17988278252E+02 -0.68480464252E+01  0.25185333309E+02  0.51100000000E-03 0.  1.
        -12    1    3    3    0    0 -0.43563899016E+01  0.91447229184E+01  0.28359370607E+01  0.10518870150E+02  0.00000000000E+00 0.  1.
</event>
<event>
 7    1  0.3773638E-013  0.5930195E+02  0.7816164E-02  0.1266605E+00
        -11   -1    0    0    0    0  0.00000000000E+00  0.00000000000E+00  0.45593999997E+02  0.45594000000E+02  0.51100000000E-03 0. -1.
         11   -1    0    0    0    0 -0.00000000000E+00 -0.00000000000E+00 -0.45593999997E+02  0.45594000000E+02  0.51100000000E-03 0.  1.
    9900012    2    1    2    0    0  0.21420392008E+02  0.14313274986E+02 -0.18788754790E+02  0.59301947545E+02  0.50000006416E+02 0.  0.
         12    1    1    2    0    0 -0.21420392008E+02 -0.14313274986E+02  0.18788754790E+02  0.31886052455E+02  0.00000000000E+00 0. -1.
         11    1    3    3    0    0  0.81432934432E+01  0.11364843404E+02  0.50706520676E+01  0.14872269711E+02  0.51100000000E-03 0. -1.
        -11    1    3    3    0    0  0.21231509337E+02  0.12446121169E+02 -0.12418540359E+02  0.27566339361E+02  0.51100000000E-03 0.  1.
         12    1    3    3    0    0 -0.79544107729E+01 -0.94976895867E+01 -0.11440866499E+02  0.16863338473E+02  0.00000000000E+00 0. -1.
</event>
<event>
 7    1  0.3220798E-013  0.5930218E+02  0.7816164E-02  0.1266604E+00
        -11   -1    0    0    0    0  0.00000000000E+00  0.00000000000E+00  0.45593999997E+02  0.45594000000E+02  0.51100000000E-03 0. -1.
         11   -1    0    0    0    0 -0.00000000000E+00 -0.00000000000E+00 -0.45593999997E+02  0.45594000000E+02  0.51100000000E-03 0.  1.
    9900012    2    1    2    0    0  0.27490836826E+02  0.11560476614E+02 -0.11283373861E+02  0.59302184116E+02  0.50000437861E+02 0.  0.
         12    1    1    2    0    0 -0.27490836826E+02 -0.11560476614E+02  0.11283373861E+02  0.31885815884E+02  0.00000000000E+00 0. -1.
         11    1    3    3    0    0  0.28541777709E+02 -0.57623914667E+01  0.42774500118E+01  0.29430168349E+02  0.51100000000E-03 0. -1.
        -11    1    3    3    0    0  0.82148343259E+01  0.49891908252E+01 -0.32843453557E+01  0.10156891885E+02  0.51100000000E-03 0.  1.
        -12    1    3    3    0    0 -0.92657752090E+01  0.12333677255E+02 -0.12276478517E+02  0.19715123881E+02  0.00000000000E+00 0.  1.
</event>
<event>
 7    1  0.3220798E-013  0.5930195E+02  0.7816164E-02  0.1266605E+00
        -11   -1    0    0    0    0  0.00000000000E+00  0.00000000000E+00  0.45593999997E+02  0.45594000000E+02  0.51100000000E-03 0. -1.
         11   -1    0    0    0    0 -0.00000000000E+00 -0.00000000000E+00 -0.45593999997E+02  0.45594000000E+02  0.51100000000E-03 0.  1.
    9900012    2    1    2    0    0  0.23210327571E+02 -0.21758497397E+02 -0.21374765734E+01  0.59301947861E+02  0.50000006991E+02 0.  0.
         12    1    1    2    0    0 -0.23210327571E+02  0.21758497397E+02  0.21374765734E+01  0.31886052139E+02  0.00000000000E+00 0. -1.
         11    1    3    3    0    0  0.89201489557E+01 -0.10641622420E+02  0.97831117244E+00  0.13920139300E+02  0.51100000000E-03 0. -1.
        -11    1    3    3    0    0 -0.86385720144E+01 -0.19126426820E+02 -0.13400249706E+01  0.21029522024E+02  0.51100000000E-03 0.  1.
         12    1    3    3    0    0  0.22928750629E+02  0.80095518440E+01 -0.17757627752E+01  0.24352286537E+02  0.00000000000E+00 0. -1.
</event>
<event>
 7    1  0.3220798E-013  0.5930207E+02  0.7816164E-02  0.1266604E+00
        -11   -1    0    0    0    0  0.00000000000E+00  0.00000000000E+00  0.45593999997E+02  0.45594000000E+02  0.51100000000E-03 0. -1.
         11   -1    0    0    0    0 -0.00000000000E+00 -0.00000000000E+00 -0.45593999997E+02  0.45594000000E+02  0.51100000000E-03 0.  1.
    9900012    2    1    2    0    0 -0.21902026479E+02 -0.92731073163E+01 -0.21237302824E+02  0.59302073411E+02  0.50000235963E+02 0.  0.
         12    1    1    2    0    0  0.21902026479E+02  0.92731073163E+01  0.21237302824E+02  0.31885926589E+02  0.00000000000E+00 0. -1.
         11    1    3    3    0    0 -0.71573570673E+01 -0.29096779938E+01 -0.18994511092E+02  0.20505741589E+02  0.51100000000E-03 0. -1.
        -11    1    3    3    0    0 -0.10994786661E+02  0.21368941128E+01 -0.17591620404E+02  0.20854657966E+02  0.51100000000E-03 0.  1.
         12    1    3    3    0    0 -0.37498827511E+01 -0.85003234353E+01  0.15348828672E+02  0.17941673856E+02  0.00000000000E+00 0. -1.
</event>
<event>
 7    1  0.3220798E-013  0.5930194E+02  0.7816164E-02  0.1266605E+00
        -11   -1    0    0    0    0  0.00000000000E+00  0.00000000000E+00  0.45593999997E+02  0.45594000000E+02  0.51100000000E-03 0.  1.
         11   -1    0    0    0    0 -0.00000000000E+00 -0.00000000000E+00 -0.45593999997E+02  0.45594000000E+02  0.51100000000E-03 0. -1.
    9900012    2    1    2    0    0  0.27160179377E+02  0.60402951903E+01  0.15574348880E+02  0.59301939522E+02  0.49999991782E+02 0.  0.
         12    1    1    2    0    0 -0.27160179377E+02 -0.60402951903E+01 -0.15574348880E+02  0.31886060478E+02  0.00000000000E+00 0. -1.
         11    1    3    3    0    0  0.68646238119E+01 -0.11593104860E+02  0.21572902609E+01  0.13644670825E+02  0.51100000000E-03 0. -1.
        -11    1    3    3    0    0  0.16401959701E+02 -0.63502373306E+01  0.12051919005E+02  0.21321316754E+02  0.51100000000E-03 0.  1.
         12    1    3    3    0    0  0.38935958646E+01  0.23983637381E+02  0.13651396142E+01  0.24335951943E+02  0.00000000000E+00 0. -1.
</event>
<event>
 7    1  0.6177255E-013  0.5930193E+02  0.7816164E-02  0.1266605E+00
        -11   -1    0    0    0    0  0.00000000000E+00  0.00000000000E+00  0.45593999997E+02  0.45594000000E+02  0.51100000000E-03 0. -1.
         11   -1    0    0    0    0 -0.00000000000E+00 -0.00000000000E+00 -0.45593999997E+02  0.45594000000E+02  0.51100000000E-03 0.  1.
    9900012    2    1    2    0    0  0.13997640092E+02 -0.23232180658E+02 -0.16764641553E+02  0.59301931684E+02  0.49999977487E+02 0.  0.
         12    1    1    2    0    0 -0.13997640092E+02  0.23232180658E+02  0.16764641553E+02  0.31886068316E+02  0.00000000000E+00 0. -1.
         11    1    3    3    0    0 -0.33583663390E+01 -0.85129102161E+01  0.59619127616E+01  0.10922118332E+02  0.51100000000E-03 0. -1.
        -11    1    3    3    0    0 -0.31276925897E+01 -0.15663624474E+02 -0.22843589468E+02  0.27874023259E+02  0.51100000000E-03 0.  1.
         12    1    3    3    0    0  0.20483699021E+02  0.94435403238E+00  0.11703515267E+00  0.20505790093E+02  0.00000000000E+00 0. -1.
</event>
<event>
 7    1  0.3220798E-013  0.5930194E+02  0.7816164E-02  0.1266605E+00
        -11   -1    0    0    0    0  0.00000000000E+00  0.00000000000E+00  0.45593999997E+02  0.45594000000E+02  0.51100000000E-03 0.  1.
         11   -1    0    0    0    0 -0.00000000000E+00 -0.00000000000E+00 -0.45593999997E+02  0.45594000000E+02  0.51100000000E-03 0. -1.
    9900012    2    1    2    0    0 -0.20036124106E+02 -0.14993463992E+02 -0.19760328276E+02  0.59301940268E+02  0.49999993144E+02 0.  0.
         12    1    1    2    0    0  0.20036124106E+02  0.14993463992E+02  0.19760328276E+02  0.31886059732E+02  0.00000000000E+00 0. -1.
         11    1    3    3    0    0 -0.17234950584E+02 -0.12007838108E+02 -0.12898119277E+02  0.24649405243E+02  0.51100000000E-03 0. -1.
        -11    1    3    3    0    0 -0.58012699977E+01 -0.17103499518E+02  0.12358435657E+01  0.18102810249E+02  0.51100000000E-03 0.  1.
         12    1    3    3    0    0  0.30000964762E+01  0.14117873635E+02 -0.80980525640E+01  0.16549724776E+02  0.00000000000E+00 0. -1.
</event>
<event>
 7    1  0.3220798E-013  0.5930206E+02  0.7816164E-02  0.1266604E+00
        -11   -1    0    0    0    0  0.00000000000E+00  0.00000000000E+00  0.45593999997E+02  0.45594000000E+02  0.51100000000E-03 0.  1.
         11   -1    0    0    0    0 -0.00000000000E+00 -0.00000000000E+00 -0.45593999997E+02  0.45594000000E+02  0.51100000000E-03 0. -1.
    9900012    2    1    2    0    0 -0.22280238424E+02  0.15476516912E+02  0.16756535885E+02  0.59302061174E+02  0.50000213647E+02 0.  0.
         12    1    1    2    0    0  0.22280238424E+02 -0.15476516912E+02 -0.16756535885E+02  0.31885938826E+02  0.00000000000E+00 0. -1.
         11    1    3    3    0    0 -0.92049610819E+01  0.37483239964E+00 -0.14126402176E+02  0.16864965062E+02  0.51100000000E-03 0. -1.
        -11    1    3    3    0    0  0.36234768900E+01  0.47073740395E+00 -0.80883159161E+00  0.37423772232E+01  0.51100000000E-03 0.  1.
        -12    1    3    3    0    0 -0.16698754232E+02  0.14630947108E+02  0.31691769653E+02  0.38694718889E+02  0.00000000000E+00 0.  1.
</event>
<event>
 7    1  0.3220798E-013  0.5930211E+02  0.7816164E-02  0.1266604E+00
        -11   -1    0    0    0    0  0.00000000000E+00  0.00000000000E+00  0.45593999997E+02  0.45594000000E+02  0.51100000000E-03 0.  1.
         11   -1    0    0    0    0 -0.00000000000E+00 -0.00000000000E+00 -0.45593999997E+02  0.45594000000E+02  0.51100000000E-03 0. -1.
    9900012    2    1    2    0    0  0.30914595068E+02  0.53245860906E+01  0.57137213126E+01  0.59302109445E+02  0.50000301680E+02 0.  0.
         12    1    1    2    0    0 -0.30914595068E+02 -0.53245860906E+01 -0.57137213126E+01  0.31885890555E+02  0.00000000000E+00 0. -1.
         11    1    3    3    0    0 -0.78804124097E+01  0.35161401186E+01  0.21091741046E+00  0.86318380138E+01  0.51100000000E-03 0. -1.
        -11    1    3    3    0    0  0.51632289325E+01  0.11076419505E+02  0.96062883064E+01  0.15544348727E+02  0.51100000000E-03 0.  1.
        -12    1    3    3    0    0  0.33631778546E+02 -0.92679735327E+01 -0.41034844043E+01  0.35125922704E+02  0.00000000000E+00 0.  1.
</event>
<event>
 7    1  0.3220798E-013  0.5930192E+02  0.7816164E-02  0.1266605E+00
        -11   -1    0    0    0    0  0.00000000000E+00  0.00000000000E+00  0.45593999997E+02  0.45594000000E+02  0.51100000000E-03 0.  1.
         11   -1    0    0    0    0 -0.00000000000E+00 -0.00000000000E+00 -0.45593999997E+02  0.45594000000E+02  0.51100000000E-03 0. -1.
    9900012    2    1    2    0    0 -0.29215764365E+02  0.10730686453E+02  0.69291850405E+01  0.59301919580E+02  0.49999955414E+02 0.  0.
         12    1    1    2    0    0  0.29215764365E+02 -0.10730686453E+02 -0.69291850405E+01  0.31886080420E+02  0.00000000000E+00 0. -1.
         11    1    3    3    0    0  0.13057674470E+01  0.10323487343E+01  0.15841493348E+02  0.15928706297E+02  0.51100000000E-03 0. -1.
        -11    1    3    3    0    0 -0.22290072756E+02  0.28533728719E+01  0.75756518253E+01  0.23714543661E+02  0.51100000000E-03 0.  1.
         12    1    3    3    0    0 -0.82314590558E+01  0.68449648469E+01 -0.16487960133E+02  0.19658669622E+02  0.00000000000E+00 0. -1.
</event>
<event>
 7    1  0.3220798E-013  0.5930189E+02  0.7816164E-02  0.1266605E+00
        -11   -1    0    0    0    0  0.00000000000E+00  0.00000000000E+00  0.45593999997E+02  0.45594000000E+02  0.51100000000E-03 0. -1.
         11   -1    0    0    0    0 -0.00000000000E+00 -0.00000000000E+00 -0.45593999997E+02  0.45594000000E+02  0.51100000000E-03 0.  1.
    9900012    2    1    2    0    0 -0.21086698877E+02 -0.97365761780E+01 -0.21846611611E+02  0.59301886658E+02  0.49999895372E+02 0.  0.
         12    1    1    2    0    0  0.21086698877E+02  0.97365761780E+01  0.21846611611E+02  0.31886113342E+02  0.00000000000E+00 0. -1.
         11    1    3    3    0    0  0.38408672000E+01  0.37400205829E+01  0.78197184438E+01  0.94809288369E+01  0.51100000000E-03 0. -1.
        -11    1    3    3    0    0  0.34040606523E+00  0.68452527143E+01 -0.18509257389E+01  0.70992455489E+01  0.51100000000E-03 0.  1.
        -12    1    3    3    0    0 -0.25267972142E+02 -0.20321849475E+02 -0.27815404315E+02  0.42721712272E+02  0.00000000000E+00 0.  1.
</event>
<event>
 7    1  0.3220798E-013  0.5930200E+02  0.7816164E-02  0.1266605E+00
        -11   -1    0    0    0    0  0.00000000000E+00  0.00000000000E+00  0.45593999997E+02  0.45594000000E+02  0.51100000000E-03 0. -1.
         11   -1    0    0    0    0 -0.00000000000E+00 -0.00000000000E+00 -0.45593999997E+02  0.45594000000E+02  0.51100000000E-03 0.  1.
    9900012    2    1    2    0    0  0.18398508055E+02  0.55732088112E+01 -0.25439166676E+02  0.59302000623E+02  0.50000103216E+02 0.  0.
         12    1    1    2    0    0 -0.18398508055E+02 -0.55732088112E+01  0.25439166676E+02  0.31885999377E+02  0.00000000000E+00 0. -1.
         11    1    3    3    0    0  0.29376167873E+02 -0.43887484533E+01 -0.19895381793E+02  0.35749777186E+02  0.51100000000E-03 0. -1.
        -11    1    3    3    0    0  0.35575364002E+01  0.71637507131E+01 -0.29468957051E+01  0.85240591315E+01  0.51100000000E-03 0.  1.
        -12    1    3    3    0    0 -0.14535196218E+02  0.27982065514E+01 -0.25968891776E+01  0.15028164306E+02  0.00000000000E+00 0.  1.
</event>
<event>
 7    1  0.3220798E-013  0.5930194E+02  0.7816164E-02  0.1266605E+00
        -11   -1    0    0    0    0  0.00000000000E+00  0.00000000000E+00  0.45593999997E+02  0.45594000000E+02  0.51100000000E-03 0.  1.
         11   -1    0    0    0    0 -0.00000000000E+00 -0.00000000000E+00 -0.45593999997E+02  0.45594000000E+02  0.51100000000E-03 0. -1.
    9900012    2    1    2    0    0 -0.87776793507E+01  0.11778721645E+02  0.28300788123E+02  0.59301944321E+02  0.50000000535E+02 0.  0.
         12    1    1    2    0    0  0.87776793507E+01 -0.11778721645E+02 -0.28300788123E+02  0.31886055679E+02  0.00000000000E+00 0. -1.
         11    1    3    3    0    0  0.12084122477E+02 -0.12221105142E+01  0.38111187829E+01  0.12729658156E+02  0.51100000000E-03 0. -1.
        -11    1    3    3    0    0  0.74666000736E+01  0.73327831064E+01  0.89379569327E+01  0.13762517907E+02  0.51100000000E-03 0.  1.
         12    1    3    3    0    0 -0.28328401901E+02  0.56680490526E+01  0.15551712407E+02  0.32809768258E+02  0.00000000000E+00 0. -1.
</event>
<event>
 7    1  0.3220798E-013  0.5930193E+02  0.7816164E-02  0.1266605E+00
        -11   -1    0    0    0    0  0.00000000000E+00  0.00000000000E+00  0.45593999997E+02  0.45594000000E+02  0.51100000000E-03 0.  1.
         11   -1    0    0    0    0 -0.00000000000E+00 -0.00000000000E+00 -0.45593999997E+02  0.45594000000E+02  0.51100000000E-03 0. -1.
    9900012    2    1    2    0    0  0.25249589019E+02  0.74353626245E+01  0.17997094195E+02  0.59301925258E+02  0.49999965768E+02 0.  0.
         12    1    1    2    0    0 -0.25249589019E+02 -0.74353626245E+01 -0.17997094195E+02  0.31886074742E+02  0.00000000000E+00 0. -1.
         11    1    3    3    0    0  0.14399527645E+02 -0.59662124906E+01  0.22620764948E+02  0.27470731606E+02  0.51100000000E-03 0. -1.
        -11    1    3    3    0    0 -0.66972690690E+01  0.36038391651E+00  0.45679830030E+01  0.81147864128E+01  0.51100000000E-03 0.  1.
         12    1    3    3    0    0  0.17547330443E+02  0.13041191199E+02 -0.91916537559E+01  0.23716407239E+02  0.00000000000E+00 0. -1.
</event>
<event>
 7    1  0.3220798E-013  0.5930195E+02  0.7816164E-02  0.1266605E+00
        -11   -1    0    0    0    0  0.00000000000E+00  0.00000000000E+00  0.45593999997E+02  0.45594000000E+02  0.51100000000E-03 0.  1.
         11   -1    0    0    0    0 -0.00000000000E+00 -0.00000000000E+00 -0.45593999997E+02  0.45594000000E+02  0.51100000000E-03 0. -1.
    9900012    2    1    2    0    0  0.18663862679E+00 -0.50928400621E+01  0.31476155774E+02  0.59301949192E+02  0.50000009418E+02 0.  0.
         12    1    1    2    0    0 -0.18663862679E+00  0.50928400621E+01 -0.31476155774E+02  0.31886050808E+02  0.00000000000E+00 0. -1.
         11    1    3    3    0    0 -0.75081664299E+01  0.55992560130E+00 -0.17384877593E+01  0.77271223472E+01  0.51100000000E-03 0. -1.
        -11    1    3    3    0    0  0.14790790108E+02 -0.17738789912E+02  0.11681071218E+02  0.25882031694E+02  0.51100000000E-03 0.  1.
         12    1    3    3    0    0 -0.70959850517E+01  0.12086024248E+02  0.21533572315E+02  0.25692795150E+02  0.00000000000E+00 0. -1.
</event>
<event>
 7    1  0.3220798E-013  0.5930193E+02  0.7816164E-02  0.1266605E+00
        -11   -1    0    0    0    0  0.00000000000E+00  0.00000000000E+00  0.45593999997E+02  0.45594000000E+02  0.51100000000E-03 0. -1.
         11   -1    0    0    0    0 -0.00000000000E+00 -0.00000000000E+00 -0.45593999997E+02  0.45594000000E+02  0.51100000000E-03 0.  1.
    9900012    2    1    2    0    0 -0.27183944148E+02  0.14705525500E+02  0.78423411371E+01  0.59301927583E+02  0.49999970008E+02 0.  0.
         12    1    1    2    0    0  0.27183944148E+02 -0.14705525500E+02 -0.78423411371E+01  0.31886072417E+02  0.00000000000E+00 0. -1.
         11    1    3    3    0    0 -0.11291652297E+02 -0.13562705925E+02 -0.10796773511E+01  0.17680896670E+02  0.51100000000E-03 0. -1.
        -11    1    3    3    0    0 -0.47672305637E+01 -0.40705076358E+01 -0.34850828752E-01  0.62687107528E+01  0.51100000000E-03 0.  1.
        -12    1    3    3    0    0 -0.11125061288E+02  0.32338739061E+02  0.89568693170E+01  0.35352320160E+02  0.00000000000E+00 0.  1.
</event>
<event>
 7    1  0.3220798E-013  0.5930195E+02  0.7816164E-02  0.1266605E+00
        -11   -1    0    0    0    0  0.00000000000E+00  0.00000000000E+00  0.45593999997E+02  0.45594000000E+02  0.51100000000E-03 0.  1.
         11   -1    0    0    0    0 -0.00000000000E+00 -0.00000000000E+00 -0.45593999997E+02  0.45594000000E+02  0.51100000000E-03 0. -1.
    9900012    2    1    2    0    0 -0.87112949745E+01  0.26491837503E+02  0.15460140958E+02  0.59301951752E+02  0.50000014088E+02 0.  0.
         12    1    1    2    0    0  0.87112949745E+01 -0.26491837503E+02 -0.15460140958E+02  0.31886048248E+02  0.00000000000E+00 0. -1.
         11    1    3    3    0    0 -0.13383848514E+02  0.16428853927E+02  0.54491715594E+01  0.21879856337E+02  0.51100000000E-03 0. -1.
        -11    1    3    3    0    0 -0.41600920288E+01  0.18166418244E+02  0.15498500142E+02  0.24238989756E+02  0.51100000000E-03 0.  1.
         12    1    3    3    0    0  0.88326455685E+01 -0.81034346674E+01 -0.54875307434E+01  0.13183105659E+02  0.00000000000E+00 0. -1.
</event>
<event>
 7    1  0.3220798E-013  0.5930202E+02  0.7816164E-02  0.1266604E+00
        -11   -1    0    0    0    0  0.00000000000E+00  0.00000000000E+00  0.45593999997E+02  0.45594000000E+02  0.51100000000E-03 0. -1.
         11   -1    0    0    0    0 -0.00000000000E+00 -0.00000000000E+00 -0.45593999997E+02  0.45594000000E+02  0.51100000000E-03 0.  1.
    9900012    2    1    2    0    0 -0.13129397593E+02 -0.12599376501E+02 -0.26183774902E+02  0.59302024439E+02  0.50000146651E+02 0.  0.
         12    1    1    2    0    0  0.13129397593E+02  0.12599376501E+02  0.26183774902E+02  0.31885975561E+02  0.00000000000E+00 0. -1.
         11    1    3    3    0    0 -0.13205198953E+02 -0.97763493810E+00  0.75346257180E+01  0.15234947798E+02  0.51100000000E-03 0. -1.
        -11    1    3    3    0    0 -0.23886667325E+01 -0.94137093928E+01  0.46570600121E+00  0.97231957520E+01  0.51100000000E-03 0.  1.
        -12    1    3    3    0    0  0.24644680925E+01 -0.22080321700E+01 -0.34184106621E+02  0.34343880889E+02  0.00000000000E+00 0.  1.
</event>
<event>
 7    1  0.3220798E-013  0.5930194E+02  0.7816164E-02  0.1266605E+00
        -11   -1    0    0    0    0  0.00000000000E+00  0.00000000000E+00  0.45593999997E+02  0.45594000000E+02  0.51100000000E-03 0.  1.
         11   -1    0    0    0    0 -0.00000000000E+00 -0.00000000000E+00 -0.45593999997E+02  0.45594000000E+02  0.51100000000E-03 0. -1.
    9900012    2    1    2    0    0  0.28599283735E+02  0.13108012536E+02 -0.51943857975E+01  0.59301942442E+02  0.49999997108E+02 0.  0.
         12    1    1    2    0    0 -0.28599283735E+02 -0.13108012536E+02  0.51943857975E+01  0.31886057558E+02  0.00000000000E+00 0. -1.
         11    1    3    3    0    0  0.29506691553E+01  0.69532555231E+01 -0.40168025719E+01  0.85550519576E+01  0.51100000000E-03 0. -1.
        -11    1    3    3    0    0 -0.77447243007E+01  0.34401299623E+01  0.12045941267E+02  0.14728202535E+02  0.51100000000E-03 0.  1.
         12    1    3    3    0    0  0.33393338880E+02  0.27146270509E+01 -0.13223524492E+02  0.36018687949E+02  0.00000000000E+00 0. -1.
</event>
<event>
 7    1  0.3220798E-013  0.5930196E+02  0.7816164E-02  0.1266605E+00
        -11   -1    0    0    0    0  0.00000000000E+00  0.00000000000E+00  0.45593999997E+02  0.45594000000E+02  0.51100000000E-03 0.  1.
         11   -1    0    0    0    0 -0.00000000000E+00 -0.00000000000E+00 -0.45593999997E+02  0.45594000000E+02  0.51100000000E-03 0. -1.
    9900012    2    1    2    0    0  0.19952673513E+02 -0.24856828727E+02  0.86520327765E+00  0.59301957734E+02  0.50000024998E+02 0.  0.
         12    1    1    2    0    0 -0.19952673513E+02  0.24856828727E+02 -0.86520327765E+00  0.31886042266E+02  0.00000000000E+00 0. -1.
         11    1    3    3    0    0  0.73443893050E+01  0.71057900513E+01 -0.13762457336E+01  0.10311467359E+02  0.51100000000E-03 0. -1.
        -11    1    3    3    0    0 -0.11534141167E+02 -0.59089613444E+01  0.35817943738E+01  0.13445500653E+02  0.51100000000E-03 0.  1.
         12    1    3    3    0    0  0.24142425375E+02 -0.26053657433E+02 -0.13403453625E+01  0.35544989722E+02  0.00000000000E+00 0. -1.
</event>
<event>
 7    1  0.3220798E-013  0.5930194E+02  0.7816164E-02  0.1266605E+00
        -11   -1    0    0    0    0  0.00000000000E+00  0.00000000000E+00  0.45593999997E+02  0.45594000000E+02  0.51100000000E-03 0. -1.
         11   -1    0    0    0    0 -0.00000000000E+00 -0.00000000000E+00 -0.45593999997E+02  0.45594000000E+02  0.51100000000E-03 0.  1.
    9900012    2    1    2    0    0  0.75669458874E+00  0.31163365890E+02 -0.67076483202E+01  0.59301944956E+02  0.50000001693E+02 0.  0.
         12    1    1    2    0    0 -0.75669458874E+00 -0.31163365890E+02  0.67076483202E+01  0.31886055044E+02  0.00000000000E+00 0. -1.
         11    1    3    3    0    0 -0.82092069248E+01  0.48602494696E+01 -0.69308159712E+01  0.11791917297E+02  0.51100000000E-03 0. -1.
        -11    1    3    3    0    0  0.15613576170E+02  0.15173394332E+02 -0.15798827945E+02  0.26900160242E+02  0.51100000000E-03 0.  1.
        -12    1    3    3    0    0 -0.66476746560E+01  0.11129722088E+02  0.16021995596E+02  0.20609867417E+02  0.00000000000E+00 0.  1.
</event>
<event>
 7    1  0.3220798E-013  0.5930191E+02  0.7816164E-02  0.1266605E+00
        -11   -1    0    0    0    0  0.00000000000E+00  0.00000000000E+00  0.45593999997E+02  0.45594000000E+02  0.51100000000E-03 0.  1.
         11   -1    0    0    0    0 -0.00000000000E+00 -0.00000000000E+00 -0.45593999997E+02  0.45594000000E+02  0.51100000000E-03 0. -1.
    9900012    2    1    2    0    0 -0.22618743186E+02  0.22280890821E+02 -0.29456506457E+01  0.59301913742E+02  0.49999944766E+02 0.  0.
         12    1    1    2    0    0  0.22618743186E+02 -0.22280890821E+02  0.29456506457E+01  0.31886086258E+02  0.00000000000E+00 0. -1.
         11    1    3    3    0    0 -0.16000719045E+02 -0.46374694787E+01  0.17351409812E+01  0.16749323795E+02  0.51100000000E-03 0. -1.
        -11    1    3    3    0    0 -0.11826025644E+02  0.31564714830E+02 -0.82661752824E+01  0.34706134312E+02  0.51100000000E-03 0.  1.
         12    1    3    3    0    0  0.52080015028E+01 -0.46463545300E+01  0.35853836555E+01  0.78464556348E+01  0.00000000000E+00 0. -1.
</event>
<event>
 7    1  0.3220798E-013  0.5930197E+02  0.7816164E-02  0.1266605E+00
        -11   -1    0    0    0    0  0.00000000000E+00  0.00000000000E+00  0.45593999997E+02  0.45594000000E+02  0.51100000000E-03 0.  1.
         11   -1    0    0    0    0 -0.00000000000E+00 -0.00000000000E+00 -0.45593999997E+02  0.45594000000E+02  0.51100000000E-03 0. -1.
    9900012    2    1    2    0    0  0.30548923625E+02 -0.34147839553E+01  0.84747499999E+01  0.59301970588E+02  0.50000048439E+02 0.  0.
         12    1    1    2    0    0 -0.30548923625E+02  0.34147839553E+01 -0.84747499999E+01  0.31886029412E+02  0.00000000000E+00 0. -1.
         11    1    3    3    0    0  0.55882412790E+01  0.60932923032E+01  0.74474126046E+01  0.11127470802E+02  0.51100000000E-03 0. -1.
        -11    1    3    3    0    0  0.10550729276E+02  0.66691023065E+01  0.17120042071E+02  0.21187039779E+02  0.51100000000E-03 0.  1.
         12    1    3    3    0    0  0.14409953071E+02 -0.16177178565E+02 -0.16092704676E+02  0.26987460007E+02  0.00000000000E+00 0. -1.
</event>
<event>
 7    1  0.3220798E-013  0.5930194E+02  0.7816164E-02  0.1266605E+00
        -11   -1    0    0    0    0  0.00000000000E+00  0.00000000000E+00  0.45593999997E+02  0.45594000000E+02  0.51100000000E-03 0.  1.
         11   -1    0    0    0    0 -0.00000000000E+00 -0.00000000000E+00 -0.45593999997E+02  0.45594000000E+02  0.51100000000E-03 0. -1.
    9900012    2    1    2    0    0  0.52859393364E+01 -0.19469975360E+02  0.24692104104E+02  0.59301935642E+02  0.49999984706E+02 0.  0.
         12    1    1    2    0    0 -0.52859393364E+01  0.19469975360E+02 -0.24692104104E+02  0.31886064358E+02  0.00000000000E+00 0. -1.
         11    1    3    3    0    0  0.32340192906E+01  0.77235325576E+01  0.82218810580E+00  0.84135503494E+01  0.51100000000E-03 0. -1.
        -11    1    3    3    0    0  0.16261113533E+02 -0.22752685204E+02  0.22583165370E+02  0.35945901793E+02  0.51100000000E-03 0.  1.
         12    1    3    3    0    0 -0.14209193488E+02 -0.44408227133E+01  0.12867506282E+01  0.14942483499E+02  0.00000000000E+00 0. -1.
</event>
<event>
 7    1  0.3220798E-013  0.5930180E+02  0.7816164E-02  0.1266605E+00
        -11   -1    0    0    0    0  0.00000000000E+00  0.00000000000E+00  0.45593999997E+02  0.45594000000E+02  0.51100000000E-03 0.  1.
         11   -1    0    0    0    0 -0.00000000000E+00 -0.00000000000E+00 -0.45593999997E+02  0.45594000000E+02  0.51100000000E-03 0. -1.
    9900012    2    1    2    0    0 -0.24705449397E+02 -0.86870771155E+01  0.18190798105E+02  0.59301801192E+02  0.49999739501E+02 0.  0.
         12    1    1    2    0    0  0.24705449397E+02  0.86870771155E+01 -0.18190798105E+02  0.31886198808E+02  0.00000000000E+00 0. -1.
         11    1    3    3    0    0 -0.82600589512E-01  0.15206918100E+01  0.65838227160E+01  0.67576658881E+01  0.51100000000E-03 0. -1.
        -11    1    3    3    0    0 -0.32809742172E+02 -0.50417319763E+01  0.20817100622E+02  0.39182265392E+02  0.51100000000E-03 0.  1.
         12    1    3    3    0    0  0.81868933640E+01 -0.51660369493E+01 -0.92101252334E+01  0.13361869911E+02  0.00000000000E+00 0. -1.
</event>
<event>
 7    1  0.3220798E-013  0.5930195E+02  0.7816164E-02  0.1266605E+00
        -11   -1    0    0    0    0  0.00000000000E+00  0.00000000000E+00  0.45593999997E+02  0.45594000000E+02  0.51100000000E-03 0. -1.
         11   -1    0    0    0    0 -0.00000000000E+00 -0.00000000000E+00 -0.45593999997E+02  0.45594000000E+02  0.51100000000E-03 0.  1.
    9900012    2    1    2    0    0  0.21528129198E+02 -0.16328390828E+02 -0.16930546305E+02  0.59301951452E+02  0.50000013541E+02 0.  0.
         12    1    1    2    0    0 -0.21528129198E+02  0.16328390828E+02  0.16930546305E+02  0.31886048548E+02  0.00000000000E+00 0. -1.
         11    1    3    3    0    0  0.52432689555E+01 -0.20700573824E+01 -0.11810173392E+02  0.13086527528E+02  0.51100000000E-03 0. -1.
        -11    1    3    3    0    0  0.28151869082E+02 -0.16287305903E+02 -0.86777063835E+01  0.33661649614E+02  0.51100000000E-03 0.  1.
         12    1    3    3    0    0 -0.11867008839E+02  0.20289724577E+01  0.35573334714E+01  0.12553774311E+02  0.00000000000E+00 0. -1.
</event>
<event>
 7    1  0.3220798E-013  0.5930196E+02  0.7816164E-02  0.1266605E+00
        -11   -1    0    0    0    0  0.00000000000E+00  0.00000000000E+00  0.45593999997E+02  0.45594000000E+02  0.51100000000E-03 0.  1.
         11   -1    0    0    0    0 -0.00000000000E+00 -0.00000000000E+00 -0.45593999997E+02  0.45594000000E+02  0.51100000000E-03 0. -1.
    9900012    2    1    2    0    0 -0.81081661120E+01  0.53969330814E+01  0.30361985549E+02  0.59301962133E+02  0.50000033020E+02 0.  0.
         12    1    1    2    0    0  0.81081661120E+01 -0.53969330814E+01 -0.30361985549E+02  0.31886037867E+02  0.00000000000E+00 0. -1.
         11    1    3    3    0    0 -0.43081016361E+01  0.80452189911E+01 -0.13505613205E+01  0.92254704196E+01  0.51100000000E-03 0. -1.
        -11    1    3    3    0    0 -0.18628401636E+02  0.70089795693E+01  0.10672437057E+02  0.22584154957E+02  0.51100000000E-03 0.  1.
        -12    1    3    3    0    0  0.14828337160E+02 -0.96572654790E+01  0.21040109812E+02  0.27492336757E+02  0.00000000000E+00 0.  1.
</event>
<event>
 7    1  0.3220798E-013  0.5930198E+02  0.7816164E-02  0.1266605E+00
        -11   -1    0    0    0    0  0.00000000000E+00  0.00000000000E+00  0.45593999997E+02  0.45594000000E+02  0.51100000000E-03 0.  1.
         11   -1    0    0    0    0 -0.00000000000E+00 -0.00000000000E+00 -0.45593999997E+02  0.45594000000E+02  0.51100000000E-03 0. -1.
    9900012    2    1    2    0    0  0.22666577337E+02 -0.19748872786E+02  0.10626693886E+02  0.59301979122E+02  0.50000064004E+02 0.  0.
         12    1    1    2    0    0 -0.22666577337E+02  0.19748872786E+02 -0.10626693886E+02  0.31886020878E+02  0.00000000000E+00 0. -1.
         11    1    3    3    0    0  0.16090223570E+01  0.90446894090E+01  0.12383422423E+02  0.15418965939E+02  0.51100000000E-03 0. -1.
        -11    1    3    3    0    0  0.68111010334E+01 -0.83711842911E+01  0.11418720045E+02  0.15711619631E+02  0.51100000000E-03 0.  1.
         12    1    3    3    0    0  0.14246453947E+02 -0.20422377904E+02 -0.13175448582E+02  0.28171393552E+02  0.00000000000E+00 0. -1.
</event>
<event>
 7    1  0.3220798E-013  0.5930197E+02  0.7816164E-02  0.1266605E+00
        -11   -1    0    0    0    0  0.00000000000E+00  0.00000000000E+00  0.45593999997E+02  0.45594000000E+02  0.51100000000E-03 0.  1.
         11   -1    0    0    0    0 -0.00000000000E+00 -0.00000000000E+00 -0.45593999997E+02  0.45594000000E+02  0.51100000000E-03 0. -1.
    9900012    2    1    2    0    0  0.11670418226E+02  0.66054537196E+01  0.28929025135E+02  0.59301965821E+02  0.50000039745E+02 0.  0.
         12    1    1    2    0    0 -0.11670418226E+02 -0.66054537196E+01 -0.28929025135E+02  0.31886034179E+02  0.00000000000E+00 0. -1.
         11    1    3    3    0    0 -0.36392600327E+01 -0.44164703314E+01 -0.11995866711E+01  0.58470874986E+01  0.51100000000E-03 0. -1.
        -11    1    3    3    0    0 -0.13704777755E+01 -0.12208089710E+02  0.19294045545E+02  0.22873037783E+02  0.51100000000E-03 0.  1.
         12    1    3    3    0    0  0.16680156034E+02  0.23230013761E+02  0.10834566262E+02  0.30581840539E+02  0.00000000000E+00 0. -1.
</event>
<event>
 7    1  0.3220798E-013  0.5930195E+02  0.7816164E-02  0.1266605E+00
        -11   -1    0    0    0    0  0.00000000000E+00  0.00000000000E+00  0.45593999997E+02  0.45594000000E+02  0.51100000000E-03 0. -1.
         11   -1    0    0    0    0 -0.00000000000E+00 -0.00000000000E+00 -0.45593999997E+02  0.45594000000E+02  0.51100000000E-03 0.  1.
    9900012    2    1    2    0    0 -0.16969261008E+02  0.96879359724E+01 -0.25197380415E+02  0.59301954427E+02  0.50000018965E+02 0.  0.
         12    1    1    2    0    0  0.16969261008E+02 -0.96879359724E+01  0.25197380415E+02  0.31886045573E+02  0.00000000000E+00 0. -1.
         11    1    3    3    0    0  0.42589532409E+00  0.17194205520E+02 -0.10665625096E+02  0.20238024836E+02  0.51100000000E-03 0. -1.
        -11    1    3    3    0    0 -0.83749904778E+01  0.11765455851E+02 -0.26172076729E+01  0.14677063505E+02  0.51100000000E-03 0.  1.
         12    1    3    3    0    0 -0.90201658539E+01 -0.19271725398E+02 -0.11914547646E+02  0.24386866086E+02  0.00000000000E+00 0. -1.
</event>
<event>
 7    1  0.3220798E-013  0.5930194E+02  0.7816164E-02  0.1266605E+00
        -11   -1    0    0    0    0  0.00000000000E+00  0.00000000000E+00  0.45593999997E+02  0.45594000000E+02  0.51100000000E-03 0.  1.
         11   -1    0    0    0    0 -0.00000000000E+00 -0.00000000000E+00 -0.45593999997E+02  0.45594000000E+02  0.51100000000E-03 0. -1.
    9900012    2    1    2    0    0  0.66299347939E+01  0.30962329872E+02  0.37548216570E+01  0.59301943609E+02  0.49999999237E+02 0.  0.
         12    1    1    2    0    0 -0.66299347939E+01 -0.30962329872E+02 -0.37548216570E+01  0.31886056391E+02  0.00000000000E+00 0. -1.
         11    1    3    3    0    0  0.10917260787E+02  0.12846252673E+02  0.50315140753E+01  0.17593434144E+02  0.51100000000E-03 0. -1.
        -11    1    3    3    0    0  0.46280456528E+01  0.26333688928E+02 -0.79164728086E+01  0.27884628760E+02  0.51100000000E-03 0.  1.
        -12    1    3    3    0    0 -0.89153716462E+01 -0.82176117289E+01  0.66397803902E+01  0.13823880705E+02  0.00000000000E+00 0.  1.
</event>
<event>
 7    1  0.3220798E-013  0.5930195E+02  0.7816164E-02  0.1266605E+00
        -11   -1    0    0    0    0  0.00000000000E+00  0.00000000000E+00  0.45593999997E+02  0.45594000000E+02  0.51100000000E-03 0. -1.
         11   -1    0    0    0    0 -0.00000000000E+00 -0.00000000000E+00 -0.45593999997E+02  0.45594000000E+02  0.51100000000E-03 0.  1.
    9900012    2    1    2    0    0 -0.17541751197E+02 -0.16385769187E+02 -0.20988414747E+02  0.59301952573E+02  0.50000015585E+02 0.  0.
         12    1    1    2    0    0  0.17541751197E+02  0.16385769187E+02  0.20988414747E+02  0.31886047427E+02  0.00000000000E+00 0. -1.
         11    1    3    3    0    0  0.57495541071E+01 -0.15758722689E+01 -0.11710564256E+02  0.13140702466E+02  0.51100000000E-03 0. -1.
        -11    1    3    3    0    0  0.15176288697E+01 -0.17050304665E+02 -0.12285971741E+02  0.21070386528E+02  0.51100000000E-03 0.  1.
         12    1    3    3    0    0 -0.24808934174E+02  0.22404077470E+01  0.30081212499E+01  0.25090863579E+02  0.00000000000E+00 0. -1.
</event>
<event>
 7    1  0.3220798E-013  0.5930195E+02  0.7816164E-02  0.1266605E+00
        -11   -1    0    0    0    0  0.00000000000E+00  0.00000000000E+00  0.45593999997E+02  0.45594000000E+02  0.51100000000E-03 0. -1.
         11   -1    0    0    0    0 -0.00000000000E+00 -0.00000000000E+00 -0.45593999997E+02  0.45594000000E+02  0.51100000000E-03 0.  1.
    9900012    2    1    2    0    0  0.16741008293E+02 -0.79237590416E-01 -0.27137662726E+02  0.59301947006E+02  0.50000005432E+02 0.  0.
         12    1    1    2    0    0 -0.16741008293E+02  0.79237590416E-01  0.27137662726E+02  0.31886052994E+02  0.00000000000E+00 0. -1.
         11    1    3    3    0    0  0.10021705332E+02 -0.12408007535E+02 -0.94211227918E+01  0.18524329506E+02  0.51100000000E-03 0. -1.
        -11    1    3    3    0    0  0.38315974220E+01  0.32112696494E+00 -0.25756002840E+02  0.26041427455E+02  0.51100000000E-03 0.  1.
        -12    1    3    3    0    0  0.28877055397E+01  0.12007642980E+02  0.80394629060E+01  0.14736190045E+02  0.00000000000E+00 0.  1.
</event>
<event>
 7    1  0.3220798E-013  0.5930195E+02  0.7816164E-02  0.1266605E+00
        -11   -1    0    0    0    0  0.00000000000E+00  0.00000000000E+00  0.45593999997E+02  0.45594000000E+02  0.51100000000E-03 0. -1.
         11   -1    0    0    0    0 -0.00000000000E+00 -0.00000000000E+00 -0.45593999997E+02  0.45594000000E+02  0.51100000000E-03 0.  1.
    9900012    2    1    2    0    0  0.16930236686E+01  0.29446674978E+02 -0.12113933419E+02  0.59301946947E+02  0.50000005324E+02 0.  0.
         12    1    1    2    0    0 -0.16930236686E+01 -0.29446674978E+02  0.12113933419E+02  0.31886053053E+02  0.00000000000E+00 0. -1.
         11    1    3    3    0    0 -0.15927618398E+01  0.51861399688E+01  0.33358567216E+01  0.63687422920E+01  0.51100000000E-03 0. -1.
        -11    1    3    3    0    0  0.80585778120E+01  0.35901293029E+02 -0.16466149178E+02  0.40311010736E+02  0.51100000000E-03 0.  1.
        -12    1    3    3    0    0 -0.47727923036E+01 -0.11640758020E+02  0.10163590374E+01  0.12622193920E+02  0.00000000000E+00 0.  1.
</event>
<event>
 7    1  0.3220798E-013  0.5930199E+02  0.7816164E-02  0.1266605E+00
        -11   -1    0    0    0    0  0.00000000000E+00  0.00000000000E+00  0.45593999997E+02  0.45594000000E+02  0.51100000000E-03 0.  1.
         11   -1    0    0    0    0 -0.00000000000E+00 -0.00000000000E+00 -0.45593999997E+02  0.45594000000E+02  0.51100000000E-03 0. -1.
    9900012    2    1    2    0    0  0.21976478184E+02  0.19247712966E+02  0.12778009385E+02  0.59301990973E+02  0.50000085618E+02 0.  0.
         12    1    1    2    0    0 -0.21976478184E+02 -0.19247712966E+02 -0.12778009385E+02  0.31886009027E+02  0.00000000000E+00 0. -1.
         11    1    3    3    0    0 -0.32251644125E+00 -0.96102221759E+01 -0.18889060681E+01  0.97994057739E+01  0.51100000000E-03 0. -1.
        -11    1    3    3    0    0  0.23276951820E+02  0.56408277948E+01  0.89828099362E+01  0.25579802557E+02  0.51100000000E-03 0.  1.
         12    1    3    3    0    0 -0.97795719470E+00  0.23217107347E+02  0.56841055170E+01  0.23922782643E+02  0.00000000000E+00 0. -1.
</event>
<event>
 7    1  0.3220798E-013  0.5930194E+02  0.7816164E-02  0.1266605E+00
        -11   -1    0    0    0    0  0.00000000000E+00  0.00000000000E+00  0.45593999997E+02  0.45594000000E+02  0.51100000000E-03 0. -1.
         11   -1    0    0    0    0 -0.00000000000E+00 -0.00000000000E+00 -0.45593999997E+02  0.45594000000E+02  0.51100000000E-03 0.  1.
    9900012    2    1    2    0    0  0.17917644516E+02  0.13332156491E+02  0.22758128036E+02  0.59301940767E+02  0.49999994054E+02 0.  0.
         12    1    1    2    0    0 -0.17917644516E+02 -0.13332156491E+02 -0.22758128036E+02  0.31886059233E+02  0.00000000000E+00 0. -1.
         11    1    3    3    0    0 -0.59244018374E+01 -0.74589798298E+01  0.22941596407E+02  0.24840526629E+02  0.51100000000E-03 0.  1.
        -11    1    3    3    0    0  0.19107448049E+00  0.36146146846E+01  0.34572009135E+01  0.50054157862E+01  0.51100000000E-03 0. -1.
        -12    1    3    3    0    0  0.23650971873E+02  0.17176521637E+02 -0.36406692853E+01  0.29455998352E+02  0.00000000000E+00 0.  1.
</event>
<event>
 7    1  0.3220798E-013  0.5930194E+02  0.7816164E-02  0.1266605E+00
        -11   -1    0    0    0    0  0.00000000000E+00  0.00000000000E+00  0.45593999997E+02  0.45594000000E+02  0.51100000000E-03 0.  1.
         11   -1    0    0    0    0 -0.00000000000E+00 -0.00000000000E+00 -0.45593999997E+02  0.45594000000E+02  0.51100000000E-03 0. -1.
    9900012    2    1    2    0    0  0.55900441209E+01  0.31356880647E+02 -0.14894013398E+01  0.59301939197E+02  0.49999991191E+02 0.  0.
         12    1    1    2    0    0 -0.55900441209E+01 -0.31356880647E+02  0.14894013398E+01  0.31886060803E+02  0.00000000000E+00 0. -1.
         11    1    3    3    0    0 -0.63756193499E+01  0.83875247615E+01 -0.32435663579E+01  0.11023602710E+02  0.51100000000E-03 0. -1.
        -11    1    3    3    0    0  0.83329898402E+01  0.31682537441E+02  0.11490649822E+02  0.34716810509E+02  0.51100000000E-03 0.  1.
         12    1    3    3    0    0  0.36326736306E+01 -0.87131815555E+01 -0.97364848040E+01  0.13561525978E+02  0.00000000000E+00 0. -1.
</event>
<event>
 7    1  0.3220798E-013  0.5930193E+02  0.7816164E-02  0.1266605E+00
        -11   -1    0    0    0    0  0.00000000000E+00  0.00000000000E+00  0.45593999997E+02  0.45594000000E+02  0.51100000000E-03 0.  1.
         11   -1    0    0    0    0 -0.00000000000E+00 -0.00000000000E+00 -0.45593999997E+02  0.45594000000E+02  0.51100000000E-03 0. -1.
    9900012    2    1    2    0    0  0.18836559681E+02 -0.23675140032E+02  0.10069420279E+02  0.59301929986E+02  0.49999974392E+02 0.  0.
         12    1    1    2    0    0 -0.18836559681E+02  0.23675140032E+02 -0.10069420279E+02  0.31886070014E+02  0.00000000000E+00 0. -1.
         11    1    3    3    0    0  0.25108305278E+02 -0.10379716288E+02  0.16709113639E+02  0.31896080998E+02  0.51100000000E-03 0. -1.
        -11    1    3    3    0    0  0.18000662570E+01 -0.55513161398E+01  0.74194875678E+01  0.94396051529E+01  0.51100000000E-03 0.  1.
        -12    1    3    3    0    0 -0.80718118541E+01 -0.77441076044E+01 -0.14059180928E+02  0.17966243836E+02  0.00000000000E+00 0.  1.
</event>
<event>
 7    1  0.3220798E-013  0.5930189E+02  0.7816164E-02  0.1266605E+00
        -11   -1    0    0    0    0  0.00000000000E+00  0.00000000000E+00  0.45593999997E+02  0.45594000000E+02  0.51100000000E-03 0.  1.
         11   -1    0    0    0    0 -0.00000000000E+00 -0.00000000000E+00 -0.45593999997E+02  0.45594000000E+02  0.51100000000E-03 0. -1.
    9900012    2    1    2    0    0 -0.71004960586E+00 -0.31337096646E+02 -0.58486218893E+01  0.59301887433E+02  0.49999896785E+02 0.  0.
         12    1    1    2    0    0  0.71004960586E+00  0.31337096646E+02  0.58486218893E+01  0.31886112567E+02  0.00000000000E+00 0. -1.
         11    1    3    3    0    0  0.33753784083E+01 -0.22927681459E+02 -0.89368332952E+01  0.24838251672E+02  0.51100000000E-03 0. -1.
        -11    1    3    3    0    0 -0.11966576014E+02 -0.17614506107E+02  0.57484289138E+01  0.22057066943E+02  0.51100000000E-03 0.  1.
         12    1    3    3    0    0  0.78811479996E+01  0.92050909210E+01 -0.26602175079E+01  0.12406568818E+02  0.00000000000E+00 0. -1.
</event>
<event>
 7    1  0.3220798E-013  0.5930195E+02  0.7816164E-02  0.1266605E+00
        -11   -1    0    0    0    0  0.00000000000E+00  0.00000000000E+00  0.45593999997E+02  0.45594000000E+02  0.51100000000E-03 0.  1.
         11   -1    0    0    0    0 -0.00000000000E+00 -0.00000000000E+00 -0.45593999997E+02  0.45594000000E+02  0.51100000000E-03 0. -1.
    9900012    2    1    2    0    0  0.22216335116E+02 -0.14638122286E+02  0.17574976830E+02  0.59301953199E+02  0.50000016727E+02 0.  0.
         12    1    1    2    0    0 -0.22216335116E+02  0.14638122286E+02 -0.17574976830E+02  0.31886046801E+02  0.00000000000E+00 0. -1.
         11    1    3    3    0    0  0.16247574119E+01 -0.89823135253E+01  0.15345799757E+02  0.17855401518E+02  0.51100000000E-03 0.  1.
        -11    1    3    3    0    0  0.26984387233E+02 -0.16561351681E+01 -0.84933020461E+01  0.28337891911E+02  0.51100000000E-03 0. -1.
         12    1    3    3    0    0 -0.63928095297E+01 -0.39996735923E+01  0.10722479119E+02  0.13108659770E+02  0.00000000000E+00 0. -1.
</event>
<event>
 7    1  0.3220798E-013  0.5930195E+02  0.7816164E-02  0.1266605E+00
        -11   -1    0    0    0    0  0.00000000000E+00  0.00000000000E+00  0.45593999997E+02  0.45594000000E+02  0.51100000000E-03 0.  1.
         11   -1    0    0    0    0 -0.00000000000E+00 -0.00000000000E+00 -0.45593999997E+02  0.45594000000E+02  0.51100000000E-03 0. -1.
    9900012    2    1    2    0    0 -0.29654842249E+02 -0.82993105467E+01 -0.82723798569E+01  0.59301945166E+02  0.50000002076E+02 0.  0.
         12    1    1    2    0    0  0.29654842249E+02  0.82993105467E+01  0.82723798569E+01  0.31886054834E+02  0.00000000000E+00 0. -1.
         11    1    3    3    0    0  0.30541493467E+01 -0.25086717945E+01  0.14578011217E+01  0.42126531754E+01  0.51100000000E-03 0. -1.
        -11    1    3    3    0    0 -0.18447824124E+02 -0.22618639974E+02  0.34538701685E+01  0.29391398548E+02  0.51100000000E-03 0.  1.
        -12    1    3    3    0    0 -0.14261167472E+02  0.16828001221E+02 -0.13184051147E+02  0.25697893443E+02  0.00000000000E+00 0.  1.
</event>
<event>
 7    1  0.3220798E-013  0.5930194E+02  0.7816164E-02  0.1266605E+00
        -11   -1    0    0    0    0  0.00000000000E+00  0.00000000000E+00  0.45593999997E+02  0.45594000000E+02  0.51100000000E-03 0. -1.
         11   -1    0    0    0    0 -0.00000000000E+00 -0.00000000000E+00 -0.45593999997E+02  0.45594000000E+02  0.51100000000E-03 0.  1.
    9900012    2    1    2    0    0 -0.15842746865E+02  0.23361148826E+02 -0.14831891785E+02  0.59301938522E+02  0.49999989959E+02 0.  0.
         12    1    1    2    0    0  0.15842746865E+02 -0.23361148826E+02  0.14831891785E+02  0.31886061478E+02  0.00000000000E+00 0. -1.
         11    1    3    3    0    0 -0.12938583916E+02 -0.61627111625E+01  0.82121565094E+01  0.16517429504E+02  0.51100000000E-03 0. -1.
        -11    1    3    3    0    0  0.50090825531E+01 -0.43265487418E+00 -0.39027645960E+01  0.63647207337E+01  0.51100000000E-03 0.  1.
        -12    1    3    3    0    0 -0.79132455021E+01  0.29956514862E+02 -0.19141283698E+02  0.36419788284E+02  0.00000000000E+00 0.  1.
</event>
<event>
 7    1  0.3220798E-013  0.5930187E+02  0.7816164E-02  0.1266605E+00
        -11   -1    0    0    0    0  0.00000000000E+00  0.00000000000E+00  0.45593999997E+02  0.45594000000E+02  0.51100000000E-03 0. -1.
         11   -1    0    0    0    0 -0.00000000000E+00 -0.00000000000E+00 -0.45593999997E+02  0.45594000000E+02  0.51100000000E-03 0.  1.
    9900012    2    1    2    0    0  0.12605053774E+02  0.24404886442E+02 -0.16193814538E+02  0.59301866773E+02  0.49999859106E+02 0.  0.
         12    1    1    2    0    0 -0.12605053774E+02 -0.24404886442E+02  0.16193814538E+02  0.31886133227E+02  0.00000000000E+00 0. -1.
         11    1    3    3    0    0 -0.37886900394E+01 -0.67730650400E+01 -0.84038174360E+01  0.11439087814E+02  0.51100000000E-03 0.  1.
        -11    1    3    3    0    0  0.22534971818E+02  0.12345036681E+02 -0.10714242010E+02  0.27839178644E+02  0.51100000000E-03 0. -1.
         12    1    3    3    0    0 -0.61412280044E+01  0.18832914801E+02  0.29242449083E+01  0.20023600315E+02  0.00000000000E+00 0. -1.
</event>
<event>
 7    1  0.3220798E-013  0.5930201E+02  0.7816164E-02  0.1266605E+00
        -11   -1    0    0    0    0  0.00000000000E+00  0.00000000000E+00  0.45593999997E+02  0.45594000000E+02  0.51100000000E-03 0. -1.
         11   -1    0    0    0    0 -0.00000000000E+00 -0.00000000000E+00 -0.45593999997E+02  0.45594000000E+02  0.51100000000E-03 0.  1.
    9900012    2    1    2    0    0 -0.26587090764E+02 -0.14572043136E+01 -0.17541928470E+02  0.59302014142E+02  0.50000127871E+02 0.  0.
         12    1    1    2    0    0  0.26587090764E+02  0.14572043136E+01  0.17541928470E+02  0.31885985858E+02  0.00000000000E+00 0. -1.
         11    1    3    3    0    0  0.62621087909E+01  0.13195000068E+02 -0.71015505109E+01  0.16240506557E+02  0.51100000000E-03 0. -1.
        -11    1    3    3    0    0 -0.14161936986E+02 -0.15523088751E+02 -0.12156100264E+02  0.24275450921E+02  0.51100000000E-03 0.  1.
        -12    1    3    3    0    0 -0.18687262570E+02  0.87088436855E+00  0.17157223053E+01  0.18786056663E+02  0.00000000000E+00 0.  1.
</event>
<event>
 7    1  0.3220798E-013  0.5930189E+02  0.7816164E-02  0.1266605E+00
        -11   -1    0    0    0    0  0.00000000000E+00  0.00000000000E+00  0.45593999997E+02  0.45594000000E+02  0.51100000000E-03 0.  1.
         11   -1    0    0    0    0 -0.00000000000E+00 -0.00000000000E+00 -0.45593999997E+02  0.45594000000E+02  0.51100000000E-03 0. -1.
    9900012    2    1    2    0    0 -0.14481501348E+01  0.92305347726E+01  0.30486452926E+02  0.59301894515E+02  0.49999909701E+02 0.  0.
         12    1    1    2    0    0  0.14481501348E+01 -0.92305347726E+01 -0.30486452926E+02  0.31886105485E+02  0.00000000000E+00 0. -1.
         11    1    3    3    0    0  0.72295588791E+01  0.15427005041E+02  0.34920321926E+01  0.17391184411E+02  0.51100000000E-03 0. -1.
        -11    1    3    3    0    0 -0.37393787006E+01 -0.27794342431E+01  0.33053252380E+02  0.33380019487E+02  0.51100000000E-03 0.  1.
         12    1    3    3    0    0 -0.49383303133E+01 -0.34170360249E+01 -0.60588316473E+01  0.85306906174E+01  0.00000000000E+00 0. -1.
</event>
<event>
 7    1  0.3220798E-013  0.5930195E+02  0.7816164E-02  0.1266605E+00
        -11   -1    0    0    0    0  0.00000000000E+00  0.00000000000E+00  0.45593999997E+02  0.45594000000E+02  0.51100000000E-03 0.  1.
         11   -1    0    0    0    0 -0.00000000000E+00 -0.00000000000E+00 -0.45593999997E+02  0.45594000000E+02  0.51100000000E-03 0. -1.
    9900012    2    1    2    0    0  0.17447465421E+02  0.17804360661E+02  0.19882419826E+02  0.59301954050E+02  0.50000018279E+02 0.  0.
         12    1    1    2    0    0 -0.17447465421E+02 -0.17804360661E+02 -0.19882419826E+02  0.31886045950E+02  0.00000000000E+00 0. -1.
         11    1    3    3    0    0 -0.29987073120E+01  0.15415655486E+02  0.32223650214E+00  0.15707912536E+02  0.51100000000E-03 0. -1.
        -11    1    3    3    0    0 -0.60617765122E+01 -0.81615277888E+01  0.74301018450E+01  0.12592143742E+02  0.51100000000E-03 0.  1.
         12    1    3    3    0    0  0.26507949246E+02  0.10550232964E+02  0.12130081479E+02  0.31001897772E+02  0.00000000000E+00 0. -1.
</event>
<event>
 7    1  0.3220798E-013  0.5930195E+02  0.7816164E-02  0.1266605E+00
        -11   -1    0    0    0    0  0.00000000000E+00  0.00000000000E+00  0.45593999997E+02  0.45594000000E+02  0.51100000000E-03 0. -1.
         11   -1    0    0    0    0 -0.00000000000E+00 -0.00000000000E+00 -0.45593999997E+02  0.45594000000E+02  0.51100000000E-03 0.  1.
    9900012    2    1    2    0    0  0.25269612329E+02 -0.19106655753E+02 -0.36197139407E+01  0.59301953987E+02  0.50000018164E+02 0.  0.
         12    1    1    2    0    0 -0.25269612329E+02  0.19106655753E+02  0.36197139407E+01  0.31886046013E+02  0.00000000000E+00 0. -1.
         11    1    3    3    0    0 -0.13251912477E+01  0.40057298357E+01 -0.32085996527E+01  0.53006712171E+01  0.51100000000E-03 0. -1.
        -11    1    3    3    0    0  0.23685904480E+02 -0.11949225747E+02 -0.18644064244E+02  0.32425409771E+02  0.51100000000E-03 0.  1.
         12    1    3    3    0    0  0.29088990967E+01 -0.11163159841E+02  0.18232949956E+02  0.21575872999E+02  0.00000000000E+00 0. -1.
</event>
<event>
 7    1  0.3220798E-013  0.5930194E+02  0.7816164E-02  0.1266605E+00
        -11   -1    0    0    0    0  0.00000000000E+00  0.00000000000E+00  0.45593999997E+02  0.45594000000E+02  0.51100000000E-03 0.  1.
         11   -1    0    0    0    0 -0.00000000000E+00 -0.00000000000E+00 -0.45593999997E+02  0.45594000000E+02  0.51100000000E-03 0. -1.
    9900012    2    1    2    0    0 -0.40376098361E+01  0.55073032700E+01  0.31146233795E+02  0.59301944080E+02  0.50000000096E+02 0.  0.
         12    1    1    2    0    0  0.40376098361E+01 -0.55073032700E+01 -0.31146233795E+02  0.31886055920E+02  0.00000000000E+00 0. -1.
         11    1    3    3    0    0 -0.16989786650E+02 -0.84182086369E+01  0.12874000802E+02  0.22918529272E+02  0.51100000000E-03 0. -1.
        -11    1    3    3    0    0 -0.27854572043E+01  0.13562797832E+02  0.14792774741E+02  0.20261649530E+02  0.51100000000E-03 0.  1.
         12    1    3    3    0    0  0.15737634018E+02  0.36271407502E+00  0.34794582524E+01  0.16121765279E+02  0.00000000000E+00 0. -1.
</event>
<event>
 7    1  0.3220798E-013  0.5930156E+02  0.7816164E-02  0.1266606E+00
        -11   -1    0    0    0    0  0.00000000000E+00  0.00000000000E+00  0.45593999997E+02  0.45594000000E+02  0.51100000000E-03 0.  1.
         11   -1    0    0    0    0 -0.00000000000E+00 -0.00000000000E+00 -0.45593999997E+02  0.45594000000E+02  0.51100000000E-03 0. -1.
    9900012    2    1    2    0    0  0.44950237177E+01  0.16700842808E+02  0.26788464203E+02  0.59301557692E+02  0.49999295412E+02 0.  0.
         12    1    1    2    0    0 -0.44950237177E+01 -0.16700842808E+02 -0.26788464203E+02  0.31886442308E+02  0.00000000000E+00 0. -1.
         11    1    3    3    0    0  0.20160972174E+01  0.14530984588E+02  0.26887859668E+02  0.30629579803E+02  0.51100000000E-03 0. -1.
        -11    1    3    3    0    0  0.68961279513E+01 -0.55265562238E+01  0.11224064354E+02  0.14285623028E+02  0.51100000000E-03 0.  1.
         12    1    3    3    0    0 -0.44172014510E+01  0.76964144430E+01 -0.11323459819E+02  0.14386354862E+02  0.00000000000E+00 0. -1.
</event>
<event>
 7    1  0.3220798E-013  0.5930195E+02  0.7816164E-02  0.1266605E+00
        -11   -1    0    0    0    0  0.00000000000E+00  0.00000000000E+00  0.45593999997E+02  0.45594000000E+02  0.51100000000E-03 0.  1.
         11   -1    0    0    0    0 -0.00000000000E+00 -0.00000000000E+00 -0.45593999997E+02  0.45594000000E+02  0.51100000000E-03 0. -1.
    9900012    2    1    2    0    0  0.17619411843E+02  0.59941082011E+01  0.25891067479E+02  0.59301946904E+02  0.50000005246E+02 0.  0.
         12    1    1    2    0    0 -0.17619411843E+02 -0.59941082011E+01 -0.25891067479E+02  0.31886053096E+02  0.00000000000E+00 0. -1.
         11    1    3    3    0    0 -0.30784503955E+01  0.42719331572E+01 -0.64770241800E+01  0.83473416263E+01  0.51100000000E-03 0. -1.
        -11    1    3    3    0    0  0.22022571712E+02 -0.25181953004E+01  0.43529853065E+01  0.22589454480E+02  0.51100000000E-03 0.  1.
         12    1    3    3    0    0 -0.13247094736E+01  0.42403703442E+01  0.28015106352E+02  0.28365150798E+02  0.00000000000E+00 0. -1.
</event>
<event>
 7    1  0.3220798E-013  0.5930197E+02  0.7816164E-02  0.1266605E+00
        -11   -1    0    0    0    0  0.00000000000E+00  0.00000000000E+00  0.45593999997E+02  0.45594000000E+02  0.51100000000E-03 0. -1.
         11   -1    0    0    0    0 -0.00000000000E+00 -0.00000000000E+00 -0.45593999997E+02  0.45594000000E+02  0.51100000000E-03 0.  1.
    9900012    2    1    2    0    0 -0.62257752196E+01  0.25497204974E+02 -0.18106668688E+02  0.59301965604E+02  0.50000039350E+02 0.  0.
         12    1    1    2    0    0  0.62257752196E+01 -0.25497204974E+02  0.18106668688E+02  0.31886034396E+02  0.00000000000E+00 0. -1.
         11    1    3    3    0    0  0.49470799649E+01  0.75461479719E+01  0.64951658538E+01  0.11117784362E+02  0.51100000000E-03 0. -1.
        -11    1    3    3    0    0  0.12927446312E+02  0.37651381736E+01 -0.80712662726E+01  0.15698422631E+02  0.51100000000E-03 0.  1.
         12    1    3    3    0    0 -0.24100301496E+02  0.14185918828E+02 -0.16530568269E+02  0.32485758610E+02  0.00000000000E+00 0. -1.
</event>
<event>
 7    1  0.3220798E-013  0.5930194E+02  0.7816164E-02  0.1266605E+00
        -11   -1    0    0    0    0  0.00000000000E+00  0.00000000000E+00  0.45593999997E+02  0.45594000000E+02  0.51100000000E-03 0.  1.
         11   -1    0    0    0    0 -0.00000000000E+00 -0.00000000000E+00 -0.45593999997E+02  0.45594000000E+02  0.51100000000E-03 0. -1.
    9900012    2    1    2    0    0  0.16133146989E+01 -0.27199561204E+02  0.16562053053E+02  0.59301944813E+02  0.50000001433E+02 0.  0.
         12    1    1    2    0    0 -0.16133146989E+01  0.27199561204E+02 -0.16562053053E+02  0.31886055187E+02  0.00000000000E+00 0. -1.
         11    1    3    3    0    0 -0.73969329233E+01 -0.15364488797E+02  0.80985983745E+01  0.18877749563E+02  0.51100000000E-03 0. -1.
        -11    1    3    3    0    0  0.22906415597E+02 -0.31051114751E+01  0.47742677865E+01  0.23603796855E+02  0.51100000000E-03 0.  1.
         12    1    3    3    0    0 -0.13896167975E+02 -0.87299609317E+01  0.36891868924E+01  0.16820398396E+02  0.00000000000E+00 0. -1.
</event>
<event>
 7    1  0.3220798E-013  0.5930194E+02  0.7816164E-02  0.1266605E+00
        -11   -1    0    0    0    0  0.00000000000E+00  0.00000000000E+00  0.45593999997E+02  0.45594000000E+02  0.51100000000E-03 0.  1.
         11   -1    0    0    0    0 -0.00000000000E+00 -0.00000000000E+00 -0.45593999997E+02  0.45594000000E+02  0.51100000000E-03 0. -1.
    9900012    2    1    2    0    0  0.18517828163E+02  0.95237157150E+01  0.24147661675E+02  0.59301942149E+02  0.49999996574E+02 0.  0.
         12    1    1    2    0    0 -0.18517828163E+02 -0.95237157150E+01 -0.24147661675E+02  0.31886057851E+02  0.00000000000E+00 0. -1.
         11    1    3    3    0    0  0.15794858673E+02 -0.83524856132E+01 -0.63467202535E+01  0.18961076833E+02  0.51100000000E-03 0. -1.
        -11    1    3    3    0    0  0.40343918548E+01  0.82068288094E+01  0.91145391477E+00  0.91901635048E+01  0.51100000000E-03 0.  1.
        -12    1    3    3    0    0 -0.13114223643E+01  0.96693725188E+01  0.29582928013E+02  0.31150701812E+02  0.00000000000E+00 0.  1.
</event>
<event>
 7    1  0.3220798E-013  0.5930192E+02  0.7816164E-02  0.1266605E+00
        -11   -1    0    0    0    0  0.00000000000E+00  0.00000000000E+00  0.45593999997E+02  0.45594000000E+02  0.51100000000E-03 0. -1.
         11   -1    0    0    0    0 -0.00000000000E+00 -0.00000000000E+00 -0.45593999997E+02  0.45594000000E+02  0.51100000000E-03 0.  1.
    9900012    2    1    2    0    0 -0.91616995186E+01 -0.54854349574E+00 -0.30536604070E+02  0.59301924259E+02  0.49999963947E+02 0.  0.
         12    1    1    2    0    0  0.91616995186E+01  0.54854349574E+00  0.30536604070E+02  0.31886075741E+02  0.00000000000E+00 0. -1.
         11    1    3    3    0    0  0.11425498190E+02  0.39732372872E+01 -0.65424115786E+01  0.13752518786E+02  0.51100000000E-03 0. -1.
        -11    1    3    3    0    0 -0.43614689300E+01 -0.21149313201E+01  0.81381620381E+01  0.94723295622E+01  0.51100000000E-03 0.  1.
        -12    1    3    3    0    0 -0.16225728779E+02 -0.24068494628E+01 -0.32132354529E+02  0.36077075911E+02  0.00000000000E+00 0.  1.
</event>
<event>
 7    1  0.3220798E-013  0.5930190E+02  0.7816164E-02  0.1266605E+00
        -11   -1    0    0    0    0  0.00000000000E+00  0.00000000000E+00  0.45593999997E+02  0.45594000000E+02  0.51100000000E-03 0. -1.
         11   -1    0    0    0    0 -0.00000000000E+00 -0.00000000000E+00 -0.45593999997E+02  0.45594000000E+02  0.51100000000E-03 0.  1.
    9900012    2    1    2    0    0 -0.18246323983E+01 -0.13721814790E+02 -0.28724657044E+02  0.59301899473E+02  0.49999918742E+02 0.  0.
         12    1    1    2    0    0  0.18246323983E+01  0.13721814790E+02  0.28724657044E+02  0.31886100527E+02  0.00000000000E+00 0. -1.
         11    1    3    3    0    0  0.47992379725E+01  0.76789875009E+01  0.67817221292E+01  0.11313323537E+02  0.51100000000E-03 0. -1.
        -11    1    3    3    0    0 -0.30442859009E+00  0.50584130575E+01 -0.51055455077E+01  0.71935258822E+01  0.51100000000E-03 0.  1.
        -12    1    3    3    0    0 -0.63194417807E+01 -0.26459215349E+02 -0.30400833666E+02  0.40795050053E+02  0.00000000000E+00 0.  1.
</event>
<event>
 7    1  0.3220798E-013  0.5930201E+02  0.7816164E-02  0.1266605E+00
        -11   -1    0    0    0    0  0.00000000000E+00  0.00000000000E+00  0.45593999997E+02  0.45594000000E+02  0.51100000000E-03 0. -1.
         11   -1    0    0    0    0 -0.00000000000E+00 -0.00000000000E+00 -0.45593999997E+02  0.45594000000E+02  0.51100000000E-03 0.  1.
    9900012    2    1    2    0    0  0.22903122150E+02 -0.17902531321E+02 -0.13102017414E+02  0.59302007900E+02  0.50000116487E+02 0.  0.
         12    1    1    2    0    0 -0.22903122150E+02  0.17902531321E+02  0.13102017414E+02  0.31885992100E+02  0.00000000000E+00 0. -1.
         11    1    3    3    0    0 -0.39614469242E+01 -0.83638469410E+01  0.44460741505E+01  0.10267159929E+02  0.51100000000E-03 0. -1.
        -11    1    3    3    0    0  0.16345761109E+02 -0.21020557604E+02 -0.14946256751E+01  0.26669864162E+02  0.51100000000E-03 0.  1.
         12    1    3    3    0    0  0.10518807965E+02  0.11481873224E+02 -0.16053465890E+02  0.22364983810E+02  0.00000000000E+00 0. -1.
</event>
<event>
 7    1  0.3220798E-013  0.5930196E+02  0.7816164E-02  0.1266605E+00
        -11   -1    0    0    0    0  0.00000000000E+00  0.00000000000E+00  0.45593999997E+02  0.45594000000E+02  0.51100000000E-03 0.  1.
         11   -1    0    0    0    0 -0.00000000000E+00 -0.00000000000E+00 -0.45593999997E+02  0.45594000000E+02  0.51100000000E-03 0. -1.
    9900012    2    1    2    0    0 -0.87094601238E+01 -0.19430681475E+02  0.23734227039E+02  0.59301958988E+02  0.50000027285E+02 0.  0.
         12    1    1    2    0    0  0.87094601238E+01  0.19430681475E+02 -0.23734227039E+02  0.31886041012E+02  0.00000000000E+00 0. -1.
         11    1    3    3    0    0 -0.36332357578E+01 -0.27882807264E+00  0.10968445918E+02  0.11557895711E+02  0.51100000000E-03 0.  1.
        -11    1    3    3    0    0  0.48157197204E+01 -0.71494518979E+01 -0.14201564606E+02  0.16612954475E+02  0.51100000000E-03 0. -1.
         12    1    3    3    0    0 -0.98919440864E+01 -0.12002401505E+02  0.26967345727E+02  0.31131108802E+02  0.00000000000E+00 0. -1.
</event>
<event>
 7    1  0.3220798E-013  0.5930194E+02  0.7816164E-02  0.1266605E+00
        -11   -1    0    0    0    0  0.00000000000E+00  0.00000000000E+00  0.45593999997E+02  0.45594000000E+02  0.51100000000E-03 0.  1.
         11   -1    0    0    0    0 -0.00000000000E+00 -0.00000000000E+00 -0.45593999997E+02  0.45594000000E+02  0.51100000000E-03 0. -1.
    9900012    2    1    2    0    0  0.83506175051E+01 -0.22972206416E+02 -0.20475982542E+02  0.59301938133E+02  0.49999989250E+02 0.  0.
         12    1    1    2    0    0 -0.83506175051E+01  0.22972206416E+02  0.20475982542E+02  0.31886061867E+02  0.00000000000E+00 0. -1.
         11    1    3    3    0    0 -0.33143099054E+01 -0.39280541062E+01 -0.95071743218E+01  0.10807433694E+02  0.51100000000E-03 0. -1.
        -11    1    3    3    0    0 -0.13865549411E+02 -0.16534184425E+02 -0.53844533656E+01  0.22240167566E+02  0.51100000000E-03 0.  1.
         12    1    3    3    0    0  0.25530476821E+02 -0.25099678850E+01 -0.55843548542E+01  0.26254336873E+02  0.00000000000E+00 0. -1.
</event>
<event>
 7    1  0.3220798E-013  0.5930193E+02  0.7816164E-02  0.1266605E+00
        -11   -1    0    0    0    0  0.00000000000E+00  0.00000000000E+00  0.45593999997E+02  0.45594000000E+02  0.51100000000E-03 0.  1.
         11   -1    0    0    0    0 -0.00000000000E+00 -0.00000000000E+00 -0.45593999997E+02  0.45594000000E+02  0.51100000000E-03 0. -1.
    9900012    2    1    2    0    0 -0.19953099533E+01 -0.97194305462E+01  0.30303021936E+02  0.59301925761E+02  0.49999966686E+02 0.  0.
         12    1    1    2    0    0  0.19953099533E+01  0.97194305462E+01 -0.30303021936E+02  0.31886074239E+02  0.00000000000E+00 0. -1.
         11    1    3    3    0    0 -0.31839497716E+01 -0.35644033839E+00 -0.58723604024E+01  0.66894844958E+01  0.51100000000E-03 0. -1.
        -11    1    3    3    0    0 -0.33034484936E+01  0.11939267766E+02  0.26972146415E+01  0.12678085574E+02  0.51100000000E-03 0.  1.
        -12    1    3    3    0    0  0.44920883118E+01 -0.21302257973E+02  0.33478167697E+02  0.39934355691E+02  0.00000000000E+00 0.  1.
</event>
<event>
 7    1  0.3220798E-013  0.5930194E+02  0.7816164E-02  0.1266605E+00
        -11   -1    0    0    0    0  0.00000000000E+00  0.00000000000E+00  0.45593999997E+02  0.45594000000E+02  0.51100000000E-03 0. -1.
         11   -1    0    0    0    0 -0.00000000000E+00 -0.00000000000E+00 -0.45593999997E+02  0.45594000000E+02  0.51100000000E-03 0.  1.
    9900012    2    1    2    0    0  0.19282340785E+02  0.24937707359E+02 -0.47982041081E+01  0.59301942276E+02  0.49999996806E+02 0.  0.
         12    1    1    2    0    0 -0.19282340785E+02 -0.24937707359E+02  0.47982041081E+01  0.31886057724E+02  0.00000000000E+00 0. -1.
         11    1    3    3    0    0  0.56698779399E+01 -0.14059538614E+01 -0.59097869346E+01  0.83096211700E+01  0.51100000000E-03 0. -1.
        -11    1    3    3    0    0 -0.70009236935E+00 -0.10952998008E+02 -0.74504337785E+00  0.11000608374E+02  0.51100000000E-03 0.  1.
         12    1    3    3    0    0  0.14312555215E+02  0.37296659229E+02  0.18566262044E+01  0.39991712733E+02  0.00000000000E+00 0. -1.
</event>
<event>
 7    1  0.3220798E-013  0.5930194E+02  0.7816164E-02  0.1266605E+00
        -11   -1    0    0    0    0  0.00000000000E+00  0.00000000000E+00  0.45593999997E+02  0.45594000000E+02  0.51100000000E-03 0.  1.
         11   -1    0    0    0    0 -0.00000000000E+00 -0.00000000000E+00 -0.45593999997E+02  0.45594000000E+02  0.51100000000E-03 0. -1.
    9900012    2    1    2    0    0 -0.49986311757E+00  0.24632116127E+02  0.20241784948E+02  0.59301939316E+02  0.49999991408E+02 0.  0.
         12    1    1    2    0    0  0.49986311757E+00 -0.24632116127E+02 -0.20241784948E+02  0.31886060684E+02  0.00000000000E+00 0. -1.
         11    1    3    3    0    0 -0.37996285077E+01 -0.38506825576E+01  0.34302640614E+01  0.64055948005E+01  0.51100000000E-03 0. -1.
        -11    1    3    3    0    0  0.94688851879E+01  0.29555787674E+01 -0.10886076122E+02  0.14727589285E+02  0.51100000000E-03 0.  1.
        -12    1    3    3    0    0 -0.61691197978E+01  0.25527219918E+02  0.27697597009E+02  0.38168755231E+02  0.00000000000E+00 0.  1.
</event>
<event>
 7    1  0.3444018E-013  0.5930193E+02  0.7816164E-02  0.1266605E+00
        -11   -1    0    0    0    0  0.00000000000E+00  0.00000000000E+00  0.45593999997E+02  0.45594000000E+02  0.51100000000E-03 0. -1.
         11   -1    0    0    0    0 -0.00000000000E+00 -0.00000000000E+00 -0.45593999997E+02  0.45594000000E+02  0.51100000000E-03 0.  1.
    9900012    2    1    2    0    0 -0.70022492259E+01 -0.28292061750E+02 -0.12932494453E+02  0.59301926785E+02  0.49999968554E+02 0.  0.
         12    1    1    2    0    0  0.70022492259E+01  0.28292061750E+02  0.12932494453E+02  0.31886073215E+02  0.00000000000E+00 0. -1.
         11    1    3    3    0    0  0.34367997903E+01  0.19334492800E+01  0.10351440176E+02  0.11077099480E+02  0.51100000000E-03 0. -1.
        -11    1    3    3    0    0 -0.64271827368E+01 -0.89515425875E+00 -0.16674224222E+02  0.17892449043E+02  0.51100000000E-03 0.  1.
        -12    1    3    3    0    0 -0.40118662794E+01 -0.29330356771E+02 -0.66097104063E+01  0.30332378262E+02  0.00000000000E+00 0.  1.
</event>
<event>
 7    1  0.3220798E-013  0.5930180E+02  0.7816164E-02  0.1266605E+00
        -11   -1    0    0    0    0  0.00000000000E+00  0.00000000000E+00  0.45593999997E+02  0.45594000000E+02  0.51100000000E-03 0.  1.
         11   -1    0    0    0    0 -0.00000000000E+00 -0.00000000000E+00 -0.45593999997E+02  0.45594000000E+02  0.51100000000E-03 0. -1.
    9900012    2    1    2    0    0  0.50201853081E+01  0.20503681851E+02  0.23898253943E+02  0.59301799670E+02  0.49999736726E+02 0.  0.
         12    1    1    2    0    0 -0.50201853081E+01 -0.20503681851E+02 -0.23898253943E+02  0.31886200330E+02  0.00000000000E+00 0. -1.
         11    1    3    3    0    0 -0.25881649939E+01  0.14543045306E+02 -0.43292919201E+01  0.15392905300E+02  0.51100000000E-03 0. -1.
        -11    1    3    3    0    0 -0.10520692091E+02 -0.58054751051E+01  0.10431945296E+02  0.15912698897E+02  0.51100000000E-03 0.  1.
        -12    1    3    3    0    0  0.18129042393E+02  0.11766111650E+02  0.17795600567E+02  0.27996195473E+02  0.00000000000E+00 0.  1.
</event>
<event>
 7    1  0.3220798E-013  0.5930194E+02  0.7816164E-02  0.1266605E+00
        -11   -1    0    0    0    0  0.00000000000E+00  0.00000000000E+00  0.45593999997E+02  0.45594000000E+02  0.51100000000E-03 0.  1.
         11   -1    0    0    0    0 -0.00000000000E+00 -0.00000000000E+00 -0.45593999997E+02  0.45594000000E+02  0.51100000000E-03 0. -1.
    9900012    2    1    2    0    0  0.26969699101E+02 -0.16796272165E+02  0.26909707583E+01  0.59301941105E+02  0.49999994669E+02 0.  0.
         12    1    1    2    0    0 -0.26969699101E+02  0.16796272165E+02 -0.26909707583E+01  0.31886058895E+02  0.00000000000E+00 0. -1.
         11    1    3    3    0    0  0.63660664570E+01  0.53851863640E+01  0.88567932589E+00  0.83851930472E+01  0.51100000000E-03 0. -1.
        -11    1    3    3    0    0  0.10190562908E+02  0.11052546425E+01  0.17990990284E+02  0.20706155893E+02  0.51100000000E-03 0.  1.
         12    1    3    3    0    0  0.10413069736E+02 -0.23286713171E+02 -0.16185698851E+02  0.30210592165E+02  0.00000000000E+00 0. -1.
</event>
<event>
 7    1  0.3220798E-013  0.5930195E+02  0.7816164E-02  0.1266605E+00
        -11   -1    0    0    0    0  0.00000000000E+00  0.00000000000E+00  0.45593999997E+02  0.45594000000E+02  0.51100000000E-03 0. -1.
         11   -1    0    0    0    0 -0.00000000000E+00 -0.00000000000E+00 -0.45593999997E+02  0.45594000000E+02  0.51100000000E-03 0.  1.
    9900012    2    1    2    0    0 -0.72802445759E+01  0.75234143790E+00 -0.31034693344E+02  0.59301950234E+02  0.50000011319E+02 0.  0.
         12    1    1    2    0    0  0.72802445759E+01 -0.75234143790E+00  0.31034693344E+02  0.31886049766E+02  0.00000000000E+00 0. -1.
         11    1    3    3    0    0 -0.27143699331E+02  0.53129489228E+01 -0.13816911707E+02  0.30917873293E+02  0.51100000000E-03 0.  1.
        -11    1    3    3    0    0  0.41065004507E+01  0.29261818047E+01 -0.48782969389E+01  0.70159580380E+01  0.51100000000E-03 0. -1.
        -12    1    3    3    0    0  0.15756954304E+02 -0.74867892896E+01 -0.12339484698E+02  0.21368118902E+02  0.00000000000E+00 0.  1.
</event>
<event>
 7    1  0.3220798E-013  0.5930196E+02  0.7816164E-02  0.1266605E+00
        -11   -1    0    0    0    0  0.00000000000E+00  0.00000000000E+00  0.45593999997E+02  0.45594000000E+02  0.51100000000E-03 0. -1.
         11   -1    0    0    0    0 -0.00000000000E+00 -0.00000000000E+00 -0.45593999997E+02  0.45594000000E+02  0.51100000000E-03 0.  1.
    9900012    2    1    2    0    0 -0.14919465611E+02 -0.18083364411E+02  0.21612978448E+02  0.59301962931E+02  0.50000034476E+02 0.  0.
         12    1    1    2    0    0  0.14919465611E+02  0.18083364411E+02 -0.21612978448E+02  0.31886037069E+02  0.00000000000E+00 0. -1.
         11    1    3    3    0    0 -0.55593443954E+01 -0.46475137495E+01  0.14436322894E+02  0.16152805116E+02  0.51100000000E-03 0. -1.
        -11    1    3    3    0    0 -0.20684253823E+02  0.46219570052E+01  0.26546253872E+01  0.21359959714E+02  0.51100000000E-03 0.  1.
         12    1    3    3    0    0  0.11324132608E+02 -0.18057807667E+02  0.45220301667E+01  0.21789198101E+02  0.00000000000E+00 0. -1.
</event>
<event>
 7    1  0.3220798E-013  0.5930196E+02  0.7816164E-02  0.1266605E+00
        -11   -1    0    0    0    0  0.00000000000E+00  0.00000000000E+00  0.45593999997E+02  0.45594000000E+02  0.51100000000E-03 0. -1.
         11   -1    0    0    0    0 -0.00000000000E+00 -0.00000000000E+00 -0.45593999997E+02  0.45594000000E+02  0.51100000000E-03 0.  1.
    9900012    2    1    2    0    0  0.17098277810E+01  0.28000339849E+02 -0.15158387251E+02  0.59301964706E+02  0.50000037713E+02 0.  0.
         12    1    1    2    0    0 -0.17098277810E+01 -0.28000339849E+02  0.15158387251E+02  0.31886035294E+02  0.00000000000E+00 0. -1.
         11    1    3    3    0    0  0.18096109787E+01  0.12057455309E+01  0.56291839251E+01  0.60345858270E+01  0.51100000000E-03 0. -1.
        -11    1    3    3    0    0  0.64371440059E+01 -0.11727428014E+01 -0.23523213409E+02  0.24416259295E+02  0.51100000000E-03 0.  1.
         12    1    3    3    0    0 -0.65369272036E+01  0.27967337119E+02  0.27356422328E+01  0.28851119584E+02  0.00000000000E+00 0. -1.
</event>
<event>
 7    1  0.3220798E-013  0.5930194E+02  0.7816164E-02  0.1266605E+00
        -11   -1    0    0    0    0  0.00000000000E+00  0.00000000000E+00  0.45593999997E+02  0.45594000000E+02  0.51100000000E-03 0. -1.
         11   -1    0    0    0    0 -0.00000000000E+00 -0.00000000000E+00 -0.45593999997E+02  0.45594000000E+02  0.51100000000E-03 0.  1.
    9900012    2    1    2    0    0 -0.30627363820E+02 -0.79054108361E+01 -0.40236320108E+01  0.59301944276E+02  0.50000000453E+02 0.  0.
         12    1    1    2    0    0  0.30627363820E+02  0.79054108361E+01  0.40236320108E+01  0.31886055724E+02  0.00000000000E+00 0. -1.
         11    1    3    3    0    0 -0.21933819974E+02 -0.58366092548E+01 -0.22704552261E+01  0.22810379949E+02  0.51100000000E-03 0. -1.
        -11    1    3    3    0    0 -0.14933398444E+02 -0.15566259349E+02 -0.14195106519E+01  0.21617812793E+02  0.51100000000E-03 0.  1.
         12    1    3    3    0    0  0.62398545977E+01  0.13497457768E+02 -0.33366613284E+00  0.14873751534E+02  0.00000000000E+00 0. -1.
</event>
<event>
 7    1  0.3220798E-013  0.5930195E+02  0.7816164E-02  0.1266605E+00
        -11   -1    0    0    0    0  0.00000000000E+00  0.00000000000E+00  0.45593999997E+02  0.45594000000E+02  0.51100000000E-03 0.  1.
         11   -1    0    0    0    0 -0.00000000000E+00 -0.00000000000E+00 -0.45593999997E+02  0.45594000000E+02  0.51100000000E-03 0. -1.
    9900012    2    1    2    0    0 -0.30050558494E+02 -0.99330642858E+01  0.38753560149E+01  0.59301949506E+02  0.50000009990E+02 0.  0.
         12    1    1    2    0    0  0.30050558494E+02  0.99330642858E+01 -0.38753560149E+01  0.31886050494E+02  0.00000000000E+00 0. -1.
         11    1    3    3    0    0 -0.12783611519E+01 -0.18319145333E+02  0.40026607008E+01  0.18794855305E+02  0.51100000000E-03 0. -1.
        -11    1    3    3    0    0 -0.13622793710E+02 -0.96205224614E+01  0.23630400467E+01  0.16843957950E+02  0.51100000000E-03 0.  1.
        -12    1    3    3    0    0 -0.15149403631E+02  0.18006603509E+02 -0.24903447326E+01  0.23663136250E+02  0.00000000000E+00 0.  1.
</event>
<event>
 7    1  0.3220798E-013  0.5930190E+02  0.7816164E-02  0.1266605E+00
        -11   -1    0    0    0    0  0.00000000000E+00  0.00000000000E+00  0.45593999997E+02  0.45594000000E+02  0.51100000000E-03 0. -1.
         11   -1    0    0    0    0 -0.00000000000E+00 -0.00000000000E+00 -0.45593999997E+02  0.45594000000E+02  0.51100000000E-03 0.  1.
    9900012    2    1    2    0    0  0.10938329460E+02 -0.28370957359E+02 -0.96002616234E+01  0.59301901209E+02  0.49999921910E+02 0.  0.
         12    1    1    2    0    0 -0.10938329460E+02  0.28370957359E+02  0.96002616234E+01  0.31886098791E+02  0.00000000000E+00 0. -1.
         11    1    3    3    0    0  0.12543208591E+02 -0.83794254902E+01 -0.17330760846E+02  0.22976120757E+02  0.51100000000E-03 0. -1.
        -11    1    3    3    0    0  0.90563575837E+01 -0.69448639830E+01 -0.74647838824E+01  0.13637145856E+02  0.51100000000E-03 0.  1.
         12    1    3    3    0    0 -0.10661236714E+02 -0.13046667886E+02  0.15195283105E+02  0.22688634596E+02  0.00000000000E+00 0. -1.
</event>
<event>
 7    1  0.3220798E-013  0.5930195E+02  0.7816164E-02  0.1266605E+00
        -11   -1    0    0    0    0  0.00000000000E+00  0.00000000000E+00  0.45593999997E+02  0.45594000000E+02  0.51100000000E-03 0. -1.
         11   -1    0    0    0    0 -0.00000000000E+00 -0.00000000000E+00 -0.45593999997E+02  0.45594000000E+02  0.51100000000E-03 0.  1.
    9900012    2    1    2    0    0 -0.27469340823E+02 -0.15129801924E+02  0.57658368650E+01  0.59301945584E+02  0.50000002838E+02 0.  0.
         12    1    1    2    0    0  0.27469340823E+02  0.15129801924E+02 -0.57658368650E+01  0.31886054416E+02  0.00000000000E+00 0. -1.
         11    1    3    3    0    0 -0.21941786466E+02 -0.74970109590E+01 -0.30801700195E+01  0.23390908795E+02  0.51100000000E-03 0. -1.
        -11    1    3    3    0    0  0.22112957230E+01  0.76673134609E+01 -0.84042310027E+01  0.11589159740E+02  0.51100000000E-03 0.  1.
         12    1    3    3    0    0 -0.77388500792E+01 -0.15300104426E+02  0.17250237887E+02  0.24321877048E+02  0.00000000000E+00 0. -1.
</event>
<event>
 7    1  0.3220798E-013  0.5930191E+02  0.7816164E-02  0.1266605E+00
        -11   -1    0    0    0    0  0.00000000000E+00  0.00000000000E+00  0.45593999997E+02  0.45594000000E+02  0.51100000000E-03 0.  1.
         11   -1    0    0    0    0 -0.00000000000E+00 -0.00000000000E+00 -0.45593999997E+02  0.45594000000E+02  0.51100000000E-03 0. -1.
    9900012    2    1    2    0    0  0.72991248050E+01  0.30334445579E+02 -0.65777633382E+01  0.59301909270E+02  0.49999936611E+02 0.  0.
         12    1    1    2    0    0 -0.72991248050E+01 -0.30334445579E+02  0.65777633382E+01  0.31886090730E+02  0.00000000000E+00 0. -1.
         11    1    3    3    0    0 -0.29222007379E+01  0.28563576325E+02 -0.15669544344E+02  0.32710117239E+02  0.51100000000E-03 0. -1.
        -11    1    3    3    0    0  0.98676516466E+01  0.96967972786E+01 -0.86371645126E+00  0.13861617252E+02  0.51100000000E-03 0.  1.
         12    1    3    3    0    0  0.35367389634E+00 -0.79259280243E+01  0.99554974571E+01  0.12730174778E+02  0.00000000000E+00 0. -1.
</event>
<event>
 7    1  0.3220798E-013  0.5930193E+02  0.7816164E-02  0.1266605E+00
        -11   -1    0    0    0    0  0.00000000000E+00  0.00000000000E+00  0.45593999997E+02  0.45594000000E+02  0.51100000000E-03 0.  1.
         11   -1    0    0    0    0 -0.00000000000E+00 -0.00000000000E+00 -0.45593999997E+02  0.45594000000E+02  0.51100000000E-03 0. -1.
    9900012    2    1    2    0    0  0.14500467287E+02  0.12545265214E+02  0.25476930107E+02  0.59301934101E+02  0.49999981896E+02 0.  0.
         12    1    1    2    0    0 -0.14500467287E+02 -0.12545265214E+02 -0.25476930107E+02  0.31886065899E+02  0.00000000000E+00 0. -1.
         11    1    3    3    0    0 -0.31243736779E+01 -0.68734583073E+01 -0.10563807861E+02  0.12984613077E+02  0.51100000000E-03 0. -1.
        -11    1    3    3    0    0  0.52938679707E+01  0.96950609641E+01  0.63808137239E+01  0.12756724863E+02  0.51100000000E-03 0.  1.
        -12    1    3    3    0    0  0.12330972994E+02  0.97236625572E+01  0.29659924244E+02  0.33560596161E+02  0.00000000000E+00 0.  1.
</event>
<event>
 7    1  0.3220798E-013  0.5930191E+02  0.7816164E-02  0.1266605E+00
        -11   -1    0    0    0    0  0.00000000000E+00  0.00000000000E+00  0.45593999997E+02  0.45594000000E+02  0.51100000000E-03 0.  1.
         11   -1    0    0    0    0 -0.00000000000E+00 -0.00000000000E+00 -0.45593999997E+02  0.45594000000E+02  0.51100000000E-03 0. -1.
    9900012    2    1    2    0    0 -0.19527576618E+02 -0.25206820435E+02 -0.11202018559E+00  0.59301912226E+02  0.49999942000E+02 0.  0.
         12    1    1    2    0    0  0.19527576618E+02  0.25206820435E+02  0.11202018559E+00  0.31886087774E+02  0.00000000000E+00 0. -1.
         11    1    3    3    0    0  0.25065674462E+01 -0.42571037032E+01 -0.11893384402E+02  0.12878602607E+02  0.51100000000E-03 0. -1.
        -11    1    3    3    0    0  0.21561081540E+01  0.71046534487E+01  0.44665111204E+01  0.86645614342E+01  0.51100000000E-03 0.  1.
        -12    1    3    3    0    0 -0.24190252219E+02 -0.28054370181E+02  0.73148530963E+01  0.37758748184E+02  0.00000000000E+00 0.  1.
</event>
<event>
 7    1  0.3220798E-013  0.5930192E+02  0.7816164E-02  0.1266605E+00
        -11   -1    0    0    0    0  0.00000000000E+00  0.00000000000E+00  0.45593999997E+02  0.45594000000E+02  0.51100000000E-03 0.  1.
         11   -1    0    0    0    0 -0.00000000000E+00 -0.00000000000E+00 -0.45593999997E+02  0.45594000000E+02  0.51100000000E-03 0. -1.
    9900012    2    1    2    0    0 -0.58454486599E+01 -0.18006403311E+02  0.25657790796E+02  0.59301920611E+02  0.49999957294E+02 0.  0.
         12    1    1    2    0    0  0.58454486599E+01  0.18006403311E+02 -0.25657790796E+02  0.31886079389E+02  0.00000000000E+00 0. -1.
         11    1    3    3    0    0 -0.53392591909E+01 -0.17106105712E+00  0.20152671349E+02  0.20848671741E+02  0.51100000000E-03 0. -1.
        -11    1    3    3    0    0 -0.11562447398E+02  0.17210432146E+01  0.10186400876E+02  0.15505319818E+02  0.51100000000E-03 0.  1.
         12    1    3    3    0    0  0.11056257929E+02 -0.19556385469E+02 -0.46812814288E+01  0.22947929053E+02  0.00000000000E+00 0. -1.
</event>
<event>
 7    1  0.3220798E-013  0.5930194E+02  0.7816164E-02  0.1266605E+00
        -11   -1    0    0    0    0  0.00000000000E+00  0.00000000000E+00  0.45593999997E+02  0.45594000000E+02  0.51100000000E-03 0. -1.
         11   -1    0    0    0    0 -0.00000000000E+00 -0.00000000000E+00 -0.45593999997E+02  0.45594000000E+02  0.51100000000E-03 0.  1.
    9900012    2    1    2    0    0  0.10632195044E+02  0.19717546326E+02 -0.22691307549E+02  0.59301942815E+02  0.49999997788E+02 0.  0.
         12    1    1    2    0    0 -0.10632195044E+02 -0.19717546326E+02  0.22691307549E+02  0.31886057185E+02  0.00000000000E+00 0. -1.
         11    1    3    3    0    0  0.22220930617E+02 -0.74894936594E+00 -0.28824827970E+01  0.22419620648E+02  0.51100000000E-03 0. -1.
        -11    1    3    3    0    0 -0.62256794495E+00 -0.55283287529E+00  0.35224242628E+01  0.36194872540E+01  0.51100000000E-03 0.  1.
        -12    1    3    3    0    0 -0.10966167629E+02  0.21019328567E+02 -0.23331249014E+02  0.33262834913E+02  0.00000000000E+00 0.  1.
</event>
<event>
 7    1  0.3220798E-013  0.5930193E+02  0.7816164E-02  0.1266605E+00
        -11   -1    0    0    0    0  0.00000000000E+00  0.00000000000E+00  0.45593999997E+02  0.45594000000E+02  0.51100000000E-03 0.  1.
         11   -1    0    0    0    0 -0.00000000000E+00 -0.00000000000E+00 -0.45593999997E+02  0.45594000000E+02  0.51100000000E-03 0. -1.
    9900012    2    1    2    0    0 -0.30598681154E+02 -0.73114619727E+01  0.51946929165E+01  0.59301927820E+02  0.49999970441E+02 0.  0.
         12    1    1    2    0    0  0.30598681154E+02  0.73114619727E+01 -0.51946929165E+01  0.31886072180E+02  0.00000000000E+00 0. -1.
         11    1    3    3    0    0 -0.87841370613E+01 -0.17374617873E+02 -0.87789995212E+01  0.21356714237E+02  0.51100000000E-03 0. -1.
        -11    1    3    3    0    0 -0.22643443211E+02 -0.21109652756E+01  0.65665297224E+01  0.23670678226E+02  0.51100000000E-03 0.  1.
         12    1    3    3    0    0  0.82889911766E+00  0.12174121176E+02  0.74071627153E+01  0.14274535357E+02  0.00000000000E+00 0. -1.
</event>
<event>
 7    1  0.3220798E-013  0.5930193E+02  0.7816164E-02  0.1266605E+00
        -11   -1    0    0    0    0  0.00000000000E+00  0.00000000000E+00  0.45593999997E+02  0.45594000000E+02  0.51100000000E-03 0.  1.
         11   -1    0    0    0    0 -0.00000000000E+00 -0.00000000000E+00 -0.45593999997E+02  0.45594000000E+02  0.51100000000E-03 0. -1.
    9900012    2    1    2    0    0 -0.28924963229E+02  0.81751200699E+01  0.10641200205E+02  0.59301933642E+02  0.49999981059E+02 0.  0.
         12    1    1    2    0    0  0.28924963229E+02 -0.81751200699E+01 -0.10641200205E+02  0.31886066358E+02  0.00000000000E+00 0. -1.
         11    1    3    3    0    0 -0.23980418081E+02  0.10714164732E+02  0.98592607185E+01  0.28054568245E+02  0.51100000000E-03 0. -1.
        -11    1    3    3    0    0 -0.30628428116E+01  0.13875450582E+02 -0.24308301857E+01  0.14415896455E+02  0.51100000000E-03 0.  1.
         12    1    3    3    0    0 -0.18817023370E+01 -0.16414495244E+02  0.32127696723E+01  0.16831468943E+02  0.00000000000E+00 0. -1.
</event>
<event>
 7    1  0.3220798E-013  0.5930200E+02  0.7816164E-02  0.1266605E+00
        -11   -1    0    0    0    0  0.00000000000E+00  0.00000000000E+00  0.45593999997E+02  0.45594000000E+02  0.51100000000E-03 0.  1.
         11   -1    0    0    0    0 -0.00000000000E+00 -0.00000000000E+00 -0.45593999997E+02  0.45594000000E+02  0.51100000000E-03 0. -1.
    9900012    2    1    2    0    0  0.34719828484E+01  0.16236227408E+02  0.27222184314E+02  0.59301998931E+02  0.50000100130E+02 0.  0.
         12    1    1    2    0    0 -0.34719828484E+01 -0.16236227408E+02 -0.27222184314E+02  0.31886001069E+02  0.00000000000E+00 0. -1.
         11    1    3    3    0    0  0.54805491132E+01  0.16644785501E+01 -0.45255798342E+01  0.72998479794E+01  0.51100000000E-03 0. -1.
        -11    1    3    3    0    0  0.16669618214E+02 -0.58706728515E+00  0.92878809273E+01  0.19091504702E+02  0.51100000000E-03 0.  1.
         12    1    3    3    0    0 -0.18678184479E+02  0.15158816143E+02  0.22459883221E+02  0.32910646250E+02  0.00000000000E+00 0. -1.
</event>
<event>
 7    1  0.3220798E-013  0.5930193E+02  0.7816164E-02  0.1266605E+00
        -11   -1    0    0    0    0  0.00000000000E+00  0.00000000000E+00  0.45593999997E+02  0.45594000000E+02  0.51100000000E-03 0. -1.
         11   -1    0    0    0    0 -0.00000000000E+00 -0.00000000000E+00 -0.45593999997E+02  0.45594000000E+02  0.51100000000E-03 0.  1.
    9900012    2    1    2    0    0  0.26868928156E+02 -0.25015433203E+00 -0.17167402503E+02  0.59301928023E+02  0.49999970811E+02 0.  0.
         12    1    1    2    0    0 -0.26868928156E+02  0.25015433203E+00  0.17167402503E+02  0.31886071977E+02  0.00000000000E+00 0. -1.
         11    1    3    3    0    0 -0.26137848365E+01 -0.48662382594E+01 -0.14237545021E+02  0.15271536741E+02  0.51100000000E-03 0. -1.
        -11    1    3    3    0    0  0.21874303300E+02  0.16444370330E+01 -0.17006014956E+02  0.27755969862E+02  0.51100000000E-03 0.  1.
        -12    1    3    3    0    0  0.76084096918E+01  0.29716468943E+01  0.14076157474E+02  0.16274421419E+02  0.00000000000E+00 0.  1.
</event>
<event>
 7    1  0.3220798E-013  0.5930197E+02  0.7816164E-02  0.1266605E+00
        -11   -1    0    0    0    0  0.00000000000E+00  0.00000000000E+00  0.45593999997E+02  0.45594000000E+02  0.51100000000E-03 0. -1.
         11   -1    0    0    0    0 -0.00000000000E+00 -0.00000000000E+00 -0.45593999997E+02  0.45594000000E+02  0.51100000000E-03 0.  1.
    9900012    2    1    2    0    0  0.10464053597E+02 -0.30119208612E+02 -0.23658021373E+00  0.59301966768E+02  0.50000041473E+02 0.  0.
         12    1    1    2    0    0 -0.10464053597E+02  0.30119208612E+02  0.23658021373E+00  0.31886033232E+02  0.00000000000E+00 0. -1.
         11    1    3    3    0    0 -0.39656797692E+01  0.18221406471E+01  0.55737175717E+01  0.70790635256E+01  0.51100000000E-03 0. -1.
        -11    1    3    3    0    0 -0.84519961993E+01 -0.25784083296E+02  0.21670795457E+01  0.27220422943E+02  0.51100000000E-03 0.  1.
        -12    1    3    3    0    0  0.22881729566E+02 -0.61572659629E+01 -0.79773773312E+01  0.25002480300E+02  0.00000000000E+00 0.  1.
</event>
<event>
 7    1  0.3220798E-013  0.5930194E+02  0.7816164E-02  0.1266605E+00
        -11   -1    0    0    0    0  0.00000000000E+00  0.00000000000E+00  0.45593999997E+02  0.45594000000E+02  0.51100000000E-03 0.  1.
         11   -1    0    0    0    0 -0.00000000000E+00 -0.00000000000E+00 -0.45593999997E+02  0.45594000000E+02  0.51100000000E-03 0. -1.
    9900012    2    1    2    0    0 -0.78954183649E+01  0.14334283753E+02  0.27366246419E+02  0.59301940900E+02  0.49999994296E+02 0.  0.
         12    1    1    2    0    0  0.78954183649E+01 -0.14334283753E+02 -0.27366246419E+02  0.31886059100E+02  0.00000000000E+00 0. -1.
         11    1    3    3    0    0 -0.73552328179E+01 -0.82149993453E+00 -0.37013682261E+01  0.82749283353E+01  0.51100000000E-03 0. -1.
        -11    1    3    3    0    0  0.13489361272E+02 -0.23700931889E+01  0.13206552070E+01  0.13759518149E+02  0.51100000000E-03 0.  1.
         12    1    3    3    0    0 -0.14029546819E+02  0.17525876876E+02  0.29746959438E+02  0.37267494416E+02  0.00000000000E+00 0. -1.
</event>
<event>
 7    1  0.3220798E-013  0.5930198E+02  0.7816164E-02  0.1266605E+00
        -11   -1    0    0    0    0  0.00000000000E+00  0.00000000000E+00  0.45593999997E+02  0.45594000000E+02  0.51100000000E-03 0.  1.
         11   -1    0    0    0    0 -0.00000000000E+00 -0.00000000000E+00 -0.45593999997E+02  0.45594000000E+02  0.51100000000E-03 0. -1.
    9900012    2    1    2    0    0  0.25865070481E+02 -0.17287299740E+02 -0.69904152714E+01  0.59301976275E+02  0.50000058812E+02 0.  0.
         12    1    1    2    0    0 -0.25865070481E+02  0.17287299740E+02  0.69904152714E+01  0.31886023725E+02  0.00000000000E+00 0. -1.
         11    1    3    3    0    0  0.32760331345E+02 -0.15279696677E+02 -0.13237531188E+02  0.38495982552E+02  0.51100000000E-03 0. -1.
        -11    1    3    3    0    0  0.17534265984E+01 -0.80985315569E+01 -0.42888632390E+00  0.82972683429E+01  0.51100000000E-03 0.  1.
        -12    1    3    3    0    0 -0.86486874625E+01  0.60909284935E+01  0.66760022408E+01  0.12508725381E+02  0.00000000000E+00 0.  1.
</event>
<event>
 7    1  0.3220798E-013  0.5930193E+02  0.7816164E-02  0.1266605E+00
        -11   -1    0    0    0    0  0.00000000000E+00  0.00000000000E+00  0.45593999997E+02  0.45594000000E+02  0.51100000000E-03 0.  1.
         11   -1    0    0    0    0 -0.00000000000E+00 -0.00000000000E+00 -0.45593999997E+02  0.45594000000E+02  0.51100000000E-03 0. -1.
    9900012    2    1    2    0    0 -0.12495843459E+02  0.29333741910E+02  0.32670528334E+00  0.59301933222E+02  0.49999980293E+02 0.  0.
         12    1    1    2    0    0  0.12495843459E+02 -0.29333741910E+02 -0.32670528334E+00  0.31886066778E+02  0.00000000000E+00 0. -1.
         11    1    3    3    0    0  0.90113708006E+01  0.57680300502E+01  0.15975386229E+02  0.19227270732E+02  0.51100000000E-03 0. -1.
        -11    1    3    3    0    0 -0.21130575020E+01  0.74151744432E+01  0.34277042956E+01  0.84379488639E+01  0.51100000000E-03 0.  1.
         12    1    3    3    0    0 -0.19394156758E+02  0.16150537417E+02 -0.19076385241E+02  0.31636713626E+02  0.00000000000E+00 0. -1.
</event>
<event>
 7    1  0.3220798E-013  0.5930193E+02  0.7816164E-02  0.1266605E+00
        -11   -1    0    0    0    0  0.00000000000E+00  0.00000000000E+00  0.45593999997E+02  0.45594000000E+02  0.51100000000E-03 0. -1.
         11   -1    0    0    0    0 -0.00000000000E+00 -0.00000000000E+00 -0.45593999997E+02  0.45594000000E+02  0.51100000000E-03 0.  1.
    9900012    2    1    2    0    0 -0.25148650673E+02 -0.18526781838E+02  0.64050794103E+01  0.59301932224E+02  0.49999978473E+02 0.  0.
         12    1    1    2    0    0  0.25148650673E+02  0.18526781838E+02 -0.64050794103E+01  0.31886067776E+02  0.00000000000E+00 0. -1.
         11    1    3    3    0    0 -0.17187583770E+02 -0.18790889412E+01  0.18716623927E+02  0.25480502793E+02  0.51100000000E-03 0. -1.
        -11    1    3    3    0    0  0.61377852714E+01  0.32739364363E+01 -0.40808294519E+01  0.80650007504E+01  0.51100000000E-03 0.  1.
        -12    1    3    3    0    0 -0.14098852174E+02 -0.19921629333E+02 -0.82307150644E+01  0.25756428681E+02  0.00000000000E+00 0.  1.
</event>
<event>
 7    1  0.3220798E-013  0.5930185E+02  0.7816164E-02  0.1266605E+00
        -11   -1    0    0    0    0  0.00000000000E+00  0.00000000000E+00  0.45593999997E+02  0.45594000000E+02  0.51100000000E-03 0.  1.
         11   -1    0    0    0    0 -0.00000000000E+00 -0.00000000000E+00 -0.45593999997E+02  0.45594000000E+02  0.51100000000E-03 0. -1.
    9900012    2    1    2    0    0 -0.16480945381E+02 -0.27280838437E+02  0.92791671235E+00  0.59301847270E+02  0.49999823538E+02 0.  0.
         12    1    1    2    0    0  0.16480945381E+02  0.27280838437E+02 -0.92791671235E+00  0.31886152730E+02  0.00000000000E+00 0. -1.
         11    1    3    3    0    0 -0.10795883661E+02  0.11910128970E+02 -0.10761758079E+01  0.16110879266E+02  0.51100000000E-03 0. -1.
        -11    1    3    3    0    0  0.20139492564E+01 -0.21711381028E+01 -0.39251521234E+01  0.49169758716E+01  0.51100000000E-03 0.  1.
        -12    1    3    3    0    0 -0.76990109763E+01 -0.37019829304E+02  0.59292446436E+01  0.38273992133E+02  0.00000000000E+00 0.  1.
</event>
<event>
 7    1  0.3220798E-013  0.5930197E+02  0.7816164E-02  0.1266605E+00
        -11   -1    0    0    0    0  0.00000000000E+00  0.00000000000E+00  0.45593999997E+02  0.45594000000E+02  0.51100000000E-03 0.  1.
         11   -1    0    0    0    0 -0.00000000000E+00 -0.00000000000E+00 -0.45593999997E+02  0.45594000000E+02  0.51100000000E-03 0. -1.
    9900012    2    1    2    0    0  0.46858866286E+01 -0.32254549272E+01  0.31374476451E+02  0.59301970684E+02  0.50000048614E+02 0.  0.
         12    1    1    2    0    0 -0.46858866286E+01  0.32254549272E+01 -0.31374476451E+02  0.31886029316E+02  0.00000000000E+00 0. -1.
         11    1    3    3    0    0  0.78709246045E+01 -0.90893052166E+01 -0.15143733011E+01  0.12118591098E+02  0.51100000000E-03 0. -1.
        -11    1    3    3    0    0  0.11111271116E+02  0.46324621100E+01  0.30298184776E+02  0.32602147966E+02  0.51100000000E-03 0.  1.
        -12    1    3    3    0    0 -0.14296309092E+02  0.12313881794E+01  0.25906649758E+01  0.14581231619E+02  0.00000000000E+00 0.  1.
</event>
<event>
 7    1  0.3220798E-013  0.5930189E+02  0.7816164E-02  0.1266605E+00
        -11   -1    0    0    0    0  0.00000000000E+00  0.00000000000E+00  0.45593999997E+02  0.45594000000E+02  0.51100000000E-03 0.  1.
         11   -1    0    0    0    0 -0.00000000000E+00 -0.00000000000E+00 -0.45593999997E+02  0.45594000000E+02  0.51100000000E-03 0. -1.
    9900012    2    1    2    0    0 -0.98976406466E+01  0.28072556231E+02  0.11432078613E+02  0.59301888209E+02  0.49999898201E+02 0.  0.
         12    1    1    2    0    0  0.98976406466E+01 -0.28072556231E+02 -0.11432078613E+02  0.31886111791E+02  0.00000000000E+00 0. -1.
         11    1    3    3    0    0 -0.67501280703E+01 -0.10992671529E+02  0.26344168522E+01  0.13165986812E+02  0.51100000000E-03 0. -1.
        -11    1    3    3    0    0  0.24823344638E+01  0.14877312669E+02 -0.70775226647E+01  0.16660964677E+02  0.51100000000E-03 0.  1.
        -12    1    3    3    0    0 -0.56298470401E+01  0.24187915091E+02  0.15875184426E+02  0.29474936721E+02  0.00000000000E+00 0.  1.
</event>
<event>
 7    1  0.3220798E-013  0.5930189E+02  0.7816164E-02  0.1266605E+00
        -11   -1    0    0    0    0  0.00000000000E+00  0.00000000000E+00  0.45593999997E+02  0.45594000000E+02  0.51100000000E-03 0.  1.
         11   -1    0    0    0    0 -0.00000000000E+00 -0.00000000000E+00 -0.45593999997E+02  0.45594000000E+02  0.51100000000E-03 0. -1.
    9900012    2    1    2    0    0 -0.12409651705E+02  0.22974544080E+02  0.18300135865E+02  0.59301888544E+02  0.49999898810E+02 0.  0.
         12    1    1    2    0    0  0.12409651705E+02 -0.22974544080E+02 -0.18300135865E+02  0.31886111456E+02  0.00000000000E+00 0. -1.
         11    1    3    3    0    0 -0.11353199103E+02  0.12489720934E+02 -0.22315630887E+01  0.17025514176E+02  0.51100000000E-03 0. -1.
        -11    1    3    3    0    0 -0.99356867709E+01  0.20528175296E+02  0.16906331893E+02  0.28389221739E+02  0.51100000000E-03 0.  1.
        -12    1    3    3    0    0  0.88792341686E+01 -0.10043352149E+02  0.36253670608E+01  0.13887152629E+02  0.00000000000E+00 0.  1.
</event>
<event>
 7    1  0.3220798E-013  0.5930194E+02  0.7816164E-02  0.1266605E+00
        -11   -1    0    0    0    0  0.00000000000E+00  0.00000000000E+00  0.45593999997E+02  0.45594000000E+02  0.51100000000E-03 0. -1.
         11   -1    0    0    0    0 -0.00000000000E+00 -0.00000000000E+00 -0.45593999997E+02  0.45594000000E+02  0.51100000000E-03 0.  1.
    9900012    2    1    2    0    0  0.52623244254E+01 -0.14148958268E+02 -0.28086217165E+02  0.59301942340E+02  0.49999996922E+02 0.  0.
         12    1    1    2    0    0 -0.52623244254E+01  0.14148958268E+02  0.28086217165E+02  0.31886057660E+02  0.00000000000E+00 0. -1.
         11    1    3    3    0    0  0.11659517709E+02 -0.10616934840E+02 -0.90408341784E+01  0.18176917822E+02  0.51100000000E-03 0. -1.
        -11    1    3    3    0    0  0.10114584812E+02 -0.75934041391E+01  0.32756883590E+01  0.13065019971E+02  0.51100000000E-03 0.  1.
         12    1    3    3    0    0 -0.16511778096E+02  0.40613807105E+01 -0.22321071346E+02  0.28060004547E+02  0.00000000000E+00 0. -1.
</event>
<event>
 7    1  0.3220798E-013  0.5930194E+02  0.7816164E-02  0.1266605E+00
        -11   -1    0    0    0    0  0.00000000000E+00  0.00000000000E+00  0.45593999997E+02  0.45594000000E+02  0.51100000000E-03 0.  1.
         11   -1    0    0    0    0 -0.00000000000E+00 -0.00000000000E+00 -0.45593999997E+02  0.45594000000E+02  0.51100000000E-03 0. -1.
    9900012    2    1    2    0    0  0.17585931682E+02 -0.48679283672E+01  0.26148789364E+02  0.59301938705E+02  0.49999990292E+02 0.  0.
         12    1    1    2    0    0 -0.17585931682E+02  0.48679283672E+01 -0.26148789364E+02  0.31886061295E+02  0.00000000000E+00 0. -1.
         11    1    3    3    0    0 -0.13605177125E+01 -0.92462910731E+01 -0.61662819040E+01  0.11196782566E+02  0.51100000000E-03 0. -1.
        -11    1    3    3    0    0  0.95515276474E+01  0.43081200557E+01 -0.35241591845E+01  0.11054920942E+02  0.51100000000E-03 0.  1.
         12    1    3    3    0    0  0.93949217469E+01  0.70242650133E-01  0.35839230453E+02  0.37050235197E+02  0.00000000000E+00 0. -1.
</event>
<event>
 7    1  0.3220798E-013  0.5930194E+02  0.7816164E-02  0.1266605E+00
        -11   -1    0    0    0    0  0.00000000000E+00  0.00000000000E+00  0.45593999997E+02  0.45594000000E+02  0.51100000000E-03 0.  1.
         11   -1    0    0    0    0 -0.00000000000E+00 -0.00000000000E+00 -0.45593999997E+02  0.45594000000E+02  0.51100000000E-03 0. -1.
    9900012    2    1    2    0    0 -0.21500003563E+02 -0.20149596973E+02 -0.12184609840E+02  0.59301935201E+02  0.49999983903E+02 0.  0.
         12    1    1    2    0    0  0.21500003563E+02  0.20149596973E+02  0.12184609840E+02  0.31886064799E+02  0.00000000000E+00 0. -1.
         11    1    3    3    0    0 -0.81513269190E+01  0.30205118906E+01 -0.11715036646E+02  0.14587998715E+02  0.51100000000E-03 0. -1.
        -11    1    3    3    0    0 -0.25118198836E+02 -0.20737737090E+02 -0.17995914478E+01  0.32622326435E+02  0.51100000000E-03 0.  1.
         12    1    3    3    0    0  0.11769522192E+02 -0.24323717734E+01  0.13300182538E+01  0.12091610051E+02  0.00000000000E+00 0. -1.
</event>
<event>
 7    1  0.3220798E-013  0.5930207E+02  0.7816164E-02  0.1266604E+00
        -11   -1    0    0    0    0  0.00000000000E+00  0.00000000000E+00  0.45593999997E+02  0.45594000000E+02  0.51100000000E-03 0.  1.
         11   -1    0    0    0    0 -0.00000000000E+00 -0.00000000000E+00 -0.45593999997E+02  0.45594000000E+02  0.51100000000E-03 0. -1.
    9900012    2    1    2    0    0  0.18538986053E+02  0.22580554906E+02  0.12772520915E+02  0.59302066514E+02  0.50000223386E+02 0.  0.
         12    1    1    2    0    0 -0.18538986053E+02 -0.22580554906E+02 -0.12772520915E+02  0.31885933486E+02  0.00000000000E+00 0. -1.
         11    1    3    3    0    0  0.40702549990E+01  0.17977791904E+01  0.66035525700E+01  0.79627817112E+01  0.51100000000E-03 0. -1.
        -11    1    3    3    0    0  0.25330844844E+02  0.12373712693E+02  0.17799323857E+02  0.33340311881E+02  0.51100000000E-03 0.  1.
         12    1    3    3    0    0 -0.10862113790E+02  0.84090630227E+01 -0.11630355512E+02  0.17998972922E+02  0.00000000000E+00 0. -1.
</event>
<event>
 7    1  0.3220798E-013  0.5930195E+02  0.7816164E-02  0.1266605E+00
        -11   -1    0    0    0    0  0.00000000000E+00  0.00000000000E+00  0.45593999997E+02  0.45594000000E+02  0.51100000000E-03 0.  1.
         11   -1    0    0    0    0 -0.00000000000E+00 -0.00000000000E+00 -0.45593999997E+02  0.45594000000E+02  0.51100000000E-03 0. -1.
    9900012    2    1    2    0    0  0.12815666322E+02  0.42908127358E+01  0.28880231213E+02  0.59301950822E+02  0.50000012392E+02 0.  0.
         12    1    1    2    0    0 -0.12815666322E+02 -0.42908127358E+01 -0.28880231213E+02  0.31886049178E+02  0.00000000000E+00 0. -1.
         11    1    3    3    0    0  0.39453398874E+00  0.60684601486E+01 -0.19690931580E+01  0.63921196617E+01  0.51100000000E-03 0. -1.
        -11    1    3    3    0    0  0.12245729715E+02  0.18575178595E+02  0.19621579745E+02  0.29664820041E+02  0.51100000000E-03 0.  1.
         12    1    3    3    0    0  0.17540261785E+00 -0.20352826008E+02  0.11227744627E+02  0.23245011120E+02  0.00000000000E+00 0. -1.
</event>
<event>
 7    1  0.3220798E-013  0.5930192E+02  0.7816164E-02  0.1266605E+00
        -11   -1    0    0    0    0  0.00000000000E+00  0.00000000000E+00  0.45593999997E+02  0.45594000000E+02  0.51100000000E-03 0. -1.
         11   -1    0    0    0    0 -0.00000000000E+00 -0.00000000000E+00 -0.45593999997E+02  0.45594000000E+02  0.51100000000E-03 0.  1.
    9900012    2    1    2    0    0 -0.92895817490E+01  0.58232987375E+01 -0.29941864342E+02  0.59301915613E+02  0.49999948179E+02 0.  0.
         12    1    1    2    0    0  0.92895817490E+01 -0.58232987375E+01  0.29941864342E+02  0.31886084387E+02  0.00000000000E+00 0. -1.
         11    1    3    3    0    0 -0.15650851891E+02  0.20283613140E+00 -0.47507270656E+01  0.16357252682E+02  0.51100000000E-03 0. -1.
        -11    1    3    3    0    0 -0.73854388941E+01  0.69680830365E+01  0.37917555743E+01  0.10838648415E+02  0.51100000000E-03 0.  1.
        -12    1    3    3    0    0  0.13746709036E+02 -0.13476204304E+01 -0.28982892850E+02  0.32106014516E+02  0.00000000000E+00 0.  1.
</event>
<event>
 7    1  0.3220798E-013  0.5930190E+02  0.7816164E-02  0.1266605E+00
        -11   -1    0    0    0    0  0.00000000000E+00  0.00000000000E+00  0.45593999997E+02  0.45594000000E+02  0.51100000000E-03 0.  1.
         11   -1    0    0    0    0 -0.00000000000E+00 -0.00000000000E+00 -0.45593999997E+02  0.45594000000E+02  0.51100000000E-03 0. -1.
    9900012    2    1    2    0    0  0.27428779668E+02  0.15811337199E+01  0.16182868287E+02  0.59301903282E+02  0.49999925690E+02 0.  0.
         12    1    1    2    0    0 -0.27428779668E+02 -0.15811337199E+01 -0.16182868287E+02  0.31886096718E+02  0.00000000000E+00 0. -1.
         11    1    3    3    0    0  0.18334210551E+00 -0.70737147130E+01 -0.32945020914E+01  0.78054339059E+01  0.51100000000E-03 0. -1.
        -11    1    3    3    0    0  0.27053970979E+02 -0.85128650947E+01  0.19338180451E+02  0.34327123988E+02  0.51100000000E-03 0.  1.
         12    1    3    3    0    0  0.19146658293E+00  0.17167713528E+02  0.13918992694E+00  0.17169345388E+02  0.00000000000E+00 0. -1.
</event>
<event>
 7    1  0.3220798E-013  0.5930191E+02  0.7816164E-02  0.1266605E+00
        -11   -1    0    0    0    0  0.00000000000E+00  0.00000000000E+00  0.45593999997E+02  0.45594000000E+02  0.51100000000E-03 0. -1.
         11   -1    0    0    0    0 -0.00000000000E+00 -0.00000000000E+00 -0.45593999997E+02  0.45594000000E+02  0.51100000000E-03 0.  1.
    9900012    2    1    2    0    0  0.25079499971E+02  0.12455965703E+02 -0.15250902756E+02  0.59301914708E+02  0.49999946527E+02 0.  0.
         12    1    1    2    0    0 -0.25079499971E+02 -0.12455965703E+02  0.15250902756E+02  0.31886085292E+02  0.00000000000E+00 0. -1.
         11    1    3    3    0    0  0.69079286173E+01  0.17078491124E+02 -0.19363730383E+02  0.26727296748E+02  0.51100000000E-03 0. -1.
        -11    1    3    3    0    0 -0.25113914395E+01  0.76853089244E+01 -0.36570225237E+00  0.80935034827E+01  0.51100000000E-03 0.  1.
        -12    1    3    3    0    0  0.20682962793E+02 -0.12307834345E+02  0.44785298795E+01  0.24481114477E+02  0.00000000000E+00 0.  1.
</event>
<event>
 7    1  0.3220798E-013  0.5930193E+02  0.7816164E-02  0.1266605E+00
        -11   -1    0    0    0    0  0.00000000000E+00  0.00000000000E+00  0.45593999997E+02  0.45594000000E+02  0.51100000000E-03 0. -1.
         11   -1    0    0    0    0 -0.00000000000E+00 -0.00000000000E+00 -0.45593999997E+02  0.45594000000E+02  0.51100000000E-03 0.  1.
    9900012    2    1    2    0    0 -0.30643324862E+02  0.29809213530E+01 -0.82959314601E+01  0.59301925775E+02  0.49999966711E+02 0.  0.
         12    1    1    2    0    0  0.30643324862E+02 -0.29809213530E+01  0.82959314601E+01  0.31886074225E+02  0.00000000000E+00 0. -1.
         11    1    3    3    0    0  0.21663828886E+01  0.11712226731E+01 -0.15322338379E+02  0.15518989369E+02  0.51100000000E-03 0. -1.
        -11    1    3    3    0    0 -0.19871642989E+02  0.33622554045E+01 -0.98734356842E+01  0.22442631062E+02  0.51100000000E-03 0.  1.
         12    1    3    3    0    0 -0.12938064761E+02 -0.15525567247E+01  0.16899842603E+02  0.21340305344E+02  0.00000000000E+00 0. -1.
</event>
<event>
 7    1  0.3220798E-013  0.5930198E+02  0.7816164E-02  0.1266605E+00
        -11   -1    0    0    0    0  0.00000000000E+00  0.00000000000E+00  0.45593999997E+02  0.45594000000E+02  0.51100000000E-03 0.  1.
         11   -1    0    0    0    0 -0.00000000000E+00 -0.00000000000E+00 -0.45593999997E+02  0.45594000000E+02  0.51100000000E-03 0. -1.
    9900012    2    1    2    0    0 -0.27698081997E+02  0.14366421775E+02 -0.65681554694E+01  0.59301976616E+02  0.50000059434E+02 0.  0.
         12    1    1    2    0    0  0.27698081997E+02 -0.14366421775E+02  0.65681554694E+01  0.31886023384E+02  0.00000000000E+00 0. -1.
         11    1    3    3    0    0  0.85610114332E+00  0.56496310768E+01 -0.11347546074E+02  0.12705040049E+02  0.51100000000E-03 0. -1.
        -11    1    3    3    0    0  0.37646594925E+01  0.12300597693E+02 -0.28974669166E+01  0.13186079004E+02  0.51100000000E-03 0.  1.
        -12    1    3    3    0    0 -0.32318842633E+02 -0.35838069946E+01  0.76768575217E+01  0.33410857564E+02  0.00000000000E+00 0.  1.
</event>
<event>
 7    1  0.3220798E-013  0.5930195E+02  0.7816164E-02  0.1266605E+00
        -11   -1    0    0    0    0  0.00000000000E+00  0.00000000000E+00  0.45593999997E+02  0.45594000000E+02  0.51100000000E-03 0.  1.
         11   -1    0    0    0    0 -0.00000000000E+00 -0.00000000000E+00 -0.45593999997E+02  0.45594000000E+02  0.51100000000E-03 0. -1.
    9900012    2    1    2    0    0  0.24600471029E+02 -0.11391984002E+00  0.20286053378E+02  0.59301951103E+02  0.50000012904E+02 0.  0.
         12    1    1    2    0    0 -0.24600471029E+02  0.11391984002E+00 -0.20286053378E+02  0.31886048897E+02  0.00000000000E+00 0. -1.
         11    1    3    3    0    0 -0.83019616083E+01 -0.30670079116E+01  0.49169331401E+01  0.10124491881E+02  0.51100000000E-03 0. -1.
        -11    1    3    3    0    0  0.13589131075E+02 -0.12789425021E+02  0.15503044741E+02  0.24260632148E+02  0.51100000000E-03 0.  1.
         12    1    3    3    0    0  0.19313301563E+02  0.15742513092E+02 -0.13392450292E+00  0.24916827075E+02  0.00000000000E+00 0. -1.
</event>
<event>
 7    1  0.3220798E-013  0.5930195E+02  0.7816164E-02  0.1266605E+00
        -11   -1    0    0    0    0  0.00000000000E+00  0.00000000000E+00  0.45593999997E+02  0.45594000000E+02  0.51100000000E-03 0. -1.
         11   -1    0    0    0    0 -0.00000000000E+00 -0.00000000000E+00 -0.45593999997E+02  0.45594000000E+02  0.51100000000E-03 0.  1.
    9900012    2    1    2    0    0 -0.23981539887E+02 -0.21013842272E+02 -0.15562601928E+00  0.59301952239E+02  0.50000014975E+02 0.  0.
         12    1    1    2    0    0  0.23981539887E+02  0.21013842272E+02  0.15562601928E+00  0.31886047761E+02  0.00000000000E+00 0. -1.
         11    1    3    3    0    0 -0.97147970926E+01  0.28844582250E+01  0.76551211471E+01  0.12700325265E+02  0.51100000000E-03 0. -1.
        -11    1    3    3    0    0 -0.85209757383E+01  0.44859375446E+01 -0.13995746357E+02  0.16988572028E+02  0.51100000000E-03 0.  1.
        -12    1    3    3    0    0 -0.57457670560E+01 -0.28384238041E+02  0.61849991909E+01  0.29613054946E+02  0.00000000000E+00 0.  1.
</event>
<event>
 7    1  0.3220798E-013  0.5930194E+02  0.7816164E-02  0.1266605E+00
        -11   -1    0    0    0    0  0.00000000000E+00  0.00000000000E+00  0.45593999997E+02  0.45594000000E+02  0.51100000000E-03 0.  1.
         11   -1    0    0    0    0 -0.00000000000E+00 -0.00000000000E+00 -0.45593999997E+02  0.45594000000E+02  0.51100000000E-03 0. -1.
    9900012    2    1    2    0    0  0.18470470137E+00 -0.31087020186E+02  0.70910913719E+01  0.59301944792E+02  0.50000001394E+02 0.  0.
         12    1    1    2    0    0 -0.18470470137E+00  0.31087020186E+02 -0.70910913719E+01  0.31886055208E+02  0.00000000000E+00 0. -1.
         11    1    3    3    0    0 -0.50689208771E+01 -0.30497880200E+02 -0.56165345267E+01  0.31422286930E+02  0.51100000000E-03 0. -1.
        -11    1    3    3    0    0 -0.73533092500E+01  0.43416007905E+01 -0.10202535132E+01  0.86000913857E+01  0.51100000000E-03 0.  1.
         12    1    3    3    0    0  0.12606934828E+02 -0.49307407768E+01  0.13727879412E+02  0.19279566476E+02  0.00000000000E+00 0. -1.
</event>
<event>
 7    1  0.3220798E-013  0.5930187E+02  0.7816164E-02  0.1266605E+00
        -11   -1    0    0    0    0  0.00000000000E+00  0.00000000000E+00  0.45593999997E+02  0.45594000000E+02  0.51100000000E-03 0. -1.
         11   -1    0    0    0    0 -0.00000000000E+00 -0.00000000000E+00 -0.45593999997E+02  0.45594000000E+02  0.51100000000E-03 0.  1.
    9900012    2    1    2    0    0  0.28572503215E+02 -0.12500323425E+02 -0.66392117049E+01  0.59301872017E+02  0.49999868669E+02 0.  0.
         12    1    1    2    0    0 -0.28572503215E+02  0.12500323425E+02  0.66392117049E+01  0.31886127983E+02  0.00000000000E+00 0. -1.
         11    1    3    3    0    0  0.35145837276E+02 -0.35598096338E+01 -0.12460801663E+02  0.37458960221E+02  0.51100000000E-03 0. -1.
        -11    1    3    3    0    0 -0.47205641322E+00 -0.52535014715E+00 -0.60344603136E+01  0.60756515348E+01  0.51100000000E-03 0.  1.
         12    1    3    3    0    0 -0.61012776477E+01 -0.84151636441E+01  0.11856050272E+02  0.15767260261E+02  0.00000000000E+00 0. -1.
</event>
<event>
 7    1  0.3220798E-013  0.5930194E+02  0.7816164E-02  0.1266605E+00
        -11   -1    0    0    0    0  0.00000000000E+00  0.00000000000E+00  0.45593999997E+02  0.45594000000E+02  0.51100000000E-03 0.  1.
         11   -1    0    0    0    0 -0.00000000000E+00 -0.00000000000E+00 -0.45593999997E+02  0.45594000000E+02  0.51100000000E-03 0. -1.
    9900012    2    1    2    0    0  0.77975362884E+01 -0.80335154882E+01  0.29856020428E+02  0.59301938796E+02  0.49999990459E+02 0.  0.
         12    1    1    2    0    0 -0.77975362884E+01  0.80335154882E+01 -0.29856020428E+02  0.31886061204E+02  0.00000000000E+00 0. -1.
         11    1    3    3    0    0 -0.21878209263E+01  0.26725893390E+00  0.50786014851E+01  0.55362605655E+01  0.51100000000E-03 0. -1.
        -11    1    3    3    0    0 -0.94799227858E+01 -0.21297339635E+02  0.17836808496E+02  0.29352978540E+02  0.51100000000E-03 0.  1.
         12    1    3    3    0    0  0.19465280000E+02  0.12996565213E+02  0.69406104472E+01  0.24412699691E+02  0.00000000000E+00 0. -1.
</event>
<event>
 7    1  0.3220798E-013  0.5930194E+02  0.7816164E-02  0.1266605E+00
        -11   -1    0    0    0    0  0.00000000000E+00  0.00000000000E+00  0.45593999997E+02  0.45594000000E+02  0.51100000000E-03 0.  1.
         11   -1    0    0    0    0 -0.00000000000E+00 -0.00000000000E+00 -0.45593999997E+02  0.45594000000E+02  0.51100000000E-03 0. -1.
    9900012    2    1    2    0    0  0.14087332439E+02 -0.24816358485E+02  0.14227303332E+02  0.59301941231E+02  0.49999994900E+02 0.  0.
         12    1    1    2    0    0 -0.14087332439E+02  0.24816358485E+02 -0.14227303332E+02  0.31886058769E+02  0.00000000000E+00 0. -1.
         11    1    3    3    0    0 -0.10405467012E+02 -0.10198089925E+02 -0.16713662623E+01  0.14665205328E+02  0.51100000000E-03 0. -1.
        -11    1    3    3    0    0  0.57358359506E+01  0.76142580460E+01  0.11942925547E+02  0.15281040885E+02  0.51100000000E-03 0.  1.
         12    1    3    3    0    0  0.18756963500E+02 -0.22232526606E+02  0.39557440475E+01  0.29355695018E+02  0.00000000000E+00 0. -1.
</event>
<event>
 7    1  0.3220798E-013  0.5930203E+02  0.7816164E-02  0.1266604E+00
        -11   -1    0    0    0    0  0.00000000000E+00  0.00000000000E+00  0.45593999997E+02  0.45594000000E+02  0.51100000000E-03 0.  1.
         11   -1    0    0    0    0 -0.00000000000E+00 -0.00000000000E+00 -0.45593999997E+02  0.45594000000E+02  0.51100000000E-03 0. -1.
    9900012    2    1    2    0    0 -0.28424032781E+02  0.13542543243E+02 -0.50387667463E+01  0.59302026793E+02  0.50000150943E+02 0.  0.
         12    1    1    2    0    0  0.28424032781E+02 -0.13542543243E+02  0.50387667463E+01  0.31885973207E+02  0.00000000000E+00 0. -1.
         11    1    3    3    0    0 -0.20510804445E+02 -0.51741660654E+01  0.62572462083E+01  0.22059424830E+02  0.51100000000E-03 0. -1.
        -11    1    3    3    0    0 -0.61425852271E+01  0.15841340296E+02  0.71910417237E+01  0.18449674712E+02  0.51100000000E-03 0.  1.
         12    1    3    3    0    0 -0.17706431096E+01  0.28753690121E+01 -0.18487054678E+02  0.18792927251E+02  0.00000000000E+00 0. -1.
</event>
<event>
 7    1  0.3220798E-013  0.5930194E+02  0.7816164E-02  0.1266605E+00
        -11   -1    0    0    0    0  0.00000000000E+00  0.00000000000E+00  0.45593999997E+02  0.45594000000E+02  0.51100000000E-03 0.  1.
         11   -1    0    0    0    0 -0.00000000000E+00 -0.00000000000E+00 -0.45593999997E+02  0.45594000000E+02  0.51100000000E-03 0. -1.
    9900012    2    1    2    0    0 -0.41102548675E+01  0.79230004591E+00  0.31610107668E+02  0.59301939704E+02  0.49999992114E+02 0.  0.
         12    1    1    2    0    0  0.41102548675E+01 -0.79230004591E+00 -0.31610107668E+02  0.31886060296E+02  0.00000000000E+00 0. -1.
         11    1    3    3    0    0 -0.67626763379E+01 -0.92649711343E+01 -0.39242535711E+01  0.12123252357E+02  0.51100000000E-03 0. -1.
        -11    1    3    3    0    0 -0.77304947735E+01  0.13962517291E+02  0.31612536316E+02  0.35412778642E+02  0.51100000000E-03 0.  1.
        -12    1    3    3    0    0  0.10382916244E+02 -0.39052461112E+01  0.39218249235E+01  0.11765908705E+02  0.00000000000E+00 0.  1.
</event>
<event>
 7    1  0.3220798E-013  0.5930198E+02  0.7816164E-02  0.1266605E+00
        -11   -1    0    0    0    0  0.00000000000E+00  0.00000000000E+00  0.45593999997E+02  0.45594000000E+02  0.51100000000E-03 0.  1.
         11   -1    0    0    0    0 -0.00000000000E+00 -0.00000000000E+00 -0.45593999997E+02  0.45594000000E+02  0.51100000000E-03 0. -1.
    9900012    2    1    2    0    0  0.20377593133E+02 -0.67401403849E+01  0.23580550285E+02  0.59301981966E+02  0.50000069191E+02 0.  0.
         12    1    1    2    0    0 -0.20377593133E+02  0.67401403849E+01 -0.23580550285E+02  0.31886018034E+02  0.00000000000E+00 0. -1.
         11    1    3    3    0    0 -0.36836476478E+01 -0.86593057803E+01 -0.51851970082E+01  0.10744259158E+02  0.51100000000E-03 0. -1.
        -11    1    3    3    0    0  0.15098383348E+00  0.46130205550E+01 -0.51871847137E+01  0.69433162303E+01  0.51100000000E-03 0.  1.
        -12    1    3    3    0    0  0.23910256948E+02 -0.26938551596E+01  0.33952932007E+02  0.41614406577E+02  0.00000000000E+00 0.  1.
</event>
<event>
 7    1  0.3220798E-013  0.5930197E+02  0.7816164E-02  0.1266605E+00
        -11   -1    0    0    0    0  0.00000000000E+00  0.00000000000E+00  0.45593999997E+02  0.45594000000E+02  0.51100000000E-03 0.  1.
         11   -1    0    0    0    0 -0.00000000000E+00 -0.00000000000E+00 -0.45593999997E+02  0.45594000000E+02  0.51100000000E-03 0. -1.
    9900012    2    1    2    0    0  0.44098104000E+01  0.29062691410E+02 -0.12354454097E+02  0.59301968641E+02  0.50000044890E+02 0.  0.
         12    1    1    2    0    0 -0.44098104000E+01 -0.29062691410E+02  0.12354454097E+02  0.31886031359E+02  0.00000000000E+00 0. -1.
         11    1    3    3    0    0 -0.42360553589E+01  0.10012232897E+02  0.12602462953E+02  0.16643648799E+02  0.51100000000E-03 0. -1.
        -11    1    3    3    0    0  0.47276770103E+01 -0.30794812508E+01  0.33134917819E+01  0.65431920908E+01  0.51100000000E-03 0.  1.
         12    1    3    3    0    0  0.39181887486E+01  0.22129939764E+02 -0.28270408832E+02  0.36115127752E+02  0.00000000000E+00 0. -1.
</event>
<event>
 7    1  0.3220798E-013  0.5930196E+02  0.7816164E-02  0.1266605E+00
        -11   -1    0    0    0    0  0.00000000000E+00  0.00000000000E+00  0.45593999997E+02  0.45594000000E+02  0.51100000000E-03 0. -1.
         11   -1    0    0    0    0 -0.00000000000E+00 -0.00000000000E+00 -0.45593999997E+02  0.45594000000E+02  0.51100000000E-03 0.  1.
    9900012    2    1    2    0    0 -0.10717295013E+01  0.60680513671E+01 -0.31284980059E+02  0.59301955579E+02  0.50000021067E+02 0.  0.
         12    1    1    2    0    0  0.10717295013E+01 -0.60680513671E+01  0.31284980059E+02  0.31886044421E+02  0.00000000000E+00 0. -1.
         11    1    3    3    0    0  0.44358699106E+01 -0.10960991489E+02 -0.67109757408E+01  0.13596230063E+02  0.51100000000E-03 0. -1.
        -11    1    3    3    0    0  0.61513117373E+01  0.12100790849E+02 -0.29222473699E+02  0.32221433001E+02  0.51100000000E-03 0.  1.
         12    1    3    3    0    0 -0.11658911149E+02  0.49282520067E+01  0.46484693811E+01  0.13484292514E+02  0.00000000000E+00 0. -1.
</event>
<event>
 7    1  0.3220798E-013  0.5930193E+02  0.7816164E-02  0.1266605E+00
        -11   -1    0    0    0    0  0.00000000000E+00  0.00000000000E+00  0.45593999997E+02  0.45594000000E+02  0.51100000000E-03 0. -1.
         11   -1    0    0    0    0 -0.00000000000E+00 -0.00000000000E+00 -0.45593999997E+02  0.45594000000E+02  0.51100000000E-03 0.  1.
    9900012    2    1    2    0    0  0.23006726070E+02 -0.76411805610E+01 -0.20712905270E+02  0.59301928911E+02  0.49999972430E+02 0.  0.
         12    1    1    2    0    0 -0.23006726070E+02  0.76411805610E+01  0.20712905270E+02  0.31886071089E+02  0.00000000000E+00 0. -1.
         11    1    3    3    0    0  0.12033640856E+02  0.87215748312E+01 -0.38175597465E+01  0.15344319550E+02  0.51100000000E-03 0. -1.
        -11    1    3    3    0    0 -0.83475509480E+01  0.52494068741E+01 -0.10236459286E+02  0.14213478755E+02  0.51100000000E-03 0.  1.
        -12    1    3    3    0    0  0.19320636162E+02 -0.21612162266E+02 -0.66588862373E+01  0.29744130605E+02  0.00000000000E+00 0.  1.
</event>
<event>
 7    1  0.3220798E-013  0.5930194E+02  0.7816164E-02  0.1266605E+00
        -11   -1    0    0    0    0  0.00000000000E+00  0.00000000000E+00  0.45593999997E+02  0.45594000000E+02  0.51100000000E-03 0.  1.
         11   -1    0    0    0    0 -0.00000000000E+00 -0.00000000000E+00 -0.45593999997E+02  0.45594000000E+02  0.51100000000E-03 0. -1.
    9900012    2    1    2    0    0 -0.17142181203E+02  0.15627582329E+02  0.21877956496E+02  0.59301942133E+02  0.49999996545E+02 0.  0.
         12    1    1    2    0    0  0.17142181203E+02 -0.15627582329E+02 -0.21877956496E+02  0.31886057867E+02  0.00000000000E+00 0. -1.
         11    1    3    3    0    0  0.10795557318E+02  0.73221943026E+01  0.38704174998E+01  0.13606568969E+02  0.51100000000E-03 0. -1.
        -11    1    3    3    0    0  0.97329241260E+00  0.12704248827E+02  0.59759302740E+01  0.14073271804E+02  0.51100000000E-03 0.  1.
        -12    1    3    3    0    0 -0.28911030934E+02 -0.43988608001E+01  0.12031608723E+02  0.31622101360E+02  0.00000000000E+00 0.  1.
</event>
<event>
 7    1  0.3649634E-013  0.5930193E+02  0.7816164E-02  0.1266605E+00
        -11   -1    0    0    0    0  0.00000000000E+00  0.00000000000E+00  0.45593999997E+02  0.45594000000E+02  0.51100000000E-03 0. -1.
         11   -1    0    0    0    0 -0.00000000000E+00 -0.00000000000E+00 -0.45593999997E+02  0.45594000000E+02  0.51100000000E-03 0.  1.
    9900012    2    1    2    0    0  0.25532419889E+02  0.86979447855E+01  0.17004777630E+02  0.59301934530E+02  0.49999982679E+02 0.  0.
         12    1    1    2    0    0 -0.25532419889E+02 -0.86979447855E+01 -0.17004777630E+02  0.31886065470E+02  0.00000000000E+00 0. -1.
         11    1    3    3    0    0 -0.35600264620E+01 -0.69857621107E+01  0.51696709348E+01  0.93914939447E+01  0.51100000000E-03 0. -1.
        -11    1    3    3    0    0  0.29434931422E+02 -0.31126369923E+01  0.87017125608E+01  0.30851636887E+02  0.51100000000E-03 0.  1.
         12    1    3    3    0    0 -0.34248507118E+00  0.18796343888E+02  0.31333941346E+01  0.19058803698E+02  0.00000000000E+00 0. -1.
</event>
<event>
 7    1  0.3220798E-013  0.5930194E+02  0.7816164E-02  0.1266605E+00
        -11   -1    0    0    0    0  0.00000000000E+00  0.00000000000E+00  0.45593999997E+02  0.45594000000E+02  0.51100000000E-03 0.  1.
         11   -1    0    0    0    0 -0.00000000000E+00 -0.00000000000E+00 -0.45593999997E+02  0.45594000000E+02  0.51100000000E-03 0. -1.
    9900012    2    1    2    0    0 -0.21081339567E+02  0.23408142586E+02 -0.49352650562E+01  0.59301939434E+02  0.49999991622E+02 0.  0.
         12    1    1    2    0    0  0.21081339567E+02 -0.23408142586E+02  0.49352650562E+01  0.31886060566E+02  0.00000000000E+00 0. -1.
         11    1    3    3    0    0 -0.13309782742E+02  0.23245268860E+02 -0.17594966273E+02  0.32048021459E+02  0.51100000000E-03 0. -1.
        -11    1    3    3    0    0 -0.55242710014E+01  0.99593489491E+01  0.39335216243E+00  0.11395653898E+02  0.51100000000E-03 0.  1.
        -12    1    3    3    0    0 -0.22472858239E+01 -0.97964752239E+01  0.12266349055E+02  0.15858264076E+02  0.00000000000E+00 0.  1.
</event>
<event>
 7    1  0.3220798E-013  0.5930193E+02  0.7816164E-02  0.1266605E+00
        -11   -1    0    0    0    0  0.00000000000E+00  0.00000000000E+00  0.45593999997E+02  0.45594000000E+02  0.51100000000E-03 0. -1.
         11   -1    0    0    0    0 -0.00000000000E+00 -0.00000000000E+00 -0.45593999997E+02  0.45594000000E+02  0.51100000000E-03 0.  1.
    9900012    2    1    2    0    0 -0.23495290152E+02 -0.19140090771E+02 -0.99171360179E+01  0.59301932183E+02  0.49999978398E+02 0.  0.
         12    1    1    2    0    0  0.23495290152E+02  0.19140090771E+02  0.99171360179E+01  0.31886067817E+02  0.00000000000E+00 0. -1.
         11    1    3    3    0    0 -0.62035696529E+01 -0.43653203532E+01  0.80295445478E+01  0.11045989504E+02  0.51100000000E-03 0. -1.
        -11    1    3    3    0    0 -0.25744611039E+02 -0.20638586350E+02 -0.18724950649E+02  0.37938898523E+02  0.51100000000E-03 0.  1.
         12    1    3    3    0    0  0.84528905407E+01  0.58638159322E+01  0.77827008325E+00  0.10317044155E+02  0.00000000000E+00 0. -1.
</event>
<event>
 7    1  0.3220798E-013  0.5930194E+02  0.7816164E-02  0.1266605E+00
        -11   -1    0    0    0    0  0.00000000000E+00  0.00000000000E+00  0.45593999997E+02  0.45594000000E+02  0.51100000000E-03 0.  1.
         11   -1    0    0    0    0 -0.00000000000E+00 -0.00000000000E+00 -0.45593999997E+02  0.45594000000E+02  0.51100000000E-03 0. -1.
    9900012    2    1    2    0    0  0.10257311175E+02 -0.23490504884E+02  0.18965880428E+02  0.59301939210E+02  0.49999991214E+02 0.  0.
         12    1    1    2    0    0 -0.10257311175E+02  0.23490504884E+02 -0.18965880428E+02  0.31886060790E+02  0.00000000000E+00 0. -1.
         11    1    3    3    0    0  0.15019184434E+02 -0.74073614084E+01  0.13365928640E+02  0.21426454508E+02  0.51100000000E-03 0. -1.
        -11    1    3    3    0    0  0.19162361087E+01 -0.14010863267E+02  0.18450106032E+02  0.23246132219E+02  0.51100000000E-03 0.  1.
         12    1    3    3    0    0 -0.66781093682E+01 -0.20722802088E+01 -0.12850154243E+02  0.14629352483E+02  0.00000000000E+00 0. -1.
</event>
<event>
 7    1  0.3220798E-013  0.5930196E+02  0.7816164E-02  0.1266605E+00
        -11   -1    0    0    0    0  0.00000000000E+00  0.00000000000E+00  0.45593999997E+02  0.45594000000E+02  0.51100000000E-03 0.  1.
         11   -1    0    0    0    0 -0.00000000000E+00 -0.00000000000E+00 -0.45593999997E+02  0.45594000000E+02  0.51100000000E-03 0. -1.
    9900012    2    1    2    0    0  0.52812126846E+01 -0.21448944868E+01  0.31372401537E+02  0.59301962962E+02  0.50000034532E+02 0.  0.
         12    1    1    2    0    0 -0.52812126846E+01  0.21448944868E+01 -0.31372401537E+02  0.31886037038E+02  0.00000000000E+00 0. -1.
         11    1    3    3    0    0  0.19483859169E+02 -0.16629107530E+01  0.16474053362E+02  0.25569131286E+02  0.51100000000E-03 0. -1.
        -11    1    3    3    0    0 -0.10184701283E+02 -0.31436006410E+01  0.22405579998E+02  0.24811698461E+02  0.51100000000E-03 0.  1.
        -12    1    3    3    0    0 -0.40179452012E+01  0.26616169072E+01 -0.75072318229E+01  0.89211332151E+01  0.00000000000E+00 0.  1.
</event>
<event>
 7    1  0.3220798E-013  0.5930196E+02  0.7816164E-02  0.1266605E+00
        -11   -1    0    0    0    0  0.00000000000E+00  0.00000000000E+00  0.45593999997E+02  0.45594000000E+02  0.51100000000E-03 0. -1.
         11   -1    0    0    0    0 -0.00000000000E+00 -0.00000000000E+00 -0.45593999997E+02  0.45594000000E+02  0.51100000000E-03 0.  1.
    9900012    2    1    2    0    0  0.16146174870E+01  0.26443012132E+02 -0.17744848370E+02  0.59301960360E+02  0.50000029787E+02 0.  0.
         12    1    1    2    0    0 -0.16146174870E+01 -0.26443012132E+02  0.17744848370E+02  0.31886039640E+02  0.00000000000E+00 0. -1.
         11    1    3    3    0    0  0.70424632744E+01 -0.37198742377E+01  0.83278891008E+01  0.11523345454E+02  0.51100000000E-03 0. -1.
        -11    1    3    3    0    0 -0.15003698654E+01  0.61238505794E+01 -0.22245835627E+02  0.23122064325E+02  0.51100000000E-03 0.  1.
         12    1    3    3    0    0 -0.39274759220E+01  0.24039035790E+02 -0.38269018439E+01  0.24656550581E+02  0.00000000000E+00 0. -1.
</event>
<event>
 7    1  0.3220798E-013  0.5930195E+02  0.7816164E-02  0.1266605E+00
        -11   -1    0    0    0    0  0.00000000000E+00  0.00000000000E+00  0.45593999997E+02  0.45594000000E+02  0.51100000000E-03 0.  1.
         11   -1    0    0    0    0 -0.00000000000E+00 -0.00000000000E+00 -0.45593999997E+02  0.45594000000E+02  0.51100000000E-03 0. -1.
    9900012    2    1    2    0    0  0.16955416842E+02 -0.26003300026E+01  0.26878844463E+02  0.59301950447E+02  0.50000011707E+02 0.  0.
         12    1    1    2    0    0 -0.16955416842E+02  0.26003300026E+01 -0.26878844463E+02  0.31886049553E+02  0.00000000000E+00 0. -1.
         11    1    3    3    0    0  0.87367272379E-02  0.13458311340E+02  0.12157545073E+02  0.18136485958E+02  0.51100000000E-03 0. -1.
        -11    1    3    3    0    0  0.63622174234E+01 -0.24242756145E+02  0.95867902967E+01  0.26834596783E+02  0.51100000000E-03 0.  1.
         12    1    3    3    0    0  0.10584462692E+02  0.81841148027E+01  0.51345090930E+01  0.14330867706E+02  0.00000000000E+00 0. -1.
</event>
<event>
 7    1  0.3220798E-013  0.5930201E+02  0.7816164E-02  0.1266605E+00
        -11   -1    0    0    0    0  0.00000000000E+00  0.00000000000E+00  0.45593999997E+02  0.45594000000E+02  0.51100000000E-03 0. -1.
         11   -1    0    0    0    0 -0.00000000000E+00 -0.00000000000E+00 -0.45593999997E+02  0.45594000000E+02  0.51100000000E-03 0.  1.
    9900012    2    1    2    0    0 -0.23540436498E+02  0.16372092007E+02 -0.13947011152E+02  0.59302005155E+02  0.50000111481E+02 0.  0.
         12    1    1    2    0    0  0.23540436498E+02 -0.16372092007E+02  0.13947011152E+02  0.31885994845E+02  0.00000000000E+00 0. -1.
         11    1    3    3    0    0  0.93690633437E+00 -0.17101353972E+01 -0.90271768322E+00  0.21487801267E+01  0.51100000000E-03 0. -1.
        -11    1    3    3    0    0 -0.23730778750E+02 -0.10405640059E+02 -0.24462485409E+00  0.25913067103E+02  0.51100000000E-03 0.  1.
         12    1    3    3    0    0 -0.74656408207E+00  0.28487867463E+02 -0.12799668615E+02  0.31240157925E+02  0.00000000000E+00 0. -1.
</event>
<event>
 7    1  0.3220798E-013  0.5930195E+02  0.7816164E-02  0.1266605E+00
        -11   -1    0    0    0    0  0.00000000000E+00  0.00000000000E+00  0.45593999997E+02  0.45594000000E+02  0.51100000000E-03 0.  1.
         11   -1    0    0    0    0 -0.00000000000E+00 -0.00000000000E+00 -0.45593999997E+02  0.45594000000E+02  0.51100000000E-03 0. -1.
    9900012    2    1    2    0    0 -0.95120451953E+01 -0.29795506601E+02  0.62023508682E+01  0.59301947034E+02  0.50000005484E+02 0.  0.
         12    1    1    2    0    0  0.95120451953E+01  0.29795506601E+02 -0.62023508682E+01  0.31886052966E+02  0.00000000000E+00 0. -1.
         11    1    3    3    0    0 -0.10381360874E+02 -0.55227498892E+01  0.90292196606E+01  0.14825661128E+02  0.51100000000E-03 0. -1.
        -11    1    3    3    0    0  0.18113134311E+02 -0.72591106887E+01  0.25005749058E+01  0.19673159321E+02  0.51100000000E-03 0.  1.
         12    1    3    3    0    0 -0.17243818633E+02 -0.17013646023E+02 -0.53274436983E+01  0.24803126585E+02  0.00000000000E+00 0. -1.
</event>
<event>
 7    1  0.3220798E-013  0.5930195E+02  0.7816164E-02  0.1266605E+00
        -11   -1    0    0    0    0  0.00000000000E+00  0.00000000000E+00  0.45593999997E+02  0.45594000000E+02  0.51100000000E-03 0.  1.
         11   -1    0    0    0    0 -0.00000000000E+00 -0.00000000000E+00 -0.45593999997E+02  0.45594000000E+02  0.51100000000E-03 0. -1.
    9900012    2    1    2    0    0 -0.12705993527E+02 -0.18373356514E+02 -0.22752965203E+02  0.59301954046E+02  0.50000018270E+02 0.  0.
         12    1    1    2    0    0  0.12705993527E+02  0.18373356514E+02  0.22752965203E+02  0.31886045954E+02  0.00000000000E+00 0. -1.
         11    1    3    3    0    0 -0.17319858798E+02 -0.65959704450E+00 -0.12816603383E+02  0.21556388834E+02  0.51100000000E-03 0. -1.
        -11    1    3    3    0    0 -0.84574233164E+01 -0.14448241584E+02  0.51529498641E+01  0.17516637422E+02  0.51100000000E-03 0.  1.
        -12    1    3    3    0    0  0.13071288587E+02 -0.32655178850E+01 -0.15089311684E+02  0.20228927789E+02  0.00000000000E+00 0.  1.
</event>
<event>
 7    1  0.3220798E-013  0.5930196E+02  0.7816164E-02  0.1266605E+00
        -11   -1    0    0    0    0  0.00000000000E+00  0.00000000000E+00  0.45593999997E+02  0.45594000000E+02  0.51100000000E-03 0.  1.
         11   -1    0    0    0    0 -0.00000000000E+00 -0.00000000000E+00 -0.45593999997E+02  0.45594000000E+02  0.51100000000E-03 0. -1.
    9900012    2    1    2    0    0 -0.26574147718E+02  0.11915100254E+02 -0.12983247467E+02  0.59301958292E+02  0.50000026015E+02 0.  0.
         12    1    1    2    0    0  0.26574147718E+02 -0.11915100254E+02  0.12983247467E+02  0.31886041708E+02  0.00000000000E+00 0. -1.
         11    1    3    3    0    0 -0.21854392910E+02  0.75676967939E+01 -0.82858255992E+01  0.24567039512E+02  0.51100000000E-03 0. -1.
        -11    1    3    3    0    0 -0.12286156506E+02  0.14507928846E+02  0.39229287033E+01  0.19411826575E+02  0.51100000000E-03 0.  1.
        -12    1    3    3    0    0  0.75664016984E+01 -0.10160525386E+02 -0.86203505713E+01  0.15323092206E+02  0.00000000000E+00 0.  1.
</event>
<event>
 7    1  0.3220798E-013  0.5930192E+02  0.7816164E-02  0.1266605E+00
        -11   -1    0    0    0    0  0.00000000000E+00  0.00000000000E+00  0.45593999997E+02  0.45594000000E+02  0.51100000000E-03 0.  1.
         11   -1    0    0    0    0 -0.00000000000E+00 -0.00000000000E+00 -0.45593999997E+02  0.45594000000E+02  0.51100000000E-03 0. -1.
    9900012    2    1    2    0    0 -0.94718162687E+01  0.64280497841E+01  0.29760494259E+02  0.59301919243E+02  0.49999954799E+02 0.  0.
         12    1    1    2    0    0  0.94718162687E+01 -0.64280497841E+01 -0.29760494259E+02  0.31886080757E+02  0.00000000000E+00 0. -1.
         11    1    3    3    0    0  0.96045351394E+01  0.83404859470E+01 -0.53627661692E+00  0.12731786754E+02  0.51100000000E-03 0. -1.
        -11    1    3    3    0    0  0.14639464952E+01 -0.17334505823E+01 -0.51354405093E+01  0.56143334197E+01  0.51100000000E-03 0.  1.
        -12    1    3    3    0    0 -0.20540297903E+02 -0.17898558055E+00  0.35432211385E+02  0.40955799070E+02  0.00000000000E+00 0.  1.
</event>
<event>
 7    1  0.3220798E-013  0.5930195E+02  0.7816164E-02  0.1266605E+00
        -11   -1    0    0    0    0  0.00000000000E+00  0.00000000000E+00  0.45593999997E+02  0.45594000000E+02  0.51100000000E-03 0.  1.
         11   -1    0    0    0    0 -0.00000000000E+00 -0.00000000000E+00 -0.45593999997E+02  0.45594000000E+02  0.51100000000E-03 0. -1.
    9900012    2    1    2    0    0 -0.20753790308E+02  0.20982240747E+02  0.12072520544E+02  0.59301953033E+02  0.50000016423E+02 0.  0.
         12    1    1    2    0    0  0.20753790308E+02 -0.20982240747E+02 -0.12072520544E+02  0.31886046967E+02  0.00000000000E+00 0. -1.
         11    1    3    3    0    0  0.25261508145E+01 -0.82373796556E+01 -0.24366321968E+01  0.89539398173E+01  0.51100000000E-03 0. -1.
        -11    1    3    3    0    0 -0.20833971435E+02  0.82033612513E+01  0.18219625005E+02  0.28867009494E+02  0.51100000000E-03 0.  1.
        -12    1    3    3    0    0 -0.24459696882E+01  0.21016259151E+02 -0.37104722644E+01  0.21481003721E+02  0.00000000000E+00 0.  1.
</event>
<event>
 7    1  0.3220798E-013  0.5930195E+02  0.7816164E-02  0.1266605E+00
        -11   -1    0    0    0    0  0.00000000000E+00  0.00000000000E+00  0.45593999997E+02  0.45594000000E+02  0.51100000000E-03 0.  1.
         11   -1    0    0    0    0 -0.00000000000E+00 -0.00000000000E+00 -0.45593999997E+02  0.45594000000E+02  0.51100000000E-03 0. -1.
    9900012    2    1    2    0    0  0.31030506378E+01  0.67145085416E+01  0.31016231172E+02  0.59301950632E+02  0.50000012044E+02 0.  0.
         12    1    1    2    0    0 -0.31030506378E+01 -0.67145085416E+01 -0.31016231172E+02  0.31886049368E+02  0.00000000000E+00 0. -1.
         11    1    3    3    0    0 -0.79917748441E+01  0.12502847822E+02  0.21691080791E+02  0.26281032228E+02  0.51100000000E-03 0. -1.
        -11    1    3    3    0    0  0.10812390377E+02  0.83351965020E+01  0.12535513520E+02  0.18534356904E+02  0.51100000000E-03 0.  1.
        -12    1    3    3    0    0  0.28243510531E+00 -0.14123535783E+02 -0.32103631395E+01  0.14486561500E+02  0.00000000000E+00 0.  1.
</event>
<event>
 7    1  0.3220798E-013  0.5930193E+02  0.7816164E-02  0.1266605E+00
        -11   -1    0    0    0    0  0.00000000000E+00  0.00000000000E+00  0.45593999997E+02  0.45594000000E+02  0.51100000000E-03 0.  1.
         11   -1    0    0    0    0 -0.00000000000E+00 -0.00000000000E+00 -0.45593999997E+02  0.45594000000E+02  0.51100000000E-03 0. -1.
    9900012    2    1    2    0    0  0.24611643713E+02 -0.11186171711E+02 -0.16907342017E+02  0.59301926897E+02  0.49999968758E+02 0.  0.
         12    1    1    2    0    0 -0.24611643713E+02  0.11186171711E+02  0.16907342017E+02  0.31886073103E+02  0.00000000000E+00 0. -1.
         11    1    3    3    0    0  0.11330601179E+02 -0.56234405221E+01 -0.15220396329E+02  0.19790555097E+02  0.51100000000E-03 0. -1.
        -11    1    3    3    0    0  0.26084450004E+02 -0.51536177772E+01  0.16292761551E-01  0.26588692595E+02  0.51100000000E-03 0.  1.
        -12    1    3    3    0    0 -0.12803407470E+02 -0.40911341149E+00 -0.17032384502E+01  0.12922679205E+02  0.00000000000E+00 0.  1.
</event>
<event>
 7    1  0.3220798E-013  0.5930193E+02  0.7816164E-02  0.1266605E+00
        -11   -1    0    0    0    0  0.00000000000E+00  0.00000000000E+00  0.45593999997E+02  0.45594000000E+02  0.51100000000E-03 0.  1.
         11   -1    0    0    0    0 -0.00000000000E+00 -0.00000000000E+00 -0.45593999997E+02  0.45594000000E+02  0.51100000000E-03 0. -1.
    9900012    2    1    2    0    0 -0.29573798571E+02  0.84415890015E+01  0.84173144330E+01  0.59301934563E+02  0.49999982739E+02 0.  0.
         12    1    1    2    0    0  0.29573798571E+02 -0.84415890015E+01 -0.84173144330E+01  0.31886065437E+02  0.00000000000E+00 0. -1.
         11    1    3    3    0    0  0.30777894597E+01  0.72806746395E+01 -0.42328901467E+01  0.89665138387E+01  0.51100000000E-03 0. -1.
        -11    1    3    3    0    0  0.41863736330E+01  0.69318229297E+01  0.10121849495E+02  0.12962551091E+02  0.51100000000E-03 0.  1.
        -12    1    3    3    0    0 -0.36837961663E+02 -0.57709085676E+01  0.25283550842E+01  0.37372869633E+02  0.00000000000E+00 0.  1.
</event>
<event>
 7    1  0.3220798E-013  0.5930190E+02  0.7816164E-02  0.1266605E+00
        -11   -1    0    0    0    0  0.00000000000E+00  0.00000000000E+00  0.45593999997E+02  0.45594000000E+02  0.51100000000E-03 0. -1.
         11   -1    0    0    0    0 -0.00000000000E+00 -0.00000000000E+00 -0.45593999997E+02  0.45594000000E+02  0.51100000000E-03 0.  1.
    9900012    2    1    2    0    0  0.13424106702E+01  0.11604945456E+02 -0.29668945087E+02  0.59301903845E+02  0.49999926717E+02 0.  0.
         12    1    1    2    0    0 -0.13424106702E+01 -0.11604945456E+02  0.29668945087E+02  0.31886096155E+02  0.00000000000E+00 0. -1.
         11    1    3    3    0    0  0.14653554517E+01  0.14538632662E+02  0.12271402240E+01  0.14663730073E+02  0.51100000000E-03 0. -1.
        -11    1    3    3    0    0  0.12688885995E+02  0.21784184041E+01 -0.27600976708E+02  0.30455988739E+02  0.51100000000E-03 0.  1.
        -12    1    3    3    0    0 -0.12811830777E+02 -0.51121056101E+01 -0.32951086022E+01  0.14182185033E+02  0.00000000000E+00 0.  1.
</event>
<event>
 7    1  0.3220798E-013  0.5930194E+02  0.7816164E-02  0.1266605E+00
        -11   -1    0    0    0    0  0.00000000000E+00  0.00000000000E+00  0.45593999997E+02  0.45594000000E+02  0.51100000000E-03 0. -1.
         11   -1    0    0    0    0 -0.00000000000E+00 -0.00000000000E+00 -0.45593999997E+02  0.45594000000E+02  0.51100000000E-03 0.  1.
    9900012    2    1    2    0    0 -0.18909346639E+02  0.22738130920E+02 -0.11922033080E+02  0.59301939396E+02  0.49999991554E+02 0.  0.
         12    1    1    2    0    0  0.18909346639E+02 -0.22738130920E+02  0.11922033080E+02  0.31886060604E+02  0.00000000000E+00 0. -1.
         11    1    3    3    0    0 -0.31257731080E+01 -0.11552427094E+02  0.46442927437E+01  0.12837386208E+02  0.51100000000E-03 0. -1.
        -11    1    3    3    0    0  0.71005684002E+00  0.11265387169E+02  0.34260414223E+01  0.11796223501E+02  0.51100000000E-03 0.  1.
        -12    1    3    3    0    0 -0.16493630371E+02  0.23025170845E+02 -0.19992367246E+02  0.34668329688E+02  0.00000000000E+00 0.  1.
</event>
<event>
 7    1  0.3220798E-013  0.5930192E+02  0.7816164E-02  0.1266605E+00
        -11   -1    0    0    0    0  0.00000000000E+00  0.00000000000E+00  0.45593999997E+02  0.45594000000E+02  0.51100000000E-03 0.  1.
         11   -1    0    0    0    0 -0.00000000000E+00 -0.00000000000E+00 -0.45593999997E+02  0.45594000000E+02  0.51100000000E-03 0. -1.
    9900012    2    1    2    0    0 -0.15285376094E+02  0.12764745623E+02  0.24902620290E+02  0.59301922310E+02  0.49999960392E+02 0.  0.
         12    1    1    2    0    0  0.15285376094E+02 -0.12764745623E+02 -0.24902620290E+02  0.31886077690E+02  0.00000000000E+00 0. -1.
         11    1    3    3    0    0 -0.57434181279E+01 -0.34835649594E+01  0.14977530957E+01  0.68822482675E+01  0.51100000000E-03 0. -1.
        -11    1    3    3    0    0 -0.19005694155E+02 -0.81626761627E+01  0.11391050003E+02  0.23613591698E+02  0.51100000000E-03 0.  1.
        -12    1    3    3    0    0  0.94637361888E+01  0.24410986745E+02  0.12013817191E+02  0.28806082344E+02  0.00000000000E+00 0.  1.
</event>
<event>
 7    1  0.3220798E-013  0.5930181E+02  0.7816164E-02  0.1266605E+00
        -11   -1    0    0    0    0  0.00000000000E+00  0.00000000000E+00  0.45593999997E+02  0.45594000000E+02  0.51100000000E-03 0. -1.
         11   -1    0    0    0    0 -0.00000000000E+00 -0.00000000000E+00 -0.45593999997E+02  0.45594000000E+02  0.51100000000E-03 0.  1.
    9900012    2    1    2    0    0 -0.31625165143E+02  0.21749003331E+01 -0.34420339017E+01  0.59301813976E+02  0.49999762816E+02 0.  0.
         12    1    1    2    0    0  0.31625165143E+02 -0.21749003331E+01  0.34420339017E+01  0.31886186024E+02  0.00000000000E+00 0. -1.
         11    1    3    3    0    0 -0.30745134085E-01  0.49706298031E+01  0.53847677975E+01  0.73282897320E+01  0.51100000000E-03 0. -1.
        -11    1    3    3    0    0 -0.30712199358E+02  0.14385678957E+02 -0.73851517537E+01  0.34709183441E+02  0.51100000000E-03 0.  1.
        -12    1    3    3    0    0 -0.88222065113E+00 -0.17181408427E+02 -0.14416499455E+01  0.17264340803E+02  0.00000000000E+00 0.  1.
</event>
<event>
 7    1  0.3220798E-013  0.5930196E+02  0.7816164E-02  0.1266605E+00
        -11   -1    0    0    0    0  0.00000000000E+00  0.00000000000E+00  0.45593999997E+02  0.45594000000E+02  0.51100000000E-03 0. -1.
         11   -1    0    0    0    0 -0.00000000000E+00 -0.00000000000E+00 -0.45593999997E+02  0.45594000000E+02  0.51100000000E-03 0.  1.
    9900012    2    1    2    0    0 -0.23836617300E+02 -0.50652703617E+01 -0.20563998044E+02  0.59301963813E+02  0.50000036083E+02 0.  0.
         12    1    1    2    0    0  0.23836617300E+02  0.50652703617E+01  0.20563998044E+02  0.31886036187E+02  0.00000000000E+00 0. -1.
         11    1    3    3    0    0 -0.21673406403E+02  0.91440517407E+01 -0.55712045175E+01  0.24174129713E+02  0.51100000000E-03 0. -1.
        -11    1    3    3    0    0 -0.12496283396E+02 -0.17691745767E+00 -0.12225790804E+02  0.17483087815E+02  0.51100000000E-03 0.  1.
         12    1    3    3    0    0  0.10333072499E+02 -0.14032404645E+02 -0.27670027233E+01  0.17644746285E+02  0.00000000000E+00 0. -1.
</event>
<event>
 7    1  0.3220798E-013  0.5930198E+02  0.7816164E-02  0.1266605E+00
        -11   -1    0    0    0    0  0.00000000000E+00  0.00000000000E+00  0.45593999997E+02  0.45594000000E+02  0.51100000000E-03 0.  1.
         11   -1    0    0    0    0 -0.00000000000E+00 -0.00000000000E+00 -0.45593999997E+02  0.45594000000E+02  0.51100000000E-03 0. -1.
    9900012    2    1    2    0    0 -0.13094514531E+02  0.21234429444E+02  0.19858271993E+02  0.59301980004E+02  0.50000065613E+02 0.  0.
         12    1    1    2    0    0  0.13094514531E+02 -0.21234429444E+02 -0.19858271993E+02  0.31886019996E+02  0.00000000000E+00 0. -1.
         11    1    3    3    0    0 -0.20714659330E+02  0.15938896898E+02  0.84437427287E+01  0.27467113737E+02  0.51100000000E-03 0. -1.
        -11    1    3    3    0    0 -0.93522443865E+01 -0.30381149856E+01  0.16764015677E+00  0.98347710300E+01  0.51100000000E-03 0.  1.
         12    1    3    3    0    0  0.16972389186E+02  0.83336475316E+01  0.11246889108E+02  0.22000095238E+02  0.00000000000E+00 0. -1.
</event>
<event>
 7    1  0.3220798E-013  0.5930195E+02  0.7816164E-02  0.1266605E+00
        -11   -1    0    0    0    0  0.00000000000E+00  0.00000000000E+00  0.45593999997E+02  0.45594000000E+02  0.51100000000E-03 0. -1.
         11   -1    0    0    0    0 -0.00000000000E+00 -0.00000000000E+00 -0.45593999997E+02  0.45594000000E+02  0.51100000000E-03 0.  1.
    9900012    2    1    2    0    0 -0.22146613928E+02  0.13551196372E+01 -0.22900026302E+02  0.59301951917E+02  0.50000014388E+02 0.  0.
         12    1    1    2    0    0  0.22146613928E+02 -0.13551196372E+01  0.22900026302E+02  0.31886048083E+02  0.00000000000E+00 0. -1.
         11    1    3    3    0    0  0.12820778501E+02  0.11366745176E+01 -0.86189202840E+01  0.15490325285E+02  0.51100000000E-03 0. -1.
        -11    1    3    3    0    0 -0.13781111983E+02 -0.48750432838E+01 -0.16340222219E+02  0.21924597076E+02  0.51100000000E-03 0.  1.
        -12    1    3    3    0    0 -0.21186280446E+02  0.50934884034E+01  0.20591162009E+01  0.21887029556E+02  0.00000000000E+00 0.  1.
</event>
<event>
 7    1  0.3220798E-013  0.5930209E+02  0.7816164E-02  0.1266604E+00
        -11   -1    0    0    0    0  0.00000000000E+00  0.00000000000E+00  0.45593999997E+02  0.45594000000E+02  0.51100000000E-03 0.  1.
         11   -1    0    0    0    0 -0.00000000000E+00 -0.00000000000E+00 -0.45593999997E+02  0.45594000000E+02  0.51100000000E-03 0. -1.
    9900012    2    1    2    0    0  0.68968917777E+01 -0.87340367006E+01  0.29880770209E+02  0.59302094939E+02  0.50000275225E+02 0.  0.
         12    1    1    2    0    0 -0.68968917777E+01  0.87340367006E+01 -0.29880770209E+02  0.31885905061E+02  0.00000000000E+00 0. -1.
         11    1    3    3    0    0 -0.12490402348E+01 -0.10169272943E+02 -0.17910050360E+01  0.10401053456E+02  0.51100000000E-03 0. -1.
        -11    1    3    3    0    0 -0.73370880180E+01  0.17186943933E+01 -0.50339617320E+01  0.90624247297E+01  0.51100000000E-03 0.  1.
         12    1    3    3    0    0  0.15483020031E+02 -0.28345815099E+00  0.36705736977E+02  0.39838616753E+02  0.00000000000E+00 0. -1.
</event>
<event>
 7    1  0.3220798E-013  0.5930194E+02  0.7816164E-02  0.1266605E+00
        -11   -1    0    0    0    0  0.00000000000E+00  0.00000000000E+00  0.45593999997E+02  0.45594000000E+02  0.51100000000E-03 0. -1.
         11   -1    0    0    0    0 -0.00000000000E+00 -0.00000000000E+00 -0.45593999997E+02  0.45594000000E+02  0.51100000000E-03 0.  1.
    9900012    2    1    2    0    0  0.29225841633E+02  0.11826187301E+02 -0.47657515794E+01  0.59301938572E+02  0.49999990051E+02 0.  0.
         12    1    1    2    0    0 -0.29225841633E+02 -0.11826187301E+02  0.47657515794E+01  0.31886061428E+02  0.00000000000E+00 0. -1.
         11    1    3    3    0    0  0.17557778359E+02  0.18669572831E+02  0.83034719078E+01  0.26940233418E+02  0.51100000000E-03 0.  1.
        -11    1    3    3    0    0  0.10319433242E+01  0.96983978079E+01 -0.26537877025E+01  0.10107740425E+02  0.51100000000E-03 0. -1.
        -12    1    3    3    0    0  0.10636119950E+02 -0.16541783339E+02 -0.10415435785E+02  0.22253964730E+02  0.00000000000E+00 0.  1.
</event>
<event>
 7    1  0.3220798E-013  0.5930179E+02  0.7816164E-02  0.1266605E+00
        -11   -1    0    0    0    0  0.00000000000E+00  0.00000000000E+00  0.45593999997E+02  0.45594000000E+02  0.51100000000E-03 0.  1.
         11   -1    0    0    0    0 -0.00000000000E+00 -0.00000000000E+00 -0.45593999997E+02  0.45594000000E+02  0.51100000000E-03 0. -1.
    9900012    2    1    2    0    0  0.28549588773E+02 -0.34596174162E+01  0.13772530937E+02  0.59301786989E+02  0.49999713598E+02 0.  0.
         12    1    1    2    0    0 -0.28549588773E+02  0.34596174162E+01 -0.13772530937E+02  0.31886213011E+02  0.00000000000E+00 0. -1.
         11    1    3    3    0    0  0.28654892995E+02 -0.17333150064E+02  0.11313666455E+02  0.35348833540E+02  0.51100000000E-03 0. -1.
        -11    1    3    3    0    0  0.43909646813E+01  0.10954816073E+01  0.81005964481E+01  0.92790254801E+01  0.51100000000E-03 0.  1.
        -12    1    3    3    0    0 -0.44962689034E+01  0.12778051041E+02 -0.56417319661E+01  0.14673927969E+02  0.00000000000E+00 0.  1.
</event>
<event>
 7    1  0.3220798E-013  0.5930203E+02  0.7816164E-02  0.1266604E+00
        -11   -1    0    0    0    0  0.00000000000E+00  0.00000000000E+00  0.45593999997E+02  0.45594000000E+02  0.51100000000E-03 0.  1.
         11   -1    0    0    0    0 -0.00000000000E+00 -0.00000000000E+00 -0.45593999997E+02  0.45594000000E+02  0.51100000000E-03 0. -1.
    9900012    2    1    2    0    0  0.28032427175E+02 -0.89167039762E+01  0.12304078007E+02  0.59302032573E+02  0.50000161485E+02 0.  0.
         12    1    1    2    0    0 -0.28032427175E+02  0.89167039762E+01 -0.12304078007E+02  0.31885967427E+02  0.00000000000E+00 0. -1.
         11    1    3    3    0    0 -0.11754665475E+02  0.39799601619E+01  0.62845410535E+01  0.13910704506E+02  0.51100000000E-03 0. -1.
        -11    1    3    3    0    0  0.27923657729E+02 -0.96299352598E+00  0.59364557230E+01  0.28563954984E+02  0.51100000000E-03 0.  1.
        -12    1    3    3    0    0  0.11863434922E+02 -0.11933670612E+02  0.83081230778E-01  0.16827373084E+02  0.00000000000E+00 0.  1.
</event>
<event>
 7    1  0.3220798E-013  0.5930192E+02  0.7816164E-02  0.1266605E+00
        -11   -1    0    0    0    0  0.00000000000E+00  0.00000000000E+00  0.45593999997E+02  0.45594000000E+02  0.51100000000E-03 0. -1.
         11   -1    0    0    0    0 -0.00000000000E+00 -0.00000000000E+00 -0.45593999997E+02  0.45594000000E+02  0.51100000000E-03 0.  1.
    9900012    2    1    2    0    0 -0.42447487468E+01  0.32106784504E+01 -0.31438758044E+02  0.59301923801E+02  0.49999963111E+02 0.  0.
         12    1    1    2    0    0  0.42447487468E+01 -0.32106784504E+01  0.31438758044E+02  0.31886076199E+02  0.00000000000E+00 0. -1.
         11    1    3    3    0    0  0.15853354924E+02 -0.14566246278E+01 -0.17618790975E+02  0.23745997838E+02  0.51100000000E-03 0. -1.
        -11    1    3    3    0    0 -0.64172163611E+01 -0.95113471242E+01 -0.10543741449E+02  0.15582582390E+02  0.51100000000E-03 0.  1.
         12    1    3    3    0    0 -0.13680887310E+02  0.14178650202E+02 -0.32762256198E+01  0.19973343572E+02  0.00000000000E+00 0. -1.
</event>
<event>
 7    1  0.3220798E-013  0.5930183E+02  0.7816164E-02  0.1266605E+00
        -11   -1    0    0    0    0  0.00000000000E+00  0.00000000000E+00  0.45593999997E+02  0.45594000000E+02  0.51100000000E-03 0.  1.
         11   -1    0    0    0    0 -0.00000000000E+00 -0.00000000000E+00 -0.45593999997E+02  0.45594000000E+02  0.51100000000E-03 0. -1.
    9900012    2    1    2    0    0  0.30306915431E+02  0.97340326802E+01 -0.18620446529E+01  0.59301831754E+02  0.49999795239E+02 0.  0.
         12    1    1    2    0    0 -0.30306915431E+02 -0.97340326802E+01  0.18620446529E+01  0.31886168246E+02  0.00000000000E+00 0. -1.
         11    1    3    3    0    0  0.19059703813E+02  0.10781592727E+02 -0.74116357264E+01  0.23118118340E+02  0.51100000000E-03 0. -1.
        -11    1    3    3    0    0  0.16217820818E+02 -0.13808791427E+02  0.69784620351E+01  0.22414267006E+02  0.51100000000E-03 0.  1.
         12    1    3    3    0    0 -0.49706092010E+01  0.12761231380E+02 -0.14288709616E+01  0.13769446408E+02  0.00000000000E+00 0. -1.
</event>
<event>
 7    1  0.3220798E-013  0.5930195E+02  0.7816164E-02  0.1266605E+00
        -11   -1    0    0    0    0  0.00000000000E+00  0.00000000000E+00  0.45593999997E+02  0.45594000000E+02  0.51100000000E-03 0.  1.
         11   -1    0    0    0    0 -0.00000000000E+00 -0.00000000000E+00 -0.45593999997E+02  0.45594000000E+02  0.51100000000E-03 0. -1.
    9900012    2    1    2    0    0 -0.12158950584E+02 -0.28581060530E+02  0.72113150931E+01  0.59301950296E+02  0.50000011432E+02 0.  0.
         12    1    1    2    0    0  0.12158950584E+02  0.28581060530E+02 -0.72113150931E+01  0.31886049704E+02  0.00000000000E+00 0. -1.
         11    1    3    3    0    0 -0.59869352544E+01 -0.24402422508E+02  0.12382004139E+02  0.28011348500E+02  0.51100000000E-03 0. -1.
        -11    1    3    3    0    0 -0.12895939200E+02  0.87032948652E+00  0.83361335061E+01  0.15380306998E+02  0.51100000000E-03 0.  1.
         12    1    3    3    0    0  0.67239238707E+01 -0.50489675082E+01 -0.13506822552E+02  0.15910294798E+02  0.00000000000E+00 0. -1.
</event>
<event>
 7    1  0.3220798E-013  0.5930191E+02  0.7816164E-02  0.1266605E+00
        -11   -1    0    0    0    0  0.00000000000E+00  0.00000000000E+00  0.45593999997E+02  0.45594000000E+02  0.51100000000E-03 0. -1.
         11   -1    0    0    0    0 -0.00000000000E+00 -0.00000000000E+00 -0.45593999997E+02  0.45594000000E+02  0.51100000000E-03 0.  1.
    9900012    2    1    2    0    0  0.15962301101E+02  0.73220741745E+01 -0.26614183314E+02  0.59301912436E+02  0.49999942385E+02 0.  0.
         12    1    1    2    0    0 -0.15962301101E+02 -0.73220741745E+01  0.26614183314E+02  0.31886087564E+02  0.00000000000E+00 0. -1.
         11    1    3    3    0    0 -0.38227051594E+01  0.89102459617E+00 -0.24739012799E+01  0.46397400111E+01  0.51100000000E-03 0. -1.
        -11    1    3    3    0    0 -0.14858313425E+01  0.18242624296E+02  0.26259605845E+01  0.18490449028E+02  0.51100000000E-03 0.  1.
        -12    1    3    3    0    0  0.21270837603E+02 -0.11811574718E+02 -0.26766242618E+02  0.36171723398E+02  0.00000000000E+00 0.  1.
</event>
<event>
 7    1  0.3220798E-013  0.5930197E+02  0.7816164E-02  0.1266605E+00
        -11   -1    0    0    0    0  0.00000000000E+00  0.00000000000E+00  0.45593999997E+02  0.45594000000E+02  0.51100000000E-03 0.  1.
         11   -1    0    0    0    0 -0.00000000000E+00 -0.00000000000E+00 -0.45593999997E+02  0.45594000000E+02  0.51100000000E-03 0. -1.
    9900012    2    1    2    0    0  0.20595304167E+02 -0.54975368429E+01  0.23713484267E+02  0.59301971694E+02  0.50000050456E+02 0.  0.
         12    1    1    2    0    0 -0.20595304167E+02  0.54975368429E+01 -0.23713484267E+02  0.31886028306E+02  0.00000000000E+00 0. -1.
         11    1    3    3    0    0  0.74429640726E+01  0.15604604626E+02  0.23810193793E+02  0.29424933789E+02  0.51100000000E-03 0. -1.
        -11    1    3    3    0    0 -0.23347041718E+01  0.46934681917E+00  0.21745918031E+01  0.32248999640E+01  0.51100000000E-03 0.  1.
         12    1    3    3    0    0  0.15487044267E+02 -0.21571488288E+02 -0.22713013299E+01  0.26652137941E+02  0.00000000000E+00 0. -1.
</event>
<event>
 7    1  0.3220798E-013  0.5930191E+02  0.7816164E-02  0.1266605E+00
        -11   -1    0    0    0    0  0.00000000000E+00  0.00000000000E+00  0.45593999997E+02  0.45594000000E+02  0.51100000000E-03 0.  1.
         11   -1    0    0    0    0 -0.00000000000E+00 -0.00000000000E+00 -0.45593999997E+02  0.45594000000E+02  0.51100000000E-03 0. -1.
    9900012    2    1    2    0    0  0.14077678877E+02 -0.27541745346E+02  0.77455777162E+01  0.59301909719E+02  0.49999937429E+02 0.  0.
         12    1    1    2    0    0 -0.14077678877E+02  0.27541745346E+02 -0.77455777162E+01  0.31886090281E+02  0.00000000000E+00 0. -1.
         11    1    3    3    0    0  0.17233752611E+02 -0.11897096441E+01  0.76416478578E+01  0.18889479091E+02  0.51100000000E-03 0. -1.
        -11    1    3    3    0    0 -0.32001061107E+01 -0.11085178252E+02  0.15105976577E+02  0.19008218870E+02  0.51100000000E-03 0.  1.
         12    1    3    3    0    0  0.44032377214E-01 -0.15266857450E+02 -0.15002046719E+02  0.21404211758E+02  0.00000000000E+00 0. -1.
</event>
<event>
 7    1  0.3220798E-013  0.5930194E+02  0.7816164E-02  0.1266605E+00
        -11   -1    0    0    0    0  0.00000000000E+00  0.00000000000E+00  0.45593999997E+02  0.45594000000E+02  0.51100000000E-03 0. -1.
         11   -1    0    0    0    0 -0.00000000000E+00 -0.00000000000E+00 -0.45593999997E+02  0.45594000000E+02  0.51100000000E-03 0.  1.
    9900012    2    1    2    0    0 -0.25133229468E+02  0.19330921720E+02 -0.33699775957E+01  0.59301944944E+02  0.50000001671E+02 0.  0.
         12    1    1    2    0    0  0.25133229468E+02 -0.19330921720E+02  0.33699775957E+01  0.31886055056E+02  0.00000000000E+00 0. -1.
         11    1    3    3    0    0 -0.18855518150E+01 -0.27417572486E+01  0.95839103795E+01  0.10145140555E+02  0.51100000000E-03 0. -1.
        -11    1    3    3    0    0 -0.14854857311E+01  0.12239985826E+02  0.10119299125E+02  0.15950678227E+02  0.51100000000E-03 0.  1.
        -12    1    3    3    0    0 -0.21762191922E+02  0.98326931425E+01 -0.23073187100E+02  0.33206126161E+02  0.00000000000E+00 0.  1.
</event>
<event>
 7    1  0.3220798E-013  0.5930194E+02  0.7816164E-02  0.1266605E+00
        -11   -1    0    0    0    0  0.00000000000E+00  0.00000000000E+00  0.45593999997E+02  0.45594000000E+02  0.51100000000E-03 0.  1.
         11   -1    0    0    0    0 -0.00000000000E+00 -0.00000000000E+00 -0.45593999997E+02  0.45594000000E+02  0.51100000000E-03 0. -1.
    9900012    2    1    2    0    0 -0.17575056812E+02 -0.10354822436E+02  0.24507465386E+02  0.59301939891E+02  0.49999992455E+02 0.  0.
         12    1    1    2    0    0  0.17575056812E+02  0.10354822436E+02 -0.24507465386E+02  0.31886060109E+02  0.00000000000E+00 0. -1.
         11    1    3    3    0    0 -0.16511318793E+02  0.70856708034E+01  0.16896042565E+02  0.24663873046E+02  0.51100000000E-03 0. -1.
        -11    1    3    3    0    0 -0.13877405911E+02 -0.27508049611E+01  0.48214043080E+01  0.14946413032E+02  0.51100000000E-03 0.  1.
         12    1    3    3    0    0  0.12813667892E+02 -0.14689688278E+02  0.27900185136E+01  0.19691653813E+02  0.00000000000E+00 0. -1.
</event>
<event>
 7    1  0.3220798E-013  0.5930194E+02  0.7816164E-02  0.1266605E+00
        -11   -1    0    0    0    0  0.00000000000E+00  0.00000000000E+00  0.45593999997E+02  0.45594000000E+02  0.51100000000E-03 0.  1.
         11   -1    0    0    0    0 -0.00000000000E+00 -0.00000000000E+00 -0.45593999997E+02  0.45594000000E+02  0.51100000000E-03 0. -1.
    9900012    2    1    2    0    0 -0.19441503579E+02  0.19145316312E+02  0.16498663106E+02  0.59301935922E+02  0.49999985217E+02 0.  0.
         12    1    1    2    0    0  0.19441503579E+02 -0.19145316312E+02 -0.16498663106E+02  0.31886064078E+02  0.00000000000E+00 0. -1.
         11    1    3    3    0    0 -0.67809413915E+01 -0.22976144094E+00  0.14375795488E+02  0.15896460381E+02  0.51100000000E-03 0. -1.
        -11    1    3    3    0    0 -0.19931555158E+02  0.19147807130E+02  0.12821491224E+02  0.30467951135E+02  0.51100000000E-03 0.  1.
        -12    1    3    3    0    0  0.72709929703E+01  0.22727062379E+00 -0.10698623605E+02  0.12937524406E+02  0.00000000000E+00 0.  1.
</event>
<event>
 7    1  0.3220798E-013  0.5930186E+02  0.7816164E-02  0.1266605E+00
        -11   -1    0    0    0    0  0.00000000000E+00  0.00000000000E+00  0.45593999997E+02  0.45594000000E+02  0.51100000000E-03 0.  1.
         11   -1    0    0    0    0 -0.00000000000E+00 -0.00000000000E+00 -0.45593999997E+02  0.45594000000E+02  0.51100000000E-03 0. -1.
    9900012    2    1    2    0    0  0.19792577874E+02 -0.23656750883E+02  0.80831914493E+01  0.59301859041E+02  0.49999845005E+02 0.  0.
         12    1    1    2    0    0 -0.19792577874E+02  0.23656750883E+02 -0.80831914493E+01  0.31886140959E+02  0.00000000000E+00 0. -1.
         11    1    3    3    0    0  0.15399598166E+01 -0.59934186082E+01  0.11541380529E+02  0.13095648423E+02  0.51100000000E-03 0. -1.
        -11    1    3    3    0    0  0.10878214722E+02  0.51950769487E+01  0.12502875751E+02  0.17367967133E+02  0.51100000000E-03 0.  1.
         12    1    3    3    0    0  0.73744033357E+01 -0.22858409224E+02 -0.15961064830E+02  0.28838243485E+02  0.00000000000E+00 0. -1.
</event>
<event>
 7    1  0.3220798E-013  0.5930198E+02  0.7816164E-02  0.1266605E+00
        -11   -1    0    0    0    0  0.00000000000E+00  0.00000000000E+00  0.45593999997E+02  0.45594000000E+02  0.51100000000E-03 0.  1.
         11   -1    0    0    0    0 -0.00000000000E+00 -0.00000000000E+00 -0.45593999997E+02  0.45594000000E+02  0.51100000000E-03 0. -1.
    9900012    2    1    2    0    0 -0.94335408386E+01  0.27253061815E+02  0.13601365901E+02  0.59301980722E+02  0.50000066921E+02 0.  0.
         12    1    1    2    0    0  0.94335408386E+01 -0.27253061815E+02 -0.13601365901E+02  0.31886019278E+02  0.00000000000E+00 0. -1.
         11    1    3    3    0    0  0.29420862666E+01  0.51942349082E+01 -0.34846572974E+01  0.69122199490E+01  0.51100000000E-03 0. -1.
        -11    1    3    3    0    0 -0.23599551653E+02  0.89788124241E+01 -0.35550235222E+01  0.25498943180E+02  0.51100000000E-03 0.  1.
         12    1    3    3    0    0  0.11223924548E+02  0.13080014482E+02  0.20641046721E+02  0.26890817593E+02  0.00000000000E+00 0. -1.
</event>
<event>
 7    1  0.3220798E-013  0.5930194E+02  0.7816164E-02  0.1266605E+00
        -11   -1    0    0    0    0  0.00000000000E+00  0.00000000000E+00  0.45593999997E+02  0.45594000000E+02  0.51100000000E-03 0.  1.
         11   -1    0    0    0    0 -0.00000000000E+00 -0.00000000000E+00 -0.45593999997E+02  0.45594000000E+02  0.51100000000E-03 0. -1.
    9900012    2    1    2    0    0 -0.24522067823E+02 -0.50960125152E+01 -0.19733714874E+02  0.59301942599E+02  0.49999997394E+02 0.  0.
         12    1    1    2    0    0  0.24522067823E+02  0.50960125152E+01  0.19733714874E+02  0.31886057401E+02  0.00000000000E+00 0. -1.
         11    1    3    3    0    0 -0.21890156883E+02 -0.33969034873E+01 -0.31702299747E+02  0.38674975516E+02  0.51100000000E-03 0. -1.
        -11    1    3    3    0    0 -0.68621091439E+01 -0.17363407990E+01 -0.84919673448E+00  0.71291343534E+01  0.51100000000E-03 0.  1.
        -12    1    3    3    0    0  0.42301982038E+01  0.37231771091E-01  0.12817781607E+02  0.13497832729E+02  0.00000000000E+00 0.  1.
</event>
<event>
 7    1  0.3220798E-013  0.5930194E+02  0.7816164E-02  0.1266605E+00
        -11   -1    0    0    0    0  0.00000000000E+00  0.00000000000E+00  0.45593999997E+02  0.45594000000E+02  0.51100000000E-03 0. -1.
         11   -1    0    0    0    0 -0.00000000000E+00 -0.00000000000E+00 -0.45593999997E+02  0.45594000000E+02  0.51100000000E-03 0.  1.
    9900012    2    1    2    0    0 -0.44026373797E+01 -0.31050714566E+02 -0.57611456109E+01  0.59301938944E+02  0.49999990728E+02 0.  0.
         12    1    1    2    0    0  0.44026373797E+01  0.31050714566E+02  0.57611456109E+01  0.31886061056E+02  0.00000000000E+00 0. -1.
         11    1    3    3    0    0 -0.68242175305E+01  0.28244561790E+01  0.10237490404E+02  0.12623537842E+02  0.51100000000E-03 0. -1.
        -11    1    3    3    0    0  0.21075041259E+01 -0.22527718322E+02  0.46649614177E+01  0.23101981121E+02  0.51100000000E-03 0.  1.
        -12    1    3    3    0    0  0.31407602490E+00 -0.11347452423E+02 -0.20663597433E+02  0.23576419981E+02  0.00000000000E+00 0.  1.
</event>
<event>
 7    1  0.3220798E-013  0.5930194E+02  0.7816164E-02  0.1266605E+00
        -11   -1    0    0    0    0  0.00000000000E+00  0.00000000000E+00  0.45593999997E+02  0.45594000000E+02  0.51100000000E-03 0.  1.
         11   -1    0    0    0    0 -0.00000000000E+00 -0.00000000000E+00 -0.45593999997E+02  0.45594000000E+02  0.51100000000E-03 0. -1.
    9900012    2    1    2    0    0  0.94639224639E+01  0.27352040219E+02  0.13379867089E+02  0.59301940728E+02  0.49999993982E+02 0.  0.
         12    1    1    2    0    0 -0.94639224639E+01 -0.27352040219E+02 -0.13379867089E+02  0.31886059272E+02  0.00000000000E+00 0. -1.
         11    1    3    3    0    0  0.79162162071E+01  0.12562235053E+02 -0.20470038709E+01  0.14988877666E+02  0.51100000000E-03 0. -1.
        -11    1    3    3    0    0 -0.34100115785E+01  0.27233418796E+02  0.64666507299E+01  0.28197603625E+02  0.51100000000E-03 0.  1.
         12    1    3    3    0    0  0.49577178353E+01 -0.12443613630E+02  0.89602202300E+01  0.16115459437E+02  0.00000000000E+00 0. -1.
</event>
<event>
 7    1  0.3220798E-013  0.5930195E+02  0.7816164E-02  0.1266605E+00
        -11   -1    0    0    0    0  0.00000000000E+00  0.00000000000E+00  0.45593999997E+02  0.45594000000E+02  0.51100000000E-03 0.  1.
         11   -1    0    0    0    0 -0.00000000000E+00 -0.00000000000E+00 -0.45593999997E+02  0.45594000000E+02  0.51100000000E-03 0. -1.
    9900012    2    1    2    0    0  0.28842507411E+02  0.50475303180E+01  0.12623492999E+02  0.59301947068E+02  0.50000005545E+02 0.  0.
         12    1    1    2    0    0 -0.28842507411E+02 -0.50475303180E+01 -0.12623492999E+02  0.31886052932E+02  0.00000000000E+00 0. -1.
         11    1    3    3    0    0  0.20551729737E+02 -0.50279530800E+01 -0.62591536706E+01  0.22064245110E+02  0.51100000000E-03 0. -1.
        -11    1    3    3    0    0  0.50155384198E+00  0.13855555433E+02 -0.25727016365E+01  0.14101303720E+02  0.51100000000E-03 0.  1.
         12    1    3    3    0    0  0.77892238319E+01 -0.37800720353E+01  0.21455348306E+02  0.23136398238E+02  0.00000000000E+00 0. -1.
</event>
<event>
 7    1  0.3220798E-013  0.5930199E+02  0.7816164E-02  0.1266605E+00
        -11   -1    0    0    0    0  0.00000000000E+00  0.00000000000E+00  0.45593999997E+02  0.45594000000E+02  0.51100000000E-03 0.  1.
         11   -1    0    0    0    0 -0.00000000000E+00 -0.00000000000E+00 -0.45593999997E+02  0.45594000000E+02  0.51100000000E-03 0. -1.
    9900012    2    1    2    0    0  0.17985393407E+02 -0.79192135323E+01  0.25110340261E+02  0.59301991987E+02  0.50000087467E+02 0.  0.
         12    1    1    2    0    0 -0.17985393407E+02  0.79192135323E+01 -0.25110340261E+02  0.31886008013E+02  0.00000000000E+00 0. -1.
         11    1    3    3    0    0  0.39743538339E+01  0.11681019417E+02  0.99354933206E+00  0.12378563872E+02  0.51100000000E-03 0. -1.
        -11    1    3    3    0    0 -0.10129140425E+02 -0.10029561752E+02  0.77019045705E+01  0.16202189018E+02  0.51100000000E-03 0.  1.
         12    1    3    3    0    0  0.24140179998E+02 -0.95706711967E+01  0.16414886358E+02  0.30721239097E+02  0.00000000000E+00 0. -1.
</event>
<event>
 7    1  0.3220798E-013  0.5930194E+02  0.7816164E-02  0.1266605E+00
        -11   -1    0    0    0    0  0.00000000000E+00  0.00000000000E+00  0.45593999997E+02  0.45594000000E+02  0.51100000000E-03 0. -1.
         11   -1    0    0    0    0 -0.00000000000E+00 -0.00000000000E+00 -0.45593999997E+02  0.45594000000E+02  0.51100000000E-03 0.  1.
    9900012    2    1    2    0    0 -0.14000143075E+02  0.15484125362E+02 -0.24103081893E+02  0.59301941901E+02  0.49999996121E+02 0.  0.
         12    1    1    2    0    0  0.14000143075E+02 -0.15484125362E+02  0.24103081893E+02  0.31886058099E+02  0.00000000000E+00 0. -1.
         11    1    3    3    0    0 -0.11692422355E+02  0.39679138516E+01 -0.33259395711E+00  0.12351829818E+02  0.51100000000E-03 0. -1.
        -11    1    3    3    0    0 -0.64310992796E+01  0.57342990229E+01  0.95608981719E+01  0.12870586519E+02  0.51100000000E-03 0.  1.
        -12    1    3    3    0    0  0.41233785596E+01  0.57819124877E+01 -0.33331386108E+02  0.34079525564E+02  0.00000000000E+00 0.  1.
</event>
<event>
 7    1  0.3220798E-013  0.5930196E+02  0.7816164E-02  0.1266605E+00
        -11   -1    0    0    0    0  0.00000000000E+00  0.00000000000E+00  0.45593999997E+02  0.45594000000E+02  0.51100000000E-03 0. -1.
         11   -1    0    0    0    0 -0.00000000000E+00 -0.00000000000E+00 -0.45593999997E+02  0.45594000000E+02  0.51100000000E-03 0.  1.
    9900012    2    1    2    0    0 -0.14253414439E+02  0.18147485819E+02 -0.22005191022E+02  0.59301960788E+02  0.50000030566E+02 0.  0.
         12    1    1    2    0    0  0.14253414439E+02 -0.18147485819E+02  0.22005191022E+02  0.31886039212E+02  0.00000000000E+00 0. -1.
         11    1    3    3    0    0  0.81675264908E+01  0.23251783400E+02 -0.70812992380E+01  0.25641737840E+02  0.51100000000E-03 0. -1.
        -11    1    3    3    0    0 -0.35476529203E+01  0.16272356641E+01  0.43590805157E+01  0.58510956541E+01  0.51100000000E-03 0.  1.
        -12    1    3    3    0    0 -0.18873288010E+02 -0.67315332458E+01 -0.19282972300E+02  0.27809127294E+02  0.00000000000E+00 0.  1.
</event>
<event>
 7    1  0.3220798E-013  0.5930196E+02  0.7816164E-02  0.1266605E+00
        -11   -1    0    0    0    0  0.00000000000E+00  0.00000000000E+00  0.45593999997E+02  0.45594000000E+02  0.51100000000E-03 0. -1.
         11   -1    0    0    0    0 -0.00000000000E+00 -0.00000000000E+00 -0.45593999997E+02  0.45594000000E+02  0.51100000000E-03 0.  1.
    9900012    2    1    2    0    0 -0.13877556604E+02  0.26686633129E+02 -0.10580960468E+02  0.59301957764E+02  0.50000025051E+02 0.  0.
         12    1    1    2    0    0  0.13877556604E+02 -0.26686633129E+02  0.10580960468E+02  0.31886042236E+02  0.00000000000E+00 0. -1.
         11    1    3    3    0    0  0.92866984559E+01  0.21919454183E+01  0.84248890644E+01  0.12728949247E+02  0.51100000000E-03 0. -1.
        -11    1    3    3    0    0 -0.11411791722E+01  0.16131062143E+02 -0.16129760699E+02  0.22840372944E+02  0.51100000000E-03 0.  1.
        -12    1    3    3    0    0 -0.22023075888E+02  0.83636255681E+01 -0.28760888329E+01  0.23732635572E+02  0.00000000000E+00 0.  1.
</event>
<event>
 7    1  0.3220798E-013  0.5930193E+02  0.7816164E-02  0.1266605E+00
        -11   -1    0    0    0    0  0.00000000000E+00  0.00000000000E+00  0.45593999997E+02  0.45594000000E+02  0.51100000000E-03 0.  1.
         11   -1    0    0    0    0 -0.00000000000E+00 -0.00000000000E+00 -0.45593999997E+02  0.45594000000E+02  0.51100000000E-03 0. -1.
    9900012    2    1    2    0    0  0.19137368774E+02  0.10614512048E+02  0.23190827279E+02  0.59301933772E+02  0.49999981296E+02 0.  0.
         12    1    1    2    0    0 -0.19137368774E+02 -0.10614512048E+02 -0.23190827279E+02  0.31886066228E+02  0.00000000000E+00 0. -1.
         11    1    3    3    0    0 -0.11948584399E+02  0.24782183227E+01  0.68852076632E+01  0.14011292590E+02  0.51100000000E-03 0. -1.
        -11    1    3    3    0    0  0.78330435293E+01  0.15151735195E+02  0.21851380665E+01  0.17196118137E+02  0.51100000000E-03 0.  1.
        -12    1    3    3    0    0  0.23252909644E+02 -0.70154414698E+01  0.14120481549E+02  0.28094523045E+02  0.00000000000E+00 0.  1.
</event>
<event>
 7    1  0.3220798E-013  0.5930191E+02  0.7816164E-02  0.1266605E+00
        -11   -1    0    0    0    0  0.00000000000E+00  0.00000000000E+00  0.45593999997E+02  0.45594000000E+02  0.51100000000E-03 0.  1.
         11   -1    0    0    0    0 -0.00000000000E+00 -0.00000000000E+00 -0.45593999997E+02  0.45594000000E+02  0.51100000000E-03 0. -1.
    9900012    2    1    2    0    0  0.10298805277E+01  0.16680788814E+02  0.27155353708E+02  0.59301912056E+02  0.49999941692E+02 0.  0.
         12    1    1    2    0    0 -0.10298805277E+01 -0.16680788814E+02 -0.27155353708E+02  0.31886087944E+02  0.00000000000E+00 0. -1.
         11    1    3    3    0    0 -0.52327459294E+01 -0.13589400662E+01 -0.80149907025E+01  0.96679069238E+01  0.51100000000E-03 0. -1.
        -11    1    3    3    0    0 -0.11250371409E+02  0.99016629768E+01  0.20440283166E+02  0.25345985140E+02  0.51100000000E-03 0.  1.
         12    1    3    3    0    0  0.17512997866E+02  0.81380659031E+01  0.14730061245E+02  0.24288019993E+02  0.00000000000E+00 0. -1.
</event>
<event>
 7    1  0.3220798E-013  0.5930194E+02  0.7816164E-02  0.1266605E+00
        -11   -1    0    0    0    0  0.00000000000E+00  0.00000000000E+00  0.45593999997E+02  0.45594000000E+02  0.51100000000E-03 0.  1.
         11   -1    0    0    0    0 -0.00000000000E+00 -0.00000000000E+00 -0.45593999997E+02  0.45594000000E+02  0.51100000000E-03 0. -1.
    9900012    2    1    2    0    0  0.23128139873E+02 -0.10348421134E+02  0.19357688016E+02  0.59301940989E+02  0.49999994457E+02 0.  0.
         12    1    1    2    0    0 -0.23128139873E+02  0.10348421134E+02 -0.19357688016E+02  0.31886059011E+02  0.00000000000E+00 0. -1.
         11    1    3    3    0    0  0.19802398474E+02  0.40967669290E+01  0.12654557675E+02  0.23854901275E+02  0.51100000000E-03 0.  1.
        -11    1    3    3    0    0  0.71673179299E+00  0.41862909595E+01 -0.96350839906E+01  0.10529652427E+02  0.51100000000E-03 0. -1.
        -12    1    3    3    0    0  0.26090096056E+01 -0.18631479022E+02  0.16338214331E+02  0.24917387287E+02  0.00000000000E+00 0.  1.
</event>
<event>
 7    1  0.3220798E-013  0.5930189E+02  0.7816164E-02  0.1266605E+00
        -11   -1    0    0    0    0  0.00000000000E+00  0.00000000000E+00  0.45593999997E+02  0.45594000000E+02  0.51100000000E-03 0. -1.
         11   -1    0    0    0    0 -0.00000000000E+00 -0.00000000000E+00 -0.45593999997E+02  0.45594000000E+02  0.51100000000E-03 0.  1.
    9900012    2    1    2    0    0  0.10373110958E+02 -0.27034974943E+02 -0.13350376171E+02  0.59301892601E+02  0.49999906211E+02 0.  0.
         12    1    1    2    0    0 -0.10373110958E+02  0.27034974943E+02  0.13350376171E+02  0.31886107399E+02  0.00000000000E+00 0. -1.
         11    1    3    3    0    0  0.23715825632E+02 -0.14118835831E+02 -0.44269804944E+01  0.27953176334E+02  0.51100000000E-03 0. -1.
        -11    1    3    3    0    0 -0.67063811706E+01  0.65947245072E+01 -0.20728783582E+01  0.96313428285E+01  0.51100000000E-03 0.  1.
        -12    1    3    3    0    0 -0.66363335031E+01 -0.19510863620E+02 -0.68505173182E+01  0.21717373439E+02  0.00000000000E+00 0.  1.
</event>
<event>
 7    1  0.3220798E-013  0.5930192E+02  0.7816164E-02  0.1266605E+00
        -11   -1    0    0    0    0  0.00000000000E+00  0.00000000000E+00  0.45593999997E+02  0.45594000000E+02  0.51100000000E-03 0.  1.
         11   -1    0    0    0    0 -0.00000000000E+00 -0.00000000000E+00 -0.45593999997E+02  0.45594000000E+02  0.51100000000E-03 0. -1.
    9900012    2    1    2    0    0  0.80481457992E+01 -0.87205244423E+01  0.29595639065E+02  0.59301920764E+02  0.49999957573E+02 0.  0.
         12    1    1    2    0    0 -0.80481457992E+01  0.87205244423E+01 -0.29595639065E+02  0.31886079236E+02  0.00000000000E+00 0. -1.
         11    1    3    3    0    0  0.50463489867E+01  0.28286360073E+01  0.87501492961E+00  0.58508521726E+01  0.51100000000E-03 0. -1.
        -11    1    3    3    0    0  0.13472669898E+02  0.56905730183E+01 -0.38655263068E+01  0.15127384088E+02  0.51100000000E-03 0.  1.
        -12    1    3    3    0    0 -0.10470873086E+02 -0.17239733468E+02  0.32586150443E+02  0.38323684503E+02  0.00000000000E+00 0.  1.
</event>
<event>
 7    1  0.3220798E-013  0.5930196E+02  0.7816164E-02  0.1266605E+00
        -11   -1    0    0    0    0  0.00000000000E+00  0.00000000000E+00  0.45593999997E+02  0.45594000000E+02  0.51100000000E-03 0. -1.
         11   -1    0    0    0    0 -0.00000000000E+00 -0.00000000000E+00 -0.45593999997E+02  0.45594000000E+02  0.51100000000E-03 0.  1.
    9900012    2    1    2    0    0  0.30419564684E+02  0.59890558477E+01 -0.74498760321E+01  0.59301962955E+02  0.50000034519E+02 0.  0.
         12    1    1    2    0    0 -0.30419564684E+02 -0.59890558477E+01  0.74498760321E+01  0.31886037045E+02  0.00000000000E+00 0. -1.
         11    1    3    3    0    0 -0.98500821904E+01  0.40175737655E+01  0.56880131466E+01  0.12063105402E+02  0.51100000000E-03 0. -1.
        -11    1    3    3    0    0  0.28333996924E+02  0.97877670263E+01 -0.38700095263E+01  0.30225696667E+02  0.51100000000E-03 0.  1.
        -12    1    3    3    0    0  0.11935649951E+02 -0.78162849441E+01 -0.92678796524E+01  0.17013160886E+02  0.00000000000E+00 0.  1.
</event>
<event>
 7    1  0.3220798E-013  0.5930195E+02  0.7816164E-02  0.1266605E+00
        -11   -1    0    0    0    0  0.00000000000E+00  0.00000000000E+00  0.45593999997E+02  0.45594000000E+02  0.51100000000E-03 0. -1.
         11   -1    0    0    0    0 -0.00000000000E+00 -0.00000000000E+00 -0.45593999997E+02  0.45594000000E+02  0.51100000000E-03 0.  1.
    9900012    2    1    2    0    0  0.29942575088E+02  0.10387081247E+02 -0.35030081564E+01  0.59301947785E+02  0.50000006852E+02 0.  0.
         12    1    1    2    0    0 -0.29942575088E+02 -0.10387081247E+02  0.35030081564E+01  0.31886052215E+02  0.00000000000E+00 0. -1.
         11    1    3    3    0    0  0.14849055764E+02  0.58585268861E+01  0.82869945271E+00  0.15984478015E+02  0.51100000000E-03 0. -1.
        -11    1    3    3    0    0  0.14822526451E+02  0.20649297998E+02 -0.82524286593E+01  0.26724583762E+02  0.51100000000E-03 0.  1.
         12    1    3    3    0    0  0.27099287302E+00 -0.16120743637E+02  0.39207210502E+01  0.16592886009E+02  0.00000000000E+00 0. -1.
</event>
<event>
 7    1  0.3220798E-013  0.5930194E+02  0.7816164E-02  0.1266605E+00
        -11   -1    0    0    0    0  0.00000000000E+00  0.00000000000E+00  0.45593999997E+02  0.45594000000E+02  0.51100000000E-03 0.  1.
         11   -1    0    0    0    0 -0.00000000000E+00 -0.00000000000E+00 -0.45593999997E+02  0.45594000000E+02  0.51100000000E-03 0. -1.
    9900012    2    1    2    0    0  0.82194785201E+00 -0.17007172750E+02  0.26959257884E+02  0.59301935506E+02  0.49999984459E+02 0.  0.
         12    1    1    2    0    0 -0.82194785201E+00  0.17007172750E+02 -0.26959257884E+02  0.31886064494E+02  0.00000000000E+00 0. -1.
         11    1    3    3    0    0  0.57662055188E+01 -0.11141026001E+02 -0.28006331803E+01  0.12853603888E+02  0.51100000000E-03 0.  1.
        -11    1    3    3    0    0 -0.66193715313E+01 -0.20033911800E+02  0.14773159013E+02  0.25756939433E+02  0.51100000000E-03 0. -1.
         12    1    3    3    0    0  0.16751138645E+01  0.14167765050E+02  0.14986732052E+02  0.20691392185E+02  0.00000000000E+00 0. -1.
</event>
<event>
 7    1  0.3220798E-013  0.5930196E+02  0.7816164E-02  0.1266605E+00
        -11   -1    0    0    0    0  0.00000000000E+00  0.00000000000E+00  0.45593999997E+02  0.45594000000E+02  0.51100000000E-03 0. -1.
         11   -1    0    0    0    0 -0.00000000000E+00 -0.00000000000E+00 -0.45593999997E+02  0.45594000000E+02  0.51100000000E-03 0.  1.
    9900012    2    1    2    0    0  0.99384001703E+00  0.15515011663E+02 -0.27839118996E+02  0.59301955225E+02  0.50000020421E+02 0.  0.
         12    1    1    2    0    0 -0.99384001703E+00 -0.15515011663E+02  0.27839118996E+02  0.31886044775E+02  0.00000000000E+00 0. -1.
         11    1    3    3    0    0 -0.15550484584E+02  0.33246204712E+01 -0.10710610122E+02  0.19172580460E+02  0.51100000000E-03 0.  1.
        -11    1    3    3    0    0 -0.23431492187E+00 -0.65433448999E+01 -0.13119749238E+02  0.14662813041E+02  0.51100000000E-03 0. -1.
        -12    1    3    3    0    0  0.16778639522E+02  0.18733736092E+02 -0.40087596363E+01  0.25466561724E+02  0.00000000000E+00 0.  1.
</event>
<event>
 7    1  0.3220798E-013  0.5930200E+02  0.7816164E-02  0.1266605E+00
        -11   -1    0    0    0    0  0.00000000000E+00  0.00000000000E+00  0.45593999997E+02  0.45594000000E+02  0.51100000000E-03 0.  1.
         11   -1    0    0    0    0 -0.00000000000E+00 -0.00000000000E+00 -0.45593999997E+02  0.45594000000E+02  0.51100000000E-03 0. -1.
    9900012    2    1    2    0    0  0.13793710143E+02  0.89988754245E+01  0.27303316509E+02  0.59301995377E+02  0.50000093649E+02 0.  0.
         12    1    1    2    0    0 -0.13793710143E+02 -0.89988754245E+01 -0.27303316509E+02  0.31886004623E+02  0.00000000000E+00 0. -1.
         11    1    3    3    0    0  0.33007259219E+01  0.13323017343E+02 -0.42163332113E+01  0.14358796911E+02  0.51100000000E-03 0. -1.
        -11    1    3    3    0    0 -0.61614621936E+01 -0.82284660045E+01  0.14953601793E+01  0.10387847298E+02  0.51100000000E-03 0.  1.
         12    1    3    3    0    0  0.16654446414E+02  0.39043240863E+01  0.30024289541E+02  0.34555351169E+02  0.00000000000E+00 0. -1.
</event>
<event>
 7    1  0.3220798E-013  0.5930194E+02  0.7816164E-02  0.1266605E+00
        -11   -1    0    0    0    0  0.00000000000E+00  0.00000000000E+00  0.45593999997E+02  0.45594000000E+02  0.51100000000E-03 0.  1.
         11   -1    0    0    0    0 -0.00000000000E+00 -0.00000000000E+00 -0.45593999997E+02  0.45594000000E+02  0.51100000000E-03 0. -1.
    9900012    2    1    2    0    0 -0.74181640534E+01 -0.76403451213E+01  0.30055229628E+02  0.59301939417E+02  0.49999991592E+02 0.  0.
         12    1    1    2    0    0  0.74181640534E+01  0.76403451213E+01 -0.30055229628E+02  0.31886060583E+02  0.00000000000E+00 0. -1.
         11    1    3    3    0    0  0.38346877124E+01 -0.13657384739E+02  0.68656580843E+01  0.15759639874E+02  0.51100000000E-03 0. -1.
        -11    1    3    3    0    0  0.23788388762E+01 -0.90708839618E+01  0.21113862802E+02  0.23102705749E+02  0.51100000000E-03 0.  1.
        -12    1    3    3    0    0 -0.13631690642E+02  0.15087923580E+02  0.20757087421E+01  0.20439593795E+02  0.00000000000E+00 0.  1.
</event>
<event>
 7    1  0.3220798E-013  0.5930195E+02  0.7816164E-02  0.1266605E+00
        -11   -1    0    0    0    0  0.00000000000E+00  0.00000000000E+00  0.45593999997E+02  0.45594000000E+02  0.51100000000E-03 0.  1.
         11   -1    0    0    0    0 -0.00000000000E+00 -0.00000000000E+00 -0.45593999997E+02  0.45594000000E+02  0.51100000000E-03 0. -1.
    9900012    2    1    2    0    0  0.23237849146E+02 -0.18580541488E+02  0.11466741022E+02  0.59301948119E+02  0.50000007461E+02 0.  0.
         12    1    1    2    0    0 -0.23237849146E+02  0.18580541488E+02 -0.11466741022E+02  0.31886051881E+02  0.00000000000E+00 0. -1.
         11    1    3    3    0    0  0.16247355291E+01 -0.85213535811E+01  0.11426899247E+02  0.14346681116E+02  0.51100000000E-03 0. -1.
        -11    1    3    3    0    0  0.24592881916E+02 -0.18977428349E+02  0.86078143466E+01  0.32234253454E+02  0.51100000000E-03 0.  1.
         12    1    3    3    0    0 -0.29797682993E+01  0.89182404420E+01 -0.85679725718E+01  0.12721013548E+02  0.00000000000E+00 0. -1.
</event>
<event>
 7    1  0.3220798E-013  0.5930202E+02  0.7816164E-02  0.1266605E+00
        -11   -1    0    0    0    0  0.00000000000E+00  0.00000000000E+00  0.45593999997E+02  0.45594000000E+02  0.51100000000E-03 0.  1.
         11   -1    0    0    0    0 -0.00000000000E+00 -0.00000000000E+00 -0.45593999997E+02  0.45594000000E+02  0.51100000000E-03 0. -1.
    9900012    2    1    2    0    0  0.27932194482E+02  0.55604424842E+01  0.14338404392E+02  0.59302017975E+02  0.50000134862E+02 0.  0.
         12    1    1    2    0    0 -0.27932194482E+02 -0.55604424842E+01 -0.14338404392E+02  0.31885982025E+02  0.00000000000E+00 0. -1.
         11    1    3    3    0    0 -0.82719739068E+01  0.31456426666E+01 -0.48107387931E+00  0.88629595756E+01  0.51100000000E-03 0. -1.
        -11    1    3    3    0    0  0.37053110838E+01  0.12792538463E+02  0.19171056370E+00  0.13319726865E+02  0.51100000000E-03 0.  1.
        -12    1    3    3    0    0  0.32498857304E+02 -0.10377738645E+02  0.14627767708E+02  0.37119331535E+02  0.00000000000E+00 0.  1.
</event>
<event>
 7    1  0.3220798E-013  0.5930192E+02  0.7816164E-02  0.1266605E+00
        -11   -1    0    0    0    0  0.00000000000E+00  0.00000000000E+00  0.45593999997E+02  0.45594000000E+02  0.51100000000E-03 0.  1.
         11   -1    0    0    0    0 -0.00000000000E+00 -0.00000000000E+00 -0.45593999997E+02  0.45594000000E+02  0.51100000000E-03 0. -1.
    9900012    2    1    2    0    0  0.28119282060E+02  0.89421482635E+01  0.12085768732E+02  0.59301923964E+02  0.49999963408E+02 0.  0.
         12    1    1    2    0    0 -0.28119282060E+02 -0.89421482635E+01 -0.12085768732E+02  0.31886076036E+02  0.00000000000E+00 0. -1.
         11    1    3    3    0    0 -0.69336117229E+01  0.44537175170E+01  0.65035501001E+01  0.10497939579E+02  0.51100000000E-03 0. -1.
        -11    1    3    3    0    0  0.19327855317E+01 -0.11178402546E+02  0.43343250325E+01  0.12144081569E+02  0.51100000000E-03 0.  1.
         12    1    3    3    0    0  0.33120108251E+02  0.15666833293E+02  0.12478935990E+01  0.36659902816E+02  0.00000000000E+00 0. -1.
</event>
<event>
 7    1  0.3475096E-013  0.5930194E+02  0.7816164E-02  0.1266605E+00
        -11   -1    0    0    0    0  0.00000000000E+00  0.00000000000E+00  0.45593999997E+02  0.45594000000E+02  0.51100000000E-03 0.  1.
         11   -1    0    0    0    0 -0.00000000000E+00 -0.00000000000E+00 -0.45593999997E+02  0.45594000000E+02  0.51100000000E-03 0. -1.
    9900012    2    1    2    0    0  0.28765063016E+01 -0.31721853958E+02 -0.14732454684E+01  0.59301940989E+02  0.49999994458E+02 0.  0.
         12    1    1    2    0    0 -0.28765063016E+01  0.31721853958E+02  0.14732454684E+01  0.31886059011E+02  0.00000000000E+00 0. -1.
         11    1    3    3    0    0 -0.68792795438E+01 -0.21626742293E+02  0.66141090986E+01  0.23638674005E+02  0.51100000000E-03 0. -1.
        -11    1    3    3    0    0  0.19640959922E+02 -0.13504701367E+02 -0.29653723529E+01  0.24019527454E+02  0.51100000000E-03 0.  1.
         12    1    3    3    0    0 -0.98851740761E+01  0.34095897021E+01 -0.51219822141E+01  0.11643739530E+02  0.00000000000E+00 0. -1.
</event>
<event>
 7    1  0.3220798E-013  0.5930196E+02  0.7816164E-02  0.1266605E+00
        -11   -1    0    0    0    0  0.00000000000E+00  0.00000000000E+00  0.45593999997E+02  0.45594000000E+02  0.51100000000E-03 0.  1.
         11   -1    0    0    0    0 -0.00000000000E+00 -0.00000000000E+00 -0.45593999997E+02  0.45594000000E+02  0.51100000000E-03 0. -1.
    9900012    2    1    2    0    0  0.78753493742E+01  0.30190712469E+02 -0.65741470428E+01  0.59301958281E+02  0.50000025995E+02 0.  0.
         12    1    1    2    0    0 -0.78753493742E+01 -0.30190712469E+02  0.65741470428E+01  0.31886041719E+02  0.00000000000E+00 0. -1.
         11    1    3    3    0    0  0.10980270947E+01 -0.28106333576E+01 -0.38243899228E+01  0.48714763588E+01  0.51100000000E-03 0. -1.
        -11    1    3    3    0    0 -0.15482108100E+02  0.26182634898E+02  0.26478167936E+01  0.30532555993E+02  0.51100000000E-03 0.  1.
         12    1    3    3    0    0  0.22259430380E+02  0.68187109289E+01 -0.53975739136E+01  0.23897925929E+02  0.00000000000E+00 0. -1.
</event>
<event>
 7    1  0.3220798E-013  0.5930194E+02  0.7816164E-02  0.1266605E+00
        -11   -1    0    0    0    0  0.00000000000E+00  0.00000000000E+00  0.45593999997E+02  0.45594000000E+02  0.51100000000E-03 0.  1.
         11   -1    0    0    0    0 -0.00000000000E+00 -0.00000000000E+00 -0.45593999997E+02  0.45594000000E+02  0.51100000000E-03 0. -1.
    9900012    2    1    2    0    0  0.28182670179E+02 -0.14914325705E+02  0.14471127762E+00  0.59301937982E+02  0.49999988974E+02 0.  0.
         12    1    1    2    0    0 -0.28182670179E+02  0.14914325705E+02 -0.14471127762E+00  0.31886062018E+02  0.00000000000E+00 0. -1.
         11    1    3    3    0    0 -0.13946402264E+01  0.18549106362E+00 -0.55191761970E+01  0.56956768211E+01  0.51100000000E-03 0. -1.
        -11    1    3    3    0    0  0.10124261671E+02 -0.26028663313E+02  0.12021003909E+02  0.30405534422E+02  0.51100000000E-03 0.  1.
         12    1    3    3    0    0  0.19453048734E+02  0.10928846544E+02 -0.63571164342E+01  0.23200726739E+02  0.00000000000E+00 0. -1.
</event>
<event>
 7    1  0.3220798E-013  0.5930197E+02  0.7816164E-02  0.1266605E+00
        -11   -1    0    0    0    0  0.00000000000E+00  0.00000000000E+00  0.45593999997E+02  0.45594000000E+02  0.51100000000E-03 0. -1.
         11   -1    0    0    0    0 -0.00000000000E+00 -0.00000000000E+00 -0.45593999997E+02  0.45594000000E+02  0.51100000000E-03 0.  1.
    9900012    2    1    2    0    0  0.15948892033E+02 -0.19613483291E+02 -0.19433561656E+02  0.59301965400E+02  0.50000038977E+02 0.  0.
         12    1    1    2    0    0 -0.15948892033E+02  0.19613483291E+02  0.19433561656E+02  0.31886034600E+02  0.00000000000E+00 0. -1.
         11    1    3    3    0    0 -0.55698766622E+01  0.10165477278E+01 -0.16418904097E+02  0.17367708753E+02  0.51100000000E-03 0. -1.
        -11    1    3    3    0    0 -0.65606153049E+01 -0.30377414320E+01 -0.49188450309E+01  0.87444029463E+01  0.51100000000E-03 0.  1.
         12    1    3    3    0    0  0.28079384000E+02 -0.17592289587E+02  0.19041874717E+01  0.33189853700E+02  0.00000000000E+00 0. -1.
</event>
<event>
 7    1  0.3220798E-013  0.5930195E+02  0.7816164E-02  0.1266605E+00
        -11   -1    0    0    0    0  0.00000000000E+00  0.00000000000E+00  0.45593999997E+02  0.45594000000E+02  0.51100000000E-03 0. -1.
         11   -1    0    0    0    0 -0.00000000000E+00 -0.00000000000E+00 -0.45593999997E+02  0.45594000000E+02  0.51100000000E-03 0.  1.
    9900012    2    1    2    0    0 -0.27020891706E+02  0.13304468888E+02 -0.10468179064E+02  0.59301948913E+02  0.50000008910E+02 0.  0.
         12    1    1    2    0    0  0.27020891706E+02 -0.13304468888E+02  0.10468179064E+02  0.31886051087E+02  0.00000000000E+00 0. -1.
         11    1    3    3    0    0 -0.65594767576E+01  0.15483635712E+02 -0.41172529227E+01  0.17312466089E+02  0.51100000000E-03 0. -1.
        -11    1    3    3    0    0 -0.16075739535E+02  0.12976806373E+02 -0.13487632741E+02  0.24672720613E+02  0.51100000000E-03 0.  1.
         12    1    3    3    0    0 -0.43856754137E+01 -0.15155973197E+02  0.71367065992E+01  0.17316762211E+02  0.00000000000E+00 0. -1.
</event>
<event>
 7    1  0.3220798E-013  0.5930194E+02  0.7816164E-02  0.1266605E+00
        -11   -1    0    0    0    0  0.00000000000E+00  0.00000000000E+00  0.45593999997E+02  0.45594000000E+02  0.51100000000E-03 0. -1.
         11   -1    0    0    0    0 -0.00000000000E+00 -0.00000000000E+00 -0.45593999997E+02  0.45594000000E+02  0.51100000000E-03 0.  1.
    9900012    2    1    2    0    0  0.28080887055E+02  0.23308240535E+01 -0.14924864981E+02  0.59301944219E+02  0.50000000349E+02 0.  0.
         12    1    1    2    0    0 -0.28080887055E+02 -0.23308240535E+01  0.14924864981E+02  0.31886055781E+02  0.00000000000E+00 0. -1.
         11    1    3    3    0    0 -0.50630534483E+01 -0.43718691003E+01 -0.10756480162E+02  0.12666870781E+02  0.51100000000E-03 0. -1.
        -11    1    3    3    0    0  0.20600548388E+02  0.36679524172E+01 -0.18084104359E+02  0.27656306687E+02  0.51100000000E-03 0.  1.
         12    1    3    3    0    0  0.12543392115E+02  0.30347407366E+01  0.13915719540E+02  0.18978766751E+02  0.00000000000E+00 0. -1.
</event>
<event>
 7    1  0.3220798E-013  0.5930193E+02  0.7816164E-02  0.1266605E+00
        -11   -1    0    0    0    0  0.00000000000E+00  0.00000000000E+00  0.45593999997E+02  0.45594000000E+02  0.51100000000E-03 0.  1.
         11   -1    0    0    0    0 -0.00000000000E+00 -0.00000000000E+00 -0.45593999997E+02  0.45594000000E+02  0.51100000000E-03 0. -1.
    9900012    2    1    2    0    0 -0.15146791198E+02 -0.15642624724E+02  0.23293867104E+02  0.59301933505E+02  0.49999980810E+02 0.  0.
         12    1    1    2    0    0  0.15146791198E+02  0.15642624724E+02 -0.23293867104E+02  0.31886066495E+02  0.00000000000E+00 0. -1.
         11    1    3    3    0    0  0.70150092508E+01 -0.16905178960E+01  0.15309972271E+02  0.16925231365E+02  0.51100000000E-03 0. -1.
        -11    1    3    3    0    0 -0.83841231660E+01 -0.17338286805E+02  0.16897772189E+02  0.25621171242E+02  0.51100000000E-03 0.  1.
         12    1    3    3    0    0 -0.13777677283E+02  0.33861799771E+01 -0.89138773570E+01  0.16755530898E+02  0.00000000000E+00 0. -1.
</event>
<event>
 7    1  0.3220798E-013  0.5930195E+02  0.7816164E-02  0.1266605E+00
        -11   -1    0    0    0    0  0.00000000000E+00  0.00000000000E+00  0.45593999997E+02  0.45594000000E+02  0.51100000000E-03 0.  1.
         11   -1    0    0    0    0 -0.00000000000E+00 -0.00000000000E+00 -0.45593999997E+02  0.45594000000E+02  0.51100000000E-03 0. -1.
    9900012    2    1    2    0    0  0.87889383642E+01  0.23790200106E+02  0.19326171638E+02  0.59301953383E+02  0.50000017062E+02 0.  0.
         12    1    1    2    0    0 -0.87889383642E+01 -0.23790200106E+02 -0.19326171638E+02  0.31886046617E+02  0.00000000000E+00 0. -1.
         11    1    3    3    0    0  0.51563146423E+01 -0.70472281327E+00  0.28374397325E+00  0.52119790711E+01  0.51100000000E-03 0. -1.
        -11    1    3    3    0    0  0.12887018835E+02  0.74272839862E+01  0.28760034097E+02  0.32378686869E+02  0.51100000000E-03 0.  1.
         12    1    3    3    0    0 -0.92543951126E+01  0.17067638933E+02 -0.97176064323E+01  0.21711287443E+02  0.00000000000E+00 0. -1.
</event>
<event>
 7    1  0.3220798E-013  0.5930198E+02  0.7816164E-02  0.1266605E+00
        -11   -1    0    0    0    0  0.00000000000E+00  0.00000000000E+00  0.45593999997E+02  0.45594000000E+02  0.51100000000E-03 0.  1.
         11   -1    0    0    0    0 -0.00000000000E+00 -0.00000000000E+00 -0.45593999997E+02  0.45594000000E+02  0.51100000000E-03 0. -1.
    9900012    2    1    2    0    0 -0.30435113948E+02 -0.49842715077E+01 -0.80980967112E+01  0.59301979649E+02  0.50000064964E+02 0.  0.
         12    1    1    2    0    0  0.30435113948E+02  0.49842715077E+01  0.80980967112E+01  0.31886020351E+02  0.00000000000E+00 0. -1.
         11    1    3    3    0    0  0.11045304894E+02  0.91732460099E+00 -0.82408501197E+01  0.13811294494E+02  0.51100000000E-03 0. -1.
        -11    1    3    3    0    0 -0.20885974748E+02  0.49738422913E+01  0.41259478323E+01  0.21862902233E+02  0.51100000000E-03 0.  1.
        -12    1    3    3    0    0 -0.20594444095E+02 -0.10875438400E+02 -0.39831944237E+01  0.23627782922E+02  0.00000000000E+00 0.  1.
</event>
<event>
 7    1  0.3220798E-013  0.5930193E+02  0.7816164E-02  0.1266605E+00
        -11   -1    0    0    0    0  0.00000000000E+00  0.00000000000E+00  0.45593999997E+02  0.45594000000E+02  0.51100000000E-03 0.  1.
         11   -1    0    0    0    0 -0.00000000000E+00 -0.00000000000E+00 -0.45593999997E+02  0.45594000000E+02  0.51100000000E-03 0. -1.
    9900012    2    1    2    0    0 -0.17532399731E+02 -0.43192577266E+01  0.26280804986E+02  0.59301925636E+02  0.49999966458E+02 0.  0.
         12    1    1    2    0    0  0.17532399731E+02  0.43192577266E+01 -0.26280804986E+02  0.31886074364E+02  0.00000000000E+00 0. -1.
         11    1    3    3    0    0 -0.23587693856E+01 -0.87384724550E+01 -0.10591063816E+02  0.13931809893E+02  0.51100000000E-03 0. -1.
        -11    1    3    3    0    0  0.16881813184E+01  0.80681932088E+01  0.67349987662E+01  0.10644524717E+02  0.51100000000E-03 0.  1.
        -12    1    3    3    0    0 -0.16861811663E+02 -0.36489784804E+01  0.30136870036E+02  0.34725591026E+02  0.00000000000E+00 0.  1.
</event>
<event>
 7    1  0.3220798E-013  0.5930196E+02  0.7816164E-02  0.1266605E+00
        -11   -1    0    0    0    0  0.00000000000E+00  0.00000000000E+00  0.45593999997E+02  0.45594000000E+02  0.51100000000E-03 0. -1.
         11   -1    0    0    0    0 -0.00000000000E+00 -0.00000000000E+00 -0.45593999997E+02  0.45594000000E+02  0.51100000000E-03 0.  1.
    9900012    2    1    2    0    0 -0.25028376525E+02 -0.14347317495E+02 -0.13581397600E+02  0.59301960554E+02  0.50000030140E+02 0.  0.
         12    1    1    2    0    0  0.25028376525E+02  0.14347317495E+02  0.13581397600E+02  0.31886039446E+02  0.00000000000E+00 0. -1.
         11    1    3    3    0    0  0.38264428867E+01 -0.80967769746E+01  0.76729519476E+01  0.11792949351E+02  0.51100000000E-03 0. -1.
        -11    1    3    3    0    0 -0.16506520975E+02  0.47756991554E+01  0.36860346156E+01  0.17574395824E+02  0.51100000000E-03 0.  1.
         12    1    3    3    0    0 -0.12348298437E+02 -0.11026239676E+02 -0.24940384163E+02  0.29934615379E+02  0.00000000000E+00 0. -1.
</event>
<event>
 7    1  0.3220798E-013  0.5930205E+02  0.7816164E-02  0.1266604E+00
        -11   -1    0    0    0    0  0.00000000000E+00  0.00000000000E+00  0.45593999997E+02  0.45594000000E+02  0.51100000000E-03 0. -1.
         11   -1    0    0    0    0 -0.00000000000E+00 -0.00000000000E+00 -0.45593999997E+02  0.45594000000E+02  0.51100000000E-03 0.  1.
    9900012    2    1    2    0    0 -0.19870021431E+02 -0.14114900521E+02 -0.20558835674E+02  0.59302048663E+02  0.50000190830E+02 0.  0.
         12    1    1    2    0    0  0.19870021431E+02  0.14114900521E+02  0.20558835674E+02  0.31885951337E+02  0.00000000000E+00 0. -1.
         11    1    3    3    0    0 -0.30311720096E+01 -0.96386794137E+01 -0.13667994490E+02  0.16997241489E+02  0.51100000000E-03 0. -1.
        -11    1    3    3    0    0 -0.21812828419E+02 -0.99736755404E+01 -0.17265957018E+02  0.29553120976E+02  0.51100000000E-03 0.  1.
         12    1    3    3    0    0  0.49739789980E+01  0.54974544334E+01  0.10375115834E+02  0.12751686198E+02  0.00000000000E+00 0. -1.
</event>
<event>
 7    1  0.3220798E-013  0.5930191E+02  0.7816164E-02  0.1266605E+00
        -11   -1    0    0    0    0  0.00000000000E+00  0.00000000000E+00  0.45593999997E+02  0.45594000000E+02  0.51100000000E-03 0.  1.
         11   -1    0    0    0    0 -0.00000000000E+00 -0.00000000000E+00 -0.45593999997E+02  0.45594000000E+02  0.51100000000E-03 0. -1.
    9900012    2    1    2    0    0  0.19814194260E+02 -0.23353262354E+02  0.88738819821E+01  0.59301906822E+02  0.49999932146E+02 0.  0.
         12    1    1    2    0    0 -0.19814194260E+02  0.23353262354E+02 -0.88738819821E+01  0.31886093178E+02  0.00000000000E+00 0. -1.
         11    1    3    3    0    0  0.13512690908E+01  0.84685944023E+01 -0.45490328413E+01  0.97075599075E+01  0.51100000000E-03 0. -1.
        -11    1    3    3    0    0  0.18707448604E+02 -0.23364059986E+02 -0.40277788180E+01  0.30200512160E+02  0.51100000000E-03 0.  1.
        -12    1    3    3    0    0 -0.24452343468E+00 -0.84577967700E+01  0.17450693641E+02  0.19393834754E+02  0.00000000000E+00 0.  1.
</event>
<event>
 7    1  0.3220798E-013  0.5930195E+02  0.7816164E-02  0.1266605E+00
        -11   -1    0    0    0    0  0.00000000000E+00  0.00000000000E+00  0.45593999997E+02  0.45594000000E+02  0.51100000000E-03 0.  1.
         11   -1    0    0    0    0 -0.00000000000E+00 -0.00000000000E+00 -0.45593999997E+02  0.45594000000E+02  0.51100000000E-03 0. -1.
    9900012    2    1    2    0    0  0.12127056846E+02 -0.76061614742E+01  0.28492123315E+02  0.59301948330E+02  0.50000007845E+02 0.  0.
         12    1    1    2    0    0 -0.12127056846E+02  0.76061614742E+01 -0.28492123315E+02  0.31886051670E+02  0.00000000000E+00 0. -1.
         11    1    3    3    0    0  0.16062527610E+02 -0.20848241227E+01  0.13448066151E+02  0.21052357785E+02  0.51100000000E-03 0. -1.
        -11    1    3    3    0    0 -0.68597485302E+01  0.43990392911E+01  0.23511127286E+02  0.24883343889E+02  0.51100000000E-03 0.  1.
         12    1    3    3    0    0  0.29242777662E+01 -0.99203766426E+01 -0.84670701222E+01  0.13366246655E+02  0.00000000000E+00 0. -1.
</event>
<event>
 7    1  0.3220798E-013  0.5930193E+02  0.7816164E-02  0.1266605E+00
        -11   -1    0    0    0    0  0.00000000000E+00  0.00000000000E+00  0.45593999997E+02  0.45594000000E+02  0.51100000000E-03 0. -1.
         11   -1    0    0    0    0 -0.00000000000E+00 -0.00000000000E+00 -0.45593999997E+02  0.45594000000E+02  0.51100000000E-03 0.  1.
    9900012    2    1    2    0    0 -0.13918733098E+02  0.15470881215E+02 -0.24158680569E+02  0.59301934965E+02  0.49999983471E+02 0.  0.
         12    1    1    2    0    0  0.13918733098E+02 -0.15470881215E+02  0.24158680569E+02  0.31886065035E+02  0.00000000000E+00 0. -1.
         11    1    3    3    0    0  0.40523830231E+00 -0.10140696612E+02 -0.12629432774E+02  0.16201867741E+02  0.51100000000E-03 0. -1.
        -11    1    3    3    0    0 -0.13396252582E+02 -0.22988185358E+01 -0.42523463415E+01  0.14241720387E+02  0.51100000000E-03 0.  1.
         12    1    3    3    0    0 -0.92771881816E+00  0.27910396363E+02 -0.72769014530E+01  0.28858346836E+02  0.00000000000E+00 0. -1.
</event>
<event>
 7    1  0.3220798E-013  0.5930194E+02  0.7816164E-02  0.1266605E+00
        -11   -1    0    0    0    0  0.00000000000E+00  0.00000000000E+00  0.45593999997E+02  0.45594000000E+02  0.51100000000E-03 0.  1.
         11   -1    0    0    0    0 -0.00000000000E+00 -0.00000000000E+00 -0.45593999997E+02  0.45594000000E+02  0.51100000000E-03 0. -1.
    9900012    2    1    2    0    0 -0.30254871485E+01  0.40385289939E+01  0.31484243531E+02  0.59301939102E+02  0.49999991016E+02 0.  0.
         12    1    1    2    0    0  0.30254871485E+01 -0.40385289939E+01 -0.31484243531E+02  0.31886060898E+02  0.00000000000E+00 0. -1.
         11    1    3    3    0    0 -0.78528174419E+00 -0.62101650250E+01 -0.34186646431E+00  0.62689464822E+01  0.51100000000E-03 0. -1.
        -11    1    3    3    0    0 -0.15727999834E+02 -0.79070116969E+01  0.57597081047E+01  0.18522015292E+02  0.51100000000E-03 0.  1.
        -12    1    3    3    0    0  0.13487794430E+02  0.18155705716E+02  0.26066401890E+02  0.34510977328E+02  0.00000000000E+00 0.  1.
</event>
<event>
 7    1  0.3220798E-013  0.5930195E+02  0.7816164E-02  0.1266605E+00
        -11   -1    0    0    0    0  0.00000000000E+00  0.00000000000E+00  0.45593999997E+02  0.45594000000E+02  0.51100000000E-03 0.  1.
         11   -1    0    0    0    0 -0.00000000000E+00 -0.00000000000E+00 -0.45593999997E+02  0.45594000000E+02  0.51100000000E-03 0. -1.
    9900012    2    1    2    0    0  0.14036714968E+02  0.21097840658E+02  0.19353865607E+02  0.59301947227E+02  0.50000005835E+02 0.  0.
         12    1    1    2    0    0 -0.14036714968E+02 -0.21097840658E+02 -0.19353865607E+02  0.31886052773E+02  0.00000000000E+00 0. -1.
         11    1    3    3    0    0  0.11818763495E+02  0.10171628839E+02  0.84956035978E+01  0.17757265683E+02  0.51100000000E-03 0. -1.
        -11    1    3    3    0    0 -0.10989367702E+02  0.15970672928E+02  0.17323454340E+02  0.25998666635E+02  0.51100000000E-03 0.  1.
         12    1    3    3    0    0  0.13207319175E+02 -0.50444611094E+01 -0.64651923312E+01  0.15546014909E+02  0.00000000000E+00 0. -1.
</event>
<event>
 7    1  0.3220798E-013  0.5930194E+02  0.7816164E-02  0.1266605E+00
        -11   -1    0    0    0    0  0.00000000000E+00  0.00000000000E+00  0.45593999997E+02  0.45594000000E+02  0.51100000000E-03 0.  1.
         11   -1    0    0    0    0 -0.00000000000E+00 -0.00000000000E+00 -0.45593999997E+02  0.45594000000E+02  0.51100000000E-03 0. -1.
    9900012    2    1    2    0    0 -0.27321788046E+02  0.49332475203E-01  0.16438924538E+02  0.59301940731E+02  0.49999993988E+02 0.  0.
         12    1    1    2    0    0  0.27321788046E+02 -0.49332475203E-01 -0.16438924538E+02  0.31886059269E+02  0.00000000000E+00 0. -1.
         11    1    3    3    0    0 -0.19466986619E+02 -0.10751158682E+02  0.10580074828E+02  0.24626996664E+02  0.51100000000E-03 0. -1.
        -11    1    3    3    0    0 -0.19531767534E+02  0.11121150478E+02  0.33052022319E+01  0.22717708797E+02  0.51100000000E-03 0.  1.
        -12    1    3    3    0    0  0.11676966107E+02 -0.32065932119E+00  0.25536474782E+01  0.11957235270E+02  0.00000000000E+00 0.  1.
</event>
<event>
 7    1  0.3220798E-013  0.5930195E+02  0.7816164E-02  0.1266605E+00
        -11   -1    0    0    0    0  0.00000000000E+00  0.00000000000E+00  0.45593999997E+02  0.45594000000E+02  0.51100000000E-03 0.  1.
         11   -1    0    0    0    0 -0.00000000000E+00 -0.00000000000E+00 -0.45593999997E+02  0.45594000000E+02  0.51100000000E-03 0. -1.
    9900012    2    1    2    0    0 -0.25111595857E+02 -0.52885262659E+00  0.19643021396E+02  0.59301949427E+02  0.50000009846E+02 0.  0.
         12    1    1    2    0    0  0.25111595857E+02  0.52885262659E+00 -0.19643021396E+02  0.31886050573E+02  0.00000000000E+00 0. -1.
         11    1    3    3    0    0 -0.32998738468E+01  0.14188039993E+02  0.32802229976E+01  0.14931493878E+02  0.51100000000E-03 0. -1.
        -11    1    3    3    0    0  0.40195264840E+01  0.45943069141E+01 -0.29484787753E+01  0.67792165127E+01  0.51100000000E-03 0.  1.
        -12    1    3    3    0    0 -0.25831248494E+02 -0.19311199534E+02  0.19311277174E+02  0.37591239036E+02  0.00000000000E+00 0.  1.
</event>
<event>
 7    1  0.3220798E-013  0.5930195E+02  0.7816164E-02  0.1266605E+00
        -11   -1    0    0    0    0  0.00000000000E+00  0.00000000000E+00  0.45593999997E+02  0.45594000000E+02  0.51100000000E-03 0. -1.
         11   -1    0    0    0    0 -0.00000000000E+00 -0.00000000000E+00 -0.45593999997E+02  0.45594000000E+02  0.51100000000E-03 0.  1.
    9900012    2    1    2    0    0 -0.29335866473E+02 -0.20594186884E+01 -0.12324193153E+02  0.59301952833E+02  0.50000016059E+02 0.  0.
         12    1    1    2    0    0  0.29335866473E+02  0.20594186884E+01  0.12324193153E+02  0.31886047167E+02  0.00000000000E+00 0. -1.
         11    1    3    3    0    0 -0.74719110635E+00 -0.42610906430E+00 -0.12796597877E+02  0.12825473908E+02  0.51100000000E-03 0. -1.
        -11    1    3    3    0    0 -0.32795161272E+02  0.54939654924E+01 -0.84477012926E+01  0.34308452561E+02  0.51100000000E-03 0.  1.
        -12    1    3    3    0    0  0.42064859059E+01 -0.71272751165E+01  0.89201060166E+01  0.12168026365E+02  0.00000000000E+00 0.  1.
</event>
<event>
 7    1  0.3220798E-013  0.5930185E+02  0.7816164E-02  0.1266605E+00
        -11   -1    0    0    0    0  0.00000000000E+00  0.00000000000E+00  0.45593999997E+02  0.45594000000E+02  0.51100000000E-03 0. -1.
         11   -1    0    0    0    0 -0.00000000000E+00 -0.00000000000E+00 -0.45593999997E+02  0.45594000000E+02  0.51100000000E-03 0.  1.
    9900012    2    1    2    0    0 -0.13259963311E+02  0.25719475376E+02 -0.13394356871E+02  0.59301845691E+02  0.49999820658E+02 0.  0.
         12    1    1    2    0    0  0.13259963311E+02 -0.25719475376E+02  0.13394356871E+02  0.31886154309E+02  0.00000000000E+00 0. -1.
         11    1    3    3    0    0  0.12072254857E+02  0.27214666742E+01 -0.63162472669E+01  0.13893908665E+02  0.51100000000E-03 0.  1.
        -11    1    3    3    0    0  0.18453147006E+01 -0.18458057449E+00  0.68275597189E+01  0.70749436965E+01  0.51100000000E-03 0. -1.
        -12    1    3    3    0    0 -0.27177532868E+02  0.23182589276E+02 -0.13905669323E+02  0.38332993330E+02  0.00000000000E+00 0.  1.
</event>
<event>
 7    1  0.3220798E-013  0.5930193E+02  0.7816164E-02  0.1266605E+00
        -11   -1    0    0    0    0  0.00000000000E+00  0.00000000000E+00  0.45593999997E+02  0.45594000000E+02  0.51100000000E-03 0.  1.
         11   -1    0    0    0    0 -0.00000000000E+00 -0.00000000000E+00 -0.45593999997E+02  0.45594000000E+02  0.51100000000E-03 0. -1.
    9900012    2    1    2    0    0 -0.97246702630E+01 -0.68407369616E+01  0.29586422337E+02  0.59301932814E+02  0.49999979549E+02 0.  0.
         12    1    1    2    0    0  0.97246702630E+01  0.68407369616E+01 -0.29586422337E+02  0.31886067186E+02  0.00000000000E+00 0. -1.
         11    1    3    3    0    0 -0.98883442525E+01 -0.14654603461E+02  0.24322120057E+02  0.30068293583E+02  0.51100000000E-03 0. -1.
        -11    1    3    3    0    0  0.67595185346E+01 -0.86500405921E+01  0.27806924891E+01  0.11324599068E+02  0.51100000000E-03 0.  1.
         12    1    3    3    0    0 -0.65958445451E+01  0.16463907092E+02  0.24836097911E+01  0.17909040164E+02  0.00000000000E+00 0. -1.
</event>
<event>
 7    1  0.3220798E-013  0.5930193E+02  0.7816164E-02  0.1266605E+00
        -11   -1    0    0    0    0  0.00000000000E+00  0.00000000000E+00  0.45593999997E+02  0.45594000000E+02  0.51100000000E-03 0.  1.
         11   -1    0    0    0    0 -0.00000000000E+00 -0.00000000000E+00 -0.45593999997E+02  0.45594000000E+02  0.51100000000E-03 0. -1.
    9900012    2    1    2    0    0  0.29739675031E+01  0.74351066346E+01  0.30864152668E+02  0.59301933869E+02  0.49999981473E+02 0.  0.
         12    1    1    2    0    0 -0.29739675031E+01 -0.74351066346E+01 -0.30864152668E+02  0.31886066131E+02  0.00000000000E+00 0. -1.
         11    1    3    3    0    0  0.10607887634E+02 -0.98137401913E+01  0.12983470068E+02  0.19426972792E+02  0.51100000000E-03 0. -1.
        -11    1    3    3    0    0 -0.43344487366E+01 -0.66436714070E+00  0.20949665448E+02  0.21403675203E+02  0.51100000000E-03 0.  1.
        -12    1    3    3    0    0 -0.32994713945E+01  0.17913213967E+02 -0.30689828482E+01  0.18471285873E+02  0.00000000000E+00 0.  1.
</event>
<event>
 7    1  0.3220798E-013  0.5930198E+02  0.7816164E-02  0.1266605E+00
        -11   -1    0    0    0    0  0.00000000000E+00  0.00000000000E+00  0.45593999997E+02  0.45594000000E+02  0.51100000000E-03 0.  1.
         11   -1    0    0    0    0 -0.00000000000E+00 -0.00000000000E+00 -0.45593999997E+02  0.45594000000E+02  0.51100000000E-03 0. -1.
    9900012    2    1    2    0    0 -0.85895180102E+01 -0.24237216784E+02  0.18854593336E+02  0.59301981324E+02  0.50000068020E+02 0.  0.
         12    1    1    2    0    0  0.85895180102E+01  0.24237216784E+02 -0.18854593336E+02  0.31886018676E+02  0.00000000000E+00 0. -1.
         11    1    3    3    0    0 -0.18420217653E+01 -0.11190643774E+02  0.51911311167E+01  0.12472826255E+02  0.51100000000E-03 0. -1.
        -11    1    3    3    0    0 -0.20102377490E+02 -0.19286846590E+02  0.18162311961E+01  0.27917498601E+02  0.51100000000E-03 0.  1.
         12    1    3    3    0    0  0.13354881245E+02  0.62402735794E+01  0.11847231024E+02  0.18911656468E+02  0.00000000000E+00 0. -1.
</event>
<event>
 7    1  0.3220798E-013  0.5930195E+02  0.7816164E-02  0.1266605E+00
        -11   -1    0    0    0    0  0.00000000000E+00  0.00000000000E+00  0.45593999997E+02  0.45594000000E+02  0.51100000000E-03 0.  1.
         11   -1    0    0    0    0 -0.00000000000E+00 -0.00000000000E+00 -0.45593999997E+02  0.45594000000E+02  0.51100000000E-03 0. -1.
    9900012    2    1    2    0    0 -0.83665025071E+01  0.18504055347E+02  0.24582959027E+02  0.59301948143E+02  0.50000007505E+02 0.  0.
         12    1    1    2    0    0  0.83665025071E+01 -0.18504055347E+02 -0.24582959027E+02  0.31886051857E+02  0.00000000000E+00 0. -1.
         11    1    3    3    0    0 -0.19464796211E+02  0.74357403525E+01  0.11808614488E+01  0.20870145187E+02  0.51100000000E-03 0. -1.
        -11    1    3    3    0    0 -0.22769007194E+01 -0.18418580290E+01  0.19136390209E+02  0.19359187700E+02  0.51100000000E-03 0.  1.
         12    1    3    3    0    0  0.13375194423E+02  0.12910173023E+02  0.42657073692E+01  0.19072615256E+02  0.00000000000E+00 0. -1.
</event>
<event>
 7    1  0.3220798E-013  0.5930186E+02  0.7816164E-02  0.1266605E+00
        -11   -1    0    0    0    0  0.00000000000E+00  0.00000000000E+00  0.45593999997E+02  0.45594000000E+02  0.51100000000E-03 0.  1.
         11   -1    0    0    0    0 -0.00000000000E+00 -0.00000000000E+00 -0.45593999997E+02  0.45594000000E+02  0.51100000000E-03 0. -1.
    9900012    2    1    2    0    0  0.60982346008E+01 -0.23423758089E+02  0.20757290892E+02  0.59301858285E+02  0.49999843626E+02 0.  0.
         12    1    1    2    0    0 -0.60982346008E+01  0.23423758089E+02 -0.20757290892E+02  0.31886141715E+02  0.00000000000E+00 0. -1.
         11    1    3    3    0    0 -0.69360952386E+01 -0.31822340117E+01  0.23531538374E+02  0.24738013845E+02  0.51100000000E-03 0. -1.
        -11    1    3    3    0    0  0.59449590147E+01 -0.18923087472E+02  0.81748548601E+01  0.21453531863E+02  0.51100000000E-03 0.  1.
         12    1    3    3    0    0  0.70893708247E+01 -0.13184366058E+01 -0.10949102342E+02  0.13110312577E+02  0.00000000000E+00 0. -1.
</event>
<event>
 7    1  0.3220798E-013  0.5930195E+02  0.7816164E-02  0.1266605E+00
        -11   -1    0    0    0    0  0.00000000000E+00  0.00000000000E+00  0.45593999997E+02  0.45594000000E+02  0.51100000000E-03 0. -1.
         11   -1    0    0    0    0 -0.00000000000E+00 -0.00000000000E+00 -0.45593999997E+02  0.45594000000E+02  0.51100000000E-03 0.  1.
    9900012    2    1    2    0    0  0.12452683682E+01 -0.30788992668E+02 -0.81980131171E+01  0.59301950043E+02  0.50000010970E+02 0.  0.
         12    1    1    2    0    0 -0.12452683682E+01  0.30788992668E+02  0.81980131171E+01  0.31886049957E+02  0.00000000000E+00 0. -1.
         11    1    3    3    0    0 -0.14680513782E+02  0.16234086752E+01 -0.38782637317E+01  0.15270686640E+02  0.51100000000E-03 0. -1.
        -11    1    3    3    0    0 -0.67497646525E+01 -0.74678122839E+01 -0.18445963686E+00  0.10067848270E+02  0.51100000000E-03 0.  1.
        -12    1    3    3    0    0  0.22675546803E+02 -0.24944589059E+02 -0.41352897485E+01  0.33963415132E+02  0.00000000000E+00 0.  1.
</event>
<event>
 7    1  0.3220798E-013  0.5930192E+02  0.7816164E-02  0.1266605E+00
        -11   -1    0    0    0    0  0.00000000000E+00  0.00000000000E+00  0.45593999997E+02  0.45594000000E+02  0.51100000000E-03 0.  1.
         11   -1    0    0    0    0 -0.00000000000E+00 -0.00000000000E+00 -0.45593999997E+02  0.45594000000E+02  0.51100000000E-03 0. -1.
    9900012    2    1    2    0    0 -0.34672415509E+01  0.13963047926E+02  0.28455821123E+02  0.59301917971E+02  0.49999952479E+02 0.  0.
         12    1    1    2    0    0  0.34672415509E+01 -0.13963047926E+02 -0.28455821123E+02  0.31886082029E+02  0.00000000000E+00 0. -1.
         11    1    3    3    0    0  0.30054689617E+01 -0.54687207757E+01 -0.32808470460E+01  0.70500856876E+01  0.51100000000E-03 0. -1.
        -11    1    3    3    0    0 -0.17067480640E+02 -0.11519031990E+01  0.73250766559E+01  0.18608667998E+02  0.51100000000E-03 0.  1.
        -12    1    3    3    0    0  0.10594770127E+02  0.20583671901E+02  0.24411591513E+02  0.33643164286E+02  0.00000000000E+00 0.  1.
</event>
<event>
 7    1  0.3220798E-013  0.5930228E+02  0.7816164E-02  0.1266604E+00
        -11   -1    0    0    0    0  0.00000000000E+00  0.00000000000E+00  0.45593999997E+02  0.45594000000E+02  0.51100000000E-03 0. -1.
         11   -1    0    0    0    0 -0.00000000000E+00 -0.00000000000E+00 -0.45593999997E+02  0.45594000000E+02  0.51100000000E-03 0.  1.
    9900012    2    1    2    0    0 -0.28225324239E+02 -0.10905274387E+02  0.10055120040E+02  0.59302276285E+02  0.50000605953E+02 0.  0.
         12    1    1    2    0    0  0.28225324239E+02  0.10905274387E+02 -0.10055120040E+02  0.31885723715E+02  0.00000000000E+00 0. -1.
         11    1    3    3    0    0 -0.63259129691E+01  0.47750765621E+01 -0.45330485577E+01  0.91305564208E+01  0.51100000000E-03 0. -1.
        -11    1    3    3    0    0 -0.25187436019E+02 -0.10796758533E+02 -0.65944071719E+01  0.28186222419E+02  0.51100000000E-03 0.  1.
         12    1    3    3    0    0  0.32880247497E+01 -0.48835924156E+01  0.21182575770E+02  0.21985497445E+02  0.00000000000E+00 0. -1.
</event>
<event>
 7    1  0.3220798E-013  0.5930193E+02  0.7816164E-02  0.1266605E+00
        -11   -1    0    0    0    0  0.00000000000E+00  0.00000000000E+00  0.45593999997E+02  0.45594000000E+02  0.51100000000E-03 0. -1.
         11   -1    0    0    0    0 -0.00000000000E+00 -0.00000000000E+00 -0.45593999997E+02  0.45594000000E+02  0.51100000000E-03 0.  1.
    9900012    2    1    2    0    0  0.27275899980E+02  0.11967979524E+02  0.11380440470E+02  0.59301926568E+02  0.49999968158E+02 0.  0.
         12    1    1    2    0    0 -0.27275899980E+02 -0.11967979524E+02 -0.11380440470E+02  0.31886073432E+02  0.00000000000E+00 0. -1.
         11    1    3    3    0    0  0.11098737246E+02  0.12148120198E+02  0.45973673503E+01  0.17084922582E+02  0.51100000000E-03 0. -1.
        -11    1    3    3    0    0 -0.20340840355E+01  0.16226863876E+02  0.67836359252E+01  0.17704980253E+02  0.51100000000E-03 0.  1.
        -12    1    3    3    0    0  0.18211246769E+02 -0.16407004550E+02 -0.56280540644E-03  0.24512023734E+02  0.00000000000E+00 0.  1.
</event>
<event>
 7    1  0.3220798E-013  0.5930196E+02  0.7816164E-02  0.1266605E+00
        -11   -1    0    0    0    0  0.00000000000E+00  0.00000000000E+00  0.45593999997E+02  0.45594000000E+02  0.51100000000E-03 0. -1.
         11   -1    0    0    0    0 -0.00000000000E+00 -0.00000000000E+00 -0.45593999997E+02  0.45594000000E+02  0.51100000000E-03 0.  1.
    9900012    2    1    2    0    0  0.22914632425E+01 -0.28957374327E+02 -0.13150646776E+02  0.59301955367E+02  0.50000020681E+02 0.  0.
         12    1    1    2    0    0 -0.22914632425E+01  0.28957374327E+02  0.13150646776E+02  0.31886044633E+02  0.00000000000E+00 0. -1.
         11    1    3    3    0    0  0.46618986491E+01 -0.12640006446E+00  0.49610173244E+01  0.68088889802E+01  0.51100000000E-03 0. -1.
        -11    1    3    3    0    0 -0.14671278991E+02 -0.88280934790E+01  0.66488633416E+01  0.18368153029E+02  0.51100000000E-03 0.  1.
        -12    1    3    3    0    0  0.12300843584E+02 -0.20002880783E+02 -0.24760527442E+02  0.34124913358E+02  0.00000000000E+00 0.  1.
</event>
<event>
 7    1  0.3220798E-013  0.5930195E+02  0.7816164E-02  0.1266605E+00
        -11   -1    0    0    0    0  0.00000000000E+00  0.00000000000E+00  0.45593999997E+02  0.45594000000E+02  0.51100000000E-03 0.  1.
         11   -1    0    0    0    0 -0.00000000000E+00 -0.00000000000E+00 -0.45593999997E+02  0.45594000000E+02  0.51100000000E-03 0. -1.
    9900012    2    1    2    0    0 -0.66817060761E+01 -0.18202909341E+02  0.25312622787E+02  0.59301953257E+02  0.50000016831E+02 0.  0.
         12    1    1    2    0    0  0.66817060761E+01  0.18202909341E+02 -0.25312622787E+02  0.31886046743E+02  0.00000000000E+00 0. -1.
         11    1    3    3    0    0  0.11723885257E+02 -0.34136609082E+01  0.10919411302E+02  0.16380967912E+02  0.51100000000E-03 0.  1.
        -11    1    3    3    0    0 -0.55497380361E+01  0.94236190201E+01  0.10627285567E+02  0.15249373315E+02  0.51100000000E-03 0. -1.
         12    1    3    3    0    0 -0.12855853297E+02 -0.24212867453E+02  0.37659259176E+01  0.27671612029E+02  0.00000000000E+00 0. -1.
</event>
<event>
 7    1  0.3220798E-013  0.5930190E+02  0.7816164E-02  0.1266605E+00
        -11   -1    0    0    0    0  0.00000000000E+00  0.00000000000E+00  0.45593999997E+02  0.45594000000E+02  0.51100000000E-03 0. -1.
         11   -1    0    0    0    0 -0.00000000000E+00 -0.00000000000E+00 -0.45593999997E+02  0.45594000000E+02  0.51100000000E-03 0.  1.
    9900012    2    1    2    0    0 -0.28836536078E+02  0.55331760299E+01 -0.12432268491E+02  0.59301903503E+02  0.49999926093E+02 0.  0.
         12    1    1    2    0    0  0.28836536078E+02 -0.55331760299E+01  0.12432268491E+02  0.31886096497E+02  0.00000000000E+00 0. -1.
         11    1    3    3    0    0 -0.39403925857E+01  0.71211552979E+01  0.88831799531E+01  0.12047756341E+02  0.51100000000E-03 0. -1.
        -11    1    3    3    0    0  0.10018324390E+01  0.11648868253E+02 -0.11901949968E+02  0.16684010702E+02  0.51100000000E-03 0.  1.
        -12    1    3    3    0    0 -0.25897975931E+02 -0.13236847521E+02 -0.94134984764E+01  0.30570136460E+02  0.00000000000E+00 0.  1.
</event>
<event>
 7    1  0.3220798E-013  0.5930198E+02  0.7816164E-02  0.1266605E+00
        -11   -1    0    0    0    0  0.00000000000E+00  0.00000000000E+00  0.45593999997E+02  0.45594000000E+02  0.51100000000E-03 0.  1.
         11   -1    0    0    0    0 -0.00000000000E+00 -0.00000000000E+00 -0.45593999997E+02  0.45594000000E+02  0.51100000000E-03 0. -1.
    9900012    2    1    2    0    0  0.12927948166E+01 -0.14003985888E+02  0.28617043613E+02  0.59301982307E+02  0.50000069812E+02 0.  0.
         12    1    1    2    0    0 -0.12927948166E+01  0.14003985888E+02 -0.28617043613E+02  0.31886017693E+02  0.00000000000E+00 0. -1.
         11    1    3    3    0    0 -0.55188986460E+01  0.10602629708E+02 -0.19207776084E+01  0.12106336600E+02  0.51100000000E-03 0. -1.
        -11    1    3    3    0    0 -0.69791914197E+01 -0.33228295787E+01  0.16470838090E+02  0.18194472153E+02  0.51100000000E-03 0.  1.
        -12    1    3    3    0    0  0.13790884882E+02 -0.21283786017E+02  0.14066983131E+02  0.29001173554E+02  0.00000000000E+00 0.  1.
</event>
<event>
 7    1  0.3220798E-013  0.5930193E+02  0.7816164E-02  0.1266605E+00
        -11   -1    0    0    0    0  0.00000000000E+00  0.00000000000E+00  0.45593999997E+02  0.45594000000E+02  0.51100000000E-03 0.  1.
         11   -1    0    0    0    0 -0.00000000000E+00 -0.00000000000E+00 -0.45593999997E+02  0.45594000000E+02  0.51100000000E-03 0. -1.
    9900012    2    1    2    0    0  0.31163585976E+02 -0.67044449258E+01 -0.77644882135E+00  0.59301928661E+02  0.49999971975E+02 0.  0.
         12    1    1    2    0    0 -0.31163585976E+02  0.67044449258E+01  0.77644882135E+00  0.31886071339E+02  0.00000000000E+00 0. -1.
         11    1    3    3    0    0 -0.79195264976E+01 -0.38893301175E+01 -0.25884928024E+01  0.91948944506E+01  0.51100000000E-03 0. -1.
        -11    1    3    3    0    0  0.74307414787E+01 -0.13226432577E+02  0.64122112418E+01  0.16470303303E+02  0.51100000000E-03 0.  1.
         12    1    3    3    0    0  0.31652370995E+02  0.10411317769E+02 -0.46001672608E+01  0.33636730907E+02  0.00000000000E+00 0. -1.
</event>
<event>
 7    1  0.3220798E-013  0.5930191E+02  0.7816164E-02  0.1266605E+00
        -11   -1    0    0    0    0  0.00000000000E+00  0.00000000000E+00  0.45593999997E+02  0.45594000000E+02  0.51100000000E-03 0. -1.
         11   -1    0    0    0    0 -0.00000000000E+00 -0.00000000000E+00 -0.45593999997E+02  0.45594000000E+02  0.51100000000E-03 0.  1.
    9900012    2    1    2    0    0  0.14119029051E+02  0.27376438546E+02 -0.82405169259E+01  0.59301913880E+02  0.49999945018E+02 0.  0.
         12    1    1    2    0    0 -0.14119029051E+02 -0.27376438546E+02  0.82405169259E+01  0.31886086120E+02  0.00000000000E+00 0. -1.
         11    1    3    3    0    0 -0.26898112665E+01  0.15635906863E+02  0.17361114958E+01  0.15960286697E+02  0.51100000000E-03 0.  1.
        -11    1    3    3    0    0 -0.49446064754E+01  0.14361539721E+02 -0.14466270562E+02  0.20975603462E+02  0.51100000000E-03 0. -1.
         12    1    3    3    0    0  0.21753446793E+02 -0.26210080378E+01  0.44896421405E+01  0.22366023721E+02  0.00000000000E+00 0. -1.
</event>
<event>
 7    1  0.3220798E-013  0.5930195E+02  0.7816164E-02  0.1266605E+00
        -11   -1    0    0    0    0  0.00000000000E+00  0.00000000000E+00  0.45593999997E+02  0.45594000000E+02  0.51100000000E-03 0.  1.
         11   -1    0    0    0    0 -0.00000000000E+00 -0.00000000000E+00 -0.45593999997E+02  0.45594000000E+02  0.51100000000E-03 0. -1.
    9900012    2    1    2    0    0  0.25646023659E+02 -0.49398343997E+01  0.18292060611E+02  0.59301953289E+02  0.50000016891E+02 0.  0.
         12    1    1    2    0    0 -0.25646023659E+02  0.49398343997E+01 -0.18292060611E+02  0.31886046711E+02  0.00000000000E+00 0. -1.
         11    1    3    3    0    0  0.36035189539E+01  0.44867095412E+01 -0.12693228449E+01  0.58929697185E+01  0.51100000000E-03 0. -1.
        -11    1    3    3    0    0  0.28869210298E+02 -0.21086578908E+02  0.10961968050E+02  0.37393045571E+02  0.51100000000E-03 0.  1.
         12    1    3    3    0    0 -0.68267055932E+01  0.11660034967E+02  0.85994154061E+01  0.16015938000E+02  0.00000000000E+00 0. -1.
</event>
<event>
 7    1  0.3220798E-013  0.5930195E+02  0.7816164E-02  0.1266605E+00
        -11   -1    0    0    0    0  0.00000000000E+00  0.00000000000E+00  0.45593999997E+02  0.45594000000E+02  0.51100000000E-03 0.  1.
         11   -1    0    0    0    0 -0.00000000000E+00 -0.00000000000E+00 -0.45593999997E+02  0.45594000000E+02  0.51100000000E-03 0. -1.
    9900012    2    1    2    0    0 -0.82244105017E+01  0.93373199911E+00  0.30792972782E+02  0.59301953580E+02  0.50000017421E+02 0.  0.
         12    1    1    2    0    0  0.82244105017E+01 -0.93373199911E+00 -0.30792972782E+02  0.31886046420E+02  0.00000000000E+00 0. -1.
         11    1    3    3    0    0 -0.97946980345E+00  0.59781390247E+01 -0.69521082157E+01  0.92211342144E+01  0.51100000000E-03 0. -1.
        -11    1    3    3    0    0 -0.37571281025E+01 -0.11531668365E+02  0.52571971542E+00  0.12139677440E+02  0.51100000000E-03 0.  1.
        -12    1    3    3    0    0 -0.34878125957E+01  0.64872613397E+01  0.37219361282E+02  0.37941141926E+02  0.00000000000E+00 0.  1.
</event>
<event>
 7    1  0.3220798E-013  0.5930194E+02  0.7816164E-02  0.1266605E+00
        -11   -1    0    0    0    0  0.00000000000E+00  0.00000000000E+00  0.45593999997E+02  0.45594000000E+02  0.51100000000E-03 0.  1.
         11   -1    0    0    0    0 -0.00000000000E+00 -0.00000000000E+00 -0.45593999997E+02  0.45594000000E+02  0.51100000000E-03 0. -1.
    9900012    2    1    2    0    0  0.69214911826E+01 -0.11484869161E+02  0.28929424090E+02  0.59301939754E+02  0.49999992206E+02 0.  0.
         12    1    1    2    0    0 -0.69214911826E+01  0.11484869161E+02 -0.28929424090E+02  0.31886060246E+02  0.00000000000E+00 0. -1.
         11    1    3    3    0    0 -0.27399646265E+01 -0.17194578430E+02  0.13058177663E+02  0.21764120421E+02  0.51100000000E-03 0. -1.
        -11    1    3    3    0    0 -0.92529195273E+01  0.98123448526E+01  0.11433973769E+02  0.17681470179E+02  0.51100000000E-03 0.  1.
         12    1    3    3    0    0  0.18914375336E+02 -0.41026355829E+01  0.44372726576E+01  0.19856349154E+02  0.00000000000E+00 0. -1.
</event>
<event>
 7    1  0.3220798E-013  0.5930167E+02  0.7816164E-02  0.1266606E+00
        -11   -1    0    0    0    0  0.00000000000E+00  0.00000000000E+00  0.45593999997E+02  0.45594000000E+02  0.51100000000E-03 0. -1.
         11   -1    0    0    0    0 -0.00000000000E+00 -0.00000000000E+00 -0.45593999997E+02  0.45594000000E+02  0.51100000000E-03 0.  1.
    9900012    2    1    2    0    0 -0.14814238150E+01 -0.44862472480E+01 -0.31534379667E+02  0.59301668573E+02  0.49999497634E+02 0.  0.
         12    1    1    2    0    0  0.14814238150E+01  0.44862472480E+01  0.31534379667E+02  0.31886331427E+02  0.00000000000E+00 0. -1.
         11    1    3    3    0    0  0.26749403283E+01  0.61286284551E+01 -0.18533679526E+02  0.19703113194E+02  0.51100000000E-03 0. -1.
        -11    1    3    3    0    0 -0.17750125188E+02  0.31637675899E+01 -0.68846248485E+01  0.19299596605E+02  0.51100000000E-03 0.  1.
         12    1    3    3    0    0  0.13593761044E+02 -0.13778643293E+02 -0.61160752932E+01  0.20298958774E+02  0.00000000000E+00 0. -1.
</event>
<event>
 7    1  0.3220798E-013  0.5930196E+02  0.7816164E-02  0.1266605E+00
        -11   -1    0    0    0    0  0.00000000000E+00  0.00000000000E+00  0.45593999997E+02  0.45594000000E+02  0.51100000000E-03 0.  1.
         11   -1    0    0    0    0 -0.00000000000E+00 -0.00000000000E+00 -0.45593999997E+02  0.45594000000E+02  0.51100000000E-03 0. -1.
    9900012    2    1    2    0    0  0.76587240518E+01 -0.49651341884E+01  0.30551770724E+02  0.59301963778E+02  0.50000036019E+02 0.  0.
         12    1    1    2    0    0 -0.76587240518E+01  0.49651341884E+01 -0.30551770724E+02  0.31886036222E+02  0.00000000000E+00 0. -1.
         11    1    3    3    0    0  0.10033075560E+02 -0.25896740479E+01  0.26662284937E+01  0.10699429494E+02  0.51100000000E-03 0. -1.
        -11    1    3    3    0    0  0.40140752055E+01 -0.19240821059E+02  0.22293440637E+02  0.29720691285E+02  0.51100000000E-03 0.  1.
        -12    1    3    3    0    0 -0.63884267134E+01  0.16865360919E+02  0.55921015935E+01  0.18881842998E+02  0.00000000000E+00 0.  1.
</event>
<event>
 7    1  0.3220798E-013  0.5930200E+02  0.7816164E-02  0.1266605E+00
        -11   -1    0    0    0    0  0.00000000000E+00  0.00000000000E+00  0.45593999997E+02  0.45594000000E+02  0.51100000000E-03 0.  1.
         11   -1    0    0    0    0 -0.00000000000E+00 -0.00000000000E+00 -0.45593999997E+02  0.45594000000E+02  0.51100000000E-03 0. -1.
    9900012    2    1    2    0    0  0.21609790490E+01 -0.41528864246E+01  0.31540464983E+02  0.59301996370E+02  0.50000095460E+02 0.  0.
         12    1    1    2    0    0 -0.21609790490E+01  0.41528864246E+01 -0.31540464983E+02  0.31886003630E+02  0.00000000000E+00 0. -1.
         11    1    3    3    0    0  0.95066977939E+01  0.23956637312E+01  0.22005503709E+01  0.10047832097E+02  0.51100000000E-03 0. -1.
        -11    1    3    3    0    0  0.11249650226E+02 -0.12203055215E+02  0.23851682544E+02  0.29058078864E+02  0.51100000000E-03 0.  1.
         12    1    3    3    0    0 -0.18595368971E+02  0.56545050597E+01  0.54882320684E+01  0.20196085409E+02  0.00000000000E+00 0. -1.
</event>
<event>
 7    1  0.3220798E-013  0.5930191E+02  0.7816164E-02  0.1266605E+00
        -11   -1    0    0    0    0  0.00000000000E+00  0.00000000000E+00  0.45593999997E+02  0.45594000000E+02  0.51100000000E-03 0.  1.
         11   -1    0    0    0    0 -0.00000000000E+00 -0.00000000000E+00 -0.45593999997E+02  0.45594000000E+02  0.51100000000E-03 0. -1.
    9900012    2    1    2    0    0 -0.26383868694E+02  0.17837525720E+02  0.15610438849E+01  0.59301910414E+02  0.49999938696E+02 0.  0.
         12    1    1    2    0    0  0.26383868694E+02 -0.17837525720E+02 -0.15610438849E+01  0.31886089586E+02  0.00000000000E+00 0. -1.
         11    1    3    3    0    0 -0.64715155209E+01  0.32529848517E+01 -0.68361046426E+01  0.99596561451E+01  0.51100000000E-03 0. -1.
        -11    1    3    3    0    0 -0.17828829036E+02  0.27895696709E+02 -0.65081988137E+00  0.33112846547E+02  0.51100000000E-03 0.  1.
         12    1    3    3    0    0 -0.20835241372E+01 -0.13311155841E+02  0.90479684089E+01  0.16229407721E+02  0.00000000000E+00 0. -1.
</event>
<event>
 7    1  0.3220798E-013  0.5930193E+02  0.7816164E-02  0.1266605E+00
        -11   -1    0    0    0    0  0.00000000000E+00  0.00000000000E+00  0.45593999997E+02  0.45594000000E+02  0.51100000000E-03 0.  1.
         11   -1    0    0    0    0 -0.00000000000E+00 -0.00000000000E+00 -0.45593999997E+02  0.45594000000E+02  0.51100000000E-03 0. -1.
    9900012    2    1    2    0    0 -0.53885404591E+00  0.29812374655E+02  0.11298371296E+02  0.59301933448E+02  0.49999980705E+02 0.  0.
         12    1    1    2    0    0  0.53885404591E+00 -0.29812374655E+02 -0.11298371296E+02  0.31886066552E+02  0.00000000000E+00 0. -1.
         11    1    3    3    0    0  0.80527543443E+00  0.12313193432E+02 -0.12485461967E+02  0.17554200688E+02  0.51100000000E-03 0. -1.
        -11    1    3    3    0    0  0.22809414277E+01  0.23666325498E+02  0.91813952891E+01  0.25487166890E+02  0.51100000000E-03 0.  1.
        -12    1    3    3    0    0 -0.36250709080E+01 -0.61671442758E+01  0.14602437974E+02  0.16260565869E+02  0.00000000000E+00 0.  1.
</event>
<event>
 7    1  0.3220798E-013  0.5930196E+02  0.7816164E-02  0.1266605E+00
        -11   -1    0    0    0    0  0.00000000000E+00  0.00000000000E+00  0.45593999997E+02  0.45594000000E+02  0.51100000000E-03 0.  1.
         11   -1    0    0    0    0 -0.00000000000E+00 -0.00000000000E+00 -0.45593999997E+02  0.45594000000E+02  0.51100000000E-03 0. -1.
    9900012    2    1    2    0    0  0.48397363411E+01 -0.31452681397E+02  0.20062740198E+01  0.59301963082E+02  0.50000034750E+02 0.  0.
         12    1    1    2    0    0 -0.48397363411E+01  0.31452681397E+02 -0.20062740198E+01  0.31886036918E+02  0.00000000000E+00 0. -1.
         11    1    3    3    0    0 -0.65797537006E+01 -0.18656950714E+02  0.90491232355E+01  0.21754576537E+02  0.51100000000E-03 0.  1.
        -11    1    3    3    0    0  0.11251143800E+02 -0.93185386274E+01  0.11555097335E+02  0.18626424070E+02  0.51100000000E-03 0. -1.
         12    1    3    3    0    0  0.16834624161E+00 -0.34771920552E+01 -0.18597946551E+02  0.18920962474E+02  0.00000000000E+00 0. -1.
</event>
<event>
 7    1  0.3220798E-013  0.5930192E+02  0.7816164E-02  0.1266605E+00
        -11   -1    0    0    0    0  0.00000000000E+00  0.00000000000E+00  0.45593999997E+02  0.45594000000E+02  0.51100000000E-03 0. -1.
         11   -1    0    0    0    0 -0.00000000000E+00 -0.00000000000E+00 -0.45593999997E+02  0.45594000000E+02  0.51100000000E-03 0.  1.
    9900012    2    1    2    0    0  0.96170764898E+01  0.27558659286E+02  0.12835670402E+02  0.59301916884E+02  0.49999950495E+02 0.  0.
         12    1    1    2    0    0 -0.96170764898E+01 -0.27558659286E+02 -0.12835670402E+02  0.31886083116E+02  0.00000000000E+00 0. -1.
         11    1    3    3    0    0  0.66510911059E+01  0.10255771273E+02  0.47333566884E+01  0.13108109059E+02  0.51100000000E-03 0. -1.
        -11    1    3    3    0    0  0.11174827832E+02  0.17839670007E+01  0.21374525044E+02  0.24185318614E+02  0.51100000000E-03 0.  1.
        -12    1    3    3    0    0 -0.82088424477E+01  0.15518921012E+02 -0.13272211331E+02  0.22008489210E+02  0.00000000000E+00 0.  1.
</event>
<event>
 7    1  0.3220798E-013  0.5930194E+02  0.7816164E-02  0.1266605E+00
        -11   -1    0    0    0    0  0.00000000000E+00  0.00000000000E+00  0.45593999997E+02  0.45594000000E+02  0.51100000000E-03 0.  1.
         11   -1    0    0    0    0 -0.00000000000E+00 -0.00000000000E+00 -0.45593999997E+02  0.45594000000E+02  0.51100000000E-03 0. -1.
    9900012    2    1    2    0    0 -0.20315028300E+02  0.17488564332E+02  0.17267618518E+02  0.59301938680E+02  0.49999990247E+02 0.  0.
         12    1    1    2    0    0  0.20315028300E+02 -0.17488564332E+02 -0.17267618518E+02  0.31886061320E+02  0.00000000000E+00 0. -1.
         11    1    3    3    0    0 -0.12378950646E+02  0.96396564021E+01 -0.78344229254E+01  0.17536806365E+02  0.51100000000E-03 0. -1.
        -11    1    3    3    0    0 -0.17080019296E+02 -0.48272710879E+01  0.13207273767E+02  0.22123781004E+02  0.51100000000E-03 0.  1.
        -12    1    3    3    0    0  0.91439416420E+01  0.12676179017E+02  0.11894767676E+02  0.19641351311E+02  0.00000000000E+00 0.  1.
</event>
<event>
 7    1  0.3220798E-013  0.5930194E+02  0.7816164E-02  0.1266605E+00
        -11   -1    0    0    0    0  0.00000000000E+00  0.00000000000E+00  0.45593999997E+02  0.45594000000E+02  0.51100000000E-03 0. -1.
         11   -1    0    0    0    0 -0.00000000000E+00 -0.00000000000E+00 -0.45593999997E+02  0.45594000000E+02  0.51100000000E-03 0.  1.
    9900012    2    1    2    0    0  0.42363199665E+01 -0.12100619020E+02 -0.29195021739E+02  0.59301942203E+02  0.49999996671E+02 0.  0.
         12    1    1    2    0    0 -0.42363199665E+01  0.12100619020E+02  0.29195021739E+02  0.31886057797E+02  0.00000000000E+00 0. -1.
         11    1    3    3    0    0 -0.29562335595E+01 -0.62883080029E+00  0.11815992975E+01  0.32451382397E+01  0.51100000000E-03 0. -1.
        -11    1    3    3    0    0 -0.36028023179E+01  0.15507534431E+02 -0.31364971632E+01  0.16226565361E+02  0.51100000000E-03 0.  1.
         12    1    3    3    0    0  0.10795355844E+02 -0.26979322651E+02 -0.27240123873E+02  0.39830238602E+02  0.00000000000E+00 0. -1.
</event>
<event>
 7    1  0.3220798E-013  0.5930198E+02  0.7816164E-02  0.1266605E+00
        -11   -1    0    0    0    0  0.00000000000E+00  0.00000000000E+00  0.45593999997E+02  0.45594000000E+02  0.51100000000E-03 0. -1.
         11   -1    0    0    0    0 -0.00000000000E+00 -0.00000000000E+00 -0.45593999997E+02  0.45594000000E+02  0.51100000000E-03 0.  1.
    9900012    2    1    2    0    0  0.15648800593E+02  0.17383270937E+02 -0.21671535507E+02  0.59301976107E+02  0.50000058505E+02 0.  0.
         12    1    1    2    0    0 -0.15648800593E+02 -0.17383270937E+02  0.21671535507E+02  0.31886023893E+02  0.00000000000E+00 0. -1.
         11    1    3    3    0    0  0.41104736706E+01  0.80425989303E+01  0.12992433513E+02  0.15823486348E+02  0.51100000000E-03 0. -1.
        -11    1    3    3    0    0  0.13476564650E+02  0.37296486571E+01 -0.78925297333E+01  0.16056777376E+02  0.51100000000E-03 0.  1.
        -12    1    3    3    0    0 -0.19382377277E+01  0.56110233497E+01 -0.26771439287E+02  0.27421712383E+02  0.00000000000E+00 0.  1.
</event>
<event>
 7    1  0.3220798E-013  0.5930194E+02  0.7816164E-02  0.1266605E+00
        -11   -1    0    0    0    0  0.00000000000E+00  0.00000000000E+00  0.45593999997E+02  0.45594000000E+02  0.51100000000E-03 0. -1.
         11   -1    0    0    0    0 -0.00000000000E+00 -0.00000000000E+00 -0.45593999997E+02  0.45594000000E+02  0.51100000000E-03 0.  1.
    9900012    2    1    2    0    0  0.17856611583E+02  0.71918980761E+01 -0.25419255581E+02  0.59301944593E+02  0.50000001031E+02 0.  0.
         12    1    1    2    0    0 -0.17856611583E+02 -0.71918980761E+01  0.25419255581E+02  0.31886055407E+02  0.00000000000E+00 0. -1.
         11    1    3    3    0    0 -0.10667973994E+02 -0.68852350649E+01 -0.13885569285E+02  0.18815450185E+02  0.51100000000E-03 0.  1.
        -11    1    3    3    0    0  0.58783518057E+01  0.99398624496E+01  0.45409323028E+01  0.12408704683E+02  0.51100000000E-03 0. -1.
        -12    1    3    3    0    0  0.22646233771E+02  0.41372706914E+01 -0.16074618598E+02  0.28077789725E+02  0.00000000000E+00 0.  1.
</event>
<event>
 7    1  0.3220798E-013  0.5930200E+02  0.7816164E-02  0.1266605E+00
        -11   -1    0    0    0    0  0.00000000000E+00  0.00000000000E+00  0.45593999997E+02  0.45594000000E+02  0.51100000000E-03 0. -1.
         11   -1    0    0    0    0 -0.00000000000E+00 -0.00000000000E+00 -0.45593999997E+02  0.45594000000E+02  0.51100000000E-03 0.  1.
    9900012    2    1    2    0    0 -0.14302742079E+02  0.22572689061E+02  0.17396041572E+02  0.59302000176E+02  0.50000102400E+02 0.  0.
         12    1    1    2    0    0  0.14302742079E+02 -0.22572689061E+02 -0.17396041572E+02  0.31885999824E+02  0.00000000000E+00 0. -1.
         11    1    3    3    0    0 -0.51025979653E+01  0.85954404445E+01  0.36019360939E+01  0.10625066885E+02  0.51100000000E-03 0. -1.
        -11    1    3    3    0    0 -0.30376105653E+01  0.19592178394E+02 -0.10891946941E+02  0.22621119349E+02  0.51100000000E-03 0.  1.
         12    1    3    3    0    0 -0.61625335481E+01 -0.56149297776E+01  0.24686052419E+02  0.26055813942E+02  0.00000000000E+00 0. -1.
</event>
<event>
 7    1  0.3220798E-013  0.5930195E+02  0.7816164E-02  0.1266605E+00
        -11   -1    0    0    0    0  0.00000000000E+00  0.00000000000E+00  0.45593999997E+02  0.45594000000E+02  0.51100000000E-03 0.  1.
         11   -1    0    0    0    0 -0.00000000000E+00 -0.00000000000E+00 -0.45593999997E+02  0.45594000000E+02  0.51100000000E-03 0. -1.
    9900012    2    1    2    0    0 -0.11408381812E+02 -0.22302489179E+01  0.29691664329E+02  0.59301951069E+02  0.50000012841E+02 0.  0.
         12    1    1    2    0    0  0.11408381812E+02  0.22302489179E+01 -0.29691664329E+02  0.31886048931E+02  0.00000000000E+00 0. -1.
         11    1    3    3    0    0  0.60994420134E+01  0.66519870748E+01 -0.10716987067E+01  0.90884907051E+01  0.51100000000E-03 0. -1.
        -11    1    3    3    0    0  0.70191660592E+01  0.68918012557E+01  0.12086952098E+02  0.15583967017E+02  0.51100000000E-03 0.  1.
        -12    1    3    3    0    0 -0.24526989885E+02 -0.15774037248E+02  0.18676410938E+02  0.34629493347E+02  0.00000000000E+00 0.  1.
</event>
<event>
 7    1  0.3220798E-013  0.5930191E+02  0.7816164E-02  0.1266605E+00
        -11   -1    0    0    0    0  0.00000000000E+00  0.00000000000E+00  0.45593999997E+02  0.45594000000E+02  0.51100000000E-03 0. -1.
         11   -1    0    0    0    0 -0.00000000000E+00 -0.00000000000E+00 -0.45593999997E+02  0.45594000000E+02  0.51100000000E-03 0.  1.
    9900012    2    1    2    0    0 -0.16695509802E+02  0.20829334997E+02 -0.17439087270E+02  0.59301905714E+02  0.49999930125E+02 0.  0.
         12    1    1    2    0    0  0.16695509802E+02 -0.20829334997E+02  0.17439087270E+02  0.31886094286E+02  0.00000000000E+00 0. -1.
         11    1    3    3    0    0  0.11951940966E+02  0.73856560724E+01 -0.42773043297E+01  0.14686461149E+02  0.51100000000E-03 0. -1.
        -11    1    3    3    0    0  0.39921314616E+01  0.87498434079E+01 -0.22011516778E+01  0.98662020169E+01  0.51100000000E-03 0.  1.
        -12    1    3    3    0    0 -0.32639582230E+02  0.46938355169E+01 -0.10960631263E+02  0.34749242549E+02  0.00000000000E+00 0.  1.
</event>
<event>
 7    1  0.3220798E-013  0.5930195E+02  0.7816164E-02  0.1266605E+00
        -11   -1    0    0    0    0  0.00000000000E+00  0.00000000000E+00  0.45593999997E+02  0.45594000000E+02  0.51100000000E-03 0.  1.
         11   -1    0    0    0    0 -0.00000000000E+00 -0.00000000000E+00 -0.45593999997E+02  0.45594000000E+02  0.51100000000E-03 0. -1.
    9900012    2    1    2    0    0 -0.22402051401E+02  0.22093795418E+02  0.51703206296E+01  0.59301954175E+02  0.50000018506E+02 0.  0.
         12    1    1    2    0    0  0.22402051401E+02 -0.22093795418E+02 -0.51703206296E+01  0.31886045825E+02  0.00000000000E+00 0. -1.
         11    1    3    3    0    0  0.53653497494E+01  0.12430867584E+02 -0.87803291036E+01  0.16137150500E+02  0.51100000000E-03 0. -1.
        -11    1    3    3    0    0 -0.18970880526E+02  0.16090411881E+02 -0.72639888152E+00  0.24886207386E+02  0.51100000000E-03 0.  1.
         12    1    3    3    0    0 -0.87965206243E+01 -0.64274840477E+01  0.14677048615E+02  0.18278596290E+02  0.00000000000E+00 0. -1.
</event>
<event>
 7    1  0.3220798E-013  0.5930194E+02  0.7816164E-02  0.1266605E+00
        -11   -1    0    0    0    0  0.00000000000E+00  0.00000000000E+00  0.45593999997E+02  0.45594000000E+02  0.51100000000E-03 0. -1.
         11   -1    0    0    0    0 -0.00000000000E+00 -0.00000000000E+00 -0.45593999997E+02  0.45594000000E+02  0.51100000000E-03 0.  1.
    9900012    2    1    2    0    0  0.12012555903E+02  0.49350322495E+01 -0.29121549071E+02  0.59301942500E+02  0.49999997213E+02 0.  0.
         12    1    1    2    0    0 -0.12012555903E+02 -0.49350322495E+01  0.29121549071E+02  0.31886057500E+02  0.00000000000E+00 0. -1.
         11    1    3    3    0    0  0.12058847424E+02 -0.10200780761E+02  0.68813608947E-02  0.15794675588E+02  0.51100000000E-03 0. -1.
        -11    1    3    3    0    0 -0.87713882214E+01  0.93690970579E+01 -0.29715541664E+00  0.12837660714E+02  0.51100000000E-03 0.  1.
         12    1    3    3    0    0  0.87250967002E+01  0.57667159523E+01 -0.28831275015E+02  0.30669606197E+02  0.00000000000E+00 0. -1.
</event>
<event>
 7    1  0.3220798E-013  0.5930194E+02  0.7816164E-02  0.1266605E+00
        -11   -1    0    0    0    0  0.00000000000E+00  0.00000000000E+00  0.45593999997E+02  0.45594000000E+02  0.51100000000E-03 0.  1.
         11   -1    0    0    0    0 -0.00000000000E+00 -0.00000000000E+00 -0.45593999997E+02  0.45594000000E+02  0.51100000000E-03 0. -1.
    9900012    2    1    2    0    0  0.37546364062E+01  0.19968018295E+02  0.24574417390E+02  0.59301936599E+02  0.49999986452E+02 0.  0.
         12    1    1    2    0    0 -0.37546364062E+01 -0.19968018295E+02 -0.24574417390E+02  0.31886063401E+02  0.00000000000E+00 0. -1.
         11    1    3    3    0    0  0.16917030152E+01  0.11239003669E+01  0.62465786688E+01  0.65684668267E+01  0.51100000000E-03 0. -1.
        -11    1    3    3    0    0 -0.36743813549E+01  0.33502978578E+02  0.12605924260E+02  0.35984162887E+02  0.51100000000E-03 0.  1.
         12    1    3    3    0    0  0.57373147459E+01 -0.14658860650E+02  0.57219144610E+01  0.16749306886E+02  0.00000000000E+00 0. -1.
</event>
<event>
 7    1  0.3220798E-013  0.5930203E+02  0.7816164E-02  0.1266604E+00
        -11   -1    0    0    0    0  0.00000000000E+00  0.00000000000E+00  0.45593999997E+02  0.45594000000E+02  0.51100000000E-03 0. -1.
         11   -1    0    0    0    0 -0.00000000000E+00 -0.00000000000E+00 -0.45593999997E+02  0.45594000000E+02  0.51100000000E-03 0.  1.
    9900012    2    1    2    0    0  0.16764710094E+02  0.26716958854E+02 -0.46758761733E+01  0.59302027960E+02  0.50000153073E+02 0.  0.
         12    1    1    2    0    0 -0.16764710094E+02 -0.26716958854E+02  0.46758761733E+01  0.31885972040E+02  0.00000000000E+00 0. -1.
         11    1    3    3    0    0 -0.92843807847E+01 -0.43763272937E+01  0.58790177096E+01  0.11828559364E+02  0.51100000000E-03 0. -1.
        -11    1    3    3    0    0  0.10257710778E+02  0.24271190232E+02 -0.14136786155E+02  0.29902508736E+02  0.51100000000E-03 0.  1.
        -12    1    3    3    0    0  0.15791380101E+02  0.68220959159E+01  0.35818922719E+01  0.17570959860E+02  0.00000000000E+00 0.  1.
</event>
<event>
 7    1  0.3220798E-013  0.5930193E+02  0.7816164E-02  0.1266605E+00
        -11   -1    0    0    0    0  0.00000000000E+00  0.00000000000E+00  0.45593999997E+02  0.45594000000E+02  0.51100000000E-03 0.  1.
         11   -1    0    0    0    0 -0.00000000000E+00 -0.00000000000E+00 -0.45593999997E+02  0.45594000000E+02  0.51100000000E-03 0. -1.
    9900012    2    1    2    0    0 -0.19563118667E-02 -0.21627486516E+02  0.23430172867E+02  0.59301934432E+02  0.49999982500E+02 0.  0.
         12    1    1    2    0    0  0.19563118667E-02  0.21627486516E+02 -0.23430172867E+02  0.31886065568E+02  0.00000000000E+00 0. -1.
         11    1    3    3    0    0 -0.31056180364E+01 -0.86927340432E+01  0.14270277248E+02  0.16995567114E+02  0.51100000000E-03 0. -1.
        -11    1    3    3    0    0  0.14855595817E+02 -0.14456293915E+02 -0.73420542373E+01  0.21990427952E+02  0.51100000000E-03 0.  1.
         12    1    3    3    0    0 -0.11751934092E+02  0.15215414427E+01  0.16501949856E+02  0.20315939366E+02  0.00000000000E+00 0. -1.
</event>
<event>
 7    1  0.3220798E-013  0.5930200E+02  0.7816164E-02  0.1266605E+00
        -11   -1    0    0    0    0  0.00000000000E+00  0.00000000000E+00  0.45593999997E+02  0.45594000000E+02  0.51100000000E-03 0.  1.
         11   -1    0    0    0    0 -0.00000000000E+00 -0.00000000000E+00 -0.45593999997E+02  0.45594000000E+02  0.51100000000E-03 0. -1.
    9900012    2    1    2    0    0 -0.21428762758E+02  0.86347675345E+01  0.21976482117E+02  0.59302002290E+02  0.50000106256E+02 0.  0.
         12    1    1    2    0    0  0.21428762758E+02 -0.86347675345E+01 -0.21976482117E+02  0.31885997710E+02  0.00000000000E+00 0. -1.
         11    1    3    3    0    0  0.80533709466E-01 -0.27966570214E+00 -0.34942525524E+01  0.35063513435E+01  0.51100000000E-03 0. -1.
        -11    1    3    3    0    0 -0.34399616567E+02  0.69567674755E+01  0.12107767164E+02  0.37125843554E+02  0.51100000000E-03 0.  1.
         12    1    3    3    0    0  0.12890320100E+02  0.19576657612E+01  0.13362967506E+02  0.18669807392E+02  0.00000000000E+00 0. -1.
</event>
<event>
 7    1  0.3220798E-013  0.5930196E+02  0.7816164E-02  0.1266605E+00
        -11   -1    0    0    0    0  0.00000000000E+00  0.00000000000E+00  0.45593999997E+02  0.45594000000E+02  0.51100000000E-03 0.  1.
         11   -1    0    0    0    0 -0.00000000000E+00 -0.00000000000E+00 -0.45593999997E+02  0.45594000000E+02  0.51100000000E-03 0. -1.
    9900012    2    1    2    0    0  0.26734902834E+02  0.60642619641E+01  0.16284639856E+02  0.59301956063E+02  0.50000021950E+02 0.  0.
         12    1    1    2    0    0 -0.26734902834E+02 -0.60642619641E+01 -0.16284639856E+02  0.31886043937E+02  0.00000000000E+00 0. -1.
         11    1    3    3    0    0 -0.62400718740E+01  0.32875686372E+01  0.46942006937E+01  0.84724332367E+01  0.51100000000E-03 0. -1.
        -11    1    3    3    0    0 -0.22873451462E+01  0.64139568410E+01 -0.78560322959E+01  0.10396539514E+02  0.51100000000E-03 0.  1.
         12    1    3    3    0    0  0.35262319854E+02 -0.36372635141E+01  0.19446471458E+02  0.40432983312E+02  0.00000000000E+00 0. -1.
</event>
<event>
 7    1  0.3220798E-013  0.5930184E+02  0.7816164E-02  0.1266605E+00
        -11   -1    0    0    0    0  0.00000000000E+00  0.00000000000E+00  0.45593999997E+02  0.45594000000E+02  0.51100000000E-03 0.  1.
         11   -1    0    0    0    0 -0.00000000000E+00 -0.00000000000E+00 -0.45593999997E+02  0.45594000000E+02  0.51100000000E-03 0. -1.
    9900012    2    1    2    0    0  0.26714792075E+02  0.13051157340E+02  0.11520159625E+02  0.59301844676E+02  0.49999818806E+02 0.  0.
         12    1    1    2    0    0 -0.26714792075E+02 -0.13051157340E+02 -0.11520159625E+02  0.31886155324E+02  0.00000000000E+00 0. -1.
         11    1    3    3    0    0  0.46663986732E+01 -0.11875559233E+02 -0.46146832914E+01  0.13568326566E+02  0.51100000000E-03 0. -1.
        -11    1    3    3    0    0  0.22648129434E+02  0.55801160787E+01  0.10456014191E+02  0.25561762368E+02  0.51100000000E-03 0.  1.
        -12    1    3    3    0    0 -0.59973603228E+00  0.19346600494E+02  0.56788287253E+01  0.20171755741E+02  0.00000000000E+00 0.  1.
</event>
<event>
 7    1  0.3220798E-013  0.5930190E+02  0.7816164E-02  0.1266605E+00
        -11   -1    0    0    0    0  0.00000000000E+00  0.00000000000E+00  0.45593999997E+02  0.45594000000E+02  0.51100000000E-03 0.  1.
         11   -1    0    0    0    0 -0.00000000000E+00 -0.00000000000E+00 -0.45593999997E+02  0.45594000000E+02  0.51100000000E-03 0. -1.
    9900012    2    1    2    0    0  0.10600698907E+02  0.70272272898E+01  0.29239810349E+02  0.59301901933E+02  0.49999923229E+02 0.  0.
         12    1    1    2    0    0 -0.10600698907E+02 -0.70272272898E+01 -0.29239810349E+02  0.31886098067E+02  0.00000000000E+00 0. -1.
         11    1    3    3    0    0 -0.34094504589E+01 -0.54976290172E+01 -0.22575543520E+01  0.68516296715E+01  0.51100000000E-03 0. -1.
        -11    1    3    3    0    0  0.18333331295E+02 -0.23892581646E+01  0.31952126968E+02  0.36915552400E+02  0.51100000000E-03 0.  1.
         12    1    3    3    0    0 -0.43231819288E+01  0.14914114472E+02 -0.45476226744E+00  0.15534719862E+02  0.00000000000E+00 0. -1.
</event>
<event>
 7    1  0.3220798E-013  0.5930193E+02  0.7816164E-02  0.1266605E+00
        -11   -1    0    0    0    0  0.00000000000E+00  0.00000000000E+00  0.45593999997E+02  0.45594000000E+02  0.51100000000E-03 0. -1.
         11   -1    0    0    0    0 -0.00000000000E+00 -0.00000000000E+00 -0.45593999997E+02  0.45594000000E+02  0.51100000000E-03 0.  1.
    9900012    2    1    2    0    0 -0.71671743659E+01  0.41812782480E+01 -0.30787498649E+02  0.59301928601E+02  0.49999971866E+02 0.  0.
         12    1    1    2    0    0  0.71671743659E+01 -0.41812782480E+01  0.30787498649E+02  0.31886071399E+02  0.00000000000E+00 0. -1.
         11    1    3    3    0    0 -0.85603757611E+01  0.15066832242E+02 -0.17935932957E+02  0.24939670372E+02  0.51100000000E-03 0. -1.
        -11    1    3    3    0    0 -0.11365601574E+01 -0.50555834792E+01 -0.22345028852E+02  0.22937981776E+02  0.51100000000E-03 0.  1.
        -12    1    3    3    0    0  0.25297615526E+01 -0.58299705144E+01  0.94934631599E+01  0.11424276453E+02  0.00000000000E+00 0.  1.
</event>
<event>
 7    1  0.3220798E-013  0.5930195E+02  0.7816164E-02  0.1266605E+00
        -11   -1    0    0    0    0  0.00000000000E+00  0.00000000000E+00  0.45593999997E+02  0.45594000000E+02  0.51100000000E-03 0.  1.
         11   -1    0    0    0    0 -0.00000000000E+00 -0.00000000000E+00 -0.45593999997E+02  0.45594000000E+02  0.51100000000E-03 0. -1.
    9900012    2    1    2    0    0 -0.21178315169E+02  0.11864678660E+02  0.20674349373E+02  0.59301947327E+02  0.50000006016E+02 0.  0.
         12    1    1    2    0    0  0.21178315169E+02 -0.11864678660E+02 -0.20674349373E+02  0.31886052673E+02  0.00000000000E+00 0. -1.
         11    1    3    3    0    0  0.22706870212E+01  0.98788776385E+01 -0.10900593684E+02  0.14885267410E+02  0.51100000000E-03 0. -1.
        -11    1    3    3    0    0 -0.20052218513E+01  0.68269269726E+01  0.15892941244E+02  0.17413024671E+02  0.51100000000E-03 0.  1.
        -12    1    3    3    0    0 -0.21443780339E+02 -0.48411259512E+01  0.15682001814E+02  0.27003655245E+02  0.00000000000E+00 0.  1.
</event>
<event>
 7    1  0.3220798E-013  0.5930197E+02  0.7816164E-02  0.1266605E+00
        -11   -1    0    0    0    0  0.00000000000E+00  0.00000000000E+00  0.45593999997E+02  0.45594000000E+02  0.51100000000E-03 0. -1.
         11   -1    0    0    0    0 -0.00000000000E+00 -0.00000000000E+00 -0.45593999997E+02  0.45594000000E+02  0.51100000000E-03 0.  1.
    9900012    2    1    2    0    0 -0.63001813641E+01 -0.17602498592E+02 -0.25829806756E+02  0.59301966083E+02  0.50000040224E+02 0.  0.
         12    1    1    2    0    0  0.63001813641E+01  0.17602498592E+02  0.25829806756E+02  0.31886033917E+02  0.00000000000E+00 0. -1.
         11    1    3    3    0    0 -0.44891387182E+01 -0.15040136889E+01 -0.13608337510E+02  0.14408375122E+02  0.51100000000E-03 0. -1.
        -11    1    3    3    0    0  0.12885143063E+02  0.46948872572E+01 -0.13704751914E+02  0.19387859691E+02  0.51100000000E-03 0.  1.
         12    1    3    3    0    0 -0.14696185708E+02 -0.20793372160E+02  0.14832826684E+01  0.25505731271E+02  0.00000000000E+00 0. -1.
</event>
<event>
 7    1  0.3605103E-013  0.5930193E+02  0.7816164E-02  0.1266605E+00
        -11   -1    0    0    0    0  0.00000000000E+00  0.00000000000E+00  0.45593999997E+02  0.45594000000E+02  0.51100000000E-03 0. -1.
         11   -1    0    0    0    0 -0.00000000000E+00 -0.00000000000E+00 -0.45593999997E+02  0.45594000000E+02  0.51100000000E-03 0.  1.
    9900012    2    1    2    0    0  0.19053264315E+02 -0.16722788239E+02 -0.19340190104E+02  0.59301929674E+02  0.49999973823E+02 0.  0.
         12    1    1    2    0    0 -0.19053264315E+02  0.16722788239E+02  0.19340190104E+02  0.31886070326E+02  0.00000000000E+00 0. -1.
         11    1    3    3    0    0 -0.16305630246E+01 -0.60143920639E+01 -0.10844767425E+02  0.12507622813E+02  0.51100000000E-03 0. -1.
        -11    1    3    3    0    0  0.23969746487E+02  0.29695348002E+01 -0.17734349780E+02  0.29964546484E+02  0.51100000000E-03 0.  1.
         12    1    3    3    0    0 -0.32859191481E+01 -0.13677930975E+02  0.92389271001E+01  0.16829760378E+02  0.00000000000E+00 0. -1.
</event>
<event>
 7    1  0.3220798E-013  0.5930194E+02  0.7816164E-02  0.1266605E+00
        -11   -1    0    0    0    0  0.00000000000E+00  0.00000000000E+00  0.45593999997E+02  0.45594000000E+02  0.51100000000E-03 0.  1.
         11   -1    0    0    0    0 -0.00000000000E+00 -0.00000000000E+00 -0.45593999997E+02  0.45594000000E+02  0.51100000000E-03 0. -1.
    9900012    2    1    2    0    0 -0.16771481829E+02  0.21504452017E+02  0.16522620003E+02  0.59301936727E+02  0.49999986686E+02 0.  0.
         12    1    1    2    0    0  0.16771481829E+02 -0.21504452017E+02 -0.16522620003E+02  0.31886063273E+02  0.00000000000E+00 0. -1.
         11    1    3    3    0    0 -0.15216517621E+02 -0.22092962260E+01  0.15525234817E+02  0.21850773779E+02  0.51100000000E-03 0. -1.
        -11    1    3    3    0    0 -0.14273977261E+02  0.75672699166E+01  0.40899052109E+01  0.16665453061E+02  0.51100000000E-03 0.  1.
         12    1    3    3    0    0  0.12719013054E+02  0.16146478326E+02 -0.30925200248E+01  0.20785709887E+02  0.00000000000E+00 0. -1.
</event>
<event>
 7    1  0.3220798E-013  0.5930186E+02  0.7816164E-02  0.1266605E+00
        -11   -1    0    0    0    0  0.00000000000E+00  0.00000000000E+00  0.45593999997E+02  0.45594000000E+02  0.51100000000E-03 0.  1.
         11   -1    0    0    0    0 -0.00000000000E+00 -0.00000000000E+00 -0.45593999997E+02  0.45594000000E+02  0.51100000000E-03 0. -1.
    9900012    2    1    2    0    0  0.28726016460E+02 -0.10841479936E+02 -0.86025525192E+01  0.59301864788E+02  0.49999855486E+02 0.  0.
         12    1    1    2    0    0 -0.28726016460E+02  0.10841479936E+02  0.86025525192E+01  0.31886135212E+02  0.00000000000E+00 0. -1.
         11    1    3    3    0    0  0.89763703494E+01  0.51858637878E+01 -0.36948999926E+00  0.10373279664E+02  0.51100000000E-03 0. -1.
        -11    1    3    3    0    0  0.14593743003E+02  0.35047814540E+01  0.12829185963E+02  0.19744590161E+02  0.51100000000E-03 0.  1.
         12    1    3    3    0    0  0.51559031077E+01 -0.19532125178E+02 -0.21062248483E+02  0.29183994963E+02  0.00000000000E+00 0. -1.
</event>
<event>
 7    1  0.3220798E-013  0.5930206E+02  0.7816164E-02  0.1266604E+00
        -11   -1    0    0    0    0  0.00000000000E+00  0.00000000000E+00  0.45593999997E+02  0.45594000000E+02  0.51100000000E-03 0.  1.
         11   -1    0    0    0    0 -0.00000000000E+00 -0.00000000000E+00 -0.45593999997E+02  0.45594000000E+02  0.51100000000E-03 0. -1.
    9900012    2    1    2    0    0  0.15801878502E+02  0.91492485978E+01  0.26140102306E+02  0.59302061678E+02  0.50000214566E+02 0.  0.
         12    1    1    2    0    0 -0.15801878502E+02 -0.91492485978E+01 -0.26140102306E+02  0.31885938322E+02  0.00000000000E+00 0. -1.
         11    1    3    3    0    0  0.35260132535E+01  0.19374662351E+02  0.10220296677E+02  0.22187040702E+02  0.51100000000E-03 0. -1.
        -11    1    3    3    0    0  0.38060657461E+01  0.14102169212E+01  0.21350304598E+02  0.21732702430E+02  0.51100000000E-03 0.  1.
         12    1    3    3    0    0  0.84697995022E+01 -0.11635630674E+02 -0.54304989694E+01  0.15382318546E+02  0.00000000000E+00 0. -1.
</event>
<event>
 7    1  0.3220798E-013  0.5930195E+02  0.7816164E-02  0.1266605E+00
        -11   -1    0    0    0    0  0.00000000000E+00  0.00000000000E+00  0.45593999997E+02  0.45594000000E+02  0.51100000000E-03 0. -1.
         11   -1    0    0    0    0 -0.00000000000E+00 -0.00000000000E+00 -0.45593999997E+02  0.45594000000E+02  0.51100000000E-03 0.  1.
    9900012    2    1    2    0    0  0.17107132317E+02 -0.18755623755E+02 -0.19294888505E+02  0.59301950998E+02  0.50000012712E+02 0.  0.
         12    1    1    2    0    0 -0.17107132317E+02  0.18755623755E+02  0.19294888505E+02  0.31886049002E+02  0.00000000000E+00 0. -1.
         11    1    3    3    0    0 -0.43966749858E+01  0.12076614760E+02  0.18537892605E+01  0.12985064877E+02  0.51100000000E-03 0. -1.
        -11    1    3    3    0    0  0.32947078200E+01 -0.26425992792E+01  0.28187474668E+01  0.50777719634E+01  0.51100000000E-03 0.  1.
        -12    1    3    3    0    0  0.18209099482E+02 -0.28189639236E+02 -0.23967425232E+02  0.41239114157E+02  0.00000000000E+00 0.  1.
</event>
<event>
 7    1  0.3220798E-013  0.5930195E+02  0.7816164E-02  0.1266605E+00
        -11   -1    0    0    0    0  0.00000000000E+00  0.00000000000E+00  0.45593999997E+02  0.45594000000E+02  0.51100000000E-03 0.  1.
         11   -1    0    0    0    0 -0.00000000000E+00 -0.00000000000E+00 -0.45593999997E+02  0.45594000000E+02  0.51100000000E-03 0. -1.
    9900012    2    1    2    0    0 -0.99729409418E+01 -0.28761168763E+02  0.94897764653E+01  0.59301949178E+02  0.50000009393E+02 0.  0.
         12    1    1    2    0    0  0.99729409418E+01  0.28761168763E+02 -0.94897764653E+01  0.31886050822E+02  0.00000000000E+00 0. -1.
         11    1    3    3    0    0 -0.11599110641E+02  0.39862189606E+01  0.72177706072E+01  0.14231146197E+02  0.51100000000E-03 0. -1.
        -11    1    3    3    0    0  0.12062393406E+02 -0.50611226579E+01  0.74190222085E+01  0.15038556714E+02  0.51100000000E-03 0.  1.
        -12    1    3    3    0    0 -0.10436223707E+02 -0.27686265066E+02 -0.51470163504E+01  0.30032246267E+02  0.00000000000E+00 0.  1.
</event>
<event>
 7    1  0.3220798E-013  0.5930196E+02  0.7816164E-02  0.1266605E+00
        -11   -1    0    0    0    0  0.00000000000E+00  0.00000000000E+00  0.45593999997E+02  0.45594000000E+02  0.51100000000E-03 0.  1.
         11   -1    0    0    0    0 -0.00000000000E+00 -0.00000000000E+00 -0.45593999997E+02  0.45594000000E+02  0.51100000000E-03 0. -1.
    9900012    2    1    2    0    0 -0.16648645286E+01 -0.11521732716E+02  0.29684967453E+02  0.59301962439E+02  0.50000033577E+02 0.  0.
         12    1    1    2    0    0  0.16648645286E+01  0.11521732716E+02 -0.29684967453E+02  0.31886037561E+02  0.00000000000E+00 0. -1.
         11    1    3    3    0    0  0.11430258613E+02 -0.83049804283E+01 -0.60974871471E+01  0.15388400230E+02  0.51100000000E-03 0. -1.
        -11    1    3    3    0    0  0.26558844719E+01  0.64424958691E+01  0.10377408083E+02  0.12500002965E+02  0.51100000000E-03 0.  1.
        -12    1    3    3    0    0 -0.15751007614E+02 -0.96592481564E+01  0.25405046517E+02  0.31413559243E+02  0.00000000000E+00 0.  1.
</event>
<event>
 7    1  0.3220798E-013  0.5930194E+02  0.7816164E-02  0.1266605E+00
        -11   -1    0    0    0    0  0.00000000000E+00  0.00000000000E+00  0.45593999997E+02  0.45594000000E+02  0.51100000000E-03 0. -1.
         11   -1    0    0    0    0 -0.00000000000E+00 -0.00000000000E+00 -0.45593999997E+02  0.45594000000E+02  0.51100000000E-03 0.  1.
    9900012    2    1    2    0    0 -0.29971658723E+02 -0.88969313532E+01  0.62661785717E+01  0.59301941793E+02  0.49999995924E+02 0.  0.
         12    1    1    2    0    0  0.29971658723E+02  0.88969313532E+01 -0.62661785717E+01  0.31886058207E+02  0.00000000000E+00 0. -1.
         11    1    3    3    0    0 -0.26148498117E+01  0.11423774117E+02 -0.16791538111E+01  0.11838902500E+02  0.51100000000E-03 0. -1.
        -11    1    3    3    0    0  0.25232427857E+01  0.17145819613E+01 -0.68488590481E+01  0.74975606687E+01  0.51100000000E-03 0.  1.
         12    1    3    3    0    0 -0.29880051697E+02 -0.22035287431E+02  0.14794191431E+02  0.39965478625E+02  0.00000000000E+00 0. -1.
</event>
<event>
 7    1  0.3220798E-013  0.5930194E+02  0.7816164E-02  0.1266605E+00
        -11   -1    0    0    0    0  0.00000000000E+00  0.00000000000E+00  0.45593999997E+02  0.45594000000E+02  0.51100000000E-03 0. -1.
         11   -1    0    0    0    0 -0.00000000000E+00 -0.00000000000E+00 -0.45593999997E+02  0.45594000000E+02  0.51100000000E-03 0.  1.
    9900012    2    1    2    0    0  0.17462292278E+02  0.26624016949E+02  0.17178307022E+01  0.59301939215E+02  0.49999991222E+02 0.  0.
         12    1    1    2    0    0 -0.17462292278E+02 -0.26624016949E+02 -0.17178307022E+01  0.31886060785E+02  0.00000000000E+00 0. -1.
         11    1    3    3    0    0  0.16517155199E+02  0.36238333407E+01 -0.53813511564E+01  0.17745633955E+02  0.51100000000E-03 0. -1.
        -11    1    3    3    0    0  0.75414182145E+01  0.28894825123E+02 -0.54065174405E+00  0.29867644905E+02  0.51100000000E-03 0.  1.
         12    1    3    3    0    0 -0.65962811351E+01 -0.58946415153E+01  0.76398336028E+01  0.11688660355E+02  0.00000000000E+00 0. -1.
</event>
<event>
 7    1  0.3220798E-013  0.5930196E+02  0.7816164E-02  0.1266605E+00
        -11   -1    0    0    0    0  0.00000000000E+00  0.00000000000E+00  0.45593999997E+02  0.45594000000E+02  0.51100000000E-03 0. -1.
         11   -1    0    0    0    0 -0.00000000000E+00 -0.00000000000E+00 -0.45593999997E+02  0.45594000000E+02  0.51100000000E-03 0.  1.
    9900012    2    1    2    0    0 -0.17534109151E+02 -0.16544654212E+02 -0.20869803670E+02  0.59301964311E+02  0.50000036992E+02 0.  0.
         12    1    1    2    0    0  0.17534109151E+02  0.16544654212E+02  0.20869803670E+02  0.31886035689E+02  0.00000000000E+00 0. -1.
         11    1    3    3    0    0  0.57545763703E+01 -0.68334628311E+01 -0.16737186885E+02  0.18972210955E+02  0.51100000000E-03 0. -1.
        -11    1    3    3    0    0  0.45751359400E+01 -0.10929641771E+02 -0.37804824492E+01  0.12437081086E+02  0.51100000000E-03 0.  1.
        -12    1    3    3    0    0 -0.27863821461E+02  0.12184503908E+01 -0.35213433665E+00  0.27892672270E+02  0.00000000000E+00 0.  1.
</event>
<event>
 7    1  0.3220798E-013  0.5930190E+02  0.7816164E-02  0.1266605E+00
        -11   -1    0    0    0    0  0.00000000000E+00  0.00000000000E+00  0.45593999997E+02  0.45594000000E+02  0.51100000000E-03 0.  1.
         11   -1    0    0    0    0 -0.00000000000E+00 -0.00000000000E+00 -0.45593999997E+02  0.45594000000E+02  0.51100000000E-03 0. -1.
    9900012    2    1    2    0    0  0.12659323695E+02  0.23443318838E+01  0.29171378453E+02  0.59301895045E+02  0.49999910667E+02 0.  0.
         12    1    1    2    0    0 -0.12659323695E+02 -0.23443318838E+01 -0.29171378453E+02  0.31886104955E+02  0.00000000000E+00 0. -1.
         11    1    3    3    0    0 -0.67051608661E+01 -0.29488707135E+01 -0.30625674387E+00  0.73313582766E+01  0.51100000000E-03 0. -1.
        -11    1    3    3    0    0 -0.83518959406E+01  0.10231166716E+01  0.21079224377E+02  0.22696577586E+02  0.51100000000E-03 0.  1.
        -12    1    3    3    0    0  0.27716380501E+02  0.42700859257E+01  0.83984108200E+01  0.29273959182E+02  0.00000000000E+00 0.  1.
</event>
<event>
 7    1  0.3220798E-013  0.5930195E+02  0.7816164E-02  0.1266605E+00
        -11   -1    0    0    0    0  0.00000000000E+00  0.00000000000E+00  0.45593999997E+02  0.45594000000E+02  0.51100000000E-03 0. -1.
         11   -1    0    0    0    0 -0.00000000000E+00 -0.00000000000E+00 -0.45593999997E+02  0.45594000000E+02  0.51100000000E-03 0.  1.
    9900012    2    1    2    0    0  0.35828914807E+01  0.91150477500E+01 -0.30344670076E+02  0.59301949620E+02  0.50000010198E+02 0.  0.
         12    1    1    2    0    0 -0.35828914807E+01 -0.91150477500E+01  0.30344670076E+02  0.31886050380E+02  0.00000000000E+00 0. -1.
         11    1    3    3    0    0  0.96769491332E+01  0.19897508680E+02 -0.75436967210E+01  0.23376517206E+02  0.51100000000E-03 0. -1.
        -11    1    3    3    0    0 -0.45785296736E+01 -0.56915985588E+01  0.41871376805E+01  0.84195813639E+01  0.51100000000E-03 0.  1.
        -12    1    3    3    0    0 -0.15155279789E+01 -0.50908623710E+01 -0.26988111035E+02  0.27505851050E+02  0.00000000000E+00 0.  1.
</event>
<event>
 7    1  0.3220798E-013  0.5930193E+02  0.7816164E-02  0.1266605E+00
        -11   -1    0    0    0    0  0.00000000000E+00  0.00000000000E+00  0.45593999997E+02  0.45594000000E+02  0.51100000000E-03 0.  1.
         11   -1    0    0    0    0 -0.00000000000E+00 -0.00000000000E+00 -0.45593999997E+02  0.45594000000E+02  0.51100000000E-03 0. -1.
    9900012    2    1    2    0    0  0.62396702457E+01  0.10829526633E+02  0.29334435561E+02  0.59301933426E+02  0.49999980665E+02 0.  0.
         12    1    1    2    0    0 -0.62396702457E+01 -0.10829526633E+02 -0.29334435561E+02  0.31886066574E+02  0.00000000000E+00 0. -1.
         11    1    3    3    0    0 -0.72797457452E+01  0.17730110448E+02  0.18082597150E+02  0.26350177126E+02  0.51100000000E-03 0. -1.
        -11    1    3    3    0    0  0.79330118358E+01  0.10132241005E+02  0.64492058849E+01  0.14394000187E+02  0.51100000000E-03 0.  1.
        -12    1    3    3    0    0  0.55864041551E+01 -0.17032824821E+02  0.48026325263E+01  0.18557756113E+02  0.00000000000E+00 0.  1.
</event>
<event>
 7    1  0.3220798E-013  0.5930196E+02  0.7816164E-02  0.1266605E+00
        -11   -1    0    0    0    0  0.00000000000E+00  0.00000000000E+00  0.45593999997E+02  0.45594000000E+02  0.51100000000E-03 0.  1.
         11   -1    0    0    0    0 -0.00000000000E+00 -0.00000000000E+00 -0.45593999997E+02  0.45594000000E+02  0.51100000000E-03 0. -1.
    9900012    2    1    2    0    0  0.74322830837E+01  0.27954836140E+02  0.13416711299E+02  0.59301955442E+02  0.50000020817E+02 0.  0.
         12    1    1    2    0    0 -0.74322830837E+01 -0.27954836140E+02 -0.13416711299E+02  0.31886044558E+02  0.00000000000E+00 0. -1.
         11    1    3    3    0    0  0.88247372998E+01  0.55594519564E+01 -0.80638534104E+01  0.13183672726E+02  0.51100000000E-03 0. -1.
        -11    1    3    3    0    0 -0.45216126883E+01  0.23813993780E+02 -0.12648238245E+00  0.24239787110E+02  0.51100000000E-03 0.  1.
        -12    1    3    3    0    0  0.31291584722E+01 -0.14186095963E+01  0.21607047092E+02  0.21878495606E+02  0.00000000000E+00 0.  1.
</event>
<event>
 7    1  0.3220798E-013  0.5930196E+02  0.7816164E-02  0.1266605E+00
        -11   -1    0    0    0    0  0.00000000000E+00  0.00000000000E+00  0.45593999997E+02  0.45594000000E+02  0.51100000000E-03 0. -1.
         11   -1    0    0    0    0 -0.00000000000E+00 -0.00000000000E+00 -0.45593999997E+02  0.45594000000E+02  0.51100000000E-03 0.  1.
    9900012    2    1    2    0    0 -0.15109776510E+02  0.25172208845E+01 -0.27965648874E+02  0.59301964434E+02  0.50000037216E+02 0.  0.
         12    1    1    2    0    0  0.15109776510E+02 -0.25172208845E+01  0.27965648874E+02  0.31886035566E+02  0.00000000000E+00 0. -1.
         11    1    3    3    0    0 -0.51751771010E+01 -0.80520802491E+01 -0.27447362953E+02  0.29068474121E+02  0.51100000000E-03 0. -1.
        -11    1    3    3    0    0  0.42663274172E+01 -0.33024914955E+01 -0.74569570238E+01  0.92040321612E+01  0.51100000000E-03 0.  1.
         12    1    3    3    0    0 -0.14200926827E+02  0.13871792629E+02  0.69386711027E+01  0.21029458152E+02  0.00000000000E+00 0. -1.
</event>
<event>
 7    1  0.3220798E-013  0.5930194E+02  0.7816164E-02  0.1266605E+00
        -11   -1    0    0    0    0  0.00000000000E+00  0.00000000000E+00  0.45593999997E+02  0.45594000000E+02  0.51100000000E-03 0.  1.
         11   -1    0    0    0    0 -0.00000000000E+00 -0.00000000000E+00 -0.45593999997E+02  0.45594000000E+02  0.51100000000E-03 0. -1.
    9900012    2    1    2    0    0 -0.15127871883E+02  0.28022888802E+02 -0.16081413416E+01  0.59301938420E+02  0.49999989772E+02 0.  0.
         12    1    1    2    0    0  0.15127871883E+02 -0.28022888802E+02  0.16081413416E+01  0.31886061580E+02  0.00000000000E+00 0. -1.
         11    1    3    3    0    0  0.29540199343E+01 -0.41493658438E+01 -0.86657827032E+01  0.10051828729E+02  0.51100000000E-03 0. -1.
        -11    1    3    3    0    0  0.63598364352E+01 -0.17808166501E+00  0.59170068040E+01  0.86885097883E+01  0.51100000000E-03 0.  1.
         12    1    3    3    0    0 -0.24441728253E+02  0.32350336311E+02  0.11406345577E+01  0.40561599902E+02  0.00000000000E+00 0. -1.
</event>
<event>
 7    1  0.3220798E-013  0.5930194E+02  0.7816164E-02  0.1266605E+00
        -11   -1    0    0    0    0  0.00000000000E+00  0.00000000000E+00  0.45593999997E+02  0.45594000000E+02  0.51100000000E-03 0.  1.
         11   -1    0    0    0    0 -0.00000000000E+00 -0.00000000000E+00 -0.45593999997E+02  0.45594000000E+02  0.51100000000E-03 0. -1.
    9900012    2    1    2    0    0 -0.98306782940E+01  0.42191465836E+01  0.30037937013E+02  0.59301935746E+02  0.49999984897E+02 0.  0.
         12    1    1    2    0    0  0.98306782940E+01 -0.42191465836E+01 -0.30037937013E+02  0.31886064254E+02  0.00000000000E+00 0. -1.
         11    1    3    3    0    0 -0.24269082123E+01  0.14891339241E+02  0.22488023886E+00  0.15089481079E+02  0.51100000000E-03 0. -1.
        -11    1    3    3    0    0  0.99017628894E+01  0.25890534873E+01  0.13706053509E+02  0.17105671847E+02  0.51100000000E-03 0.  1.
        -12    1    3    3    0    0 -0.17305532971E+02 -0.13261246144E+02  0.16107003265E+02  0.27106782821E+02  0.00000000000E+00 0.  1.
</event>
<event>
 7    1  0.3220798E-013  0.5930193E+02  0.7816164E-02  0.1266605E+00
        -11   -1    0    0    0    0  0.00000000000E+00  0.00000000000E+00  0.45593999997E+02  0.45594000000E+02  0.51100000000E-03 0. -1.
         11   -1    0    0    0    0 -0.00000000000E+00 -0.00000000000E+00 -0.45593999997E+02  0.45594000000E+02  0.51100000000E-03 0.  1.
    9900012    2    1    2    0    0  0.48518014047E+01  0.26878049555E+02 -0.16454549874E+02  0.59301925668E+02  0.49999966517E+02 0.  0.
         12    1    1    2    0    0 -0.48518014047E+01 -0.26878049555E+02  0.16454549874E+02  0.31886074332E+02  0.00000000000E+00 0. -1.
         11    1    3    3    0    0 -0.63838168184E+00 -0.96586323180E+01  0.21168356500E+01  0.99084662212E+01  0.51100000000E-03 0. -1.
        -11    1    3    3    0    0  0.14023051534E+02  0.89644582614E+01 -0.93699765197E+01  0.19099841530E+02  0.51100000000E-03 0.  1.
        -12    1    3    3    0    0 -0.85328684474E+01  0.27572223611E+02 -0.92014090045E+01  0.30293617917E+02  0.00000000000E+00 0.  1.
</event>
<event>
 7    1  0.3220798E-013  0.5930195E+02  0.7816164E-02  0.1266605E+00
        -11   -1    0    0    0    0  0.00000000000E+00  0.00000000000E+00  0.45593999997E+02  0.45594000000E+02  0.51100000000E-03 0.  1.
         11   -1    0    0    0    0 -0.00000000000E+00 -0.00000000000E+00 -0.45593999997E+02  0.45594000000E+02  0.51100000000E-03 0. -1.
    9900012    2    1    2    0    0  0.75417228269E+01 -0.13273140430E+02  0.27994045022E+02  0.59301946673E+02  0.50000004825E+02 0.  0.
         12    1    1    2    0    0 -0.75417228269E+01  0.13273140430E+02 -0.27994045022E+02  0.31886053327E+02  0.00000000000E+00 0. -1.
         11    1    3    3    0    0  0.73939445832E+01  0.70969807643E+01  0.63284556333E+01  0.12045202507E+02  0.51100000000E-03 0. -1.
        -11    1    3    3    0    0  0.13324814762E+02  0.23511524121E+00  0.18194734027E+02  0.22553365917E+02  0.51100000000E-03 0.  1.
        -12    1    3    3    0    0 -0.13177036519E+02 -0.20605236435E+02  0.34708553613E+01  0.24703378249E+02  0.00000000000E+00 0.  1.
</event>
<event>
 7    1  0.3220798E-013  0.5930191E+02  0.7816164E-02  0.1266605E+00
        -11   -1    0    0    0    0  0.00000000000E+00  0.00000000000E+00  0.45593999997E+02  0.45594000000E+02  0.51100000000E-03 0.  1.
         11   -1    0    0    0    0 -0.00000000000E+00 -0.00000000000E+00 -0.45593999997E+02  0.45594000000E+02  0.51100000000E-03 0. -1.
    9900012    2    1    2    0    0 -0.44141602414E+01  0.15506515416E+02  0.27509747046E+02  0.59301905640E+02  0.49999929991E+02 0.  0.
         12    1    1    2    0    0  0.44141602414E+01 -0.15506515416E+02 -0.27509747046E+02  0.31886094360E+02  0.00000000000E+00 0. -1.
         11    1    3    3    0    0  0.41430548780E+01 -0.44127946965E+01  0.15266419851E+02  0.16422583112E+02  0.51100000000E-03 0. -1.
        -11    1    3    3    0    0  0.37482037592E+01  0.26397148112E+02  0.11247936453E+02  0.28937424464E+02  0.51100000000E-03 0.  1.
        -12    1    3    3    0    0 -0.12305418879E+02 -0.64778379991E+01  0.99539074159E+00  0.13941898065E+02  0.00000000000E+00 0.  1.
</event>
<event>
 7    1  0.3220798E-013  0.5930194E+02  0.7816164E-02  0.1266605E+00
        -11   -1    0    0    0    0  0.00000000000E+00  0.00000000000E+00  0.45593999997E+02  0.45594000000E+02  0.51100000000E-03 0.  1.
         11   -1    0    0    0    0 -0.00000000000E+00 -0.00000000000E+00 -0.45593999997E+02  0.45594000000E+02  0.51100000000E-03 0. -1.
    9900012    2    1    2    0    0 -0.12770693735E+02  0.20827479235E+02  0.20490152367E+02  0.59301939507E+02  0.49999991756E+02 0.  0.
         12    1    1    2    0    0  0.12770693735E+02 -0.20827479235E+02 -0.20490152367E+02  0.31886060493E+02  0.00000000000E+00 0. -1.
         11    1    3    3    0    0 -0.24087493269E+02  0.10691711815E+02  0.17085723210E+02  0.31407673766E+02  0.51100000000E-03 0.  1.
        -11    1    3    3    0    0 -0.58276877776E+01  0.28510548066E+01 -0.42490815415E+01  0.77553305894E+01  0.51100000000E-03 0. -1.
         12    1    3    3    0    0  0.17144487312E+02  0.72847126132E+01  0.76535106977E+01  0.20138935152E+02  0.00000000000E+00 0. -1.
</event>
<event>
 7    1  0.3220798E-013  0.5930194E+02  0.7816164E-02  0.1266605E+00
        -11   -1    0    0    0    0  0.00000000000E+00  0.00000000000E+00  0.45593999997E+02  0.45594000000E+02  0.51100000000E-03 0.  1.
         11   -1    0    0    0    0 -0.00000000000E+00 -0.00000000000E+00 -0.45593999997E+02  0.45594000000E+02  0.51100000000E-03 0. -1.
    9900012    2    1    2    0    0 -0.17026160363E+02  0.19696160199E+01 -0.26887751864E+02  0.59301941538E+02  0.49999995459E+02 0.  0.
         12    1    1    2    0    0  0.17026160363E+02 -0.19696160199E+01  0.26887751864E+02  0.31886058462E+02  0.00000000000E+00 0. -1.
         11    1    3    3    0    0  0.21738560480E+01  0.46418864531E+01 -0.23546317658E+01  0.56406605087E+01  0.51100000000E-03 0. -1.
        -11    1    3    3    0    0 -0.10071828864E+02 -0.13377068121E+01 -0.36876970172E+02  0.38251040842E+02  0.51100000000E-03 0.  1.
        -12    1    3    3    0    0 -0.91281875470E+01 -0.13345636211E+01  0.12343850075E+02  0.15410240187E+02  0.00000000000E+00 0.  1.
</event>
<event>
 7    1  0.3220798E-013  0.5930195E+02  0.7816164E-02  0.1266605E+00
        -11   -1    0    0    0    0  0.00000000000E+00  0.00000000000E+00  0.45593999997E+02  0.45594000000E+02  0.51100000000E-03 0.  1.
         11   -1    0    0    0    0 -0.00000000000E+00 -0.00000000000E+00 -0.45593999997E+02  0.45594000000E+02  0.51100000000E-03 0. -1.
    9900012    2    1    2    0    0  0.13517207133E+02  0.97765671076E+01  0.27173958560E+02  0.59301950120E+02  0.50000011111E+02 0.  0.
         12    1    1    2    0    0 -0.13517207133E+02 -0.97765671076E+01 -0.27173958560E+02  0.31886049880E+02  0.00000000000E+00 0. -1.
         11    1    3    3    0    0 -0.46420429674E+01  0.54197047994E+01  0.15005589007E+01  0.72920120885E+01  0.51100000000E-03 0. -1.
        -11    1    3    3    0    0 -0.12612110611E+00  0.12637396818E+02  0.29026903467E+02  0.31658819151E+02  0.51100000000E-03 0.  1.
        -12    1    3    3    0    0  0.18285371207E+02 -0.82805345094E+01 -0.33535038074E+01  0.20351118881E+02  0.00000000000E+00 0.  1.
</event>
<event>
 7    1  0.3220798E-013  0.5930196E+02  0.7816164E-02  0.1266605E+00
        -11   -1    0    0    0    0  0.00000000000E+00  0.00000000000E+00  0.45593999997E+02  0.45594000000E+02  0.51100000000E-03 0.  1.
         11   -1    0    0    0    0 -0.00000000000E+00 -0.00000000000E+00 -0.45593999997E+02  0.45594000000E+02  0.51100000000E-03 0. -1.
    9900012    2    1    2    0    0  0.91688804509E+01 -0.43914185739E+01  0.30221961043E+02  0.59301955167E+02  0.50000020314E+02 0.  0.
         12    1    1    2    0    0 -0.91688804509E+01  0.43914185739E+01 -0.30221961043E+02  0.31886044833E+02  0.00000000000E+00 0. -1.
         11    1    3    3    0    0  0.10463008870E+02 -0.11906111004E+02  0.91027754923E+01  0.18278144211E+02  0.51100000000E-03 0. -1.
        -11    1    3    3    0    0  0.21438322706E+01 -0.11733461418E+02  0.17438680223E+02  0.21127652539E+02  0.51100000000E-03 0.  1.
        -12    1    3    3    0    0 -0.34379606900E+01  0.19248153848E+02  0.36805053285E+01  0.19896158417E+02  0.00000000000E+00 0.  1.
</event>
<event>
 7    1  0.3220798E-013  0.5930192E+02  0.7816164E-02  0.1266605E+00
        -11   -1    0    0    0    0  0.00000000000E+00  0.00000000000E+00  0.45593999997E+02  0.45594000000E+02  0.51100000000E-03 0. -1.
         11   -1    0    0    0    0 -0.00000000000E+00 -0.00000000000E+00 -0.45593999997E+02  0.45594000000E+02  0.51100000000E-03 0.  1.
    9900012    2    1    2    0    0  0.17988810718E+02 -0.23949421494E+02  0.10933890387E+02  0.59301920593E+02  0.49999957261E+02 0.  0.
         12    1    1    2    0    0 -0.17988810718E+02  0.23949421494E+02 -0.10933890387E+02  0.31886079407E+02  0.00000000000E+00 0. -1.
         11    1    3    3    0    0  0.36161498915E+01 -0.15620304231E+02  0.23121769927E+02  0.28136927499E+02  0.51100000000E-03 0. -1.
        -11    1    3    3    0    0 -0.37261164488E+01  0.44791707010E+01  0.75942831506E-01  0.58268929571E+01  0.51100000000E-03 0.  1.
        -12    1    3    3    0    0  0.18098777275E+02 -0.12808287964E+02 -0.12263822371E+02  0.25338100137E+02  0.00000000000E+00 0.  1.
</event>
<event>
 7    1  0.3220798E-013  0.5930193E+02  0.7816164E-02  0.1266605E+00
        -11   -1    0    0    0    0  0.00000000000E+00  0.00000000000E+00  0.45593999997E+02  0.45594000000E+02  0.51100000000E-03 0. -1.
         11   -1    0    0    0    0 -0.00000000000E+00 -0.00000000000E+00 -0.45593999997E+02  0.45594000000E+02  0.51100000000E-03 0.  1.
    9900012    2    1    2    0    0 -0.24042376723E+02  0.58756953510E+01 -0.20103781814E+02  0.59301925962E+02  0.49999967052E+02 0.  0.
         12    1    1    2    0    0  0.24042376723E+02 -0.58756953510E+01  0.20103781814E+02  0.31886074038E+02  0.00000000000E+00 0. -1.
         11    1    3    3    0    0 -0.11915567435E+02 -0.41680574254E+01 -0.24600788194E+00  0.12625924527E+02  0.51100000000E-03 0. -1.
        -11    1    3    3    0    0  0.10867722640E+01 -0.14368469216E+02 -0.80958824602E+01  0.16528075951E+02  0.51100000000E-03 0.  1.
        -12    1    3    3    0    0 -0.13213581552E+02  0.24412221992E+02 -0.11761891472E+02  0.30147925484E+02  0.00000000000E+00 0.  1.
</event>
<event>
 7    1  0.3220798E-013  0.5930194E+02  0.7816164E-02  0.1266605E+00
        -11   -1    0    0    0    0  0.00000000000E+00  0.00000000000E+00  0.45593999997E+02  0.45594000000E+02  0.51100000000E-03 0. -1.
         11   -1    0    0    0    0 -0.00000000000E+00 -0.00000000000E+00 -0.45593999997E+02  0.45594000000E+02  0.51100000000E-03 0.  1.
    9900012    2    1    2    0    0 -0.17005555561E+02 -0.21508568715E+02 -0.16276152239E+02  0.59301943803E+02  0.49999999590E+02 0.  0.
         12    1    1    2    0    0  0.17005555561E+02  0.21508568715E+02  0.16276152239E+02  0.31886056197E+02  0.00000000000E+00 0. -1.
         11    1    3    3    0    0  0.72753752780E+01 -0.49739000498E+01 -0.75853701658E+01  0.11627923630E+02  0.51100000000E-03 0. -1.
        -11    1    3    3    0    0 -0.21899513911E+02 -0.23367563200E+02 -0.17322789325E+02  0.36410311036E+02  0.51100000000E-03 0.  1.
        -12    1    3    3    0    0 -0.23814169280E+01  0.68328945349E+01  0.86320072524E+01  0.11263709137E+02  0.00000000000E+00 0.  1.
</event>
<event>
 7    1  0.3220798E-013  0.5930195E+02  0.7816164E-02  0.1266605E+00
        -11   -1    0    0    0    0  0.00000000000E+00  0.00000000000E+00  0.45593999997E+02  0.45594000000E+02  0.51100000000E-03 0. -1.
         11   -1    0    0    0    0 -0.00000000000E+00 -0.00000000000E+00 -0.45593999997E+02  0.45594000000E+02  0.51100000000E-03 0.  1.
    9900012    2    1    2    0    0  0.81049679662E+01  0.30388877544E+02  0.52483999119E+01  0.59301951550E+02  0.50000013719E+02 0.  0.
         12    1    1    2    0    0 -0.81049679662E+01 -0.30388877544E+02 -0.52483999119E+01  0.31886048450E+02  0.00000000000E+00 0. -1.
         11    1    3    3    0    0 -0.22458758501E+01 -0.36154517389E+01 -0.42275601972E+01  0.59989761704E+01  0.51100000000E-03 0.  1.
        -11    1    3    3    0    0 -0.47764830320E+01 -0.54383746699E+01  0.83409436373E+01  0.11043642978E+02  0.51100000000E-03 0. -1.
         12    1    3    3    0    0  0.15127326848E+02  0.39442703953E+02  0.11350164718E+01  0.42259332402E+02  0.00000000000E+00 0. -1.
</event>
<event>
 7    1  0.3220798E-013  0.5930194E+02  0.7816164E-02  0.1266605E+00
        -11   -1    0    0    0    0  0.00000000000E+00  0.00000000000E+00  0.45593999997E+02  0.45594000000E+02  0.51100000000E-03 0. -1.
         11   -1    0    0    0    0 -0.00000000000E+00 -0.00000000000E+00 -0.45593999997E+02  0.45594000000E+02  0.51100000000E-03 0.  1.
    9900012    2    1    2    0    0  0.22033937895E+01 -0.30792843977E+02 -0.79791325923E+01  0.59301941271E+02  0.49999994972E+02 0.  0.
         12    1    1    2    0    0 -0.22033937895E+01  0.30792843977E+02  0.79791325923E+01  0.31886058729E+02  0.00000000000E+00 0. -1.
         11    1    3    3    0    0  0.73336006692E+01 -0.28520537732E+01  0.55646709280E+01  0.96375034266E+01  0.51100000000E-03 0. -1.
        -11    1    3    3    0    0 -0.11322457211E+02 -0.37328692285E+01  0.98277354439E+01  0.15450460647E+02  0.51100000000E-03 0.  1.
        -12    1    3    3    0    0  0.61922503317E+01 -0.24207920975E+02 -0.23371538964E+02  0.34213977197E+02  0.00000000000E+00 0.  1.
</event>
<event>
 7    1  0.3220798E-013  0.5930185E+02  0.7816164E-02  0.1266605E+00
        -11   -1    0    0    0    0  0.00000000000E+00  0.00000000000E+00  0.45593999997E+02  0.45594000000E+02  0.51100000000E-03 0.  1.
         11   -1    0    0    0    0 -0.00000000000E+00 -0.00000000000E+00 -0.45593999997E+02  0.45594000000E+02  0.51100000000E-03 0. -1.
    9900012    2    1    2    0    0  0.29907514728E+02 -0.82141634166E+01  0.74023296582E+01  0.59301852503E+02  0.49999833080E+02 0.  0.
         12    1    1    2    0    0 -0.29907514728E+02  0.82141634166E+01 -0.74023296582E+01  0.31886147497E+02  0.00000000000E+00 0. -1.
         11    1    3    3    0    0  0.12932450868E+02  0.80816513000E+01 -0.15132696238E+01  0.15324860796E+02  0.51100000000E-03 0. -1.
        -11    1    3    3    0    0 -0.76345241615E+00  0.10639323346E+02  0.66754048159E+00  0.10687547493E+02  0.51100000000E-03 0.  1.
        -12    1    3    3    0    0  0.17738516276E+02 -0.26935138062E+02  0.82480588004E+01  0.33289444214E+02  0.00000000000E+00 0.  1.
</event>
<event>
 7    1  0.3220798E-013  0.5930197E+02  0.7816164E-02  0.1266605E+00
        -11   -1    0    0    0    0  0.00000000000E+00  0.00000000000E+00  0.45593999997E+02  0.45594000000E+02  0.51100000000E-03 0. -1.
         11   -1    0    0    0    0 -0.00000000000E+00 -0.00000000000E+00 -0.45593999997E+02  0.45594000000E+02  0.51100000000E-03 0.  1.
    9900012    2    1    2    0    0  0.13203445102E+02  0.11700202549E+02 -0.26561122384E+02  0.59301969758E+02  0.50000046927E+02 0.  0.
         12    1    1    2    0    0 -0.13203445102E+02 -0.11700202549E+02  0.26561122384E+02  0.31886030242E+02  0.00000000000E+00 0. -1.
         11    1    3    3    0    0  0.11493907786E+02 -0.38752763144E+01  0.28620949861E+01  0.12462715221E+02  0.51100000000E-03 0. -1.
        -11    1    3    3    0    0  0.11368657442E+02  0.18005242015E+02 -0.71867962317E+01  0.22474099590E+02  0.51100000000E-03 0.  1.
         12    1    3    3    0    0 -0.96591201257E+01 -0.24297631511E+01 -0.22236421139E+02  0.24365154948E+02  0.00000000000E+00 0. -1.
</event>
<event>
 7    1  0.3220798E-013  0.5930190E+02  0.7816164E-02  0.1266605E+00
        -11   -1    0    0    0    0  0.00000000000E+00  0.00000000000E+00  0.45593999997E+02  0.45594000000E+02  0.51100000000E-03 0. -1.
         11   -1    0    0    0    0 -0.00000000000E+00 -0.00000000000E+00 -0.45593999997E+02  0.45594000000E+02  0.51100000000E-03 0.  1.
    9900012    2    1    2    0    0  0.16962771526E+02  0.25332726526E+02 -0.93402701468E+01  0.59301901187E+02  0.49999921869E+02 0.  0.
         12    1    1    2    0    0 -0.16962771526E+02 -0.25332726526E+02  0.93402701468E+01  0.31886098813E+02  0.00000000000E+00 0. -1.
         11    1    3    3    0    0 -0.46048363776E+01  0.36076915947E+01  0.64391896776E+01  0.86996046273E+01  0.51100000000E-03 0. -1.
        -11    1    3    3    0    0  0.10827103725E+02 -0.85285633574E+01  0.19635854239E+01  0.13921861801E+02  0.51100000000E-03 0.  1.
        -12    1    3    3    0    0  0.10740504179E+02  0.30253598289E+02 -0.17743045248E+02  0.36680434759E+02  0.00000000000E+00 0.  1.
</event>
<event>
 7    1  0.3220798E-013  0.5930195E+02  0.7816164E-02  0.1266605E+00
        -11   -1    0    0    0    0  0.00000000000E+00  0.00000000000E+00  0.45593999997E+02  0.45594000000E+02  0.51100000000E-03 0.  1.
         11   -1    0    0    0    0 -0.00000000000E+00 -0.00000000000E+00 -0.45593999997E+02  0.45594000000E+02  0.51100000000E-03 0. -1.
    9900012    2    1    2    0    0  0.28555691898E+02  0.14178308153E+02 -0.51778940881E+00  0.59301951833E+02  0.50000014235E+02 0.  0.
         12    1    1    2    0    0 -0.28555691898E+02 -0.14178308153E+02  0.51778940881E+00  0.31886048167E+02  0.00000000000E+00 0. -1.
         11    1    3    3    0    0  0.15655396354E+02  0.99947747702E+00 -0.14111030574E+02  0.21100037307E+02  0.51100000000E-03 0. -1.
        -11    1    3    3    0    0  0.22349009199E+02  0.12666545450E+02  0.68625755612E+01  0.26589744816E+02  0.51100000000E-03 0.  1.
         12    1    3    3    0    0 -0.94487136554E+01  0.51228522555E+00  0.67306656038E+01  0.11612169710E+02  0.00000000000E+00 0. -1.
</event>
<event>
 7    1  0.3220798E-013  0.5930194E+02  0.7816164E-02  0.1266605E+00
        -11   -1    0    0    0    0  0.00000000000E+00  0.00000000000E+00  0.45593999997E+02  0.45594000000E+02  0.51100000000E-03 0.  1.
         11   -1    0    0    0    0 -0.00000000000E+00 -0.00000000000E+00 -0.45593999997E+02  0.45594000000E+02  0.51100000000E-03 0. -1.
    9900012    2    1    2    0    0 -0.20532618761E+02 -0.11736551335E+02  0.21386571525E+02  0.59301944866E+02  0.50000001529E+02 0.  0.
         12    1    1    2    0    0  0.20532618761E+02  0.11736551335E+02 -0.21386571525E+02  0.31886055134E+02  0.00000000000E+00 0. -1.
         11    1    3    3    0    0 -0.53657539849E+01 -0.12569696758E+00  0.30126485151E+00  0.53756744996E+01  0.51100000000E-03 0. -1.
        -11    1    3    3    0    0 -0.17390221924E+02 -0.27058698179E+02  0.70326569072E+01  0.32924933245E+02  0.51100000000E-03 0.  1.
         12    1    3    3    0    0  0.22233571488E+01  0.15447843812E+02  0.14052649767E+02  0.21001337122E+02  0.00000000000E+00 0. -1.
</event>
<event>
 7    1  0.3220798E-013  0.5930193E+02  0.7816164E-02  0.1266605E+00
        -11   -1    0    0    0    0  0.00000000000E+00  0.00000000000E+00  0.45593999997E+02  0.45594000000E+02  0.51100000000E-03 0.  1.
         11   -1    0    0    0    0 -0.00000000000E+00 -0.00000000000E+00 -0.45593999997E+02  0.45594000000E+02  0.51100000000E-03 0. -1.
    9900012    2    1    2    0    0 -0.11799258451E+02 -0.81427447192E+01  0.28481482641E+02  0.59301927100E+02  0.49999969128E+02 0.  0.
         12    1    1    2    0    0  0.11799258451E+02  0.81427447192E+01 -0.28481482641E+02  0.31886072900E+02  0.00000000000E+00 0. -1.
         11    1    3    3    0    0  0.57133671976E+01 -0.42462974789E+01  0.76162104177E+01  0.10424982897E+02  0.51100000000E-03 0. -1.
        -11    1    3    3    0    0 -0.22354666205E+02  0.13467775076E+02  0.13730798068E+02  0.29489775898E+02  0.51100000000E-03 0.  1.
         12    1    3    3    0    0  0.48420405566E+01 -0.17364222317E+02  0.71344741556E+01  0.19387168305E+02  0.00000000000E+00 0. -1.
</event>
<event>
 7    1  0.3220798E-013  0.5930194E+02  0.7816164E-02  0.1266605E+00
        -11   -1    0    0    0    0  0.00000000000E+00  0.00000000000E+00  0.45593999997E+02  0.45594000000E+02  0.51100000000E-03 0. -1.
         11   -1    0    0    0    0 -0.00000000000E+00 -0.00000000000E+00 -0.45593999997E+02  0.45594000000E+02  0.51100000000E-03 0.  1.
    9900012    2    1    2    0    0  0.14120466408E+02 -0.10849964637E+02 -0.26450169387E+02  0.59301940902E+02  0.49999994299E+02 0.  0.
         12    1    1    2    0    0 -0.14120466408E+02  0.10849964637E+02  0.26450169387E+02  0.31886059098E+02  0.00000000000E+00 0. -1.
         11    1    3    3    0    0  0.15451319711E+02  0.23354936626E+01  0.10629539254E+01  0.15662939787E+02  0.51100000000E-03 0. -1.
        -11    1    3    3    0    0  0.10671226604E+02 -0.11314547239E+02 -0.23927902916E+01  0.15735930291E+02  0.51100000000E-03 0.  1.
         12    1    3    3    0    0 -0.12002079908E+02 -0.18709110600E+01 -0.25120333021E+02  0.27903070824E+02  0.00000000000E+00 0. -1.
</event>
<event>
 7    1  0.3220798E-013  0.5930191E+02  0.7816164E-02  0.1266605E+00
        -11   -1    0    0    0    0  0.00000000000E+00  0.00000000000E+00  0.45593999997E+02  0.45594000000E+02  0.51100000000E-03 0.  1.
         11   -1    0    0    0    0 -0.00000000000E+00 -0.00000000000E+00 -0.45593999997E+02  0.45594000000E+02  0.51100000000E-03 0. -1.
    9900012    2    1    2    0    0 -0.25632197408E+02  0.11023963181E+02  0.15433256198E+02  0.59301910477E+02  0.49999938812E+02 0.  0.
         12    1    1    2    0    0  0.25632197408E+02 -0.11023963181E+02 -0.15433256198E+02  0.31886089523E+02  0.00000000000E+00 0. -1.
         11    1    3    3    0    0  0.12693115264E+02  0.36351544620E+00 -0.37797155519E+01  0.13248908200E+02  0.51100000000E-03 0. -1.
        -11    1    3    3    0    0 -0.48177802162E+01 -0.27787542682E+01  0.41267793231E+01  0.69255172613E+01  0.51100000000E-03 0.  1.
        -12    1    3    3    0    0 -0.33507532455E+02  0.13439202003E+02  0.15086192427E+02  0.39127485016E+02  0.00000000000E+00 0.  1.
</event>
<event>
 7    1  0.3220798E-013  0.5930195E+02  0.7816164E-02  0.1266605E+00
        -11   -1    0    0    0    0  0.00000000000E+00  0.00000000000E+00  0.45593999997E+02  0.45594000000E+02  0.51100000000E-03 0.  1.
         11   -1    0    0    0    0 -0.00000000000E+00 -0.00000000000E+00 -0.45593999997E+02  0.45594000000E+02  0.51100000000E-03 0. -1.
    9900012    2    1    2    0    0 -0.19603141504E+02  0.23752678571E+02  0.82612052692E+01  0.59301946487E+02  0.50000004485E+02 0.  0.
         12    1    1    2    0    0  0.19603141504E+02 -0.23752678571E+02 -0.82612052692E+01  0.31886053513E+02  0.00000000000E+00 0. -1.
         11    1    3    3    0    0  0.87608337369E+01 -0.15224340555E+01  0.31008800015E+01  0.94172963351E+01  0.51100000000E-03 0. -1.
        -11    1    3    3    0    0 -0.18726328300E+01  0.66051767606E+01 -0.11538343608E+02  0.13426410065E+02  0.51100000000E-03 0.  1.
        -12    1    3    3    0    0 -0.26491342411E+02  0.18669935866E+02  0.16698668876E+02  0.36458240087E+02  0.00000000000E+00 0.  1.
</event>
<event>
 7    1  0.3220798E-013  0.5930189E+02  0.7816164E-02  0.1266605E+00
        -11   -1    0    0    0    0  0.00000000000E+00  0.00000000000E+00  0.45593999997E+02  0.45594000000E+02  0.51100000000E-03 0. -1.
         11   -1    0    0    0    0 -0.00000000000E+00 -0.00000000000E+00 -0.45593999997E+02  0.45594000000E+02  0.51100000000E-03 0.  1.
    9900012    2    1    2    0    0  0.11490325848E+02 -0.20780598588E+02 -0.21280580263E+02  0.59301890766E+02  0.49999902863E+02 0.  0.
         12    1    1    2    0    0 -0.11490325848E+02  0.20780598588E+02  0.21280580263E+02  0.31886109234E+02  0.00000000000E+00 0. -1.
         11    1    3    3    0    0  0.62514197237E+01 -0.51832236478E+01 -0.30043545392E+02  0.31121707471E+02  0.51100000000E-03 0. -1.
        -11    1    3    3    0    0 -0.48273715791E+01 -0.12901494861E+02 -0.11168085989E+01  0.13820251362E+02  0.51100000000E-03 0.  1.
         12    1    3    3    0    0  0.10066277703E+02 -0.26958800796E+01  0.98797737274E+01  0.14359931933E+02  0.00000000000E+00 0. -1.
</event>
<event>
 7    1  0.3220798E-013  0.5930195E+02  0.7816164E-02  0.1266605E+00
        -11   -1    0    0    0    0  0.00000000000E+00  0.00000000000E+00  0.45593999997E+02  0.45594000000E+02  0.51100000000E-03 0.  1.
         11   -1    0    0    0    0 -0.00000000000E+00 -0.00000000000E+00 -0.45593999997E+02  0.45594000000E+02  0.51100000000E-03 0. -1.
    9900012    2    1    2    0    0 -0.15718929520E+02  0.17906554479E+02  0.21189399557E+02  0.59301951450E+02  0.50000013536E+02 0.  0.
         12    1    1    2    0    0  0.15718929520E+02 -0.17906554479E+02 -0.21189399557E+02  0.31886048550E+02  0.00000000000E+00 0. -1.
         11    1    3    3    0    0 -0.81362619336E+01  0.39172989018E+01  0.14387885582E+02  0.16986913808E+02  0.51100000000E-03 0.  1.
        -11    1    3    3    0    0  0.45549543263E+01 -0.10898799098E+01  0.18910861049E+02  0.19482199901E+02  0.51100000000E-03 0. -1.
         12    1    3    3    0    0 -0.12137621913E+02  0.15079135487E+02 -0.12109347074E+02  0.22832837740E+02  0.00000000000E+00 0. -1.
</event>
<event>
 7    1  0.3220798E-013  0.5930196E+02  0.7816164E-02  0.1266605E+00
        -11   -1    0    0    0    0  0.00000000000E+00  0.00000000000E+00  0.45593999997E+02  0.45594000000E+02  0.51100000000E-03 0.  1.
         11   -1    0    0    0    0 -0.00000000000E+00 -0.00000000000E+00 -0.45593999997E+02  0.45594000000E+02  0.51100000000E-03 0. -1.
    9900012    2    1    2    0    0 -0.16147011322E+02 -0.24006398154E+02 -0.13404712983E+02  0.59301961408E+02  0.50000031697E+02 0.  0.
         12    1    1    2    0    0  0.16147011322E+02  0.24006398154E+02  0.13404712983E+02  0.31886038592E+02  0.00000000000E+00 0. -1.
         11    1    3    3    0    0  0.45156949907E+00 -0.28694828648E+01 -0.84285055428E+01  0.89150183886E+01  0.51100000000E-03 0. -1.
        -11    1    3    3    0    0  0.88652324723E+00 -0.28735721274E+02 -0.10388381062E+02  0.30568710505E+02  0.51100000000E-03 0.  1.
         12    1    3    3    0    0 -0.17485104068E+02  0.75988059849E+01  0.54121736220E+01  0.19818232514E+02  0.00000000000E+00 0. -1.
</event>
<event>
 7    1  0.3220798E-013  0.5930206E+02  0.7816164E-02  0.1266604E+00
        -11   -1    0    0    0    0  0.00000000000E+00  0.00000000000E+00  0.45593999997E+02  0.45594000000E+02  0.51100000000E-03 0.  1.
         11   -1    0    0    0    0 -0.00000000000E+00 -0.00000000000E+00 -0.45593999997E+02  0.45594000000E+02  0.51100000000E-03 0. -1.
    9900012    2    1    2    0    0  0.30331297676E+02 -0.97990990838E+01 -0.83874451947E+00  0.59302055543E+02  0.50000203376E+02 0.  0.
         12    1    1    2    0    0 -0.30331297676E+02  0.97990990838E+01  0.83874451947E+00  0.31885944457E+02  0.00000000000E+00 0. -1.
         11    1    3    3    0    0  0.11784706891E+02  0.62444380781E+01  0.27506633023E+01  0.13617579531E+02  0.51100000000E-03 0. -1.
        -11    1    3    3    0    0  0.24899786451E+01  0.11919044390E+02  0.35004625722E+01  0.12669524510E+02  0.51100000000E-03 0.  1.
        -12    1    3    3    0    0  0.16056612140E+02 -0.27962581552E+02 -0.70898703939E+01  0.33014951502E+02  0.00000000000E+00 0.  1.
</event>
<event>
 7    1  0.3220798E-013  0.5930196E+02  0.7816164E-02  0.1266605E+00
        -11   -1    0    0    0    0  0.00000000000E+00  0.00000000000E+00  0.45593999997E+02  0.45594000000E+02  0.51100000000E-03 0. -1.
         11   -1    0    0    0    0 -0.00000000000E+00 -0.00000000000E+00 -0.45593999997E+02  0.45594000000E+02  0.51100000000E-03 0.  1.
    9900012    2    1    2    0    0  0.20071615506E+02  0.13774513240E+02 -0.20593989521E+02  0.59301962798E+02  0.50000034233E+02 0.  0.
         12    1    1    2    0    0 -0.20071615506E+02 -0.13774513240E+02  0.20593989521E+02  0.31886037202E+02  0.00000000000E+00 0. -1.
         11    1    3    3    0    0  0.13036974900E+02  0.27436236126E+02 -0.18299071255E+02  0.35462173881E+02  0.51100000000E-03 0. -1.
        -11    1    3    3    0    0 -0.27014528829E+01  0.24886019793E+01 -0.33239164051E+01  0.49537266799E+01  0.51100000000E-03 0.  1.
         12    1    3    3    0    0  0.97360934888E+01 -0.16150324865E+02  0.10289981386E+01  0.18886062237E+02  0.00000000000E+00 0. -1.
</event>
<event>
 7    1  0.3220798E-013  0.5930194E+02  0.7816164E-02  0.1266605E+00
        -11   -1    0    0    0    0  0.00000000000E+00  0.00000000000E+00  0.45593999997E+02  0.45594000000E+02  0.51100000000E-03 0. -1.
         11   -1    0    0    0    0 -0.00000000000E+00 -0.00000000000E+00 -0.45593999997E+02  0.45594000000E+02  0.51100000000E-03 0.  1.
    9900012    2    1    2    0    0 -0.21375594594E+02 -0.10337871050E+02 -0.21282232500E+02  0.59301936550E+02  0.49999986363E+02 0.  0.
         12    1    1    2    0    0  0.21375594594E+02  0.10337871050E+02  0.21282232500E+02  0.31886063450E+02  0.00000000000E+00 0. -1.
         11    1    3    3    0    0 -0.19352968759E+02  0.97265554412E+00 -0.19357754344E+02  0.27389890692E+02  0.51100000000E-03 0. -1.
        -11    1    3    3    0    0 -0.43470206850E+01 -0.13374200767E+02 -0.13760135175E+02  0.19675038889E+02  0.51100000000E-03 0.  1.
         12    1    3    3    0    0  0.23243948491E+01  0.20636741730E+01  0.11835657019E+02  0.12237006970E+02  0.00000000000E+00 0. -1.
</event>
<event>
 7    1  0.3220798E-013  0.5930194E+02  0.7816164E-02  0.1266605E+00
        -11   -1    0    0    0    0  0.00000000000E+00  0.00000000000E+00  0.45593999997E+02  0.45594000000E+02  0.51100000000E-03 0. -1.
         11   -1    0    0    0    0 -0.00000000000E+00 -0.00000000000E+00 -0.45593999997E+02  0.45594000000E+02  0.51100000000E-03 0.  1.
    9900012    2    1    2    0    0  0.12332579763E+02 -0.16282605568E+02 -0.24484797342E+02  0.59301936139E+02  0.49999985612E+02 0.  0.
         12    1    1    2    0    0 -0.12332579763E+02  0.16282605568E+02  0.24484797342E+02  0.31886063861E+02  0.00000000000E+00 0. -1.
         11    1    3    3    0    0 -0.24839129835E+01 -0.14631306671E+01 -0.65188300505E+01  0.71278131672E+01  0.51100000000E-03 0. -1.
        -11    1    3    3    0    0  0.29929029042E+02 -0.98461823573E+01 -0.17955648024E+02  0.36264299010E+02  0.51100000000E-03 0.  1.
         12    1    3    3    0    0 -0.15112536296E+02 -0.49732925432E+01 -0.10319267810E-01  0.15909823962E+02  0.00000000000E+00 0. -1.
</event>
<event>
 7    1  0.3220798E-013  0.5930204E+02  0.7816164E-02  0.1266604E+00
        -11   -1    0    0    0    0  0.00000000000E+00  0.00000000000E+00  0.45593999997E+02  0.45594000000E+02  0.51100000000E-03 0. -1.
         11   -1    0    0    0    0 -0.00000000000E+00 -0.00000000000E+00 -0.45593999997E+02  0.45594000000E+02  0.51100000000E-03 0.  1.
    9900012    2    1    2    0    0  0.10129149732E+02  0.18668767154E+02 -0.23782173682E+02  0.59302041862E+02  0.50000178426E+02 0.  0.
         12    1    1    2    0    0 -0.10129149732E+02 -0.18668767154E+02  0.23782173682E+02  0.31885958138E+02  0.00000000000E+00 0. -1.
         11    1    3    3    0    0  0.16407891126E+01  0.42863068131E+01  0.27488507422E+01  0.53498407146E+01  0.51100000000E-03 0.  1.
        -11    1    3    3    0    0  0.37699008037E+01  0.29266512703E+02 -0.24205221526E+02  0.38165870451E+02  0.51100000000E-03 0. -1.
        -12    1    3    3    0    0  0.47184598152E+01 -0.14884052362E+02 -0.23258028979E+01  0.15786330697E+02  0.00000000000E+00 0.  1.
</event>
<event>
 7    1  0.3220798E-013  0.5930188E+02  0.7816164E-02  0.1266605E+00
        -11   -1    0    0    0    0  0.00000000000E+00  0.00000000000E+00  0.45593999997E+02  0.45594000000E+02  0.51100000000E-03 0. -1.
         11   -1    0    0    0    0 -0.00000000000E+00 -0.00000000000E+00 -0.45593999997E+02  0.45594000000E+02  0.51100000000E-03 0.  1.
    9900012    2    1    2    0    0  0.26971286191E+02 -0.82303923229E+01 -0.14884043800E+02  0.59301883955E+02  0.49999890441E+02 0.  0.
         12    1    1    2    0    0 -0.26971286191E+02  0.82303923229E+01  0.14884043800E+02  0.31886116045E+02  0.00000000000E+00 0. -1.
         11    1    3    3    0    0 -0.84434506993E+01 -0.88643994057E+01  0.31897767027E+01  0.12650854209E+02  0.51100000000E-03 0. -1.
        -11    1    3    3    0    0  0.64198123707E+01  0.92718621144E+01 -0.10622890268E+02  0.15492811748E+02  0.51100000000E-03 0.  1.
         12    1    3    3    0    0  0.28994924520E+02 -0.86378550316E+01 -0.74509302350E+01  0.31158217998E+02  0.00000000000E+00 0. -1.
</event>
<event>
 7    1  0.3220798E-013  0.5930194E+02  0.7816164E-02  0.1266605E+00
        -11   -1    0    0    0    0  0.00000000000E+00  0.00000000000E+00  0.45593999997E+02  0.45594000000E+02  0.51100000000E-03 0. -1.
         11   -1    0    0    0    0 -0.00000000000E+00 -0.00000000000E+00 -0.45593999997E+02  0.45594000000E+02  0.51100000000E-03 0.  1.
    9900012    2    1    2    0    0 -0.23167441798E+02  0.21478237262E+02  0.43215170545E+01  0.59301944349E+02  0.50000000585E+02 0.  0.
         12    1    1    2    0    0  0.23167441798E+02 -0.21478237262E+02 -0.43215170545E+01  0.31886055651E+02  0.00000000000E+00 0. -1.
         11    1    3    3    0    0 -0.28476722599E+02 -0.27491758297E+01  0.11694402632E+02  0.30906969293E+02  0.51100000000E-03 0. -1.
        -11    1    3    3    0    0  0.44184787583E+01  0.17233085616E+01 -0.15604848891E+00  0.47452184700E+01  0.51100000000E-03 0.  1.
        -12    1    3    3    0    0  0.89080204231E+00  0.22504104530E+02 -0.72168370888E+01  0.23649756585E+02  0.00000000000E+00 0.  1.
</event>
<event>
 7    1  0.3220798E-013  0.5930192E+02  0.7816164E-02  0.1266605E+00
        -11   -1    0    0    0    0  0.00000000000E+00  0.00000000000E+00  0.45593999997E+02  0.45594000000E+02  0.51100000000E-03 0. -1.
         11   -1    0    0    0    0 -0.00000000000E+00 -0.00000000000E+00 -0.45593999997E+02  0.45594000000E+02  0.51100000000E-03 0.  1.
    9900012    2    1    2    0    0  0.37214582403E+00 -0.28239687433E+02 -0.14802158398E+02  0.59301916326E+02  0.49999949478E+02 0.  0.
         12    1    1    2    0    0 -0.37214582403E+00  0.28239687433E+02  0.14802158398E+02  0.31886083674E+02  0.00000000000E+00 0. -1.
         11    1    3    3    0    0  0.74292591877E+00  0.70942768124E+00 -0.14349512795E+00  0.10372163075E+01  0.51100000000E-03 0. -1.
        -11    1    3    3    0    0  0.13329277717E+02 -0.36552507982E+02 -0.35722792085E+01  0.39070662436E+02  0.51100000000E-03 0.  1.
        -12    1    3    3    0    0 -0.13700057811E+02  0.76033928671E+01 -0.11086384062E+02  0.19194037582E+02  0.00000000000E+00 0.  1.
</event>
<event>
 7    1  0.3220798E-013  0.5930195E+02  0.7816164E-02  0.1266605E+00
        -11   -1    0    0    0    0  0.00000000000E+00  0.00000000000E+00  0.45593999997E+02  0.45594000000E+02  0.51100000000E-03 0.  1.
         11   -1    0    0    0    0 -0.00000000000E+00 -0.00000000000E+00 -0.45593999997E+02  0.45594000000E+02  0.51100000000E-03 0. -1.
    9900012    2    1    2    0    0 -0.18200275151E+02 -0.21140418257E+02  0.15445163518E+02  0.59301947003E+02  0.50000005425E+02 0.  0.
         12    1    1    2    0    0  0.18200275151E+02  0.21140418257E+02 -0.15445163518E+02  0.31886052997E+02  0.00000000000E+00 0. -1.
         11    1    3    3    0    0 -0.25265692050E+02 -0.76057870609E+01  0.16374012811E+02  0.31053365154E+02  0.51100000000E-03 0. -1.
        -11    1    3    3    0    0  0.12408202136E+01 -0.13101913937E+01  0.10423353205E+02  0.10578399151E+02  0.51100000000E-03 0.  1.
         12    1    3    3    0    0  0.58245966848E+01 -0.12224439802E+02 -0.11352202499E+02  0.17670182698E+02  0.00000000000E+00 0. -1.
</event>
<event>
 7    1  0.3220798E-013  0.5930212E+02  0.7816164E-02  0.1266604E+00
        -11   -1    0    0    0    0  0.00000000000E+00  0.00000000000E+00  0.45593999997E+02  0.45594000000E+02  0.51100000000E-03 0.  1.
         11   -1    0    0    0    0 -0.00000000000E+00 -0.00000000000E+00 -0.45593999997E+02  0.45594000000E+02  0.51100000000E-03 0. -1.
    9900012    2    1    2    0    0 -0.20905364258E+01  0.96183244524E+01  0.30328643721E+02  0.59302123224E+02  0.50000326810E+02 0.  0.
         12    1    1    2    0    0  0.20905364258E+01 -0.96183244524E+01 -0.30328643721E+02  0.31885876776E+02  0.00000000000E+00 0. -1.
         11    1    3    3    0    0  0.86018832008E+01  0.16763562493E+01  0.16130422897E+02  0.18357372033E+02  0.51100000000E-03 0. -1.
        -11    1    3    3    0    0  0.24481087978E+01  0.18869104657E+02  0.14385858363E+02  0.23853495936E+02  0.51100000000E-03 0.  1.
         12    1    3    3    0    0 -0.13140528424E+02 -0.10927136454E+02 -0.18763753944E+00  0.17091255255E+02  0.00000000000E+00 0. -1.
</event>
<event>
 7    1  0.3220798E-013  0.5930196E+02  0.7816164E-02  0.1266605E+00
        -11   -1    0    0    0    0  0.00000000000E+00  0.00000000000E+00  0.45593999997E+02  0.45594000000E+02  0.51100000000E-03 0. -1.
         11   -1    0    0    0    0 -0.00000000000E+00 -0.00000000000E+00 -0.45593999997E+02  0.45594000000E+02  0.51100000000E-03 0.  1.
    9900012    2    1    2    0    0  0.17364782883E+02 -0.25191700592E+02  0.89756220487E+01  0.59301964586E+02  0.50000037493E+02 0.  0.
         12    1    1    2    0    0 -0.17364782883E+02  0.25191700592E+02 -0.89756220487E+01  0.31886035414E+02  0.00000000000E+00 0. -1.
         11    1    3    3    0    0  0.19555439060E+01  0.11927074179E+01  0.47497597670E+01  0.52732268165E+01  0.51100000000E-03 0. -1.
        -11    1    3    3    0    0  0.25374369420E+02 -0.16496501692E+02  0.17286667602E+02  0.34854297706E+02  0.51100000000E-03 0.  1.
        -12    1    3    3    0    0 -0.99651304434E+01 -0.98879063180E+01 -0.13060805321E+02  0.19174440063E+02  0.00000000000E+00 0.  1.
</event>
<event>
 7    1  0.3220798E-013  0.5930195E+02  0.7816164E-02  0.1266605E+00
        -11   -1    0    0    0    0  0.00000000000E+00  0.00000000000E+00  0.45593999997E+02  0.45594000000E+02  0.51100000000E-03 0.  1.
         11   -1    0    0    0    0 -0.00000000000E+00 -0.00000000000E+00 -0.45593999997E+02  0.45594000000E+02  0.51100000000E-03 0. -1.
    9900012    2    1    2    0    0  0.12491418961E+02 -0.28255739875E+02 -0.78928971899E+01  0.59301949608E+02  0.50000010176E+02 0.  0.
         12    1    1    2    0    0 -0.12491418961E+02  0.28255739875E+02  0.78928971899E+01  0.31886050392E+02  0.00000000000E+00 0. -1.
         11    1    3    3    0    0 -0.16960180567E+01 -0.24352122083E+01  0.52690697035E+01  0.60472995254E+01  0.51100000000E-03 0. -1.
        -11    1    3    3    0    0 -0.12923436075E+02 -0.17324785288E+02 -0.12217656026E+02  0.24828099087E+02  0.51100000000E-03 0.  1.
         12    1    3    3    0    0  0.27110873093E+02 -0.84957423793E+01 -0.94431086750E+00  0.28426550995E+02  0.00000000000E+00 0. -1.
</event>
<event>
 7    1  0.3220798E-013  0.5930194E+02  0.7816164E-02  0.1266605E+00
        -11   -1    0    0    0    0  0.00000000000E+00  0.00000000000E+00  0.45593999997E+02  0.45594000000E+02  0.51100000000E-03 0. -1.
         11   -1    0    0    0    0 -0.00000000000E+00 -0.00000000000E+00 -0.45593999997E+02  0.45594000000E+02  0.51100000000E-03 0.  1.
    9900012    2    1    2    0    0  0.23923974271E+02 -0.17480013790E+02 -0.11781917967E+02  0.59301936932E+02  0.49999987059E+02 0.  0.
         12    1    1    2    0    0 -0.23923974271E+02  0.17480013790E+02  0.11781917967E+02  0.31886063068E+02  0.00000000000E+00 0. -1.
         11    1    3    3    0    0  0.21001266141E+02 -0.23222674419E+02  0.22366246742E+01  0.31390257675E+02  0.51100000000E-03 0. -1.
        -11    1    3    3    0    0  0.10867491006E+02 -0.34600113129E+01 -0.37738041724E+01  0.12013144353E+02  0.51100000000E-03 0.  1.
         12    1    3    3    0    0 -0.79447828759E+01  0.92026719419E+01 -0.10244738469E+02  0.15898534904E+02  0.00000000000E+00 0. -1.
</event>
<event>
 7    1  0.3220798E-013  0.5930195E+02  0.7816164E-02  0.1266605E+00
        -11   -1    0    0    0    0  0.00000000000E+00  0.00000000000E+00  0.45593999997E+02  0.45594000000E+02  0.51100000000E-03 0. -1.
         11   -1    0    0    0    0 -0.00000000000E+00 -0.00000000000E+00 -0.45593999997E+02  0.45594000000E+02  0.51100000000E-03 0.  1.
    9900012    2    1    2    0    0  0.23549247106E+02 -0.69274973563E+01 -0.20350996876E+02  0.59301947677E+02  0.50000006656E+02 0.  0.
         12    1    1    2    0    0 -0.23549247106E+02  0.69274973563E+01  0.20350996876E+02  0.31886052323E+02  0.00000000000E+00 0. -1.
         11    1    3    3    0    0 -0.68606535382E+01 -0.64396262167E+01 -0.14317908434E+02  0.17133004844E+02  0.51100000000E-03 0. -1.
        -11    1    3    3    0    0  0.13596537456E+02  0.10041315564E+02 -0.12806683331E+02  0.21206248778E+02  0.51100000000E-03 0.  1.
         12    1    3    3    0    0  0.16813363188E+02 -0.10529186704E+02  0.67735948888E+01  0.20962694055E+02  0.00000000000E+00 0. -1.
</event>
<event>
 7    1  0.3220798E-013  0.5930191E+02  0.7816164E-02  0.1266605E+00
        -11   -1    0    0    0    0  0.00000000000E+00  0.00000000000E+00  0.45593999997E+02  0.45594000000E+02  0.51100000000E-03 0.  1.
         11   -1    0    0    0    0 -0.00000000000E+00 -0.00000000000E+00 -0.45593999997E+02  0.45594000000E+02  0.51100000000E-03 0. -1.
    9900012    2    1    2    0    0 -0.24965489878E+02 -0.17394172385E+02 -0.95336170921E+01  0.59301909417E+02  0.49999936878E+02 0.  0.
         12    1    1    2    0    0  0.24965489878E+02  0.17394172385E+02  0.95336170921E+01  0.31886090583E+02  0.00000000000E+00 0. -1.
         11    1    3    3    0    0 -0.84586096426E+01  0.50656164557E+00 -0.77657561546E+01  0.11493983239E+02  0.51100000000E-03 0. -1.
        -11    1    3    3    0    0 -0.16958783196E+02 -0.20477593663E+02 -0.17519016414E+02  0.31840981551E+02  0.51100000000E-03 0.  1.
        -12    1    3    3    0    0  0.45190296057E+00  0.25768596327E+01  0.15751155477E+02  0.15966944627E+02  0.00000000000E+00 0.  1.
</event>
<event>
 7    1  0.3220798E-013  0.5930196E+02  0.7816164E-02  0.1266605E+00
        -11   -1    0    0    0    0  0.00000000000E+00  0.00000000000E+00  0.45593999997E+02  0.45594000000E+02  0.51100000000E-03 0. -1.
         11   -1    0    0    0    0 -0.00000000000E+00 -0.00000000000E+00 -0.45593999997E+02  0.45594000000E+02  0.51100000000E-03 0.  1.
    9900012    2    1    2    0    0 -0.83683700740E+01  0.19488434759E+02 -0.23809473206E+02  0.59301957264E+02  0.50000024140E+02 0.  0.
         12    1    1    2    0    0  0.83683700740E+01 -0.19488434759E+02  0.23809473206E+02  0.31886042736E+02  0.00000000000E+00 0. -1.
         11    1    3    3    0    0  0.58255015298E+01  0.48795471634E+01 -0.35160430969E+01  0.83731122000E+01  0.51100000000E-03 0. -1.
        -11    1    3    3    0    0  0.34592421189E+01  0.47834414736E+01 -0.28512900507E+02  0.29117574830E+02  0.51100000000E-03 0.  1.
         12    1    3    3    0    0 -0.17653113723E+02  0.98254461219E+01  0.82194703985E+01  0.21811270234E+02  0.00000000000E+00 0. -1.
</event>
<event>
 7    1  0.3220798E-013  0.5930194E+02  0.7816164E-02  0.1266605E+00
        -11   -1    0    0    0    0  0.00000000000E+00  0.00000000000E+00  0.45593999997E+02  0.45594000000E+02  0.51100000000E-03 0.  1.
         11   -1    0    0    0    0 -0.00000000000E+00 -0.00000000000E+00 -0.45593999997E+02  0.45594000000E+02  0.51100000000E-03 0. -1.
    9900012    2    1    2    0    0  0.14897811117E+02 -0.10841920118E+02 -0.26023621753E+02  0.59301938828E+02  0.49999990517E+02 0.  0.
         12    1    1    2    0    0 -0.14897811117E+02  0.10841920118E+02  0.26023621753E+02  0.31886061172E+02  0.00000000000E+00 0. -1.
         11    1    3    3    0    0  0.12346720538E+02 -0.77366555328E+01  0.17558718217E+00  0.14571485099E+02  0.51100000000E-03 0. -1.
        -11    1    3    3    0    0  0.94036355648E+01  0.11767016637E+02 -0.15563663812E+01  0.15143094761E+02  0.51100000000E-03 0.  1.
         12    1    3    3    0    0 -0.68525449863E+01 -0.14872281222E+02 -0.24642842554E+02  0.29587358968E+02  0.00000000000E+00 0. -1.
</event>
<event>
 7    1  0.3220798E-013  0.5930195E+02  0.7816164E-02  0.1266605E+00
        -11   -1    0    0    0    0  0.00000000000E+00  0.00000000000E+00  0.45593999997E+02  0.45594000000E+02  0.51100000000E-03 0.  1.
         11   -1    0    0    0    0 -0.00000000000E+00 -0.00000000000E+00 -0.45593999997E+02  0.45594000000E+02  0.51100000000E-03 0. -1.
    9900012    2    1    2    0    0 -0.14739140527E+02  0.77194245381E+01  0.27200888281E+02  0.59301951296E+02  0.50000013255E+02 0.  0.
         12    1    1    2    0    0  0.14739140527E+02 -0.77194245381E+01 -0.27200888281E+02  0.31886048704E+02  0.00000000000E+00 0. -1.
         11    1    3    3    0    0 -0.90083862429E+01 -0.12675532624E+02  0.14914613797E+02  0.21546829349E+02  0.51100000000E-03 0. -1.
        -11    1    3    3    0    0 -0.15697565107E+02  0.14225449066E+02  0.14703098855E+02  0.25786780869E+02  0.51100000000E-03 0.  1.
         12    1    3    3    0    0  0.99668108223E+01  0.61695080965E+01 -0.24168243705E+01  0.11968341078E+02  0.00000000000E+00 0. -1.
</event>
<event>
 7    1  0.3220798E-013  0.5930197E+02  0.7816164E-02  0.1266605E+00
        -11   -1    0    0    0    0  0.00000000000E+00  0.00000000000E+00  0.45593999997E+02  0.45594000000E+02  0.51100000000E-03 0.  1.
         11   -1    0    0    0    0 -0.00000000000E+00 -0.00000000000E+00 -0.45593999997E+02  0.45594000000E+02  0.51100000000E-03 0. -1.
    9900012    2    1    2    0    0 -0.21301942906E+02 -0.22976588655E+01  0.23614977681E+02  0.59301965773E+02  0.50000039659E+02 0.  0.
         12    1    1    2    0    0  0.21301942906E+02  0.22976588655E+01 -0.23614977681E+02  0.31886034227E+02  0.00000000000E+00 0. -1.
         11    1    3    3    0    0 -0.10385308937E+02 -0.82651277544E+01 -0.16349165717E+01  0.13373104762E+02  0.51100000000E-03 0. -1.
        -11    1    3    3    0    0 -0.19658561247E+02 -0.89031706929E+00  0.28242345271E+02  0.34422111519E+02  0.51100000000E-03 0.  1.
        -12    1    3    3    0    0  0.87419272782E+01  0.68577859581E+01 -0.29924510180E+01  0.11506749492E+02  0.00000000000E+00 0.  1.
</event>
<event>
 7    1  0.3220798E-013  0.5930190E+02  0.7816164E-02  0.1266605E+00
        -11   -1    0    0    0    0  0.00000000000E+00  0.00000000000E+00  0.45593999997E+02  0.45594000000E+02  0.51100000000E-03 0.  1.
         11   -1    0    0    0    0 -0.00000000000E+00 -0.00000000000E+00 -0.45593999997E+02  0.45594000000E+02  0.51100000000E-03 0. -1.
    9900012    2    1    2    0    0  0.18323375276E+02 -0.25785575512E+02  0.40101418140E+01  0.59301902350E+02  0.49999923989E+02 0.  0.
         12    1    1    2    0    0 -0.18323375276E+02  0.25785575512E+02 -0.40101418140E+01  0.31886097650E+02  0.00000000000E+00 0. -1.
         11    1    3    3    0    0  0.71660581049E+00  0.10864589355E+02  0.12496224281E+01  0.10959670717E+02  0.51100000000E-03 0. -1.
        -11    1    3    3    0    0  0.17323461830E+02 -0.72767288579E+01  0.25866474437E+01  0.18966914823E+02  0.51100000000E-03 0.  1.
        -12    1    3    3    0    0  0.28330763549E+00 -0.29373436009E+02  0.17387194221E+00  0.29375316810E+02  0.00000000000E+00 0.  1.
</event>
<event>
 7    1  0.3220798E-013  0.5930192E+02  0.7816164E-02  0.1266605E+00
        -11   -1    0    0    0    0  0.00000000000E+00  0.00000000000E+00  0.45593999997E+02  0.45594000000E+02  0.51100000000E-03 0.  1.
         11   -1    0    0    0    0 -0.00000000000E+00 -0.00000000000E+00 -0.45593999997E+02  0.45594000000E+02  0.51100000000E-03 0. -1.
    9900012    2    1    2    0    0  0.47376322132E+01 -0.28723002661E+02  0.13010241170E+02  0.59301915008E+02  0.49999947074E+02 0.  0.
         12    1    1    2    0    0 -0.47376322132E+01  0.28723002661E+02 -0.13010241170E+02  0.31886084992E+02  0.00000000000E+00 0. -1.
         11    1    3    3    0    0 -0.11296806165E+01 -0.53464142686E+01 -0.16529512276E+01  0.57089904404E+01  0.51100000000E-03 0. -1.
        -11    1    3    3    0    0 -0.56385175040E+01 -0.29849390524E+02 -0.40980413063E+01  0.30652454014E+02  0.51100000000E-03 0.  1.
         12    1    3    3    0    0  0.11505830334E+02  0.64728021317E+01  0.18761233704E+02  0.22940470553E+02  0.00000000000E+00 0. -1.
</event>
<event>
 7    1  0.3220798E-013  0.5930194E+02  0.7816164E-02  0.1266605E+00
        -11   -1    0    0    0    0  0.00000000000E+00  0.00000000000E+00  0.45593999997E+02  0.45594000000E+02  0.51100000000E-03 0.  1.
         11   -1    0    0    0    0 -0.00000000000E+00 -0.00000000000E+00 -0.45593999997E+02  0.45594000000E+02  0.51100000000E-03 0. -1.
    9900012    2    1    2    0    0  0.75347950490E+01 -0.23995627678E+02  0.19599938106E+02  0.59301939443E+02  0.49999991639E+02 0.  0.
         12    1    1    2    0    0 -0.75347950490E+01  0.23995627678E+02 -0.19599938106E+02  0.31886060557E+02  0.00000000000E+00 0. -1.
         11    1    3    3    0    0  0.73877314392E+01 -0.18710431203E+02  0.63761797971E+00  0.20126235827E+02  0.51100000000E-03 0. -1.
        -11    1    3    3    0    0  0.10648524304E+02 -0.15776185790E+02  0.13599112167E+02  0.23392626187E+02  0.51100000000E-03 0.  1.
         12    1    3    3    0    0 -0.10501460694E+02  0.10490989316E+02  0.53632079587E+01  0.15783077429E+02  0.00000000000E+00 0. -1.
</event>
<event>
 7    1  0.3329068E-013  0.5930193E+02  0.7816164E-02  0.1266605E+00
        -11   -1    0    0    0    0  0.00000000000E+00  0.00000000000E+00  0.45593999997E+02  0.45594000000E+02  0.51100000000E-03 0. -1.
         11   -1    0    0    0    0 -0.00000000000E+00 -0.00000000000E+00 -0.45593999997E+02  0.45594000000E+02  0.51100000000E-03 0.  1.
    9900012    2    1    2    0    0  0.10992629499E+02  0.20761806345E+02 -0.21559944889E+02  0.59301925773E+02  0.49999966708E+02 0.  0.
         12    1    1    2    0    0 -0.10992629499E+02 -0.20761806345E+02  0.21559944889E+02  0.31886074227E+02  0.00000000000E+00 0. -1.
         11    1    3    3    0    0 -0.56729288829E+01 -0.52727276758E+01 -0.83545353185E+00  0.77898499420E+01  0.51100000000E-03 0. -1.
        -11    1    3    3    0    0 -0.48989100884E+01  0.24495872553E+02 -0.15035866018E+02  0.29156892142E+02  0.51100000000E-03 0.  1.
         12    1    3    3    0    0  0.21564468470E+02  0.15386614673E+01 -0.56886253387E+01  0.22355183689E+02  0.00000000000E+00 0. -1.
</event>
<event>
 7    1  0.3220798E-013  0.5930192E+02  0.7816164E-02  0.1266605E+00
        -11   -1    0    0    0    0  0.00000000000E+00  0.00000000000E+00  0.45593999997E+02  0.45594000000E+02  0.51100000000E-03 0.  1.
         11   -1    0    0    0    0 -0.00000000000E+00 -0.00000000000E+00 -0.45593999997E+02  0.45594000000E+02  0.51100000000E-03 0. -1.
    9900012    2    1    2    0    0 -0.26599469660E+02 -0.16920941012E+02  0.47824705041E+01  0.59301920670E+02  0.49999957401E+02 0.  0.
         12    1    1    2    0    0  0.26599469660E+02  0.16920941012E+02 -0.47824705041E+01  0.31886079330E+02  0.00000000000E+00 0. -1.
         11    1    3    3    0    0  0.57513074216E+01 -0.90060472392E+01  0.50775317551E+01  0.11830796800E+02  0.51100000000E-03 0. -1.
        -11    1    3    3    0    0 -0.39399846739E+01 -0.16669091372E+02 -0.37742608888E+01  0.17539302493E+02  0.51100000000E-03 0.  1.
        -12    1    3    3    0    0 -0.28410792408E+02  0.87541975999E+01  0.34791996378E+01  0.29931821377E+02  0.00000000000E+00 0.  1.
</event>
<event>
 7    1  0.3220798E-013  0.5930194E+02  0.7816164E-02  0.1266605E+00
        -11   -1    0    0    0    0  0.00000000000E+00  0.00000000000E+00  0.45593999997E+02  0.45594000000E+02  0.51100000000E-03 0. -1.
         11   -1    0    0    0    0 -0.00000000000E+00 -0.00000000000E+00 -0.45593999997E+02  0.45594000000E+02  0.51100000000E-03 0.  1.
    9900012    2    1    2    0    0  0.19400615521E+02  0.23002459912E+02 -0.10546280922E+02  0.59301935867E+02  0.49999985117E+02 0.  0.
         12    1    1    2    0    0 -0.19400615521E+02 -0.23002459912E+02  0.10546280922E+02  0.31886064133E+02  0.00000000000E+00 0. -1.
         11    1    3    3    0    0  0.15939507982E+01  0.16645476975E+02 -0.19561407431E+02  0.25734436925E+02  0.51100000000E-03 0. -1.
        -11    1    3    3    0    0  0.10425540268E+02  0.11978116570E+02 -0.50978856754E+01  0.16677997634E+02  0.51100000000E-03 0.  1.
         12    1    3    3    0    0  0.73811244545E+01 -0.56211336324E+01  0.14113012185E+02  0.16889501309E+02  0.00000000000E+00 0. -1.
</event>
<event>
 7    1  0.3220798E-013  0.5930195E+02  0.7816164E-02  0.1266605E+00
        -11   -1    0    0    0    0  0.00000000000E+00  0.00000000000E+00  0.45593999997E+02  0.45594000000E+02  0.51100000000E-03 0. -1.
         11   -1    0    0    0    0 -0.00000000000E+00 -0.00000000000E+00 -0.45593999997E+02  0.45594000000E+02  0.51100000000E-03 0.  1.
    9900012    2    1    2    0    0  0.21554519060E+02 -0.19860483591E+02 -0.12557238074E+02  0.59301947745E+02  0.50000006779E+02 0.  0.
         12    1    1    2    0    0 -0.21554519060E+02  0.19860483591E+02  0.12557238074E+02  0.31886052255E+02  0.00000000000E+00 0. -1.
         11    1    3    3    0    0 -0.25579662531E+01 -0.66141607082E+01  0.34571349260E+01  0.78893659684E+01  0.51100000000E-03 0. -1.
        -11    1    3    3    0    0  0.27212968438E+02 -0.23734746791E+02 -0.17918862309E+02  0.40310910225E+02  0.51100000000E-03 0.  1.
         12    1    3    3    0    0 -0.31004831253E+01  0.10488423909E+02  0.19044893090E+01  0.11101671551E+02  0.00000000000E+00 0. -1.
</event>
<event>
 7    1  0.3220798E-013  0.5930187E+02  0.7816164E-02  0.1266605E+00
        -11   -1    0    0    0    0  0.00000000000E+00  0.00000000000E+00  0.45593999997E+02  0.45594000000E+02  0.51100000000E-03 0. -1.
         11   -1    0    0    0    0 -0.00000000000E+00 -0.00000000000E+00 -0.45593999997E+02  0.45594000000E+02  0.51100000000E-03 0.  1.
    9900012    2    1    2    0    0  0.29229094713E+02  0.27831519369E+01 -0.12435395308E+02  0.59301874978E+02  0.49999874070E+02 0.  0.
         12    1    1    2    0    0 -0.29229094713E+02 -0.27831519369E+01  0.12435395308E+02  0.31886125022E+02  0.00000000000E+00 0. -1.
         11    1    3    3    0    0 -0.52409284777E+01 -0.12838615754E+01 -0.82793822103E+01  0.98824997799E+01  0.51100000000E-03 0. -1.
        -11    1    3    3    0    0 -0.12236796989E+00  0.44524868810E+01  0.10836217677E+02  0.11715939021E+02  0.51100000000E-03 0.  1.
        -12    1    3    3    0    0  0.34592391161E+02 -0.38547336867E+00 -0.14992230775E+02  0.37703436177E+02  0.00000000000E+00 0.  1.
</event>
<event>
 7    1  0.3220798E-013  0.5930194E+02  0.7816164E-02  0.1266605E+00
        -11   -1    0    0    0    0  0.00000000000E+00  0.00000000000E+00  0.45593999997E+02  0.45594000000E+02  0.51100000000E-03 0.  1.
         11   -1    0    0    0    0 -0.00000000000E+00 -0.00000000000E+00 -0.45593999997E+02  0.45594000000E+02  0.51100000000E-03 0. -1.
    9900012    2    1    2    0    0  0.15726960277E+02 -0.11824861059E+02  0.25090961843E+02  0.59301937452E+02  0.49999988007E+02 0.  0.
         12    1    1    2    0    0 -0.15726960277E+02  0.11824861059E+02 -0.25090961843E+02  0.31886062548E+02  0.00000000000E+00 0. -1.
         11    1    3    3    0    0  0.25341439604E+01 -0.24597198377E+02  0.32191263841E+01  0.24936054792E+02  0.51100000000E-03 0. -1.
        -11    1    3    3    0    0  0.86432963135E+01 -0.36129582457E+01  0.61481310795E+01  0.11205335983E+02  0.51100000000E-03 0.  1.
         12    1    3    3    0    0  0.45495200028E+01  0.16385295564E+02  0.15723704380E+02  0.23160546678E+02  0.00000000000E+00 0. -1.
</event>
<event>
 7    1  0.3220798E-013  0.5930184E+02  0.7816164E-02  0.1266605E+00
        -11   -1    0    0    0    0  0.00000000000E+00  0.00000000000E+00  0.45593999997E+02  0.45594000000E+02  0.51100000000E-03 0.  1.
         11   -1    0    0    0    0 -0.00000000000E+00 -0.00000000000E+00 -0.45593999997E+02  0.45594000000E+02  0.51100000000E-03 0. -1.
    9900012    2    1    2    0    0  0.15342867800E+02 -0.63091681419E+01  0.27230825328E+02  0.59301842454E+02  0.49999814754E+02 0.  0.
         12    1    1    2    0    0 -0.15342867800E+02  0.63091681419E+01 -0.27230825328E+02  0.31886157546E+02  0.00000000000E+00 0. -1.
         11    1    3    3    0    0  0.10738927181E+01 -0.73276989980E+01 -0.85537906942E+01  0.11314404698E+02  0.51100000000E-03 0. -1.
        -11    1    3    3    0    0 -0.40420100372E+01 -0.98562806151E+01  0.12798866916E+02  0.16652180256E+02  0.51100000000E-03 0.  1.
         12    1    3    3    0    0  0.18310985119E+02  0.10874811471E+02  0.22985749107E+02  0.31335257500E+02  0.00000000000E+00 0. -1.
</event>
<event>
 7    1  0.3220798E-013  0.5930196E+02  0.7816164E-02  0.1266605E+00
        -11   -1    0    0    0    0  0.00000000000E+00  0.00000000000E+00  0.45593999997E+02  0.45594000000E+02  0.51100000000E-03 0.  1.
         11   -1    0    0    0    0 -0.00000000000E+00 -0.00000000000E+00 -0.45593999997E+02  0.45594000000E+02  0.51100000000E-03 0. -1.
    9900012    2    1    2    0    0  0.26131501735E+02 -0.18068157416E+02 -0.27214187742E+01  0.59301955788E+02  0.50000021448E+02 0.  0.
         12    1    1    2    0    0 -0.26131501735E+02  0.18068157416E+02  0.27214187742E+01  0.31886044212E+02  0.00000000000E+00 0. -1.
         11    1    3    3    0    0  0.86011126309E+01  0.17969241288E+01 -0.60244339413E+01  0.10653726080E+02  0.51100000000E-03 0. -1.
        -11    1    3    3    0    0  0.25926578851E+02  0.11019477022E+01  0.18537207638E+01  0.26016111557E+02  0.51100000000E-03 0.  1.
         12    1    3    3    0    0 -0.83961897464E+01 -0.20967029247E+02  0.14492944033E+01  0.22632118150E+02  0.00000000000E+00 0. -1.
</event>
<event>
 7    1  0.3220798E-013  0.5930193E+02  0.7816164E-02  0.1266605E+00
        -11   -1    0    0    0    0  0.00000000000E+00  0.00000000000E+00  0.45593999997E+02  0.45594000000E+02  0.51100000000E-03 0. -1.
         11   -1    0    0    0    0 -0.00000000000E+00 -0.00000000000E+00 -0.45593999997E+02  0.45594000000E+02  0.51100000000E-03 0.  1.
    9900012    2    1    2    0    0 -0.29162919440E+02 -0.96337330971E+01 -0.85695303587E+01  0.59301928836E+02  0.49999972295E+02 0.  0.
         12    1    1    2    0    0  0.29162919440E+02  0.96337330971E+01  0.85695303587E+01  0.31886071164E+02  0.00000000000E+00 0. -1.
         11    1    3    3    0    0 -0.51539633616E+01  0.11270552843E+02 -0.76790281294E+01  0.14579306328E+02  0.51100000000E-03 0. -1.
        -11    1    3    3    0    0 -0.98605960201E+01  0.54572447940E+01 -0.81840758343E+01  0.13928100091E+02  0.51100000000E-03 0.  1.
         12    1    3    3    0    0 -0.14148360059E+02 -0.26361530734E+02  0.72935736051E+01  0.30794522418E+02  0.00000000000E+00 0. -1.
</event>
<event>
 7    1  0.3220798E-013  0.5930201E+02  0.7816164E-02  0.1266605E+00
        -11   -1    0    0    0    0  0.00000000000E+00  0.00000000000E+00  0.45593999997E+02  0.45594000000E+02  0.51100000000E-03 0.  1.
         11   -1    0    0    0    0 -0.00000000000E+00 -0.00000000000E+00 -0.45593999997E+02  0.45594000000E+02  0.51100000000E-03 0. -1.
    9900012    2    1    2    0    0 -0.78323318998E+00 -0.31263215753E+02 -0.62220649174E+01  0.59302012400E+02  0.50000124694E+02 0.  0.
         12    1    1    2    0    0  0.78323318998E+00  0.31263215753E+02  0.62220649174E+01  0.31885987600E+02  0.00000000000E+00 0. -1.
         11    1    3    3    0    0  0.10285224858E+02 -0.66809840949E+01  0.79680640954E+01  0.14625711762E+02  0.51100000000E-03 0.  1.
        -11    1    3    3    0    0 -0.76147995809E+01 -0.68100635142E+01  0.10110381307E+02  0.14372958922E+02  0.51100000000E-03 0. -1.
         12    1    3    3    0    0 -0.34536584672E+01 -0.17772168143E+02 -0.24300510320E+02  0.30303341716E+02  0.00000000000E+00 0. -1.
</event>
<event>
 7    1  0.3220798E-013  0.5930199E+02  0.7816164E-02  0.1266605E+00
        -11   -1    0    0    0    0  0.00000000000E+00  0.00000000000E+00  0.45593999997E+02  0.45594000000E+02  0.51100000000E-03 0.  1.
         11   -1    0    0    0    0 -0.00000000000E+00 -0.00000000000E+00 -0.45593999997E+02  0.45594000000E+02  0.51100000000E-03 0. -1.
    9900012    2    1    2    0    0 -0.14703944310E+02 -0.22837492179E+02  0.16702106780E+02  0.59301993693E+02  0.50000090578E+02 0.  0.
         12    1    1    2    0    0  0.14703944310E+02  0.22837492179E+02 -0.16702106780E+02  0.31886006307E+02  0.00000000000E+00 0. -1.
         11    1    3    3    0    0 -0.49542603784E+00 -0.10687463733E+02  0.17443723945E+01  0.10840210483E+02  0.51100000000E-03 0. -1.
        -11    1    3    3    0    0 -0.20054674158E+02 -0.12307152065E+02 -0.79365569359E+01  0.24832335448E+02  0.51100000000E-03 0.  1.
         12    1    3    3    0    0  0.58461558859E+01  0.15712361866E+00  0.22894291321E+02  0.23629447763E+02  0.00000000000E+00 0. -1.
</event>
<event>
 7    1  0.3220798E-013  0.5930192E+02  0.7816164E-02  0.1266605E+00
        -11   -1    0    0    0    0  0.00000000000E+00  0.00000000000E+00  0.45593999997E+02  0.45594000000E+02  0.51100000000E-03 0.  1.
         11   -1    0    0    0    0 -0.00000000000E+00 -0.00000000000E+00 -0.45593999997E+02  0.45594000000E+02  0.51100000000E-03 0. -1.
    9900012    2    1    2    0    0  0.10376548979E+01 -0.17127804336E+02  0.26875332970E+02  0.59301922610E+02  0.49999960939E+02 0.  0.
         12    1    1    2    0    0 -0.10376548979E+01  0.17127804336E+02 -0.26875332970E+02  0.31886077390E+02  0.00000000000E+00 0. -1.
         11    1    3    3    0    0 -0.13519972546E+00 -0.35359082380E+01  0.19629472954E+02  0.19945855077E+02  0.51100000000E-03 0. -1.
        -11    1    3    3    0    0  0.25881457124E+01 -0.25612724847E+02  0.86809606029E+01  0.27167429940E+02  0.51100000000E-03 0.  1.
         12    1    3    3    0    0 -0.14152910890E+01  0.12020828749E+02 -0.14351005868E+01  0.12188637593E+02  0.00000000000E+00 0. -1.
</event>
<event>
 7    1  0.3220798E-013  0.5930194E+02  0.7816164E-02  0.1266605E+00
        -11   -1    0    0    0    0  0.00000000000E+00  0.00000000000E+00  0.45593999997E+02  0.45594000000E+02  0.51100000000E-03 0. -1.
         11   -1    0    0    0    0 -0.00000000000E+00 -0.00000000000E+00 -0.45593999997E+02  0.45594000000E+02  0.51100000000E-03 0.  1.
    9900012    2    1    2    0    0 -0.16647573491E+02 -0.23780625373E+02 -0.13193215815E+02  0.59301940509E+02  0.49999993583E+02 0.  0.
         12    1    1    2    0    0  0.16647573491E+02  0.23780625373E+02  0.13193215815E+02  0.31886059491E+02  0.00000000000E+00 0. -1.
         11    1    3    3    0    0  0.97905987626E+01  0.66886117500E+01 -0.11705665173E+02  0.16661811086E+02  0.51100000000E-03 0. -1.
        -11    1    3    3    0    0 -0.34677417752E+01 -0.98999475150E+01 -0.49746942879E+01  0.11609555432E+02  0.51100000000E-03 0.  1.
        -12    1    3    3    0    0 -0.22970430479E+02 -0.20569289608E+02  0.34871436457E+01  0.31030573990E+02  0.00000000000E+00 0.  1.
</event>
<event>
 7    1  0.3220798E-013  0.5930197E+02  0.7816164E-02  0.1266605E+00
        -11   -1    0    0    0    0  0.00000000000E+00  0.00000000000E+00  0.45593999997E+02  0.45594000000E+02  0.51100000000E-03 0. -1.
         11   -1    0    0    0    0 -0.00000000000E+00 -0.00000000000E+00 -0.45593999997E+02  0.45594000000E+02  0.51100000000E-03 0.  1.
    9900012    2    1    2    0    0 -0.51754845183E+01 -0.11788500892E+02 -0.29171297708E+02  0.59301968524E+02  0.50000044676E+02 0.  0.
         12    1    1    2    0    0  0.51754845183E+01  0.11788500892E+02  0.29171297708E+02  0.31886031476E+02  0.00000000000E+00 0. -1.
         11    1    3    3    0    0  0.41853646719E+01 -0.20759336041E+01  0.89718212530E+01  0.10115352422E+02  0.51100000000E-03 0. -1.
        -11    1    3    3    0    0  0.24522408152E+01  0.70394191206E+01 -0.21371222552E+01  0.77546243214E+01  0.51100000000E-03 0.  1.
        -12    1    3    3    0    0 -0.11813090005E+02 -0.16751986409E+02 -0.36005996706E+02  0.41431991781E+02  0.00000000000E+00 0.  1.
</event>
<event>
 7    1  0.3220798E-013  0.5930196E+02  0.7816164E-02  0.1266605E+00
        -11   -1    0    0    0    0  0.00000000000E+00  0.00000000000E+00  0.45593999997E+02  0.45594000000E+02  0.51100000000E-03 0.  1.
         11   -1    0    0    0    0 -0.00000000000E+00 -0.00000000000E+00 -0.45593999997E+02  0.45594000000E+02  0.51100000000E-03 0. -1.
    9900012    2    1    2    0    0  0.20095143460E+02 -0.78001014702E+00  0.24744617368E+02  0.59301963947E+02  0.50000036327E+02 0.  0.
         12    1    1    2    0    0 -0.20095143460E+02  0.78001014702E+00 -0.24744617368E+02  0.31886036053E+02  0.00000000000E+00 0. -1.
         11    1    3    3    0    0  0.91328203867E+01 -0.10431425995E+02 -0.18187226158E+01  0.13983233129E+02  0.51100000000E-03 0. -1.
        -11    1    3    3    0    0 -0.54928724076E+01 -0.81404008225E+01  0.16236948137E+02  0.18975675427E+02  0.51100000000E-03 0.  1.
         12    1    3    3    0    0  0.16455195481E+02  0.17791816671E+02  0.10326391847E+02  0.26343055391E+02  0.00000000000E+00 0. -1.
</event>
<event>
 7    1  0.3220798E-013  0.5930194E+02  0.7816164E-02  0.1266605E+00
        -11   -1    0    0    0    0  0.00000000000E+00  0.00000000000E+00  0.45593999997E+02  0.45594000000E+02  0.51100000000E-03 0.  1.
         11   -1    0    0    0    0 -0.00000000000E+00 -0.00000000000E+00 -0.45593999997E+02  0.45594000000E+02  0.51100000000E-03 0. -1.
    9900012    2    1    2    0    0 -0.90325751525E+01 -0.24453190336E+02  0.18362325104E+02  0.59301938551E+02  0.49999990012E+02 0.  0.
         12    1    1    2    0    0  0.90325751525E+01  0.24453190336E+02 -0.18362325104E+02  0.31886061449E+02  0.00000000000E+00 0. -1.
         11    1    3    3    0    0 -0.66084301444E+01  0.10486817505E+01 -0.58656674922E+01  0.88981536162E+01  0.51100000000E-03 0. -1.
        -11    1    3    3    0    0  0.14364444717E+02 -0.46371922322E+01  0.13018711752E+01  0.15150435395E+02  0.51100000000E-03 0.  1.
        -12    1    3    3    0    0 -0.16788589725E+02 -0.20864679854E+02  0.22926121421E+02  0.35253349540E+02  0.00000000000E+00 0.  1.
</event>
<event>
 7    1  0.3220798E-013  0.5930194E+02  0.7816164E-02  0.1266605E+00
        -11   -1    0    0    0    0  0.00000000000E+00  0.00000000000E+00  0.45593999997E+02  0.45594000000E+02  0.51100000000E-03 0.  1.
         11   -1    0    0    0    0 -0.00000000000E+00 -0.00000000000E+00 -0.45593999997E+02  0.45594000000E+02  0.51100000000E-03 0. -1.
    9900012    2    1    2    0    0 -0.62599625839E-01 -0.31336771939E+02  0.58926566406E+01  0.59301943541E+02  0.49999999112E+02 0.  0.
         12    1    1    2    0    0  0.62599625839E-01  0.31336771939E+02 -0.58926566406E+01  0.31886056459E+02  0.00000000000E+00 0. -1.
         11    1    3    3    0    0 -0.28425936593E+01 -0.11416207294E+01  0.94469988923E+01  0.99312348142E+01  0.51100000000E-03 0.  1.
        -11    1    3    3    0    0 -0.14794076696E+02 -0.24319626023E+02 -0.93386907092E+01  0.29958639148E+02  0.51100000000E-03 0. -1.
         12    1    3    3    0    0  0.17574070730E+02 -0.58755251864E+01  0.57843484575E+01  0.19412069578E+02  0.00000000000E+00 0. -1.
</event>
<event>
 7    1  0.3220798E-013  0.5930195E+02  0.7816164E-02  0.1266605E+00
        -11   -1    0    0    0    0  0.00000000000E+00  0.00000000000E+00  0.45593999997E+02  0.45594000000E+02  0.51100000000E-03 0.  1.
         11   -1    0    0    0    0 -0.00000000000E+00 -0.00000000000E+00 -0.45593999997E+02  0.45594000000E+02  0.51100000000E-03 0. -1.
    9900012    2    1    2    0    0  0.18434112411E+02 -0.84276010378E+01  0.24614610604E+02  0.59301952662E+02  0.50000015747E+02 0.  0.
         12    1    1    2    0    0 -0.18434112411E+02  0.84276010378E+01 -0.24614610604E+02  0.31886047338E+02  0.00000000000E+00 0. -1.
         11    1    3    3    0    0 -0.39225786258E+00 -0.19498572060E+02  0.12209643527E+02  0.23009206286E+02  0.51100000000E-03 0. -1.
        -11    1    3    3    0    0  0.11617063461E+02 -0.77292239384E+01  0.44924070993E+01  0.14658744419E+02  0.51100000000E-03 0.  1.
        -12    1    3    3    0    0  0.72093068130E+01  0.18800194960E+02  0.79125599775E+01  0.21634001957E+02  0.00000000000E+00 0.  1.
</event>
<event>
 7    1  0.3220798E-013  0.5930193E+02  0.7816164E-02  0.1266605E+00
        -11   -1    0    0    0    0  0.00000000000E+00  0.00000000000E+00  0.45593999997E+02  0.45594000000E+02  0.51100000000E-03 0. -1.
         11   -1    0    0    0    0 -0.00000000000E+00 -0.00000000000E+00 -0.45593999997E+02  0.45594000000E+02  0.51100000000E-03 0.  1.
    9900012    2    1    2    0    0 -0.25270944333E+02  0.10120237445E+02 -0.16603668499E+02  0.59301927162E+02  0.49999969240E+02 0.  0.
         12    1    1    2    0    0  0.25270944333E+02 -0.10120237445E+02  0.16603668499E+02  0.31886072838E+02  0.00000000000E+00 0. -1.
         11    1    3    3    0    0 -0.80531678444E+01  0.24934864925E+01 -0.73829374775E+01  0.11206192631E+02  0.51100000000E-03 0. -1.
        -11    1    3    3    0    0  0.64093109990E+01  0.38742064432E+01 -0.20369203455E+02  0.21702377582E+02  0.51100000000E-03 0.  1.
         12    1    3    3    0    0 -0.23627087488E+02  0.37525445094E+01  0.11148472433E+02  0.26393356949E+02  0.00000000000E+00 0. -1.
</event>
<event>
 7    1  0.3220798E-013  0.5930192E+02  0.7816164E-02  0.1266605E+00
        -11   -1    0    0    0    0  0.00000000000E+00  0.00000000000E+00  0.45593999997E+02  0.45594000000E+02  0.51100000000E-03 0.  1.
         11   -1    0    0    0    0 -0.00000000000E+00 -0.00000000000E+00 -0.45593999997E+02  0.45594000000E+02  0.51100000000E-03 0. -1.
    9900012    2    1    2    0    0 -0.23981925947E+02  0.14505291059E+02  0.15204789384E+02  0.59301923712E+02  0.49999962949E+02 0.  0.
         12    1    1    2    0    0  0.23981925947E+02 -0.14505291059E+02 -0.15204789384E+02  0.31886076288E+02  0.00000000000E+00 0. -1.
         11    1    3    3    0    0 -0.15588615364E+02  0.69228045520E+01  0.15493987167E+02  0.23043302506E+02  0.51100000000E-03 0. -1.
        -11    1    3    3    0    0 -0.20410727611E+01 -0.13800621475E+02 -0.84234078177E-01  0.13950993755E+02  0.51100000000E-03 0.  1.
         12    1    3    3    0    0 -0.63522378225E+01  0.21383107982E+02 -0.20496370453E+00  0.22307627450E+02  0.00000000000E+00 0. -1.
</event>
<event>
 7    1  0.3220798E-013  0.5930194E+02  0.7816164E-02  0.1266605E+00
        -11   -1    0    0    0    0  0.00000000000E+00  0.00000000000E+00  0.45593999997E+02  0.45594000000E+02  0.51100000000E-03 0. -1.
         11   -1    0    0    0    0 -0.00000000000E+00 -0.00000000000E+00 -0.45593999997E+02  0.45594000000E+02  0.51100000000E-03 0.  1.
    9900012    2    1    2    0    0 -0.18972683790E+02  0.17677606289E+02 -0.18554247400E+02  0.59301943629E+02  0.49999999273E+02 0.  0.
         12    1    1    2    0    0  0.18972683790E+02 -0.17677606289E+02  0.18554247400E+02  0.31886056371E+02  0.00000000000E+00 0. -1.
         11    1    3    3    0    0 -0.79249836140E+01  0.54990746039E+01 -0.39604670818E+01  0.10427391167E+02  0.51100000000E-03 0. -1.
        -11    1    3    3    0    0 -0.11683603768E+02 -0.60169811637E+01 -0.24752954097E+02  0.28025334897E+02  0.51100000000E-03 0.  1.
         12    1    3    3    0    0  0.63590359233E+00  0.18195512849E+02  0.10159173778E+02  0.20849217565E+02  0.00000000000E+00 0. -1.
</event>
<event>
 7    1  0.3220798E-013  0.5930195E+02  0.7816164E-02  0.1266605E+00
        -11   -1    0    0    0    0  0.00000000000E+00  0.00000000000E+00  0.45593999997E+02  0.45594000000E+02  0.51100000000E-03 0.  1.
         11   -1    0    0    0    0 -0.00000000000E+00 -0.00000000000E+00 -0.45593999997E+02  0.45594000000E+02  0.51100000000E-03 0. -1.
    9900012    2    1    2    0    0  0.19257910972E+02  0.24682834790E+02 -0.60506725281E+01  0.59301951227E+02  0.50000013130E+02 0.  0.
         12    1    1    2    0    0 -0.19257910972E+02 -0.24682834790E+02  0.60506725281E+01  0.31886048773E+02  0.00000000000E+00 0. -1.
         11    1    3    3    0    0 -0.44606064466E+01  0.95981218031E+01 -0.16154087463E+02  0.19312573471E+02  0.51100000000E-03 0. -1.
        -11    1    3    3    0    0  0.15497940327E+02 -0.20854011273E+01 -0.41839998730E+01  0.16187677642E+02  0.51100000000E-03 0.  1.
         12    1    3    3    0    0  0.82205770922E+01  0.17170114115E+02  0.14287414808E+02  0.23801700115E+02  0.00000000000E+00 0. -1.
</event>
<event>
 7    1  0.3220798E-013  0.5930196E+02  0.7816164E-02  0.1266605E+00
        -11   -1    0    0    0    0  0.00000000000E+00  0.00000000000E+00  0.45593999997E+02  0.45594000000E+02  0.51100000000E-03 0.  1.
         11   -1    0    0    0    0 -0.00000000000E+00 -0.00000000000E+00 -0.45593999997E+02  0.45594000000E+02  0.51100000000E-03 0. -1.
    9900012    2    1    2    0    0  0.13600708665E+02 -0.13900462956E+01  0.28806393635E+02  0.59301955730E+02  0.50000021343E+02 0.  0.
         12    1    1    2    0    0 -0.13600708665E+02  0.13900462956E+01 -0.28806393635E+02  0.31886044270E+02  0.00000000000E+00 0. -1.
         11    1    3    3    0    0 -0.11026097131E+02 -0.25690202869E+01  0.47531920339E+01  0.12278742523E+02  0.51100000000E-03 0. -1.
        -11    1    3    3    0    0 -0.14485259775E+01  0.10736430170E+02  0.13510539492E+02  0.17317731893E+02  0.51100000000E-03 0.  1.
        -12    1    3    3    0    0  0.26075331774E+02 -0.95574561787E+01  0.10542662109E+02  0.29705481314E+02  0.00000000000E+00 0.  1.
</event>
<event>
 7    1  0.3220798E-013  0.5930192E+02  0.7816164E-02  0.1266605E+00
        -11   -1    0    0    0    0  0.00000000000E+00  0.00000000000E+00  0.45593999997E+02  0.45594000000E+02  0.51100000000E-03 0.  1.
         11   -1    0    0    0    0 -0.00000000000E+00 -0.00000000000E+00 -0.45593999997E+02  0.45594000000E+02  0.51100000000E-03 0. -1.
    9900012    2    1    2    0    0 -0.90025451232E+01 -0.29477375082E+02 -0.81707360022E+01  0.59301915461E+02  0.49999947901E+02 0.  0.
         12    1    1    2    0    0  0.90025451232E+01  0.29477375082E+02  0.81707360022E+01  0.31886084539E+02  0.00000000000E+00 0. -1.
         11    1    3    3    0    0 -0.84486067630E+01 -0.58526646841E+01 -0.45632511749E+01  0.11245261299E+02  0.51100000000E-03 0. -1.
        -11    1    3    3    0    0  0.41883711932E+00 -0.34012693262E+02  0.51903689594E+01  0.34408990942E+02  0.51100000000E-03 0.  1.
         12    1    3    3    0    0 -0.97277547960E+00  0.10387982864E+02 -0.87978537867E+01  0.13647663220E+02  0.00000000000E+00 0. -1.
</event>
<event>
 7    1  0.3220798E-013  0.5930195E+02  0.7816164E-02  0.1266605E+00
        -11   -1    0    0    0    0  0.00000000000E+00  0.00000000000E+00  0.45593999997E+02  0.45594000000E+02  0.51100000000E-03 0. -1.
         11   -1    0    0    0    0 -0.00000000000E+00 -0.00000000000E+00 -0.45593999997E+02  0.45594000000E+02  0.51100000000E-03 0.  1.
    9900012    2    1    2    0    0  0.20371622460E+02  0.12436898181E+02 -0.21143339553E+02  0.59301949045E+02  0.50000009151E+02 0.  0.
         12    1    1    2    0    0 -0.20371622460E+02 -0.12436898181E+02  0.21143339553E+02  0.31886050955E+02  0.00000000000E+00 0. -1.
         11    1    3    3    0    0  0.40125446021E+01  0.10273645401E+02  0.29937983859E+01  0.11428522785E+02  0.51100000000E-03 0. -1.
        -11    1    3    3    0    0  0.22171918773E+02  0.83593820201E+01 -0.15554869400E+01  0.23746426883E+02  0.51100000000E-03 0.  1.
         12    1    3    3    0    0 -0.58128409152E+01 -0.61961292403E+01 -0.22581650999E+02  0.24126999377E+02  0.00000000000E+00 0. -1.
</event>
<event>
 7    1  0.3220798E-013  0.5930193E+02  0.7816164E-02  0.1266605E+00
        -11   -1    0    0    0    0  0.00000000000E+00  0.00000000000E+00  0.45593999997E+02  0.45594000000E+02  0.51100000000E-03 0.  1.
         11   -1    0    0    0    0 -0.00000000000E+00 -0.00000000000E+00 -0.45593999997E+02  0.45594000000E+02  0.51100000000E-03 0. -1.
    9900012    2    1    2    0    0 -0.18946747191E+02 -0.61241314213E+01  0.24904556941E+02  0.59301934530E+02  0.49999982678E+02 0.  0.
         12    1    1    2    0    0  0.18946747191E+02  0.61241314213E+01 -0.24904556941E+02  0.31886065470E+02  0.00000000000E+00 0. -1.
         11    1    3    3    0    0 -0.84161779112E+01 -0.10934597586E+02  0.26177242157E+02  0.29591307545E+02  0.51100000000E-03 0. -1.
        -11    1    3    3    0    0 -0.16111550144E+02 -0.46040557000E+01  0.44819131405E+01  0.17345515922E+02  0.51100000000E-03 0.  1.
        -12    1    3    3    0    0  0.55809808641E+01  0.94145218646E+01 -0.57545983573E+01  0.12365111063E+02  0.00000000000E+00 0.  1.
</event>
<event>
 7    1  0.3220798E-013  0.5930198E+02  0.7816164E-02  0.1266605E+00
        -11   -1    0    0    0    0  0.00000000000E+00  0.00000000000E+00  0.45593999997E+02  0.45594000000E+02  0.51100000000E-03 0.  1.
         11   -1    0    0    0    0 -0.00000000000E+00 -0.00000000000E+00 -0.45593999997E+02  0.45594000000E+02  0.51100000000E-03 0. -1.
    9900012    2    1    2    0    0  0.23697126686E+02  0.42918724200E+01  0.20898429421E+02  0.59301979014E+02  0.50000063807E+02 0.  0.
         12    1    1    2    0    0 -0.23697126686E+02 -0.42918724200E+01 -0.20898429421E+02  0.31886020986E+02  0.00000000000E+00 0. -1.
         11    1    3    3    0    0  0.11938524989E+02 -0.13279642420E+02  0.53446008156E+01  0.18639797205E+02  0.51100000000E-03 0. -1.
        -11    1    3    3    0    0  0.16006745757E+02 -0.32224343007E+01  0.61319368287E+01  0.17441348631E+02  0.51100000000E-03 0.  1.
         12    1    3    3    0    0 -0.42481440601E+01  0.20793949140E+02  0.94218917767E+01  0.23220833178E+02  0.00000000000E+00 0. -1.
</event>
<event>
 7    1  0.3220798E-013  0.5930194E+02  0.7816164E-02  0.1266605E+00
        -11   -1    0    0    0    0  0.00000000000E+00  0.00000000000E+00  0.45593999997E+02  0.45594000000E+02  0.51100000000E-03 0.  1.
         11   -1    0    0    0    0 -0.00000000000E+00 -0.00000000000E+00 -0.45593999997E+02  0.45594000000E+02  0.51100000000E-03 0. -1.
    9900012    2    1    2    0    0  0.27734616129E+02 -0.15168702464E+02 -0.41740284499E+01  0.59301937532E+02  0.49999988153E+02 0.  0.
         12    1    1    2    0    0 -0.27734616129E+02  0.15168702464E+02  0.41740284499E+01  0.31886062468E+02  0.00000000000E+00 0. -1.
         11    1    3    3    0    0  0.15413317663E+02  0.78056365186E+01 -0.32193707368E+01  0.17574489212E+02  0.51100000000E-03 0. -1.
        -11    1    3    3    0    0  0.18748952786E+02 -0.20831470928E+02 -0.10579794865E+02  0.29956726644E+02  0.51100000000E-03 0.  1.
        -12    1    3    3    0    0 -0.64276543207E+01 -0.21428680545E+01  0.96251371520E+01  0.11770721675E+02  0.00000000000E+00 0.  1.
</event>
<event>
 7    1  0.3220798E-013  0.5930194E+02  0.7816164E-02  0.1266605E+00
        -11   -1    0    0    0    0  0.00000000000E+00  0.00000000000E+00  0.45593999997E+02  0.45594000000E+02  0.51100000000E-03 0. -1.
         11   -1    0    0    0    0 -0.00000000000E+00 -0.00000000000E+00 -0.45593999997E+02  0.45594000000E+02  0.51100000000E-03 0.  1.
    9900012    2    1    2    0    0  0.17275771166E+02 -0.51641724379E+01 -0.26298292013E+02  0.59301935503E+02  0.49999984452E+02 0.  0.
         12    1    1    2    0    0 -0.17275771166E+02  0.51641724379E+01  0.26298292013E+02  0.31886064497E+02  0.00000000000E+00 0. -1.
         11    1    3    3    0    0  0.40768038558E-02 -0.59064281638E+01 -0.12982850858E+02  0.14263250924E+02  0.51100000000E-03 0. -1.
        -11    1    3    3    0    0  0.67869506241E+01  0.11294662209E+02 -0.23547624249E+02  0.26983748835E+02  0.51100000000E-03 0.  1.
         12    1    3    3    0    0  0.10484743738E+02 -0.10552406483E+02  0.10232183094E+02  0.18054935743E+02  0.00000000000E+00 0. -1.
</event>
<event>
 7    1  0.3220798E-013  0.5930192E+02  0.7816164E-02  0.1266605E+00
        -11   -1    0    0    0    0  0.00000000000E+00  0.00000000000E+00  0.45593999997E+02  0.45594000000E+02  0.51100000000E-03 0.  1.
         11   -1    0    0    0    0 -0.00000000000E+00 -0.00000000000E+00 -0.45593999997E+02  0.45594000000E+02  0.51100000000E-03 0. -1.
    9900012    2    1    2    0    0  0.28616257369E+02  0.10721217597E+02  0.91042471879E+01  0.59301921386E+02  0.49999958706E+02 0.  0.
         12    1    1    2    0    0 -0.28616257369E+02 -0.10721217597E+02 -0.91042471879E+01  0.31886078614E+02  0.00000000000E+00 0. -1.
         11    1    3    3    0    0  0.13159075663E+02  0.20531766557E+00  0.19153681703E+02  0.23239340582E+02  0.51100000000E-03 0. -1.
        -11    1    3    3    0    0  0.16888499888E+02  0.33091275847E+01  0.61493685036E+01  0.18275297182E+02  0.51100000000E-03 0.  1.
         12    1    3    3    0    0 -0.14313181825E+01  0.72067723464E+01 -0.16198803019E+02  0.17787283621E+02  0.00000000000E+00 0. -1.
</event>
<event>
 7    1  0.3220798E-013  0.5930196E+02  0.7816164E-02  0.1266605E+00
        -11   -1    0    0    0    0  0.00000000000E+00  0.00000000000E+00  0.45593999997E+02  0.45594000000E+02  0.51100000000E-03 0.  1.
         11   -1    0    0    0    0 -0.00000000000E+00 -0.00000000000E+00 -0.45593999997E+02  0.45594000000E+02  0.51100000000E-03 0. -1.
    9900012    2    1    2    0    0  0.10983921949E+02 -0.18332841525E+02  0.23663890173E+02  0.59301963591E+02  0.50000035680E+02 0.  0.
         12    1    1    2    0    0 -0.10983921949E+02  0.18332841525E+02 -0.23663890173E+02  0.31886036409E+02  0.00000000000E+00 0. -1.
         11    1    3    3    0    0 -0.98146685760E+01 -0.40168897607E+01  0.17946580530E+00  0.10606381609E+02  0.51100000000E-03 0. -1.
        -11    1    3    3    0    0  0.13742609680E+02  0.98325679209E+01  0.55007897476E+01  0.17770689375E+02  0.51100000000E-03 0.  1.
         12    1    3    3    0    0  0.70559808445E+01 -0.24148519685E+02  0.17983634620E+02  0.30924892607E+02  0.00000000000E+00 0. -1.
</event>
<event>
 7    1  0.3220798E-013  0.5930184E+02  0.7816164E-02  0.1266605E+00
        -11   -1    0    0    0    0  0.00000000000E+00  0.00000000000E+00  0.45593999997E+02  0.45594000000E+02  0.51100000000E-03 0. -1.
         11   -1    0    0    0    0 -0.00000000000E+00 -0.00000000000E+00 -0.45593999997E+02  0.45594000000E+02  0.51100000000E-03 0.  1.
    9900012    2    1    2    0    0  0.16248959999E+02 -0.23251716771E+02 -0.14562143332E+02  0.59301842310E+02  0.49999814490E+02 0.  0.
         12    1    1    2    0    0 -0.16248959999E+02  0.23251716771E+02  0.14562143332E+02  0.31886157690E+02  0.00000000000E+00 0. -1.
         11    1    3    3    0    0 -0.14663918917E+02 -0.83665895441E+01 -0.97504832576E+01  0.19496211494E+02  0.51100000000E-03 0. -1.
        -11    1    3    3    0    0  0.11420557050E+01 -0.38377530382E+01  0.51517084512E+01  0.65247789114E+01  0.51100000000E-03 0.  1.
        -12    1    3    3    0    0  0.29770823211E+02 -0.11047374188E+02 -0.99633685255E+01  0.33280851904E+02  0.00000000000E+00 0.  1.
</event>
<event>
 7    1  0.3220798E-013  0.5930194E+02  0.7816164E-02  0.1266605E+00
        -11   -1    0    0    0    0  0.00000000000E+00  0.00000000000E+00  0.45593999997E+02  0.45594000000E+02  0.51100000000E-03 0.  1.
         11   -1    0    0    0    0 -0.00000000000E+00 -0.00000000000E+00 -0.45593999997E+02  0.45594000000E+02  0.51100000000E-03 0. -1.
    9900012    2    1    2    0    0  0.49836541949E+01  0.29227356871E+02  0.11732239330E+02  0.59301942883E+02  0.49999997912E+02 0.  0.
         12    1    1    2    0    0 -0.49836541949E+01 -0.29227356871E+02 -0.11732239330E+02  0.31886057117E+02  0.00000000000E+00 0. -1.
         11    1    3    3    0    0  0.11232070578E+02  0.77039049900E+01 -0.29145767519E+01  0.13928543337E+02  0.51100000000E-03 0. -1.
        -11    1    3    3    0    0  0.99929039157E+01  0.22965258900E+02  0.14753947695E+02  0.29067855406E+02  0.51100000000E-03 0.  1.
         12    1    3    3    0    0 -0.16241320299E+02 -0.14418070192E+01 -0.10713161356E+00  0.16305544141E+02  0.00000000000E+00 0. -1.
</event>
<event>
 7    1  0.3220798E-013  0.5930232E+02  0.7816164E-02  0.1266603E+00
        -11   -1    0    0    0    0  0.00000000000E+00  0.00000000000E+00  0.45593999997E+02  0.45594000000E+02  0.51100000000E-03 0.  1.
         11   -1    0    0    0    0 -0.00000000000E+00 -0.00000000000E+00 -0.45593999997E+02  0.45594000000E+02  0.51100000000E-03 0. -1.
    9900012    2    1    2    0    0  0.16655659873E+02  0.25430392461E+02 -0.96218794412E+01  0.59302322486E+02  0.50000690213E+02 0.  0.
         12    1    1    2    0    0 -0.16655659873E+02 -0.25430392461E+02  0.96218794412E+01  0.31885677514E+02  0.00000000000E+00 0. -1.
         11    1    3    3    0    0  0.10987200282E+02  0.58732155021E+01 -0.63415833545E+01  0.13979589053E+02  0.51100000000E-03 0. -1.
        -11    1    3    3    0    0  0.21716366779E+02  0.10815672512E+02  0.57593185576E+01  0.24934897402E+02  0.51100000000E-03 0.  1.
        -12    1    3    3    0    0 -0.16047907188E+02  0.87415044474E+01 -0.90396146442E+01  0.20387836031E+02  0.00000000000E+00 0.  1.
</event>
<event>
 7    1  0.3220798E-013  0.5930195E+02  0.7816164E-02  0.1266605E+00
        -11   -1    0    0    0    0  0.00000000000E+00  0.00000000000E+00  0.45593999997E+02  0.45594000000E+02  0.51100000000E-03 0. -1.
         11   -1    0    0    0    0 -0.00000000000E+00 -0.00000000000E+00 -0.45593999997E+02  0.45594000000E+02  0.51100000000E-03 0.  1.
    9900012    2    1    2    0    0 -0.24851735991E+02  0.17367198895E+02  0.98738087918E+01  0.59301945379E+02  0.50000002464E+02 0.  0.
         12    1    1    2    0    0  0.24851735991E+02 -0.17367198895E+02 -0.98738087918E+01  0.31886054621E+02  0.00000000000E+00 0. -1.
         11    1    3    3    0    0 -0.13575758352E+02 -0.33322338979E+01  0.18968441258E+02  0.23562825841E+02  0.51100000000E-03 0. -1.
        -11    1    3    3    0    0 -0.10279412383E+02  0.53865361824E+01  0.69584423330E+01  0.13531482216E+02  0.51100000000E-03 0.  1.
        -12    1    3    3    0    0 -0.99656525513E+00  0.15312896611E+02 -0.16053074799E+02  0.22207637322E+02  0.00000000000E+00 0.  1.
</event>
<event>
 7    1  0.3220798E-013  0.5930194E+02  0.7816164E-02  0.1266605E+00
        -11   -1    0    0    0    0  0.00000000000E+00  0.00000000000E+00  0.45593999997E+02  0.45594000000E+02  0.51100000000E-03 0.  1.
         11   -1    0    0    0    0 -0.00000000000E+00 -0.00000000000E+00 -0.45593999997E+02  0.45594000000E+02  0.51100000000E-03 0. -1.
    9900012    2    1    2    0    0 -0.29396701298E+02 -0.26885989351E-01  0.12351284349E+02  0.59301937291E+02  0.49999987713E+02 0.  0.
         12    1    1    2    0    0  0.29396701298E+02  0.26885989351E-01 -0.12351284349E+02  0.31886062709E+02  0.00000000000E+00 0. -1.
         11    1    3    3    0    0 -0.96102450621E+01  0.11568258116E+02  0.95660269275E+01  0.17823868195E+02  0.51100000000E-03 0. -1.
        -11    1    3    3    0    0 -0.25214733464E+02  0.28544838074E+01  0.50611275353E+01  0.25875584509E+02  0.51100000000E-03 0.  1.
         12    1    3    3    0    0  0.54282772289E+01 -0.14449627913E+02 -0.22758701141E+01  0.15602484587E+02  0.00000000000E+00 0. -1.
</event>
<event>
 7    1  0.3220798E-013  0.5930194E+02  0.7816164E-02  0.1266605E+00
        -11   -1    0    0    0    0  0.00000000000E+00  0.00000000000E+00  0.45593999997E+02  0.45594000000E+02  0.51100000000E-03 0.  1.
         11   -1    0    0    0    0 -0.00000000000E+00 -0.00000000000E+00 -0.45593999997E+02  0.45594000000E+02  0.51100000000E-03 0. -1.
    9900012    2    1    2    0    0  0.30897832444E+02  0.73701554276E+01 -0.27794574536E+01  0.59301943102E+02  0.49999998312E+02 0.  0.
         12    1    1    2    0    0 -0.30897832444E+02 -0.73701554276E+01  0.27794574536E+01  0.31886056898E+02  0.00000000000E+00 0. -1.
         11    1    3    3    0    0  0.98102843558E+01  0.95623417848E+00 -0.23018996193E+02  0.25040572057E+02  0.51100000000E-03 0. -1.
        -11    1    3    3    0    0  0.17105951858E+02  0.77672277741E+01  0.64790383219E+01  0.19872628264E+02  0.51100000000E-03 0.  1.
        -12    1    3    3    0    0  0.39815962302E+01 -0.13533065250E+01  0.13760500417E+02  0.14388742781E+02  0.00000000000E+00 0.  1.
</event>
<event>
 7    1  0.3220798E-013  0.5930197E+02  0.7816164E-02  0.1266605E+00
        -11   -1    0    0    0    0  0.00000000000E+00  0.00000000000E+00  0.45593999997E+02  0.45594000000E+02  0.51100000000E-03 0.  1.
         11   -1    0    0    0    0 -0.00000000000E+00 -0.00000000000E+00 -0.45593999997E+02  0.45594000000E+02  0.51100000000E-03 0. -1.
    9900012    2    1    2    0    0 -0.31212574757E+01  0.30474747225E+02  0.88468175806E+01  0.59301974096E+02  0.50000054837E+02 0.  0.
         12    1    1    2    0    0  0.31212574757E+01 -0.30474747225E+02 -0.88468175806E+01  0.31886025904E+02  0.00000000000E+00 0. -1.
         11    1    3    3    0    0  0.14489053924E+02  0.15903789906E+02  0.14642120680E+02  0.26024121796E+02  0.51100000000E-03 0. -1.
        -11    1    3    3    0    0 -0.56368246768E+01  0.19102412253E+02 -0.44256774924E+01  0.20402513763E+02  0.51100000000E-03 0.  1.
        -12    1    3    3    0    0 -0.11973486723E+02 -0.45314549347E+01 -0.13696256069E+01  0.12875338536E+02  0.00000000000E+00 0.  1.
</event>
<event>
 7    1  0.3220798E-013  0.5930208E+02  0.7816164E-02  0.1266604E+00
        -11   -1    0    0    0    0  0.00000000000E+00  0.00000000000E+00  0.45593999997E+02  0.45594000000E+02  0.51100000000E-03 0. -1.
         11   -1    0    0    0    0 -0.00000000000E+00 -0.00000000000E+00 -0.45593999997E+02  0.45594000000E+02  0.51100000000E-03 0.  1.
    9900012    2    1    2    0    0  0.15085091937E+02  0.19696207703E+02 -0.20030252527E+02  0.59302084411E+02  0.50000256025E+02 0.  0.
         12    1    1    2    0    0 -0.15085091937E+02 -0.19696207703E+02  0.20030252527E+02  0.31885915589E+02  0.00000000000E+00 0. -1.
         11    1    3    3    0    0  0.23380378331E+01  0.16020605396E+02  0.99709675407E+00  0.16220987034E+02  0.51100000000E-03 0. -1.
        -11    1    3    3    0    0 -0.10566728647E+01  0.17714097324E+02 -0.11999594969E+02  0.21421859891E+02  0.51100000000E-03 0.  1.
        -12    1    3    3    0    0  0.13803726969E+02 -0.14038495016E+02 -0.90277543123E+01  0.21659237486E+02  0.00000000000E+00 0.  1.
</event>
<event>
 7    1  0.3220798E-013  0.5930195E+02  0.7816164E-02  0.1266605E+00
        -11   -1    0    0    0    0  0.00000000000E+00  0.00000000000E+00  0.45593999997E+02  0.45594000000E+02  0.51100000000E-03 0.  1.
         11   -1    0    0    0    0 -0.00000000000E+00 -0.00000000000E+00 -0.45593999997E+02  0.45594000000E+02  0.51100000000E-03 0. -1.
    9900012    2    1    2    0    0 -0.11553260179E+02  0.69910684021E+01  0.28885420715E+02  0.59301946810E+02  0.50000005074E+02 0.  0.
         12    1    1    2    0    0  0.11553260179E+02 -0.69910684021E+01 -0.28885420715E+02  0.31886053190E+02  0.00000000000E+00 0. -1.
         11    1    3    3    0    0  0.11820666227E+02  0.57204659458E+01  0.53329283874E+01  0.14173637717E+02  0.51100000000E-03 0. -1.
        -11    1    3    3    0    0 -0.57042871815E+01 -0.92232552015E+01 -0.32802091008E+01  0.11329920598E+02  0.51100000000E-03 0.  1.
        -12    1    3    3    0    0 -0.17669639225E+02  0.10493857658E+02  0.26832701428E+02  0.33798388494E+02  0.00000000000E+00 0.  1.
</event>
<event>
 7    1  0.3220798E-013  0.5930194E+02  0.7816164E-02  0.1266605E+00
        -11   -1    0    0    0    0  0.00000000000E+00  0.00000000000E+00  0.45593999997E+02  0.45594000000E+02  0.51100000000E-03 0. -1.
         11   -1    0    0    0    0 -0.00000000000E+00 -0.00000000000E+00 -0.45593999997E+02  0.45594000000E+02  0.51100000000E-03 0.  1.
    9900012    2    1    2    0    0  0.20467343204E+02 -0.18776579658E+02 -0.15660424089E+02  0.59301937777E+02  0.49999988599E+02 0.  0.
         12    1    1    2    0    0 -0.20467343204E+02  0.18776579658E+02  0.15660424089E+02  0.31886062223E+02  0.00000000000E+00 0. -1.
         11    1    3    3    0    0  0.61155227125E+01  0.22029193089E+01  0.10048727700E+02  0.11967848603E+02  0.51100000000E-03 0. -1.
        -11    1    3    3    0    0  0.64644958390E+01 -0.13593735622E+02  0.41215795688E+01  0.15606625933E+02  0.51100000000E-03 0.  1.
         12    1    3    3    0    0  0.78873246521E+01 -0.73857633449E+01 -0.29830731358E+02  0.31727463241E+02  0.00000000000E+00 0. -1.
</event>
<event>
 7    1  0.3220798E-013  0.5930195E+02  0.7816164E-02  0.1266605E+00
        -11   -1    0    0    0    0  0.00000000000E+00  0.00000000000E+00  0.45593999997E+02  0.45594000000E+02  0.51100000000E-03 0.  1.
         11   -1    0    0    0    0 -0.00000000000E+00 -0.00000000000E+00 -0.45593999997E+02  0.45594000000E+02  0.51100000000E-03 0. -1.
    9900012    2    1    2    0    0 -0.30484586182E+02 -0.41275582707E+01 -0.83888956505E+01  0.59301948156E+02  0.50000007529E+02 0.  0.
         12    1    1    2    0    0  0.30484586182E+02  0.41275582707E+01  0.83888956505E+01  0.31886051844E+02  0.00000000000E+00 0. -1.
         11    1    3    3    0    0 -0.13856023841E+02 -0.17007146105E+02 -0.11704574948E+02  0.24864221088E+02  0.51100000000E-03 0. -1.
        -11    1    3    3    0    0 -0.69508488336E+01  0.10998405021E+02 -0.11012313146E+02  0.17045534712E+02  0.51100000000E-03 0.  1.
        -12    1    3    3    0    0 -0.96777135071E+01  0.18811828133E+01  0.14327992444E+02  0.17392192357E+02  0.00000000000E+00 0.  1.
</event>
<event>
 7    1  0.3220798E-013  0.5930195E+02  0.7816164E-02  0.1266605E+00
        -11   -1    0    0    0    0  0.00000000000E+00  0.00000000000E+00  0.45593999997E+02  0.45594000000E+02  0.51100000000E-03 0.  1.
         11   -1    0    0    0    0 -0.00000000000E+00 -0.00000000000E+00 -0.45593999997E+02  0.45594000000E+02  0.51100000000E-03 0. -1.
    9900012    2    1    2    0    0  0.31789085006E+02 -0.18966894016E+01 -0.16053392976E+01  0.59301945518E+02  0.50000002717E+02 0.  0.
         12    1    1    2    0    0 -0.31789085006E+02  0.18966894016E+01  0.16053392976E+01  0.31886054482E+02  0.00000000000E+00 0. -1.
         11    1    3    3    0    0  0.18857296245E+02  0.54218081530E+01 -0.27028211245E+01  0.19806535982E+02  0.51100000000E-03 0. -1.
        -11    1    3    3    0    0  0.14240492545E+02 -0.20964743600E+02 -0.20605569093E+01  0.25427504738E+02  0.51100000000E-03 0.  1.
         12    1    3    3    0    0 -0.13087037843E+01  0.13646246046E+02  0.31580387362E+01  0.14067904798E+02  0.00000000000E+00 0. -1.
</event>
<event>
 7    1  0.3220798E-013  0.5930197E+02  0.7816164E-02  0.1266605E+00
        -11   -1    0    0    0    0  0.00000000000E+00  0.00000000000E+00  0.45593999997E+02  0.45594000000E+02  0.51100000000E-03 0.  1.
         11   -1    0    0    0    0 -0.00000000000E+00 -0.00000000000E+00 -0.45593999997E+02  0.45594000000E+02  0.51100000000E-03 0. -1.
    9900012    2    1    2    0    0  0.14518644009E+01  0.72860769981E+01  0.31008450263E+02  0.59301971461E+02  0.50000050032E+02 0.  0.
         12    1    1    2    0    0 -0.14518644009E+01 -0.72860769981E+01 -0.31008450263E+02  0.31886028539E+02  0.00000000000E+00 0. -1.
         11    1    3    3    0    0 -0.35843124196E+01  0.12885575675E+02  0.35984166451E+01  0.13850413662E+02  0.51100000000E-03 0. -1.
        -11    1    3    3    0    0  0.16839691965E+02 -0.15210896239E+01  0.18567143065E+01  0.17009889106E+02  0.51100000000E-03 0.  1.
        -12    1    3    3    0    0 -0.11803515145E+02 -0.40784090530E+01  0.25553319312E+02  0.28441668693E+02  0.00000000000E+00 0.  1.
</event>
<event>
 7    1  0.3220798E-013  0.5930193E+02  0.7816164E-02  0.1266605E+00
        -11   -1    0    0    0    0  0.00000000000E+00  0.00000000000E+00  0.45593999997E+02  0.45594000000E+02  0.51100000000E-03 0.  1.
         11   -1    0    0    0    0 -0.00000000000E+00 -0.00000000000E+00 -0.45593999997E+02  0.45594000000E+02  0.51100000000E-03 0. -1.
    9900012    2    1    2    0    0  0.94518369549E+01 -0.21532951729E+02  0.21534068157E+02  0.59301932143E+02  0.49999978326E+02 0.  0.
         12    1    1    2    0    0 -0.94518369549E+01  0.21532951729E+02 -0.21534068157E+02  0.31886067857E+02  0.00000000000E+00 0. -1.
         11    1    3    3    0    0  0.15113360781E+02 -0.87145144859E+01  0.28898821063E+02  0.33756455618E+02  0.51100000000E-03 0.  1.
        -11    1    3    3    0    0 -0.77466230723E+01 -0.15482280146E+02  0.14086047845E+00  0.17312741247E+02  0.51100000000E-03 0. -1.
        -12    1    3    3    0    0  0.20850992458E+01  0.26638429037E+01 -0.75056133843E+01  0.82327352778E+01  0.00000000000E+00 0.  1.
</event>
<event>
 7    1  0.3220798E-013  0.5930195E+02  0.7816164E-02  0.1266605E+00
        -11   -1    0    0    0    0  0.00000000000E+00  0.00000000000E+00  0.45593999997E+02  0.45594000000E+02  0.51100000000E-03 0.  1.
         11   -1    0    0    0    0 -0.00000000000E+00 -0.00000000000E+00 -0.45593999997E+02  0.45594000000E+02  0.51100000000E-03 0. -1.
    9900012    2    1    2    0    0 -0.15041012175E+01 -0.10363190679E+02  0.30117472832E+02  0.59301949581E+02  0.50000010128E+02 0.  0.
         12    1    1    2    0    0  0.15041012175E+01  0.10363190679E+02 -0.30117472832E+02  0.31886050419E+02  0.00000000000E+00 0. -1.
         11    1    3    3    0    0 -0.10289355728E+02 -0.51945457977E+01  0.15037616806E+02  0.18946874856E+02  0.51100000000E-03 0. -1.
        -11    1    3    3    0    0 -0.37878998963E+01  0.20761738693E+00  0.23823892805E+02  0.24124036960E+02  0.51100000000E-03 0.  1.
         12    1    3    3    0    0  0.12573154407E+02 -0.53762622686E+01 -0.87440367789E+01  0.16231037765E+02  0.00000000000E+00 0. -1.
</event>
<event>
 7    1  0.3220798E-013  0.5930196E+02  0.7816164E-02  0.1266605E+00
        -11   -1    0    0    0    0  0.00000000000E+00  0.00000000000E+00  0.45593999997E+02  0.45594000000E+02  0.51100000000E-03 0.  1.
         11   -1    0    0    0    0 -0.00000000000E+00 -0.00000000000E+00 -0.45593999997E+02  0.45594000000E+02  0.51100000000E-03 0. -1.
    9900012    2    1    2    0    0 -0.19092161044E+02  0.13653078242E+02  0.21582448804E+02  0.59301964574E+02  0.50000037472E+02 0.  0.
         12    1    1    2    0    0  0.19092161044E+02 -0.13653078242E+02 -0.21582448804E+02  0.31886035426E+02  0.00000000000E+00 0. -1.
         11    1    3    3    0    0 -0.72598155392E+01  0.81396288577E+01  0.28091924608E+01  0.11262772401E+02  0.51100000000E-03 0. -1.
        -11    1    3    3    0    0  0.11289304715E+02  0.12315756745E+02 -0.11818253825E+01  0.16748820157E+02  0.51100000000E-03 0.  1.
        -12    1    3    3    0    0 -0.23121650219E+02 -0.68023073613E+01  0.19955081725E+02  0.31290372017E+02  0.00000000000E+00 0.  1.
</event>
<event>
 7    1  0.3220798E-013  0.5930190E+02  0.7816164E-02  0.1266605E+00
        -11   -1    0    0    0    0  0.00000000000E+00  0.00000000000E+00  0.45593999997E+02  0.45594000000E+02  0.51100000000E-03 0. -1.
         11   -1    0    0    0    0 -0.00000000000E+00 -0.00000000000E+00 -0.45593999997E+02  0.45594000000E+02  0.51100000000E-03 0.  1.
    9900012    2    1    2    0    0  0.27925304206E+02  0.81064926966E+01 -0.13083793060E+02  0.59301898331E+02  0.49999916659E+02 0.  0.
         12    1    1    2    0    0 -0.27925304206E+02 -0.81064926966E+01  0.13083793060E+02  0.31886101669E+02  0.00000000000E+00 0. -1.
         11    1    3    3    0    0 -0.11357532084E+02  0.30746621735E+00 -0.41299658146E+01  0.12089031740E+02  0.51100000000E-03 0. -1.
        -11    1    3    3    0    0  0.14103382623E+02  0.14549119096E+02 -0.46807670170E+01  0.20796438349E+02  0.51100000000E-03 0.  1.
        -12    1    3    3    0    0  0.25179453667E+02 -0.67500926170E+01 -0.42730602289E+01  0.26416428242E+02  0.00000000000E+00 0.  1.
</event>
<event>
 7    1  0.3220798E-013  0.5930207E+02  0.7816164E-02  0.1266604E+00
        -11   -1    0    0    0    0  0.00000000000E+00  0.00000000000E+00  0.45593999997E+02  0.45594000000E+02  0.51100000000E-03 0.  1.
         11   -1    0    0    0    0 -0.00000000000E+00 -0.00000000000E+00 -0.45593999997E+02  0.45594000000E+02  0.51100000000E-03 0. -1.
    9900012    2    1    2    0    0  0.20822796055E+02  0.19523054004E+02 -0.14211765214E+02  0.59302066680E+02  0.50000223688E+02 0.  0.
         12    1    1    2    0    0 -0.20822796055E+02 -0.19523054004E+02  0.14211765214E+02  0.31885933320E+02  0.00000000000E+00 0. -1.
         11    1    3    3    0    0  0.23945375788E+02  0.56451765906E+01 -0.14407242284E+02  0.28509957398E+02  0.51100000000E-03 0. -1.
        -11    1    3    3    0    0  0.90353562077E+01  0.76589343304E+01  0.87069649376E+01  0.14700618203E+02  0.51100000000E-03 0.  1.
        -12    1    3    3    0    0 -0.12157935941E+02  0.62189430834E+01 -0.85114878670E+01  0.16091491078E+02  0.00000000000E+00 0.  1.
</event>
<event>
 7    1  0.3220798E-013  0.5930199E+02  0.7816164E-02  0.1266605E+00
        -11   -1    0    0    0    0  0.00000000000E+00  0.00000000000E+00  0.45593999997E+02  0.45594000000E+02  0.51100000000E-03 0.  1.
         11   -1    0    0    0    0 -0.00000000000E+00 -0.00000000000E+00 -0.45593999997E+02  0.45594000000E+02  0.51100000000E-03 0. -1.
    9900012    2    1    2    0    0  0.13741993119E+02  0.10951933542E+02 -0.26606964369E+02  0.59301987766E+02  0.50000079769E+02 0.  0.
         12    1    1    2    0    0 -0.13741993119E+02 -0.10951933542E+02  0.26606964369E+02  0.31886012234E+02  0.00000000000E+00 0. -1.
         11    1    3    3    0    0  0.11927469478E+02  0.62763714972E+01 -0.24652759285E+02  0.28096546192E+02  0.51100000000E-03 0. -1.
        -11    1    3    3    0    0  0.11294943592E+02  0.13897111010E+02 -0.72565110191E+00  0.17922946603E+02  0.51100000000E-03 0.  1.
         12    1    3    3    0    0 -0.94804199512E+01 -0.92215489645E+01 -0.12285539830E+01  0.13282494971E+02  0.00000000000E+00 0. -1.
</event>
<event>
 7    1  0.3220798E-013  0.5930195E+02  0.7816164E-02  0.1266605E+00
        -11   -1    0    0    0    0  0.00000000000E+00  0.00000000000E+00  0.45593999997E+02  0.45594000000E+02  0.51100000000E-03 0. -1.
         11   -1    0    0    0    0 -0.00000000000E+00 -0.00000000000E+00 -0.45593999997E+02  0.45594000000E+02  0.51100000000E-03 0.  1.
    9900012    2    1    2    0    0  0.58100318396E+01 -0.21991880604E+01 -0.31275024609E+02  0.59301951916E+02  0.50000014386E+02 0.  0.
         12    1    1    2    0    0 -0.58100318396E+01  0.21991880604E+01  0.31275024609E+02  0.31886048084E+02  0.00000000000E+00 0. -1.
         11    1    3    3    0    0  0.94347939071E+01 -0.16550418505E+02 -0.23664690070E+00  0.19052235847E+02  0.51100000000E-03 0. -1.
        -11    1    3    3    0    0 -0.57357990135E+01 -0.26946862526E+01 -0.16745565050E+02  0.17904599226E+02  0.51100000000E-03 0.  1.
        -12    1    3    3    0    0  0.21110369460E+01  0.17045916697E+02 -0.14292812658E+02  0.22345116843E+02  0.00000000000E+00 0.  1.
</event>
<event>
 7    1  0.3220798E-013  0.5930192E+02  0.7816164E-02  0.1266605E+00
        -11   -1    0    0    0    0  0.00000000000E+00  0.00000000000E+00  0.45593999997E+02  0.45594000000E+02  0.51100000000E-03 0. -1.
         11   -1    0    0    0    0 -0.00000000000E+00 -0.00000000000E+00 -0.45593999997E+02  0.45594000000E+02  0.51100000000E-03 0.  1.
    9900012    2    1    2    0    0 -0.19702100069E+02 -0.36008081124E+01 -0.24810950144E+02  0.59301924462E+02  0.49999964316E+02 0.  0.
         12    1    1    2    0    0  0.19702100069E+02  0.36008081124E+01  0.24810950144E+02  0.31886075538E+02  0.00000000000E+00 0. -1.
         11    1    3    3    0    0 -0.62702971821E+01  0.31426414831E+01 -0.12208043096E+02  0.14079387015E+02  0.51100000000E-03 0. -1.
        -11    1    3    3    0    0  0.62449446866E+00 -0.18948426468E+02 -0.17683957855E+02  0.25925956581E+02  0.51100000000E-03 0.  1.
         12    1    3    3    0    0 -0.14056297355E+02  0.12204976872E+02  0.50810508065E+01  0.19296580865E+02  0.00000000000E+00 0. -1.
</event>
<event>
 7    1  0.3220798E-013  0.5930194E+02  0.7816164E-02  0.1266605E+00
        -11   -1    0    0    0    0  0.00000000000E+00  0.00000000000E+00  0.45593999997E+02  0.45594000000E+02  0.51100000000E-03 0.  1.
         11   -1    0    0    0    0 -0.00000000000E+00 -0.00000000000E+00 -0.45593999997E+02  0.45594000000E+02  0.51100000000E-03 0. -1.
    9900012    2    1    2    0    0  0.13624026097E+02  0.28554195497E+02 -0.39704523907E+01  0.59301942549E+02  0.49999997303E+02 0.  0.
         12    1    1    2    0    0 -0.13624026097E+02 -0.28554195497E+02  0.39704523907E+01  0.31886057451E+02  0.00000000000E+00 0. -1.
         11    1    3    3    0    0  0.24302840186E+02  0.12194824061E+02  0.12198362522E+02  0.29801708398E+02  0.51100000000E-03 0. -1.
        -11    1    3    3    0    0 -0.17644437945E+01  0.98626902115E+01 -0.11234359487E+00  0.10019907258E+02  0.51100000000E-03 0.  1.
        -12    1    3    3    0    0 -0.89143702940E+01  0.64966812249E+01 -0.16056471318E+02  0.19480326893E+02  0.00000000000E+00 0.  1.
</event>
<event>
 7    1  0.3220798E-013  0.5930197E+02  0.7816164E-02  0.1266605E+00
        -11   -1    0    0    0    0  0.00000000000E+00  0.00000000000E+00  0.45593999997E+02  0.45594000000E+02  0.51100000000E-03 0.  1.
         11   -1    0    0    0    0 -0.00000000000E+00 -0.00000000000E+00 -0.45593999997E+02  0.45594000000E+02  0.51100000000E-03 0. -1.
    9900012    2    1    2    0    0  0.36923563204E+01  0.11460783986E+02  0.29525175842E+02  0.59301967426E+02  0.50000042673E+02 0.  0.
         12    1    1    2    0    0 -0.36923563204E+01 -0.11460783986E+02 -0.29525175842E+02  0.31886032574E+02  0.00000000000E+00 0. -1.
         11    1    3    3    0    0  0.55799052357E+01 -0.91674901231E+01  0.64027760417E+01  0.12496949984E+02  0.51100000000E-03 0. -1.
        -11    1    3    3    0    0  0.15147319383E+02  0.17158066824E+02  0.16440786366E+02  0.28180489673E+02  0.51100000000E-03 0.  1.
         12    1    3    3    0    0 -0.17034868298E+02  0.34702072845E+01  0.66816134344E+01  0.18624527769E+02  0.00000000000E+00 0. -1.
</event>
<event>
 7    1  0.3220798E-013  0.5930194E+02  0.7816164E-02  0.1266605E+00
        -11   -1    0    0    0    0  0.00000000000E+00  0.00000000000E+00  0.45593999997E+02  0.45594000000E+02  0.51100000000E-03 0.  1.
         11   -1    0    0    0    0 -0.00000000000E+00 -0.00000000000E+00 -0.45593999997E+02  0.45594000000E+02  0.51100000000E-03 0. -1.
    9900012    2    1    2    0    0  0.24343036278E+02 -0.18201020433E+02 -0.96363918069E+01  0.59301943375E+02  0.49999998810E+02 0.  0.
         12    1    1    2    0    0 -0.24343036278E+02  0.18201020433E+02  0.96363918069E+01  0.31886056625E+02  0.00000000000E+00 0. -1.
         11    1    3    3    0    0  0.57386892032E+01  0.85667095943E+01 -0.31176226815E+00  0.10315922790E+02  0.51100000000E-03 0. -1.
        -11    1    3    3    0    0 -0.32784605461E+01 -0.13844321660E+02 -0.17254461930E+02  0.22363586531E+02  0.51100000000E-03 0.  1.
         12    1    3    3    0    0  0.21882807621E+02 -0.12923408367E+02  0.79298323909E+01  0.26622434054E+02  0.00000000000E+00 0. -1.
</event>
<event>
 7    1  0.3220798E-013  0.5930195E+02  0.7816164E-02  0.1266605E+00
        -11   -1    0    0    0    0  0.00000000000E+00  0.00000000000E+00  0.45593999997E+02  0.45594000000E+02  0.51100000000E-03 0. -1.
         11   -1    0    0    0    0 -0.00000000000E+00 -0.00000000000E+00 -0.45593999997E+02  0.45594000000E+02  0.51100000000E-03 0.  1.
    9900012    2    1    2    0    0  0.12954619592E+02 -0.12579243124E+02 -0.26280421614E+02  0.59301951538E+02  0.50000013696E+02 0.  0.
         12    1    1    2    0    0 -0.12954619592E+02  0.12579243124E+02  0.26280421614E+02  0.31886048462E+02  0.00000000000E+00 0. -1.
         11    1    3    3    0    0 -0.14724127649E+02  0.11886904083E+01 -0.44947676812E+01  0.15440720731E+02  0.51100000000E-03 0. -1.
        -11    1    3    3    0    0  0.37850221230E+01 -0.71899881160E+01 -0.16686154274E+02  0.18559365999E+02  0.51100000000E-03 0.  1.
        -12    1    3    3    0    0  0.23893725119E+02 -0.65779454161E+01 -0.50994996584E+01  0.25301864807E+02  0.00000000000E+00 0.  1.
</event>
<event>
 7    1  0.3220798E-013  0.5930172E+02  0.7816164E-02  0.1266606E+00
        -11   -1    0    0    0    0  0.00000000000E+00  0.00000000000E+00  0.45593999997E+02  0.45594000000E+02  0.51100000000E-03 0. -1.
         11   -1    0    0    0    0 -0.00000000000E+00 -0.00000000000E+00 -0.45593999997E+02  0.45594000000E+02  0.51100000000E-03 0.  1.
    9900012    2    1    2    0    0 -0.11125212908E+02  0.29311642152E+02 -0.58130794427E+01  0.59301723633E+02  0.49999598052E+02 0.  0.
         12    1    1    2    0    0  0.11125212908E+02 -0.29311642152E+02  0.58130794427E+01  0.31886276367E+02  0.00000000000E+00 0. -1.
         11    1    3    3    0    0 -0.14802609321E+02  0.36672320733E+02 -0.15825208021E+02  0.42595933607E+02  0.51100000000E-03 0.  1.
        -11    1    3    3    0    0  0.39830314095E+01 -0.23721755351E+01 -0.88278774533E+00  0.47192235000E+01  0.51100000000E-03 0. -1.
        -12    1    3    3    0    0 -0.30563499590E+00 -0.49885030456E+01  0.10894916324E+02  0.11986566526E+02  0.00000000000E+00 0.  1.
</event>
<event>
 7    1  0.3220798E-013  0.5930192E+02  0.7816164E-02  0.1266605E+00
        -11   -1    0    0    0    0  0.00000000000E+00  0.00000000000E+00  0.45593999997E+02  0.45594000000E+02  0.51100000000E-03 0. -1.
         11   -1    0    0    0    0 -0.00000000000E+00 -0.00000000000E+00 -0.45593999997E+02  0.45594000000E+02  0.51100000000E-03 0.  1.
    9900012    2    1    2    0    0 -0.19926443089E+02 -0.21486525389E+02 -0.12569323816E+02  0.59301924533E+02  0.49999964447E+02 0.  0.
         12    1    1    2    0    0  0.19926443089E+02  0.21486525389E+02  0.12569323816E+02  0.31886075467E+02  0.00000000000E+00 0. -1.
         11    1    3    3    0    0  0.12432039392E+02 -0.29138539870E+01 -0.38285273662E+00  0.12774690798E+02  0.51100000000E-03 0. -1.
        -11    1    3    3    0    0 -0.50844812739E+01 -0.15331779026E+02  0.74364989544E+00  0.16169984952E+02  0.51100000000E-03 0.  1.
         12    1    3    3    0    0 -0.27274001207E+02 -0.32408923756E+01 -0.12930120975E+02  0.30357248783E+02  0.00000000000E+00 0. -1.
</event>
<event>
 7    1  0.3220798E-013  0.5930194E+02  0.7816164E-02  0.1266605E+00
        -11   -1    0    0    0    0  0.00000000000E+00  0.00000000000E+00  0.45593999997E+02  0.45594000000E+02  0.51100000000E-03 0.  1.
         11   -1    0    0    0    0 -0.00000000000E+00 -0.00000000000E+00 -0.45593999997E+02  0.45594000000E+02  0.51100000000E-03 0. -1.
    9900012    2    1    2    0    0 -0.12820923747E+02 -0.19977638334E+02  0.21289396291E+02  0.59301944841E+02  0.50000001484E+02 0.  0.
         12    1    1    2    0    0  0.12820923747E+02  0.19977638334E+02 -0.21289396291E+02  0.31886055159E+02  0.00000000000E+00 0. -1.
         11    1    3    3    0    0 -0.26302860542E+02 -0.11829349240E+02  0.13169436938E+02  0.31705016096E+02  0.51100000000E-03 0. -1.
        -11    1    3    3    0    0 -0.40511414277E+01 -0.73646740340E+01  0.37587365506E+00  0.84137656112E+01  0.51100000000E-03 0.  1.
         12    1    3    3    0    0  0.17533078223E+02 -0.78361506078E+00  0.77440856985E+01  0.19183163134E+02  0.00000000000E+00 0. -1.
</event>
<event>
 7    1  0.3220798E-013  0.5930196E+02  0.7816164E-02  0.1266605E+00
        -11   -1    0    0    0    0  0.00000000000E+00  0.00000000000E+00  0.45593999997E+02  0.45594000000E+02  0.51100000000E-03 0.  1.
         11   -1    0    0    0    0 -0.00000000000E+00 -0.00000000000E+00 -0.45593999997E+02  0.45594000000E+02  0.51100000000E-03 0. -1.
    9900012    2    1    2    0    0  0.21442157261E+02  0.23314990694E+02  0.36557335712E+01  0.59301964075E+02  0.50000036562E+02 0.  0.
         12    1    1    2    0    0 -0.21442157261E+02 -0.23314990694E+02 -0.36557335712E+01  0.31886035925E+02  0.00000000000E+00 0. -1.
         11    1    3    3    0    0  0.79058376189E+01  0.31555503064E+01  0.22269440979E+00  0.85152427596E+01  0.51100000000E-03 0. -1.
        -11    1    3    3    0    0  0.29863871755E+02  0.14521258583E+02  0.43383692342E+01  0.33489389886E+02  0.51100000000E-03 0.  1.
         12    1    3    3    0    0 -0.16327552113E+02  0.56381818042E+01 -0.90533007282E+00  0.17297331430E+02  0.00000000000E+00 0. -1.
</event>
<event>
 7    1  0.3220798E-013  0.5930195E+02  0.7816164E-02  0.1266605E+00
        -11   -1    0    0    0    0  0.00000000000E+00  0.00000000000E+00  0.45593999997E+02  0.45594000000E+02  0.51100000000E-03 0.  1.
         11   -1    0    0    0    0 -0.00000000000E+00 -0.00000000000E+00 -0.45593999997E+02  0.45594000000E+02  0.51100000000E-03 0. -1.
    9900012    2    1    2    0    0 -0.28304803895E+02 -0.12865114540E+02 -0.70743890759E+01  0.59301951695E+02  0.50000013984E+02 0.  0.
         12    1    1    2    0    0  0.28304803895E+02  0.12865114540E+02  0.70743890759E+01  0.31886048305E+02  0.00000000000E+00 0. -1.
         11    1    3    3    0    0  0.28665142173E+00  0.76068522366E+01 -0.10333202047E+02  0.12834384862E+02  0.51100000000E-03 0. -1.
        -11    1    3    3    0    0 -0.15268909870E+02 -0.14790616503E+00  0.13226357984E+02  0.20201436351E+02  0.51100000000E-03 0.  1.
         12    1    3    3    0    0 -0.13322545447E+02 -0.20324060611E+02 -0.99675450134E+01  0.26266130482E+02  0.00000000000E+00 0. -1.
</event>
<event>
 7    1  0.3220798E-013  0.5930191E+02  0.7816164E-02  0.1266605E+00
        -11   -1    0    0    0    0  0.00000000000E+00  0.00000000000E+00  0.45593999997E+02  0.45594000000E+02  0.51100000000E-03 0. -1.
         11   -1    0    0    0    0 -0.00000000000E+00 -0.00000000000E+00 -0.45593999997E+02  0.45594000000E+02  0.51100000000E-03 0.  1.
    9900012    2    1    2    0    0  0.70866241660E+01  0.26693374555E+02 -0.15936308941E+02  0.59301914793E+02  0.49999946682E+02 0.  0.
         12    1    1    2    0    0 -0.70866241660E+01 -0.26693374555E+02  0.15936308941E+02  0.31886085207E+02  0.00000000000E+00 0. -1.
         11    1    3    3    0    0  0.10414476502E+02  0.82752267014E+01 -0.74541538444E+01  0.15248118165E+02  0.51100000000E-03 0. -1.
        -11    1    3    3    0    0 -0.89103611187E+01  0.26144673731E+02 -0.15993660620E+02  0.31917639012E+02  0.51100000000E-03 0.  1.
         12    1    3    3    0    0  0.55825087824E+01 -0.77265258775E+01  0.75115055241E+01  0.12136157616E+02  0.00000000000E+00 0. -1.
</event>
<event>
 7    1  0.3220798E-013  0.5930195E+02  0.7816164E-02  0.1266605E+00
        -11   -1    0    0    0    0  0.00000000000E+00  0.00000000000E+00  0.45593999997E+02  0.45594000000E+02  0.51100000000E-03 0.  1.
         11   -1    0    0    0    0 -0.00000000000E+00 -0.00000000000E+00 -0.45593999997E+02  0.45594000000E+02  0.51100000000E-03 0. -1.
    9900012    2    1    2    0    0  0.30656063875E+02 -0.11876896495E+01  0.86899503517E+01  0.59301951388E+02  0.50000013423E+02 0.  0.
         12    1    1    2    0    0 -0.30656063875E+02  0.11876896495E+01 -0.86899503517E+01  0.31886048612E+02  0.00000000000E+00 0. -1.
         11    1    3    3    0    0 -0.57750315822E+01 -0.30726310760E+01 -0.12465581335E+02  0.14077740223E+02  0.51100000000E-03 0. -1.
        -11    1    3    3    0    0  0.82666519742E+01  0.55716265112E+01  0.27902441699E+00  0.99728838221E+01  0.51100000000E-03 0.  1.
        -12    1    3    3    0    0  0.28164443483E+02 -0.36866850847E+01  0.20876507270E+02  0.35251327342E+02  0.00000000000E+00 0.  1.
</event>
<event>
 7    1  0.3220798E-013  0.5930192E+02  0.7816164E-02  0.1266605E+00
        -11   -1    0    0    0    0  0.00000000000E+00  0.00000000000E+00  0.45593999997E+02  0.45594000000E+02  0.51100000000E-03 0.  1.
         11   -1    0    0    0    0 -0.00000000000E+00 -0.00000000000E+00 -0.45593999997E+02  0.45594000000E+02  0.51100000000E-03 0. -1.
    9900012    2    1    2    0    0  0.14535896601E+02  0.23333888618E+02  0.16154245090E+02  0.59301917104E+02  0.49999950898E+02 0.  0.
         12    1    1    2    0    0 -0.14535896601E+02 -0.23333888618E+02 -0.16154245090E+02  0.31886082896E+02  0.00000000000E+00 0. -1.
         11    1    3    3    0    0 -0.89785249909E+01 -0.11702243015E+01 -0.24838332221E+01  0.93889703197E+01  0.51100000000E-03 0. -1.
        -11    1    3    3    0    0  0.40661634041E+01 -0.21227087994E+01  0.16214656293E+02  0.16850954170E+02  0.51100000000E-03 0.  1.
         12    1    3    3    0    0  0.19448258188E+02  0.26626821719E+02  0.24234220189E+01  0.33061992615E+02  0.00000000000E+00 0. -1.
</event>
<event>
 7    1  0.3220798E-013  0.5930194E+02  0.7816164E-02  0.1266605E+00
        -11   -1    0    0    0    0  0.00000000000E+00  0.00000000000E+00  0.45593999997E+02  0.45594000000E+02  0.51100000000E-03 0.  1.
         11   -1    0    0    0    0 -0.00000000000E+00 -0.00000000000E+00 -0.45593999997E+02  0.45594000000E+02  0.51100000000E-03 0. -1.
    9900012    2    1    2    0    0 -0.18005497183E+02 -0.17864652604E+02  0.19322961941E+02  0.59301943492E+02  0.49999999022E+02 0.  0.
         12    1    1    2    0    0  0.18005497183E+02  0.17864652604E+02 -0.19322961941E+02  0.31886056508E+02  0.00000000000E+00 0. -1.
         11    1    3    3    0    0 -0.14645085217E+00 -0.10095667623E+02  0.14963738184E+02  0.18051521081E+02  0.51100000000E-03 0.  1.
        -11    1    3    3    0    0 -0.18701146969E+02 -0.18432622574E+01  0.18206492326E+02  0.26164993345E+02  0.51100000000E-03 0. -1.
         12    1    3    3    0    0  0.84210063830E+00 -0.59257227237E+01 -0.13847268569E+02  0.15085429066E+02  0.00000000000E+00 0. -1.
</event>
<event>
 7    1  0.3220798E-013  0.5930194E+02  0.7816164E-02  0.1266605E+00
        -11   -1    0    0    0    0  0.00000000000E+00  0.00000000000E+00  0.45593999997E+02  0.45594000000E+02  0.51100000000E-03 0.  1.
         11   -1    0    0    0    0 -0.00000000000E+00 -0.00000000000E+00 -0.45593999997E+02  0.45594000000E+02  0.51100000000E-03 0. -1.
    9900012    2    1    2    0    0 -0.27664350596E+02  0.88987271612E+01  0.13123161483E+02  0.59301937116E+02  0.49999987394E+02 0.  0.
         12    1    1    2    0    0  0.27664350596E+02 -0.88987271612E+01 -0.13123161483E+02  0.31886062884E+02  0.00000000000E+00 0. -1.
         11    1    3    3    0    0 -0.31380857948E+01 -0.11215566063E+02 -0.99024048330E+00  0.11688330977E+02  0.51100000000E-03 0. -1.
        -11    1    3    3    0    0 -0.76346542368E+01  0.12799296331E+02 -0.94996108806E+01  0.17673498211E+02  0.51100000000E-03 0.  1.
         12    1    3    3    0    0 -0.16891610564E+02  0.73149968928E+01  0.23613012846E+02  0.29940107927E+02  0.00000000000E+00 0. -1.
</event>
<event>
 7    1  0.3220798E-013  0.5930196E+02  0.7816164E-02  0.1266605E+00
        -11   -1    0    0    0    0  0.00000000000E+00  0.00000000000E+00  0.45593999997E+02  0.45594000000E+02  0.51100000000E-03 0. -1.
         11   -1    0    0    0    0 -0.00000000000E+00 -0.00000000000E+00 -0.45593999997E+02  0.45594000000E+02  0.51100000000E-03 0.  1.
    9900012    2    1    2    0    0  0.12948267734E+02  0.26056012113E+02 -0.13044000423E+02  0.59301963062E+02  0.50000034714E+02 0.  0.
         12    1    1    2    0    0 -0.12948267734E+02 -0.26056012113E+02  0.13044000423E+02  0.31886036938E+02  0.00000000000E+00 0. -1.
         11    1    3    3    0    0  0.84858510162E+01 -0.56890736736E+01 -0.71147599614E+01  0.12449700250E+02  0.51100000000E-03 0. -1.
        -11    1    3    3    0    0  0.17937123489E+02  0.14504328685E+02  0.29142947292E+01  0.23251001348E+02  0.51100000000E-03 0.  1.
         12    1    3    3    0    0 -0.13474706771E+02  0.17240757102E+02 -0.88435351910E+01  0.23601261464E+02  0.00000000000E+00 0. -1.
</event>
<event>
 7    1  0.3220798E-013  0.5930196E+02  0.7816164E-02  0.1266605E+00
        -11   -1    0    0    0    0  0.00000000000E+00  0.00000000000E+00  0.45593999997E+02  0.45594000000E+02  0.51100000000E-03 0. -1.
         11   -1    0    0    0    0 -0.00000000000E+00 -0.00000000000E+00 -0.45593999997E+02  0.45594000000E+02  0.51100000000E-03 0.  1.
    9900012    2    1    2    0    0 -0.17745222969E+02  0.25060902532E+02 -0.85893960660E+01  0.59301960755E+02  0.50000030507E+02 0.  0.
         12    1    1    2    0    0  0.17745222969E+02 -0.25060902532E+02  0.85893960660E+01  0.31886039245E+02  0.00000000000E+00 0. -1.
         11    1    3    3    0    0 -0.12105094809E+02  0.62837554934E+01 -0.33393734951E+01  0.14041734901E+02  0.51100000000E-03 0.  1.
        -11    1    3    3    0    0 -0.40409198503E+01  0.14669517386E+02  0.16862451703E+02  0.22712684810E+02  0.51100000000E-03 0. -1.
         12    1    3    3    0    0 -0.15992083098E+01  0.41076296530E+01 -0.22112474274E+02  0.22547541044E+02  0.00000000000E+00 0. -1.
</event>
<event>
 7    1  0.3220798E-013  0.5930194E+02  0.7816164E-02  0.1266605E+00
        -11   -1    0    0    0    0  0.00000000000E+00  0.00000000000E+00  0.45593999997E+02  0.45594000000E+02  0.51100000000E-03 0.  1.
         11   -1    0    0    0    0 -0.00000000000E+00 -0.00000000000E+00 -0.45593999997E+02  0.45594000000E+02  0.51100000000E-03 0. -1.
    9900012    2    1    2    0    0 -0.12257565371E+02 -0.26979478317E+02 -0.11772035550E+02  0.59301937526E+02  0.49999988142E+02 0.  0.
         12    1    1    2    0    0  0.12257565371E+02  0.26979478317E+02  0.11772035550E+02  0.31886062474E+02  0.00000000000E+00 0. -1.
         11    1    3    3    0    0 -0.11176056653E+02 -0.36644946297E+01 -0.13965671506E+02  0.18258497860E+02  0.51100000000E-03 0. -1.
        -11    1    3    3    0    0 -0.13446410749E+02 -0.17496365120E+02  0.11130893438E+02  0.24714885058E+02  0.51100000000E-03 0.  1.
        -12    1    3    3    0    0  0.12364902032E+02 -0.58186185673E+01 -0.89372574821E+01  0.16328554608E+02  0.00000000000E+00 0.  1.
</event>
<event>
 7    1  0.3220798E-013  0.5930195E+02  0.7816164E-02  0.1266605E+00
        -11   -1    0    0    0    0  0.00000000000E+00  0.00000000000E+00  0.45593999997E+02  0.45594000000E+02  0.51100000000E-03 0.  1.
         11   -1    0    0    0    0 -0.00000000000E+00 -0.00000000000E+00 -0.45593999997E+02  0.45594000000E+02  0.51100000000E-03 0. -1.
    9900012    2    1    2    0    0  0.21752086843E+02  0.16044046508E+02  0.16916128015E+02  0.59301951367E+02  0.50000013385E+02 0.  0.
         12    1    1    2    0    0 -0.21752086843E+02 -0.16044046508E+02 -0.16916128015E+02  0.31886048633E+02  0.00000000000E+00 0. -1.
         11    1    3    3    0    0  0.23983056653E+02 -0.80990314160E+01  0.11532037185E+02  0.27816707177E+02  0.51100000000E-03 0. -1.
        -11    1    3    3    0    0  0.10292368462E+01  0.69337943472E+01 -0.70991015479E+01  0.99766765800E+01  0.51100000000E-03 0.  1.
        -12    1    3    3    0    0 -0.32602066560E+01  0.17209283577E+02  0.12483192378E+02  0.21508567610E+02  0.00000000000E+00 0.  1.
</event>
<event>
 7    1  0.3220798E-013  0.5930195E+02  0.7816164E-02  0.1266605E+00
        -11   -1    0    0    0    0  0.00000000000E+00  0.00000000000E+00  0.45593999997E+02  0.45594000000E+02  0.51100000000E-03 0. -1.
         11   -1    0    0    0    0 -0.00000000000E+00 -0.00000000000E+00 -0.45593999997E+02  0.45594000000E+02  0.51100000000E-03 0.  1.
    9900012    2    1    2    0    0 -0.15562680531E+01 -0.26171035634E+02 -0.18148688328E+02  0.59301953453E+02  0.50000017189E+02 0.  0.
         12    1    1    2    0    0  0.15562680531E+01  0.26171035634E+02  0.18148688328E+02  0.31886046547E+02  0.00000000000E+00 0. -1.
         11    1    3    3    0    0  0.77946106420E+01 -0.56147346582E+01 -0.39451272215E+01  0.10384855772E+02  0.51100000000E-03 0. -1.
        -11    1    3    3    0    0  0.65750455588E+01 -0.28268528241E+02 -0.73339376908E+01  0.29935389681E+02  0.51100000000E-03 0.  1.
         12    1    3    3    0    0 -0.15925924254E+02  0.77122272655E+01 -0.68696234153E+01  0.18981708000E+02  0.00000000000E+00 0. -1.
</event>
<event>
 7    1  0.3220798E-013  0.5930196E+02  0.7816164E-02  0.1266605E+00
        -11   -1    0    0    0    0  0.00000000000E+00  0.00000000000E+00  0.45593999997E+02  0.45594000000E+02  0.51100000000E-03 0.  1.
         11   -1    0    0    0    0 -0.00000000000E+00 -0.00000000000E+00 -0.45593999997E+02  0.45594000000E+02  0.51100000000E-03 0. -1.
    9900012    2    1    2    0    0  0.10885660426E+02  0.29741209647E+02  0.36989428036E+01  0.59301963369E+02  0.50000035273E+02 0.  0.
         12    1    1    2    0    0 -0.10885660426E+02 -0.29741209647E+02 -0.36989428036E+01  0.31886036631E+02  0.00000000000E+00 0. -1.
         11    1    3    3    0    0 -0.12693420793E+02  0.32232029456E+01 -0.30451227589E+01  0.13445621649E+02  0.51100000000E-03 0. -1.
        -11    1    3    3    0    0  0.23108285881E+02  0.94699743512E+01  0.12407787517E+02  0.27885954922E+02  0.51100000000E-03 0.  1.
         12    1    3    3    0    0  0.47079533822E+00  0.17048032350E+02 -0.56637219543E+01  0.17970386797E+02  0.00000000000E+00 0. -1.
</event>
<event>
 7    1  0.3220798E-013  0.5930194E+02  0.7816164E-02  0.1266605E+00
        -11   -1    0    0    0    0  0.00000000000E+00  0.00000000000E+00  0.45593999997E+02  0.45594000000E+02  0.51100000000E-03 0.  1.
         11   -1    0    0    0    0 -0.00000000000E+00 -0.00000000000E+00 -0.45593999997E+02  0.45594000000E+02  0.51100000000E-03 0. -1.
    9900012    2    1    2    0    0  0.20059105185E+02 -0.24287436062E+02  0.49470602668E+01  0.59301942600E+02  0.49999997396E+02 0.  0.
         12    1    1    2    0    0 -0.20059105185E+02  0.24287436062E+02 -0.49470602668E+01  0.31886057400E+02  0.00000000000E+00 0. -1.
         11    1    3    3    0    0 -0.24721746412E+01 -0.23755129802E+02  0.20349208041E+02  0.31376872176E+02  0.51100000000E-03 0.  1.
        -11    1    3    3    0    0  0.26190583656E+01  0.16909259434E+01 -0.31918403691E+01  0.44616748505E+01  0.51100000000E-03 0. -1.
        -12    1    3    3    0    0  0.19912221460E+02 -0.22232322028E+01 -0.12210307405E+02  0.23463395573E+02  0.00000000000E+00 0.  1.
</event>
<event>
 7    1  0.3220798E-013  0.5930199E+02  0.7816164E-02  0.1266605E+00
        -11   -1    0    0    0    0  0.00000000000E+00  0.00000000000E+00  0.45593999997E+02  0.45594000000E+02  0.51100000000E-03 0. -1.
         11   -1    0    0    0    0 -0.00000000000E+00 -0.00000000000E+00 -0.45593999997E+02  0.45594000000E+02  0.51100000000E-03 0.  1.
    9900012    2    1    2    0    0  0.85903536891E+01 -0.11085963066E+02 -0.28636081800E+02  0.59301985284E+02  0.50000075241E+02 0.  0.
         12    1    1    2    0    0 -0.85903536891E+01  0.11085963066E+02  0.28636081800E+02  0.31886014716E+02  0.00000000000E+00 0. -1.
         11    1    3    3    0    0  0.11504045150E+02  0.13077775784E+02 -0.20372461526E+02  0.26803142785E+02  0.51100000000E-03 0. -1.
        -11    1    3    3    0    0  0.85534437080E+01 -0.10732811851E+02 -0.44886837497E+01  0.14439630589E+02  0.51100000000E-03 0.  1.
        -12    1    3    3    0    0 -0.11467135169E+02 -0.13430926999E+02 -0.37749365248E+01  0.18059211910E+02  0.00000000000E+00 0.  1.
</event>
<event>
 7    1  0.5392501E-013  0.5930215E+02  0.7816164E-02  0.1266604E+00
        -11   -1    0    0    0    0  0.00000000000E+00  0.00000000000E+00  0.45593999997E+02  0.45594000000E+02  0.51100000000E-03 0. -1.
         11   -1    0    0    0    0 -0.00000000000E+00 -0.00000000000E+00 -0.45593999997E+02  0.45594000000E+02  0.51100000000E-03 0.  1.
    9900012    2    1    2    0    0  0.17525416829E+02 -0.11121361145E+02 -0.24205016611E+02  0.59302145175E+02  0.50000366843E+02 0.  0.
         12    1    1    2    0    0 -0.17525416829E+02  0.11121361145E+02  0.24205016611E+02  0.31885854825E+02  0.00000000000E+00 0. -1.
         11    1    3    3    0    0  0.67872109708E+01 -0.95670132592E+01 -0.59256711037E+01  0.13141824598E+02  0.51100000000E-03 0. -1.
        -11    1    3    3    0    0  0.12493969185E+02 -0.12345698800E+02 -0.26975795954E+02  0.32190202119E+02  0.51100000000E-03 0.  1.
         12    1    3    3    0    0 -0.17557633263E+01  0.10791350914E+02  0.86964504459E+01  0.13970118459E+02  0.00000000000E+00 0. -1.
</event>
<event>
 7    1  0.3220798E-013  0.5930198E+02  0.7816164E-02  0.1266605E+00
        -11   -1    0    0    0    0  0.00000000000E+00  0.00000000000E+00  0.45593999997E+02  0.45594000000E+02  0.51100000000E-03 0.  1.
         11   -1    0    0    0    0 -0.00000000000E+00 -0.00000000000E+00 -0.45593999997E+02  0.45594000000E+02  0.51100000000E-03 0. -1.
    9900012    2    1    2    0    0  0.69666748518E+01  0.93366751289E+01  0.29681818724E+02  0.59301977612E+02  0.50000061250E+02 0.  0.
         12    1    1    2    0    0 -0.69666748518E+01 -0.93366751289E+01 -0.29681818724E+02  0.31886022388E+02  0.00000000000E+00 0. -1.
         11    1    3    3    0    0  0.13293892682E+01 -0.11476537189E+02  0.12419803244E+02  0.16962596928E+02  0.51100000000E-03 0.  1.
        -11    1    3    3    0    0  0.26173961051E+01  0.75667048509E+01 -0.94408689326E+01  0.12378844499E+02  0.51100000000E-03 0. -1.
        -12    1    3    3    0    0  0.30198894786E+01  0.13246507467E+02  0.26702884413E+02  0.29960536185E+02  0.00000000000E+00 0.  1.
</event>
<event>
 7    1  0.3220798E-013  0.5930197E+02  0.7816164E-02  0.1266605E+00
        -11   -1    0    0    0    0  0.00000000000E+00  0.00000000000E+00  0.45593999997E+02  0.45594000000E+02  0.51100000000E-03 0.  1.
         11   -1    0    0    0    0 -0.00000000000E+00 -0.00000000000E+00 -0.45593999997E+02  0.45594000000E+02  0.51100000000E-03 0. -1.
    9900012    2    1    2    0    0  0.17180900567E+02  0.14319611641E+02  0.22726283779E+02  0.59301974907E+02  0.50000056317E+02 0.  0.
         12    1    1    2    0    0 -0.17180900567E+02 -0.14319611641E+02 -0.22726283779E+02  0.31886025093E+02  0.00000000000E+00 0. -1.
         11    1    3    3    0    0 -0.47312515568E+01 -0.14717792522E+02  0.14279508464E+01  0.15525372842E+02  0.51100000000E-03 0. -1.
        -11    1    3    3    0    0  0.15990698907E+02  0.16318234593E+02  0.73684663647E+01  0.24005864463E+02  0.51100000000E-03 0.  1.
        -12    1    3    3    0    0  0.59214532170E+01  0.12719169569E+02  0.13929866568E+02  0.19770737602E+02  0.00000000000E+00 0.  1.
</event>
<event>
 7    1  0.3220798E-013  0.5930192E+02  0.7816164E-02  0.1266605E+00
        -11   -1    0    0    0    0  0.00000000000E+00  0.00000000000E+00  0.45593999997E+02  0.45594000000E+02  0.51100000000E-03 0. -1.
         11   -1    0    0    0    0 -0.00000000000E+00 -0.00000000000E+00 -0.45593999997E+02  0.45594000000E+02  0.51100000000E-03 0.  1.
    9900012    2    1    2    0    0  0.10269803410E+02 -0.19806438281E+01 -0.30121926298E+02  0.59301917519E+02  0.49999951655E+02 0.  0.
         12    1    1    2    0    0 -0.10269803410E+02  0.19806438281E+01  0.30121926298E+02  0.31886082481E+02  0.00000000000E+00 0. -1.
         11    1    3    3    0    0 -0.64846262733E+01  0.72788709935E+01  0.85010788918E+01  0.12934476543E+02  0.51100000000E-03 0. -1.
        -11    1    3    3    0    0  0.82075730178E+01 -0.12067123345E+02 -0.14291648453E+02  0.20426231577E+02  0.51100000000E-03 0.  1.
        -12    1    3    3    0    0  0.85468566655E+01  0.28076085230E+01 -0.24331356737E+02  0.25941209400E+02  0.00000000000E+00 0.  1.
</event>
<event>
 7    1  0.3220798E-013  0.5930195E+02  0.7816164E-02  0.1266605E+00
        -11   -1    0    0    0    0  0.00000000000E+00  0.00000000000E+00  0.45593999997E+02  0.45594000000E+02  0.51100000000E-03 0. -1.
         11   -1    0    0    0    0 -0.00000000000E+00 -0.00000000000E+00 -0.45593999997E+02  0.45594000000E+02  0.51100000000E-03 0.  1.
    9900012    2    1    2    0    0  0.20771489296E+02  0.29961899043E+01 -0.24006004431E+02  0.59301950225E+02  0.50000011302E+02 0.  0.
         12    1    1    2    0    0 -0.20771489296E+02 -0.29961899043E+01  0.24006004431E+02  0.31886049775E+02  0.00000000000E+00 0. -1.
         11    1    3    3    0    0  0.75433985855E+01  0.23489010378E+02 -0.50273399272E+01  0.25177581650E+02  0.51100000000E-03 0. -1.
        -11    1    3    3    0    0 -0.52834104571E+00  0.15621057934E+01  0.40649396387E+00  0.16983981789E+01  0.51100000000E-03 0.  1.
        -12    1    3    3    0    0  0.13756431756E+02 -0.22054926267E+02 -0.19385158468E+02  0.32425970396E+02  0.00000000000E+00 0.  1.
</event>
<event>
 7    1  0.3220798E-013  0.5930195E+02  0.7816164E-02  0.1266605E+00
        -11   -1    0    0    0    0  0.00000000000E+00  0.00000000000E+00  0.45593999997E+02  0.45594000000E+02  0.51100000000E-03 0.  1.
         11   -1    0    0    0    0 -0.00000000000E+00 -0.00000000000E+00 -0.45593999997E+02  0.45594000000E+02  0.51100000000E-03 0. -1.
    9900012    2    1    2    0    0 -0.11747489945E+02 -0.29489302007E+02  0.30162896950E+01  0.59301945738E+02  0.50000003120E+02 0.  0.
         12    1    1    2    0    0  0.11747489945E+02  0.29489302007E+02 -0.30162896950E+01  0.31886054262E+02  0.00000000000E+00 0. -1.
         11    1    3    3    0    0  0.71014881140E+01  0.10420254711E+02 -0.46438669079E+01  0.13437944106E+02  0.51100000000E-03 0. -1.
        -11    1    3    3    0    0 -0.85184733340E+01 -0.10937111835E+02  0.58646749796E+01  0.15052548492E+02  0.51100000000E-03 0.  1.
        -12    1    3    3    0    0 -0.10330504725E+02 -0.28972444883E+02  0.17954816233E+01  0.30811453140E+02  0.00000000000E+00 0.  1.
</event>
<event>
 7    1  0.3220798E-013  0.5930194E+02  0.7816164E-02  0.1266605E+00
        -11   -1    0    0    0    0  0.00000000000E+00  0.00000000000E+00  0.45593999997E+02  0.45594000000E+02  0.51100000000E-03 0. -1.
         11   -1    0    0    0    0 -0.00000000000E+00 -0.00000000000E+00 -0.45593999997E+02  0.45594000000E+02  0.51100000000E-03 0.  1.
    9900012    2    1    2    0    0  0.23303676706E+02  0.20527466136E+01  0.21666695849E+02  0.59301939947E+02  0.49999992558E+02 0.  0.
         12    1    1    2    0    0 -0.23303676706E+02 -0.20527466136E+01 -0.21666695849E+02  0.31886060053E+02  0.00000000000E+00 0. -1.
         11    1    3    3    0    0  0.70794892178E+01 -0.64789624594E+01 -0.95094635852E+01  0.13510219098E+02  0.51100000000E-03 0. -1.
        -11    1    3    3    0    0  0.16563662897E+02  0.82195258372E+00  0.33549210049E+01  0.16919989061E+02  0.51100000000E-03 0.  1.
         12    1    3    3    0    0 -0.33947540872E+00  0.77097564893E+01  0.27821238429E+02  0.28871731788E+02  0.00000000000E+00 0. -1.
</event>
<event>
 7    1  0.3220798E-013  0.5930191E+02  0.7816164E-02  0.1266605E+00
        -11   -1    0    0    0    0  0.00000000000E+00  0.00000000000E+00  0.45593999997E+02  0.45594000000E+02  0.51100000000E-03 0.  1.
         11   -1    0    0    0    0 -0.00000000000E+00 -0.00000000000E+00 -0.45593999997E+02  0.45594000000E+02  0.51100000000E-03 0. -1.
    9900012    2    1    2    0    0 -0.89166985870E+01  0.22987011686E+02  0.20219111935E+02  0.59301910441E+02  0.49999938746E+02 0.  0.
         12    1    1    2    0    0  0.89166985870E+01 -0.22987011686E+02 -0.20219111935E+02  0.31886089559E+02  0.00000000000E+00 0. -1.
         11    1    3    3    0    0 -0.88567116747E+01  0.49211230296E+01  0.11347628085E+02  0.15212739957E+02  0.51100000000E-03 0.  1.
        -11    1    3    3    0    0 -0.10797071902E+01 -0.34679072597E+01 -0.12929104670E+02  0.13429590321E+02  0.51100000000E-03 0. -1.
         12    1    3    3    0    0  0.10197202779E+01  0.21533795916E+02  0.21800588519E+02  0.30659580163E+02  0.00000000000E+00 0. -1.
</event>
<event>
 7    1  0.3220798E-013  0.5930197E+02  0.7816164E-02  0.1266605E+00
        -11   -1    0    0    0    0  0.00000000000E+00  0.00000000000E+00  0.45593999997E+02  0.45594000000E+02  0.51100000000E-03 0.  1.
         11   -1    0    0    0    0 -0.00000000000E+00 -0.00000000000E+00 -0.45593999997E+02  0.45594000000E+02  0.51100000000E-03 0. -1.
    9900012    2    1    2    0    0  0.11088127745E+02  0.29331232569E+02  0.57836967281E+01  0.59301969692E+02  0.50000046806E+02 0.  0.
         12    1    1    2    0    0 -0.11088127745E+02 -0.29331232569E+02 -0.57836967281E+01  0.31886030308E+02  0.00000000000E+00 0. -1.
         11    1    3    3    0    0  0.82654868554E+00 -0.40424001114E+01  0.43721894972E+01  0.60116738643E+01  0.51100000000E-03 0. -1.
        -11    1    3    3    0    0 -0.10213657282E+02  0.18439058064E+02  0.13684949147E+02  0.25131563636E+02  0.51100000000E-03 0.  1.
         12    1    3    3    0    0  0.20475236341E+02  0.14934574617E+02 -0.12273441916E+02  0.28158732193E+02  0.00000000000E+00 0. -1.
</event>
<event>
 7    1  0.3220798E-013  0.5930195E+02  0.7816164E-02  0.1266605E+00
        -11   -1    0    0    0    0  0.00000000000E+00  0.00000000000E+00  0.45593999997E+02  0.45594000000E+02  0.51100000000E-03 0.  1.
         11   -1    0    0    0    0 -0.00000000000E+00 -0.00000000000E+00 -0.45593999997E+02  0.45594000000E+02  0.51100000000E-03 0. -1.
    9900012    2    1    2    0    0 -0.10869443693E+02  0.19927256441E+02  0.22393738949E+02  0.59301954469E+02  0.50000019042E+02 0.  0.
         12    1    1    2    0    0  0.10869443693E+02 -0.19927256441E+02 -0.22393738949E+02  0.31886045531E+02  0.00000000000E+00 0. -1.
         11    1    3    3    0    0 -0.15431750254E+02  0.12139664887E+02 -0.74080910085E+01  0.20985475742E+02  0.51100000000E-03 0. -1.
        -11    1    3    3    0    0 -0.57528884201E+01 -0.50217486414E+01  0.95728565516E+01  0.12245540715E+02  0.51100000000E-03 0.  1.
         12    1    3    3    0    0  0.10315194981E+02  0.12809340195E+02  0.20228973406E+02  0.26070938012E+02  0.00000000000E+00 0. -1.
</event>
<event>
 7    1  0.3220798E-013  0.5930195E+02  0.7816164E-02  0.1266605E+00
        -11   -1    0    0    0    0  0.00000000000E+00  0.00000000000E+00  0.45593999997E+02  0.45594000000E+02  0.51100000000E-03 0.  1.
         11   -1    0    0    0    0 -0.00000000000E+00 -0.00000000000E+00 -0.45593999997E+02  0.45594000000E+02  0.51100000000E-03 0. -1.
    9900012    2    1    2    0    0  0.29720381960E+02 -0.11502378224E+02  0.10556418781E+01  0.59301949940E+02  0.50000010782E+02 0.  0.
         12    1    1    2    0    0 -0.29720381960E+02  0.11502378224E+02 -0.10556418781E+01  0.31886050060E+02  0.00000000000E+00 0. -1.
         11    1    3    3    0    0  0.57850355295E+01 -0.12153730944E+02  0.16894371204E+02  0.21600916430E+02  0.51100000000E-03 0. -1.
        -11    1    3    3    0    0  0.79514404066E+01 -0.60364348601E+01  0.45273210409E+01  0.10961778434E+02  0.51100000000E-03 0.  1.
         12    1    3    3    0    0  0.15983906024E+02  0.66877875799E+01 -0.20366050367E+02  0.26739255077E+02  0.00000000000E+00 0. -1.
</event>
<event>
 7    1  0.3220798E-013  0.5930195E+02  0.7816164E-02  0.1266605E+00
        -11   -1    0    0    0    0  0.00000000000E+00  0.00000000000E+00  0.45593999997E+02  0.45594000000E+02  0.51100000000E-03 0.  1.
         11   -1    0    0    0    0 -0.00000000000E+00 -0.00000000000E+00 -0.45593999997E+02  0.45594000000E+02  0.51100000000E-03 0. -1.
    9900012    2    1    2    0    0  0.22197004249E+02 -0.18001649581E+02  0.14140502086E+02  0.59301950001E+02  0.50000010895E+02 0.  0.
         12    1    1    2    0    0 -0.22197004249E+02  0.18001649581E+02 -0.14140502086E+02  0.31886049999E+02  0.00000000000E+00 0. -1.
         11    1    3    3    0    0  0.13732354907E+02 -0.22350258210E+01 -0.29215976519E+01  0.14216492001E+02  0.51100000000E-03 0. -1.
        -11    1    3    3    0    0  0.62403905639E+01  0.11887628242E+02  0.91091382813E+01  0.16224505542E+02  0.51100000000E-03 0.  1.
         12    1    3    3    0    0  0.22242587787E+01 -0.27654252002E+02  0.79529614562E+01  0.28860952458E+02  0.00000000000E+00 0. -1.
</event>
<event>
 7    1  0.3220798E-013  0.5930197E+02  0.7816164E-02  0.1266605E+00
        -11   -1    0    0    0    0  0.00000000000E+00  0.00000000000E+00  0.45593999997E+02  0.45594000000E+02  0.51100000000E-03 0.  1.
         11   -1    0    0    0    0 -0.00000000000E+00 -0.00000000000E+00 -0.45593999997E+02  0.45594000000E+02  0.51100000000E-03 0. -1.
    9900012    2    1    2    0    0  0.28640268527E+02 -0.13619860941E+02  0.33096124220E+01  0.59301966572E+02  0.50000041116E+02 0.  0.
         12    1    1    2    0    0 -0.28640268527E+02  0.13619860941E+02 -0.33096124220E+01  0.31886033428E+02  0.00000000000E+00 0. -1.
         11    1    3    3    0    0  0.14846588046E+02  0.13912391927E+02  0.15923690050E+01  0.20408612521E+02  0.51100000000E-03 0. -1.
        -11    1    3    3    0    0  0.70081448605E+01  0.10506798787E+01  0.58983122183E+01  0.92199842667E+01  0.51100000000E-03 0.  1.
        -12    1    3    3    0    0  0.67855356211E+01 -0.28582932747E+02 -0.41810688013E+01  0.29673369785E+02  0.00000000000E+00 0.  1.
</event>
<event>
 7    1  0.3220798E-013  0.5930197E+02  0.7816164E-02  0.1266605E+00
        -11   -1    0    0    0    0  0.00000000000E+00  0.00000000000E+00  0.45593999997E+02  0.45594000000E+02  0.51100000000E-03 0.  1.
         11   -1    0    0    0    0 -0.00000000000E+00 -0.00000000000E+00 -0.45593999997E+02  0.45594000000E+02  0.51100000000E-03 0. -1.
    9900012    2    1    2    0    0 -0.17220559349E+02 -0.13808720904E+02  0.23010659103E+02  0.59301970620E+02  0.50000048498E+02 0.  0.
         12    1    1    2    0    0  0.17220559349E+02  0.13808720904E+02 -0.23010659103E+02  0.31886029380E+02  0.00000000000E+00 0. -1.
         11    1    3    3    0    0 -0.42519427010E+00 -0.24422596261E+02  0.16193687055E+02  0.29306645987E+02  0.51100000000E-03 0. -1.
        -11    1    3    3    0    0 -0.10151949115E+02 -0.35008632712E+01 -0.34973976903E+01  0.11293799421E+02  0.51100000000E-03 0.  1.
        -12    1    3    3    0    0 -0.66434159634E+01  0.14114738628E+02  0.10314369738E+02  0.18701525213E+02  0.00000000000E+00 0.  1.
</event>
<event>
 7    1  0.3220798E-013  0.5930195E+02  0.7816164E-02  0.1266605E+00
        -11   -1    0    0    0    0  0.00000000000E+00  0.00000000000E+00  0.45593999997E+02  0.45594000000E+02  0.51100000000E-03 0. -1.
         11   -1    0    0    0    0 -0.00000000000E+00 -0.00000000000E+00 -0.45593999997E+02  0.45594000000E+02  0.51100000000E-03 0.  1.
    9900012    2    1    2    0    0 -0.14596111780E+02 -0.12266074474E+02 -0.25558113158E+02  0.59301949598E+02  0.50000010158E+02 0.  0.
         12    1    1    2    0    0  0.14596111780E+02  0.12266074474E+02  0.25558113158E+02  0.31886050402E+02  0.00000000000E+00 0. -1.
         11    1    3    3    0    0  0.89044170525E+01  0.50050170843E+01 -0.61931990675E+01  0.11945482578E+02  0.51100000000E-03 0. -1.
        -11    1    3    3    0    0  0.45072884797E+01 -0.52866606957E+01 -0.15065831925E+02  0.16590470837E+02  0.51100000000E-03 0.  1.
         12    1    3    3    0    0 -0.28007817312E+02 -0.11984430862E+02 -0.42990821656E+01  0.30765996183E+02  0.00000000000E+00 0. -1.
</event>
<event>
 7    1  0.3220798E-013  0.5930195E+02  0.7816164E-02  0.1266605E+00
        -11   -1    0    0    0    0  0.00000000000E+00  0.00000000000E+00  0.45593999997E+02  0.45594000000E+02  0.51100000000E-03 0.  1.
         11   -1    0    0    0    0 -0.00000000000E+00 -0.00000000000E+00 -0.45593999997E+02  0.45594000000E+02  0.51100000000E-03 0. -1.
    9900012    2    1    2    0    0 -0.23116734965E+02 -0.39359245891E+01  0.21606608279E+02  0.59301945695E+02  0.50000003041E+02 0.  0.
         12    1    1    2    0    0  0.23116734965E+02  0.39359245891E+01 -0.21606608279E+02  0.31886054305E+02  0.00000000000E+00 0. -1.
         11    1    3    3    0    0 -0.66280452613E+01 -0.63402801993E+01 -0.88938944562E+01  0.12776208195E+02  0.51100000000E-03 0.  1.
        -11    1    3    3    0    0  0.77026194189E+01  0.63140371850E+01  0.49455046186E+01  0.11120046208E+02  0.51100000000E-03 0. -1.
        -12    1    3    3    0    0 -0.24191309123E+02 -0.39096815748E+01  0.25554998117E+02  0.35405691291E+02  0.00000000000E+00 0.  1.
</event>
<event>
 7    1  0.3220798E-013  0.5930195E+02  0.7816164E-02  0.1266605E+00
        -11   -1    0    0    0    0  0.00000000000E+00  0.00000000000E+00  0.45593999997E+02  0.45594000000E+02  0.51100000000E-03 0.  1.
         11   -1    0    0    0    0 -0.00000000000E+00 -0.00000000000E+00 -0.45593999997E+02  0.45594000000E+02  0.51100000000E-03 0. -1.
    9900012    2    1    2    0    0 -0.14422449839E+02 -0.37830916872E+01  0.28185130768E+02  0.59301946019E+02  0.50000003631E+02 0.  0.
         12    1    1    2    0    0  0.14422449839E+02  0.37830916872E+01 -0.28185130768E+02  0.31886053981E+02  0.00000000000E+00 0. -1.
         11    1    3    3    0    0 -0.14285362793E+01  0.74674917442E+01  0.53530507296E+01  0.92983493818E+01  0.51100000000E-03 0. -1.
        -11    1    3    3    0    0 -0.10080367693E+02  0.11531692356E+02 -0.28177173583E+01  0.15573479790E+02  0.51100000000E-03 0.  1.
        -12    1    3    3    0    0 -0.29135458669E+01 -0.22782275787E+02  0.25649797397E+02  0.34430116847E+02  0.00000000000E+00 0.  1.
</event>
<event>
 7    1  0.3220798E-013  0.5930195E+02  0.7816164E-02  0.1266605E+00
        -11   -1    0    0    0    0  0.00000000000E+00  0.00000000000E+00  0.45593999997E+02  0.45594000000E+02  0.51100000000E-03 0.  1.
         11   -1    0    0    0    0 -0.00000000000E+00 -0.00000000000E+00 -0.45593999997E+02  0.45594000000E+02  0.51100000000E-03 0. -1.
    9900012    2    1    2    0    0 -0.59103665406E+01  0.31216773289E+02  0.27020456198E+01  0.59301946344E+02  0.50000004224E+02 0.  0.
         12    1    1    2    0    0  0.59103665406E+01 -0.31216773289E+02 -0.27020456198E+01  0.31886053656E+02  0.00000000000E+00 0. -1.
         11    1    3    3    0    0 -0.11582073599E+02  0.18608680158E+02 -0.21128735824E+02  0.30444225788E+02  0.51100000000E-03 0. -1.
        -11    1    3    3    0    0  0.31285399194E+01 -0.18340117426E+00  0.34458971745E+01  0.46578541858E+01  0.51100000000E-03 0.  1.
        -12    1    3    3    0    0  0.25431671388E+01  0.12791494305E+02  0.20384884269E+02  0.24199866370E+02  0.00000000000E+00 0.  1.
</event>
<event>
 7    1  0.3220798E-013  0.5930194E+02  0.7816164E-02  0.1266605E+00
        -11   -1    0    0    0    0  0.00000000000E+00  0.00000000000E+00  0.45593999997E+02  0.45594000000E+02  0.51100000000E-03 0.  1.
         11   -1    0    0    0    0 -0.00000000000E+00 -0.00000000000E+00 -0.45593999997E+02  0.45594000000E+02  0.51100000000E-03 0. -1.
    9900012    2    1    2    0    0  0.13796309182E+01  0.12583139772E+02  0.29265714662E+02  0.59301939681E+02  0.49999992073E+02 0.  0.
         12    1    1    2    0    0 -0.13796309182E+01 -0.12583139772E+02 -0.29265714662E+02  0.31886060319E+02  0.00000000000E+00 0. -1.
         11    1    3    3    0    0  0.10445472171E+02  0.76090574232E+01 -0.62059973960E+01  0.14335970413E+02  0.51100000000E-03 0. -1.
        -11    1    3    3    0    0 -0.27715571265E+01 -0.65607053191E+00 -0.38267800115E+01  0.47703462103E+01  0.51100000000E-03 0.  1.
        -12    1    3    3    0    0 -0.62942841261E+01  0.56301528803E+01  0.39298492069E+02  0.40195623058E+02  0.00000000000E+00 0.  1.
</event>
<event>
 7    1  0.3220798E-013  0.5930195E+02  0.7816164E-02  0.1266605E+00
        -11   -1    0    0    0    0  0.00000000000E+00  0.00000000000E+00  0.45593999997E+02  0.45594000000E+02  0.51100000000E-03 0.  1.
         11   -1    0    0    0    0 -0.00000000000E+00 -0.00000000000E+00 -0.45593999997E+02  0.45594000000E+02  0.51100000000E-03 0. -1.
    9900012    2    1    2    0    0 -0.73100894634E+01  0.94961384812E+01  0.29548370410E+02  0.59301949007E+02  0.50000009081E+02 0.  0.
         12    1    1    2    0    0  0.73100894634E+01 -0.94961384812E+01 -0.29548370410E+02  0.31886050993E+02  0.00000000000E+00 0. -1.
         11    1    3    3    0    0  0.78187512120E+01  0.82294579292E+01  0.86912771410E+00  0.11384736781E+02  0.51100000000E-03 0. -1.
        -11    1    3    3    0    0  0.40495418216E+01 -0.73317424317E+01  0.25273680243E+02  0.26625404209E+02  0.51100000000E-03 0.  1.
         12    1    3    3    0    0 -0.19178382497E+02  0.85984229837E+01  0.34055624535E+01  0.21291808017E+02  0.00000000000E+00 0. -1.
</event>
<event>
 7    1  0.3220798E-013  0.5930195E+02  0.7816164E-02  0.1266605E+00
        -11   -1    0    0    0    0  0.00000000000E+00  0.00000000000E+00  0.45593999997E+02  0.45594000000E+02  0.51100000000E-03 0.  1.
         11   -1    0    0    0    0 -0.00000000000E+00 -0.00000000000E+00 -0.45593999997E+02  0.45594000000E+02  0.51100000000E-03 0. -1.
    9900012    2    1    2    0    0  0.26552147424E+02  0.30390639958E+01  0.17391607554E+02  0.59301945742E+02  0.50000003127E+02 0.  0.
         12    1    1    2    0    0 -0.26552147424E+02 -0.30390639958E+01 -0.17391607554E+02  0.31886054258E+02  0.00000000000E+00 0. -1.
         11    1    3    3    0    0  0.47638416718E+01 -0.86840905127E+01  0.19202277244E+02  0.21606366356E+02  0.51100000000E-03 0. -1.
        -11    1    3    3    0    0  0.11111235910E+02  0.73490758754E+01  0.13205907695E+02  0.18758051018E+02  0.51100000000E-03 0.  1.
         12    1    3    3    0    0  0.10677069842E+02  0.43740786332E+01 -0.15016577386E+02  0.18937528368E+02  0.00000000000E+00 0. -1.
</event>
<event>
 7    1  0.3220798E-013  0.5930197E+02  0.7816164E-02  0.1266605E+00
        -11   -1    0    0    0    0  0.00000000000E+00  0.00000000000E+00  0.45593999997E+02  0.45594000000E+02  0.51100000000E-03 0. -1.
         11   -1    0    0    0    0 -0.00000000000E+00 -0.00000000000E+00 -0.45593999997E+02  0.45594000000E+02  0.51100000000E-03 0.  1.
    9900012    2    1    2    0    0  0.15728025105E+02  0.14657308240E+02 -0.23548069262E+02  0.59301968191E+02  0.50000044068E+02 0.  0.
         12    1    1    2    0    0 -0.15728025105E+02 -0.14657308240E+02  0.23548069262E+02  0.31886031809E+02  0.00000000000E+00 0. -1.
         11    1    3    3    0    0 -0.10877886493E+02  0.93056254803E+01 -0.44179602943E-01  0.14315202836E+02  0.51100000000E-03 0. -1.
        -11    1    3    3    0    0  0.49333139061E+01  0.90715574781E+01  0.28029819445E+01  0.10699880804E+02  0.51100000000E-03 0.  1.
         12    1    3    3    0    0  0.21672597693E+02 -0.37198747183E+01 -0.26306871603E+02  0.34286884551E+02  0.00000000000E+00 0. -1.
</event>
<event>
 7    1  0.3220798E-013  0.5930196E+02  0.7816164E-02  0.1266605E+00
        -11   -1    0    0    0    0  0.00000000000E+00  0.00000000000E+00  0.45593999997E+02  0.45594000000E+02  0.51100000000E-03 0. -1.
         11   -1    0    0    0    0 -0.00000000000E+00 -0.00000000000E+00 -0.45593999997E+02  0.45594000000E+02  0.51100000000E-03 0.  1.
    9900012    2    1    2    0    0 -0.28965700850E+02  0.26378951663E+01  0.13067113074E+02  0.59301956647E+02  0.50000023014E+02 0.  0.
         12    1    1    2    0    0  0.28965700850E+02 -0.26378951663E+01 -0.13067113074E+02  0.31886043353E+02  0.00000000000E+00 0. -1.
         11    1    3    3    0    0  0.46476802605E+01 -0.11383703566E+01 -0.17371750889E+01  0.50906381155E+01  0.51100000000E-03 0. -1.
        -11    1    3    3    0    0 -0.80278774510E+01 -0.57651599514E+01  0.23548665359E+02  0.25538667273E+02  0.51100000000E-03 0.  1.
        -12    1    3    3    0    0 -0.25585503660E+02  0.95414254743E+01 -0.87443771963E+01  0.28672651258E+02  0.00000000000E+00 0.  1.
</event>
<event>
 7    1  0.3220798E-013  0.5930190E+02  0.7816164E-02  0.1266605E+00
        -11   -1    0    0    0    0  0.00000000000E+00  0.00000000000E+00  0.45593999997E+02  0.45594000000E+02  0.51100000000E-03 0.  1.
         11   -1    0    0    0    0 -0.00000000000E+00 -0.00000000000E+00 -0.45593999997E+02  0.45594000000E+02  0.51100000000E-03 0. -1.
    9900012    2    1    2    0    0 -0.29358800377E+01 -0.31354784063E+02 -0.49981694148E+01  0.59301896871E+02  0.49999913998E+02 0.  0.
         12    1    1    2    0    0  0.29358800377E+01  0.31354784063E+02  0.49981694148E+01  0.31886103129E+02  0.00000000000E+00 0. -1.
         11    1    3    3    0    0  0.10635009340E+01 -0.11814344020E+02 -0.32750374102E+01  0.12305918461E+02  0.51100000000E-03 0. -1.
        -11    1    3    3    0    0 -0.14250035862E+02 -0.29328004965E+02 -0.31135572365E+01  0.32754994065E+02  0.51100000000E-03 0.  1.
         12    1    3    3    0    0  0.10250654891E+02  0.97875649223E+01  0.13904252319E+01  0.14240984345E+02  0.00000000000E+00 0. -1.
</event>
<event>
 7    1  0.3220798E-013  0.5930196E+02  0.7816164E-02  0.1266605E+00
        -11   -1    0    0    0    0  0.00000000000E+00  0.00000000000E+00  0.45593999997E+02  0.45594000000E+02  0.51100000000E-03 0.  1.
         11   -1    0    0    0    0 -0.00000000000E+00 -0.00000000000E+00 -0.45593999997E+02  0.45594000000E+02  0.51100000000E-03 0. -1.
    9900012    2    1    2    0    0  0.29117189404E+02  0.11788997277E+02  0.54707067550E+01  0.59301955906E+02  0.50000021662E+02 0.  0.
         12    1    1    2    0    0 -0.29117189404E+02 -0.11788997277E+02 -0.54707067550E+01  0.31886044094E+02  0.00000000000E+00 0. -1.
         11    1    3    3    0    0 -0.39215345629E+00 -0.67660746411E+01  0.63885317561E+01  0.93138009771E+01  0.51100000000E-03 0. -1.
        -11    1    3    3    0    0  0.11089430942E+02 -0.10249516765E+02  0.35349034946E+01  0.15508823796E+02  0.51100000000E-03 0.  1.
        -12    1    3    3    0    0  0.18419911918E+02  0.28804588684E+02 -0.44527284957E+01  0.34479331133E+02  0.00000000000E+00 0.  1.
</event>
<event>
 7    1  0.3220798E-013  0.5930194E+02  0.7816164E-02  0.1266605E+00
        -11   -1    0    0    0    0  0.00000000000E+00  0.00000000000E+00  0.45593999997E+02  0.45594000000E+02  0.51100000000E-03 0.  1.
         11   -1    0    0    0    0 -0.00000000000E+00 -0.00000000000E+00 -0.45593999997E+02  0.45594000000E+02  0.51100000000E-03 0. -1.
    9900012    2    1    2    0    0  0.43912553621E+01 -0.29673791214E+02 -0.10812199845E+02  0.59301942323E+02  0.49999996891E+02 0.  0.
         12    1    1    2    0    0 -0.43912553621E+01  0.29673791214E+02  0.10812199845E+02  0.31886057677E+02  0.00000000000E+00 0. -1.
         11    1    3    3    0    0 -0.13896771987E+02 -0.10957061174E+02 -0.20070352066E+02  0.26758110800E+02  0.51100000000E-03 0. -1.
        -11    1    3    3    0    0 -0.22532253190E+01 -0.38050331340E+01  0.52203371159E+01  0.68415803258E+01  0.51100000000E-03 0.  1.
        -12    1    3    3    0    0  0.20541252669E+02 -0.14911696906E+02  0.40378151046E+01  0.25702251198E+02  0.00000000000E+00 0.  1.
</event>
<event>
 7    1  0.3220798E-013  0.5930206E+02  0.7816164E-02  0.1266604E+00
        -11   -1    0    0    0    0  0.00000000000E+00  0.00000000000E+00  0.45593999997E+02  0.45594000000E+02  0.51100000000E-03 0. -1.
         11   -1    0    0    0    0 -0.00000000000E+00 -0.00000000000E+00 -0.45593999997E+02  0.45594000000E+02  0.51100000000E-03 0.  1.
    9900012    2    1    2    0    0  0.27904193627E+02  0.13287616065E+02 -0.78427279878E+01  0.59302060387E+02  0.50000212212E+02 0.  0.
         12    1    1    2    0    0 -0.27904193627E+02 -0.13287616065E+02  0.78427279878E+01  0.31885939613E+02  0.00000000000E+00 0. -1.
         11    1    3    3    0    0  0.54512515947E+01  0.20573755201E+02 -0.11785979657E+02  0.24329095005E+02  0.51100000000E-03 0. -1.
        -11    1    3    3    0    0  0.84526227841E+01  0.14222058207E+01 -0.10148412077E+02  0.13283816066E+02  0.51100000000E-03 0.  1.
         12    1    3    3    0    0  0.14000319249E+02 -0.87083449573E+01  0.14091663746E+02  0.21689149317E+02  0.00000000000E+00 0. -1.
</event>
<event>
 7    1  0.3220798E-013  0.5930196E+02  0.7816164E-02  0.1266605E+00
        -11   -1    0    0    0    0  0.00000000000E+00  0.00000000000E+00  0.45593999997E+02  0.45594000000E+02  0.51100000000E-03 0. -1.
         11   -1    0    0    0    0 -0.00000000000E+00 -0.00000000000E+00 -0.45593999997E+02  0.45594000000E+02  0.51100000000E-03 0.  1.
    9900012    2    1    2    0    0  0.26071280141E+02 -0.81907583103E+01 -0.16429223097E+02  0.59301960085E+02  0.50000029285E+02 0.  0.
         12    1    1    2    0    0 -0.26071280141E+02  0.81907583103E+01  0.16429223097E+02  0.31886039915E+02  0.00000000000E+00 0. -1.
         11    1    3    3    0    0  0.14723439536E+01 -0.32093987895E+01  0.82985383882E+01  0.90185241004E+01  0.51100000000E-03 0. -1.
        -11    1    3    3    0    0 -0.75279192680E+01 -0.69777537936E+01 -0.10377984393E+01  0.10316765112E+02  0.51100000000E-03 0.  1.
        -12    1    3    3    0    0  0.32126855455E+02  0.19963942729E+01 -0.23689963046E+02  0.39966670873E+02  0.00000000000E+00 0.  1.
</event>
<event>
 7    1  0.3220798E-013  0.5930188E+02  0.7816164E-02  0.1266605E+00
        -11   -1    0    0    0    0  0.00000000000E+00  0.00000000000E+00  0.45593999997E+02  0.45594000000E+02  0.51100000000E-03 0.  1.
         11   -1    0    0    0    0 -0.00000000000E+00 -0.00000000000E+00 -0.45593999997E+02  0.45594000000E+02  0.51100000000E-03 0. -1.
    9900012    2    1    2    0    0  0.15778306441E+02 -0.89922121698E+01  0.26208969268E+02  0.59301875996E+02  0.49999875927E+02 0.  0.
         12    1    1    2    0    0 -0.15778306441E+02  0.89922121698E+01 -0.26208969268E+02  0.31886124004E+02  0.00000000000E+00 0. -1.
         11    1    3    3    0    0  0.51752137751E+01 -0.10355709391E+02  0.13756990003E+02  0.17979942403E+02  0.51100000000E-03 0.  1.
        -11    1    3    3    0    0 -0.96054816092E+01  0.12295923163E+02  0.92091634669E+01  0.18118048885E+02  0.51100000000E-03 0. -1.
         12    1    3    3    0    0  0.20208574276E+02 -0.10932425942E+02  0.32428157980E+01  0.23203884708E+02  0.00000000000E+00 0. -1.
</event>
<event>
 7    1  0.3220798E-013  0.5930195E+02  0.7816164E-02  0.1266605E+00
        -11   -1    0    0    0    0  0.00000000000E+00  0.00000000000E+00  0.45593999997E+02  0.45594000000E+02  0.51100000000E-03 0.  1.
         11   -1    0    0    0    0 -0.00000000000E+00 -0.00000000000E+00 -0.45593999997E+02  0.45594000000E+02  0.51100000000E-03 0. -1.
    9900012    2    1    2    0    0  0.96263501594E+01  0.27408488404E+02 -0.13146427191E+02  0.59301946593E+02  0.50000004679E+02 0.  0.
         12    1    1    2    0    0 -0.96263501594E+01 -0.27408488404E+02  0.13146427191E+02  0.31886053407E+02  0.00000000000E+00 0. -1.
         11    1    3    3    0    0  0.95386100999E+01  0.26326753338E+01 -0.11416347429E+02  0.15107913520E+02  0.51100000000E-03 0. -1.
        -11    1    3    3    0    0 -0.20953022937E+01  0.12453509883E+02 -0.19032055406E+02  0.22840738459E+02  0.51100000000E-03 0.  1.
        -12    1    3    3    0    0  0.21830423533E+01  0.12322303187E+02  0.17301975643E+02  0.21353294615E+02  0.00000000000E+00 0.  1.
</event>
<event>
 7    1  0.3220798E-013  0.5930171E+02  0.7816164E-02  0.1266606E+00
        -11   -1    0    0    0    0  0.00000000000E+00  0.00000000000E+00  0.45593999997E+02  0.45594000000E+02  0.51100000000E-03 0.  1.
         11   -1    0    0    0    0 -0.00000000000E+00 -0.00000000000E+00 -0.45593999997E+02  0.45594000000E+02  0.51100000000E-03 0. -1.
    9900012    2    1    2    0    0  0.20744648767E+02  0.13310658240E+02  0.20229217521E+02  0.59301712716E+02  0.49999578141E+02 0.  0.
         12    1    1    2    0    0 -0.20744648767E+02 -0.13310658240E+02 -0.20229217521E+02  0.31886287284E+02  0.00000000000E+00 0. -1.
         11    1    3    3    0    0 -0.56213611851E+01  0.18652260369E+02  0.30622648388E+01  0.19720141598E+02  0.51100000000E-03 0. -1.
        -11    1    3    3    0    0  0.37655729244E+01 -0.41394788269E+01  0.15964957575E+02  0.16917289826E+02  0.51100000000E-03 0.  1.
        -12    1    3    3    0    0  0.22600437027E+02 -0.12021233013E+01  0.12019951074E+01  0.22664281292E+02  0.00000000000E+00 0.  1.
</event>
<event>
 7    1  0.3220798E-013  0.5930192E+02  0.7816164E-02  0.1266605E+00
        -11   -1    0    0    0    0  0.00000000000E+00  0.00000000000E+00  0.45593999997E+02  0.45594000000E+02  0.51100000000E-03 0.  1.
         11   -1    0    0    0    0 -0.00000000000E+00 -0.00000000000E+00 -0.45593999997E+02  0.45594000000E+02  0.51100000000E-03 0. -1.
    9900012    2    1    2    0    0 -0.20534594717E+01  0.76559418813E+01  0.30885137737E+02  0.59301923494E+02  0.49999962552E+02 0.  0.
         12    1    1    2    0    0  0.20534594717E+01 -0.76559418813E+01 -0.30885137737E+02  0.31886076506E+02  0.00000000000E+00 0. -1.
         11    1    3    3    0    0  0.17007717681E+02  0.12600340777E+02  0.19785027014E+01  0.21259010363E+02  0.51100000000E-03 0. -1.
        -11    1    3    3    0    0 -0.20239307756E+00  0.86491460906E+00  0.12071302516E+02  0.12103940884E+02  0.51100000000E-03 0.  1.
        -12    1    3    3    0    0 -0.18858784076E+02 -0.58093135043E+01  0.16835332520E+02  0.25938972247E+02  0.00000000000E+00 0.  1.
</event>
<event>
 7    1  0.3220798E-013  0.5930193E+02  0.7816164E-02  0.1266605E+00
        -11   -1    0    0    0    0  0.00000000000E+00  0.00000000000E+00  0.45593999997E+02  0.45594000000E+02  0.51100000000E-03 0. -1.
         11   -1    0    0    0    0 -0.00000000000E+00 -0.00000000000E+00 -0.45593999997E+02  0.45594000000E+02  0.51100000000E-03 0.  1.
    9900012    2    1    2    0    0  0.27413299030E+01 -0.12750105167E+01 -0.31742412424E+02  0.59301932699E+02  0.49999979338E+02 0.  0.
         12    1    1    2    0    0 -0.27413299030E+01  0.12750105167E+01  0.31742412424E+02  0.31886067301E+02  0.00000000000E+00 0. -1.
         11    1    3    3    0    0  0.11385075647E+02  0.76601320620E+01 -0.13550586614E+02  0.19285122985E+02  0.51100000000E-03 0. -1.
        -11    1    3    3    0    0  0.35359449680E+01 -0.11506297331E+02 -0.23562757243E+02  0.26459427700E+02  0.51100000000E-03 0.  1.
        -12    1    3    3    0    0 -0.12179690712E+02  0.25711547524E+01  0.53709314323E+01  0.13557382014E+02  0.00000000000E+00 0.  1.
</event>
<event>
 7    1  0.3220798E-013  0.5930196E+02  0.7816164E-02  0.1266605E+00
        -11   -1    0    0    0    0  0.00000000000E+00  0.00000000000E+00  0.45593999997E+02  0.45594000000E+02  0.51100000000E-03 0.  1.
         11   -1    0    0    0    0 -0.00000000000E+00 -0.00000000000E+00 -0.45593999997E+02  0.45594000000E+02  0.51100000000E-03 0. -1.
    9900012    2    1    2    0    0  0.19380489561E+00 -0.35929701086E+01  0.31682366754E+02  0.59301962967E+02  0.50000034541E+02 0.  0.
         12    1    1    2    0    0 -0.19380489561E+00  0.35929701086E+01 -0.31682366754E+02  0.31886037033E+02  0.00000000000E+00 0. -1.
         11    1    3    3    0    0 -0.44754906539E+00  0.11161462252E+02  0.90963514866E+01  0.14405629122E+02  0.51100000000E-03 0. -1.
        -11    1    3    3    0    0 -0.10555397560E+02  0.80767976762E+01  0.63867535597E+01  0.14745904504E+02  0.51100000000E-03 0.  1.
        -12    1    3    3    0    0  0.11196751521E+02 -0.22831230037E+02  0.16199261707E+02  0.30150429341E+02  0.00000000000E+00 0.  1.
</event>
<event>
 7    1  0.3615915E-013  0.5930196E+02  0.7816164E-02  0.1266605E+00
        -11   -1    0    0    0    0  0.00000000000E+00  0.00000000000E+00  0.45593999997E+02  0.45594000000E+02  0.51100000000E-03 0. -1.
         11   -1    0    0    0    0 -0.00000000000E+00 -0.00000000000E+00 -0.45593999997E+02  0.45594000000E+02  0.51100000000E-03 0.  1.
    9900012    2    1    2    0    0 -0.34300557160E+01  0.22692819904E+02 -0.22135724580E+02  0.59301958225E+02  0.50000025892E+02 0.  0.
         12    1    1    2    0    0  0.34300557160E+01 -0.22692819904E+02  0.22135724580E+02  0.31886041775E+02  0.00000000000E+00 0. -1.
         11    1    3    3    0    0 -0.89868742902E+01  0.27988756430E+01  0.79332645070E+01  0.12309926904E+02  0.51100000000E-03 0. -1.
        -11    1    3    3    0    0 -0.12003881627E+01  0.23494272299E+02 -0.10092358307E+02  0.25598387822E+02  0.51100000000E-03 0.  1.
         12    1    3    3    0    0  0.67572067368E+01 -0.36003280384E+01 -0.19976630780E+02  0.21393643500E+02  0.00000000000E+00 0. -1.
</event>
<event>
 7    1  0.3220798E-013  0.5930195E+02  0.7816164E-02  0.1266605E+00
        -11   -1    0    0    0    0  0.00000000000E+00  0.00000000000E+00  0.45593999997E+02  0.45594000000E+02  0.51100000000E-03 0.  1.
         11   -1    0    0    0    0 -0.00000000000E+00 -0.00000000000E+00 -0.45593999997E+02  0.45594000000E+02  0.51100000000E-03 0. -1.
    9900012    2    1    2    0    0 -0.19730860514E+02  0.22655980197E+02  0.10682686430E+02  0.59301951567E+02  0.50000013750E+02 0.  0.
         12    1    1    2    0    0  0.19730860514E+02 -0.22655980197E+02 -0.10682686430E+02  0.31886048433E+02  0.00000000000E+00 0. -1.
         11    1    3    3    0    0 -0.57175867945E+01 -0.80491419897E+01 -0.39818980550E+01  0.10645891128E+02  0.51100000000E-03 0. -1.
        -11    1    3    3    0    0 -0.15178870115E+02  0.73398518188E+01 -0.55372850532E+01  0.17746353110E+02  0.51100000000E-03 0.  1.
        -12    1    3    3    0    0  0.11655963957E+01  0.23365270368E+02  0.20201869538E+02  0.30909707329E+02  0.00000000000E+00 0.  1.
</event>
<event>
 7    1  0.3220798E-013  0.5930195E+02  0.7816164E-02  0.1266605E+00
        -11   -1    0    0    0    0  0.00000000000E+00  0.00000000000E+00  0.45593999997E+02  0.45594000000E+02  0.51100000000E-03 0. -1.
         11   -1    0    0    0    0 -0.00000000000E+00 -0.00000000000E+00 -0.45593999997E+02  0.45594000000E+02  0.51100000000E-03 0.  1.
    9900012    2    1    2    0    0 -0.28805367545E+02 -0.95658476301E+01 -0.97706492924E+01  0.59301949321E+02  0.50000009654E+02 0.  0.
         12    1    1    2    0    0  0.28805367545E+02  0.95658476301E+01  0.97706492924E+01  0.31886050679E+02  0.00000000000E+00 0. -1.
         11    1    3    3    0    0 -0.32747250816E+02 -0.17253588552E+01 -0.30400532777E+01  0.32933284430E+02  0.51100000000E-03 0. -1.
        -11    1    3    3    0    0 -0.66580990210E+01 -0.11938665284E+02 -0.11788607019E+01  0.13720485565E+02  0.51100000000E-03 0.  1.
         12    1    3    3    0    0  0.10599982292E+02  0.40981765086E+01 -0.55517353128E+01  0.12648179326E+02  0.00000000000E+00 0. -1.
</event>
<event>
 7    1  0.3220798E-013  0.5930196E+02  0.7816164E-02  0.1266605E+00
        -11   -1    0    0    0    0  0.00000000000E+00  0.00000000000E+00  0.45593999997E+02  0.45594000000E+02  0.51100000000E-03 0.  1.
         11   -1    0    0    0    0 -0.00000000000E+00 -0.00000000000E+00 -0.45593999997E+02  0.45594000000E+02  0.51100000000E-03 0. -1.
    9900012    2    1    2    0    0  0.30059541323E+02  0.26033577860E+01  0.10313403301E+02  0.59301956283E+02  0.50000022350E+02 0.  0.
         12    1    1    2    0    0 -0.30059541323E+02 -0.26033577860E+01 -0.10313403301E+02  0.31886043717E+02  0.00000000000E+00 0. -1.
         11    1    3    3    0    0 -0.48229037229E+01 -0.96305419485E+01 -0.94379147193E+01  0.14320683400E+02  0.51100000000E-03 0. -1.
        -11    1    3    3    0    0  0.10722449486E+02 -0.21754069423E+01  0.61386266198E+00  0.10958108686E+02  0.51100000000E-03 0.  1.
        -12    1    3    3    0    0  0.24159995559E+02  0.14409306677E+02  0.19137455359E+02  0.34023164196E+02  0.00000000000E+00 0.  1.
</event>
<event>
 7    1  0.3220798E-013  0.5930196E+02  0.7816164E-02  0.1266605E+00
        -11   -1    0    0    0    0  0.00000000000E+00  0.00000000000E+00  0.45593999997E+02  0.45594000000E+02  0.51100000000E-03 0.  1.
         11   -1    0    0    0    0 -0.00000000000E+00 -0.00000000000E+00 -0.45593999997E+02  0.45594000000E+02  0.51100000000E-03 0. -1.
    9900012    2    1    2    0    0 -0.23058919927E+02  0.10133573069E+01  0.21999523254E+02  0.59301957526E+02  0.50000024618E+02 0.  0.
         12    1    1    2    0    0  0.23058919927E+02 -0.10133573069E+01 -0.21999523254E+02  0.31886042474E+02  0.00000000000E+00 0. -1.
         11    1    3    3    0    0 -0.21018788247E+02 -0.98314455541E+01  0.17830064450E+02  0.29263594783E+02  0.51100000000E-03 0. -1.
        -11    1    3    3    0    0 -0.14626668140E+02  0.35979721059E+01  0.36835100835E+01  0.15506549292E+02  0.51100000000E-03 0.  1.
         12    1    3    3    0    0  0.12586536459E+02  0.72468307551E+01  0.48594872018E+00  0.14531813452E+02  0.00000000000E+00 0. -1.
</event>
<event>
 7    1  0.3220798E-013  0.5930194E+02  0.7816164E-02  0.1266605E+00
        -11   -1    0    0    0    0  0.00000000000E+00  0.00000000000E+00  0.45593999997E+02  0.45594000000E+02  0.51100000000E-03 0. -1.
         11   -1    0    0    0    0 -0.00000000000E+00 -0.00000000000E+00 -0.45593999997E+02  0.45594000000E+02  0.51100000000E-03 0.  1.
    9900012    2    1    2    0    0 -0.35558218297E+01  0.70303050283E+01 -0.30897443058E+02  0.59301936505E+02  0.49999986280E+02 0.  0.
         12    1    1    2    0    0  0.35558218297E+01 -0.70303050283E+01  0.30897443058E+02  0.31886063495E+02  0.00000000000E+00 0. -1.
         11    1    3    3    0    0 -0.47918821488E+01 -0.10414287248E+02  0.33874895273E+01  0.11953852892E+02  0.51100000000E-03 0. -1.
        -11    1    3    3    0    0  0.13918547489E+02  0.59825127248E+01 -0.12396132606E+02  0.19574997486E+02  0.51100000000E-03 0.  1.
         12    1    3    3    0    0 -0.12682487170E+02  0.11462079552E+02 -0.21888799979E+02  0.27773086127E+02  0.00000000000E+00 0. -1.
</event>
<event>
 7    1  0.3220798E-013  0.5930195E+02  0.7816164E-02  0.1266605E+00
        -11   -1    0    0    0    0  0.00000000000E+00  0.00000000000E+00  0.45593999997E+02  0.45594000000E+02  0.51100000000E-03 0. -1.
         11   -1    0    0    0    0 -0.00000000000E+00 -0.00000000000E+00 -0.45593999997E+02  0.45594000000E+02  0.51100000000E-03 0.  1.
    9900012    2    1    2    0    0 -0.29569724445E+02 -0.11727789274E+02 -0.21933516425E+01  0.59301946051E+02  0.50000003690E+02 0.  0.
         12    1    1    2    0    0  0.29569724445E+02  0.11727789274E+02  0.21933516425E+01  0.31886053949E+02  0.00000000000E+00 0. -1.
         11    1    3    3    0    0 -0.27072625295E+02 -0.76377018748E+01 -0.40328642647E+01  0.28416993590E+02  0.51100000000E-03 0. -1.
        -11    1    3    3    0    0 -0.14521125790E+02  0.42808882326E+01 -0.30431147176E+01  0.15441814845E+02  0.51100000000E-03 0.  1.
         12    1    3    3    0    0  0.12024026640E+02 -0.83709756321E+01  0.48826273398E+01  0.15443137616E+02  0.00000000000E+00 0. -1.
</event>
<event>
 7    1  0.3220798E-013  0.5930190E+02  0.7816164E-02  0.1266605E+00
        -11   -1    0    0    0    0  0.00000000000E+00  0.00000000000E+00  0.45593999997E+02  0.45594000000E+02  0.51100000000E-03 0.  1.
         11   -1    0    0    0    0 -0.00000000000E+00 -0.00000000000E+00 -0.45593999997E+02  0.45594000000E+02  0.51100000000E-03 0. -1.
    9900012    2    1    2    0    0 -0.16727108416E+02 -0.13651591298E+02  0.23464047904E+02  0.59301895739E+02  0.49999911932E+02 0.  0.
         12    1    1    2    0    0  0.16727108416E+02  0.13651591298E+02 -0.23464047904E+02  0.31886104261E+02  0.00000000000E+00 0. -1.
         11    1    3    3    0    0 -0.17572795806E+02 -0.10456594736E+02  0.88860194477E+00  0.20467856253E+02  0.51100000000E-03 0. -1.
        -11    1    3    3    0    0 -0.41851063508E+01 -0.16626222044E+02  0.13902302359E+02  0.22073069242E+02  0.51100000000E-03 0.  1.
         12    1    3    3    0    0  0.50307937407E+01  0.13431225482E+02  0.86731436004E+01  0.16760970244E+02  0.00000000000E+00 0. -1.
</event>
<event>
 7    1  0.3220798E-013  0.5930194E+02  0.7816164E-02  0.1266605E+00
        -11   -1    0    0    0    0  0.00000000000E+00  0.00000000000E+00  0.45593999997E+02  0.45594000000E+02  0.51100000000E-03 0.  1.
         11   -1    0    0    0    0 -0.00000000000E+00 -0.00000000000E+00 -0.45593999997E+02  0.45594000000E+02  0.51100000000E-03 0. -1.
    9900012    2    1    2    0    0 -0.19083819591E+02 -0.23726278384E+02 -0.94653118351E+01  0.59301943732E+02  0.49999999461E+02 0.  0.
         12    1    1    2    0    0  0.19083819591E+02  0.23726278384E+02  0.94653118351E+01  0.31886056268E+02  0.00000000000E+00 0. -1.
         11    1    3    3    0    0  0.18639558146E+01 -0.16025841690E+02 -0.20051566678E+02  0.25736496647E+02  0.51100000000E-03 0. -1.
        -11    1    3    3    0    0 -0.21432365001E+02 -0.27109098622E+01 -0.27309548280E+00  0.21604857862E+02  0.51100000000E-03 0.  1.
        -12    1    3    3    0    0  0.48458959512E+00 -0.49895268319E+01  0.10859350326E+02  0.11960589224E+02  0.00000000000E+00 0.  1.
</event>
<event>
 7    1  0.3220798E-013  0.5930193E+02  0.7816164E-02  0.1266605E+00
        -11   -1    0    0    0    0  0.00000000000E+00  0.00000000000E+00  0.45593999997E+02  0.45594000000E+02  0.51100000000E-03 0.  1.
         11   -1    0    0    0    0 -0.00000000000E+00 -0.00000000000E+00 -0.45593999997E+02  0.45594000000E+02  0.51100000000E-03 0. -1.
    9900012    2    1    2    0    0  0.24135318357E+02 -0.18325331108E+02  0.99191829299E+01  0.59301928708E+02  0.49999972061E+02 0.  0.
         12    1    1    2    0    0 -0.24135318357E+02  0.18325331108E+02 -0.99191829299E+01  0.31886071292E+02  0.00000000000E+00 0. -1.
         11    1    3    3    0    0  0.80166555250E+01 -0.60455125993E+01  0.37759472851E+01  0.10727197516E+02  0.51100000000E-03 0. -1.
        -11    1    3    3    0    0  0.31172201308E+02 -0.10854229227E+02  0.31243153567E+01  0.33155418459E+02  0.51100000000E-03 0.  1.
         12    1    3    3    0    0 -0.15053538476E+02 -0.14255892816E+01  0.30189202881E+01  0.15419312732E+02  0.00000000000E+00 0. -1.
</event>
<event>
 7    1  0.3220798E-013  0.5930197E+02  0.7816164E-02  0.1266605E+00
        -11   -1    0    0    0    0  0.00000000000E+00  0.00000000000E+00  0.45593999997E+02  0.45594000000E+02  0.51100000000E-03 0.  1.
         11   -1    0    0    0    0 -0.00000000000E+00 -0.00000000000E+00 -0.45593999997E+02  0.45594000000E+02  0.51100000000E-03 0. -1.
    9900012    2    1    2    0    0 -0.19817220339E+02 -0.48099639047E+01  0.24512459037E+02  0.59301974491E+02  0.50000055557E+02 0.  0.
         12    1    1    2    0    0  0.19817220339E+02  0.48099639047E+01 -0.24512459037E+02  0.31886025509E+02  0.00000000000E+00 0. -1.
         11    1    3    3    0    0 -0.64549522515E+01 -0.61592539013E+01 -0.10261416647E+02  0.13597775151E+02  0.51100000000E-03 0. -1.
        -11    1    3    3    0    0  0.17360531551E+01 -0.96023036522E+01  0.61328626466E+01  0.11525195030E+02  0.51100000000E-03 0.  1.
        -12    1    3    3    0    0 -0.15098321243E+02  0.10951593649E+02  0.28641013037E+02  0.34179004310E+02  0.00000000000E+00 0.  1.
</event>
<event>
 7    1  0.3220798E-013  0.5930202E+02  0.7816164E-02  0.1266604E+00
        -11   -1    0    0    0    0  0.00000000000E+00  0.00000000000E+00  0.45593999997E+02  0.45594000000E+02  0.51100000000E-03 0. -1.
         11   -1    0    0    0    0 -0.00000000000E+00 -0.00000000000E+00 -0.45593999997E+02  0.45594000000E+02  0.51100000000E-03 0.  1.
    9900012    2    1    2    0    0  0.91578310947E+01 -0.18281042302E+02 -0.24467388155E+02  0.59302024068E+02  0.50000145975E+02 0.  0.
         12    1    1    2    0    0 -0.91578310947E+01  0.18281042302E+02  0.24467388155E+02  0.31885975932E+02  0.00000000000E+00 0. -1.
         11    1    3    3    0    0 -0.14244892356E+02 -0.28656731848E+00 -0.81333158686E+01  0.16405788806E+02  0.51100000000E-03 0. -1.
        -11    1    3    3    0    0 -0.16235884230E+01  0.52539434594E+01 -0.19877032353E+01  0.58473007153E+01  0.51100000000E-03 0.  1.
         12    1    3    3    0    0  0.25026311874E+02 -0.23248418443E+02 -0.14346369051E+02  0.37048934547E+02  0.00000000000E+00 0. -1.
</event>
<event>
 7    1  0.3220798E-013  0.5930203E+02  0.7816164E-02  0.1266604E+00
        -11   -1    0    0    0    0  0.00000000000E+00  0.00000000000E+00  0.45593999997E+02  0.45594000000E+02  0.51100000000E-03 0. -1.
         11   -1    0    0    0    0 -0.00000000000E+00 -0.00000000000E+00 -0.45593999997E+02  0.45594000000E+02  0.51100000000E-03 0.  1.
    9900012    2    1    2    0    0 -0.88765852280E+01  0.18909438918E+02 -0.24090550224E+02  0.59302027291E+02  0.50000151851E+02 0.  0.
         12    1    1    2    0    0  0.88765852280E+01 -0.18909438918E+02  0.24090550224E+02  0.31885972709E+02  0.00000000000E+00 0. -1.
         11    1    3    3    0    0 -0.46086505912E+01  0.18333051393E+02 -0.24816838376E+01  0.19065654685E+02  0.51100000000E-03 0. -1.
        -11    1    3    3    0    0  0.61927381270E+01  0.70323791075E+01  0.52194279467E+01  0.10725986657E+02  0.51100000000E-03 0.  1.
        -12    1    3    3    0    0 -0.10460672764E+02 -0.64559915819E+01 -0.26828294334E+02  0.29510385948E+02  0.00000000000E+00 0.  1.
</event>
<event>
 7    1  0.3220798E-013  0.5930194E+02  0.7816164E-02  0.1266605E+00
        -11   -1    0    0    0    0  0.00000000000E+00  0.00000000000E+00  0.45593999997E+02  0.45594000000E+02  0.51100000000E-03 0.  1.
         11   -1    0    0    0    0 -0.00000000000E+00 -0.00000000000E+00 -0.45593999997E+02  0.45594000000E+02  0.51100000000E-03 0. -1.
    9900012    2    1    2    0    0  0.14975653879E+02 -0.20078750713E+02  0.19730546437E+02  0.59301938751E+02  0.49999990377E+02 0.  0.
         12    1    1    2    0    0 -0.14975653879E+02  0.20078750713E+02 -0.19730546437E+02  0.31886061249E+02  0.00000000000E+00 0. -1.
         11    1    3    3    0    0 -0.23266394324E+01  0.12207649914E+02  0.75166093285E+01  0.14523752392E+02  0.51100000000E-03 0. -1.
        -11    1    3    3    0    0  0.99128514641E+01 -0.13151759279E+00  0.11536406569E+01  0.99806216266E+01  0.51100000000E-03 0.  1.
         12    1    3    3    0    0  0.73894418467E+01 -0.32154883034E+02  0.11060296451E+02  0.34797564733E+02  0.00000000000E+00 0. -1.
</event>
<event>
 7    1  0.3220798E-013  0.5930195E+02  0.7816164E-02  0.1266605E+00
        -11   -1    0    0    0    0  0.00000000000E+00  0.00000000000E+00  0.45593999997E+02  0.45594000000E+02  0.51100000000E-03 0.  1.
         11   -1    0    0    0    0 -0.00000000000E+00 -0.00000000000E+00 -0.45593999997E+02  0.45594000000E+02  0.51100000000E-03 0. -1.
    9900012    2    1    2    0    0  0.12516960754E+02 -0.25281736281E+02 -0.14862025616E+02  0.59301948170E+02  0.50000007554E+02 0.  0.
         12    1    1    2    0    0 -0.12516960754E+02  0.25281736281E+02  0.14862025616E+02  0.31886051830E+02  0.00000000000E+00 0. -1.
         11    1    3    3    0    0 -0.68834819189E+01 -0.17883259756E+02 -0.14481505707E+02  0.24018894866E+02  0.51100000000E-03 0. -1.
        -11    1    3    3    0    0 -0.66899870451E+01  0.21220228215E+01  0.22878948051E+01  0.73819625046E+01  0.51100000000E-03 0.  1.
        -12    1    3    3    0    0  0.26090429718E+02 -0.95204993473E+01 -0.26684147149E+01  0.27901090799E+02  0.00000000000E+00 0.  1.
</event>
<event>
 7    1  0.3220798E-013  0.5930198E+02  0.7816164E-02  0.1266605E+00
        -11   -1    0    0    0    0  0.00000000000E+00  0.00000000000E+00  0.45593999997E+02  0.45594000000E+02  0.51100000000E-03 0.  1.
         11   -1    0    0    0    0 -0.00000000000E+00 -0.00000000000E+00 -0.45593999997E+02  0.45594000000E+02  0.51100000000E-03 0. -1.
    9900012    2    1    2    0    0  0.23015766294E+02  0.12395033577E+02  0.18258039361E+02  0.59301978662E+02  0.50000063164E+02 0.  0.
         12    1    1    2    0    0 -0.23015766294E+02 -0.12395033577E+02 -0.18258039361E+02  0.31886021338E+02  0.00000000000E+00 0. -1.
         11    1    3    3    0    0  0.65646705945E+01  0.17957351288E+02 -0.44091112314E+01  0.19621458340E+02  0.51100000000E-03 0. -1.
        -11    1    3    3    0    0 -0.38652390165E+01  0.43106233673E+01 -0.21008507503E+01  0.61591493411E+01  0.51100000000E-03 0.  1.
        -12    1    3    3    0    0  0.20316334716E+02 -0.98729410786E+01  0.24768001343E+02  0.33521370980E+02  0.00000000000E+00 0.  1.
</event>
<event>
 7    1  0.3220798E-013  0.5930194E+02  0.7816164E-02  0.1266605E+00
        -11   -1    0    0    0    0  0.00000000000E+00  0.00000000000E+00  0.45593999997E+02  0.45594000000E+02  0.51100000000E-03 0.  1.
         11   -1    0    0    0    0 -0.00000000000E+00 -0.00000000000E+00 -0.45593999997E+02  0.45594000000E+02  0.51100000000E-03 0. -1.
    9900012    2    1    2    0    0  0.15221620838E+02 -0.16716883139E+02  0.22484862125E+02  0.59301938036E+02  0.49999989073E+02 0.  0.
         12    1    1    2    0    0 -0.15221620838E+02  0.16716883139E+02 -0.22484862125E+02  0.31886061964E+02  0.00000000000E+00 0. -1.
         11    1    3    3    0    0 -0.23799193375E+01 -0.59273218572E+01 -0.99446609314E+01  0.11819198017E+02  0.51100000000E-03 0. -1.
        -11    1    3    3    0    0  0.54943749461E+01 -0.83362190179E+01 -0.26182472553E+01  0.10321624025E+02  0.51100000000E-03 0.  1.
        -12    1    3    3    0    0  0.12107165229E+02 -0.24533422635E+01  0.35047770312E+02  0.37161115994E+02  0.00000000000E+00 0.  1.
</event>
<event>
 7    1  0.3220798E-013  0.5930191E+02  0.7816164E-02  0.1266605E+00
        -11   -1    0    0    0    0  0.00000000000E+00  0.00000000000E+00  0.45593999997E+02  0.45594000000E+02  0.51100000000E-03 0.  1.
         11   -1    0    0    0    0 -0.00000000000E+00 -0.00000000000E+00 -0.45593999997E+02  0.45594000000E+02  0.51100000000E-03 0. -1.
    9900012    2    1    2    0    0 -0.99767250014E+01  0.73739869450E+01  0.29373660629E+02  0.59301911122E+02  0.49999939987E+02 0.  0.
         12    1    1    2    0    0  0.99767250014E+01 -0.73739869450E+01 -0.29373660629E+02  0.31886088878E+02  0.00000000000E+00 0. -1.
         11    1    3    3    0    0 -0.19193151618E+01  0.20406923829E+02  0.74013012443E+01  0.21792328265E+02  0.51100000000E-03 0. -1.
        -11    1    3    3    0    0 -0.79576307650E+01 -0.40592712476E+01 -0.41782103236E+01  0.98619983890E+01  0.51100000000E-03 0.  1.
        -12    1    3    3    0    0 -0.99779074587E-01 -0.89736656366E+01  0.26150569708E+02  0.27647584467E+02  0.00000000000E+00 0.  1.
</event>
<event>
 7    1  0.3220798E-013  0.5930188E+02  0.7816164E-02  0.1266605E+00
        -11   -1    0    0    0    0  0.00000000000E+00  0.00000000000E+00  0.45593999997E+02  0.45594000000E+02  0.51100000000E-03 0. -1.
         11   -1    0    0    0    0 -0.00000000000E+00 -0.00000000000E+00 -0.45593999997E+02  0.45594000000E+02  0.51100000000E-03 0.  1.
    9900012    2    1    2    0    0  0.22245844473E+02 -0.22827454136E+02  0.86863582161E+00  0.59301877833E+02  0.49999879277E+02 0.  0.
         12    1    1    2    0    0 -0.22245844473E+02  0.22827454136E+02 -0.86863582161E+00  0.31886122167E+02  0.00000000000E+00 0. -1.
         11    1    3    3    0    0 -0.99810396771E+01 -0.10812531007E+02 -0.37853618990E+01  0.15194108884E+02  0.51100000000E-03 0. -1.
        -11    1    3    3    0    0  0.85192554028E+01  0.88242896456E+01  0.20519946919E+01  0.12436095965E+02  0.51100000000E-03 0.  1.
         12    1    3    3    0    0  0.23707628747E+02 -0.20839212774E+02  0.26020030287E+01  0.31671672984E+02  0.00000000000E+00 0. -1.
</event>
<event>
 7    1  0.3220798E-013  0.5930196E+02  0.7816164E-02  0.1266605E+00
        -11   -1    0    0    0    0  0.00000000000E+00  0.00000000000E+00  0.45593999997E+02  0.45594000000E+02  0.51100000000E-03 0.  1.
         11   -1    0    0    0    0 -0.00000000000E+00 -0.00000000000E+00 -0.45593999997E+02  0.45594000000E+02  0.51100000000E-03 0. -1.
    9900012    2    1    2    0    0 -0.83007263857E+01 -0.21529687422E+02  0.22006595447E+02  0.59301956937E+02  0.50000023544E+02 0.  0.
         12    1    1    2    0    0  0.83007263857E+01  0.21529687422E+02 -0.22006595447E+02  0.31886043063E+02  0.00000000000E+00 0. -1.
         11    1    3    3    0    0 -0.19641493081E+02 -0.17542463679E+02 -0.27398816141E+01  0.26477032196E+02  0.51100000000E-03 0. -1.
        -11    1    3    3    0    0 -0.16223654915E+01 -0.65860222686E+01  0.30942418941E+01  0.74553398495E+01  0.51100000000E-03 0.  1.
         12    1    3    3    0    0  0.12963132187E+02  0.25987985257E+01  0.21652235167E+02  0.25369584892E+02  0.00000000000E+00 0. -1.
</event>
<event>
 7    1  0.3220798E-013  0.5930194E+02  0.7816164E-02  0.1266605E+00
        -11   -1    0    0    0    0  0.00000000000E+00  0.00000000000E+00  0.45593999997E+02  0.45594000000E+02  0.51100000000E-03 0. -1.
         11   -1    0    0    0    0 -0.00000000000E+00 -0.00000000000E+00 -0.45593999997E+02  0.45594000000E+02  0.51100000000E-03 0.  1.
    9900012    2    1    2    0    0 -0.11826872123E+01  0.72632218761E+01 -0.31025274986E+02  0.59301939895E+02  0.49999992463E+02 0.  0.
         12    1    1    2    0    0  0.11826872123E+01 -0.72632218761E+01  0.31025274986E+02  0.31886060105E+02  0.00000000000E+00 0. -1.
         11    1    3    3    0    0  0.19312203964E+01  0.81780267609E+01 -0.26605531515E+01  0.88140953735E+01  0.51100000000E-03 0.  1.
        -11    1    3    3    0    0 -0.18879785185E+02  0.11000889287E+02 -0.17048910367E+02  0.27715179933E+02  0.51100000000E-03 0. -1.
         12    1    3    3    0    0  0.15765877576E+02 -0.11915694171E+02 -0.11315811467E+02  0.22772664589E+02  0.00000000000E+00 0. -1.
</event>
<event>
 7    1  0.3220798E-013  0.5930197E+02  0.7816164E-02  0.1266605E+00
        -11   -1    0    0    0    0  0.00000000000E+00  0.00000000000E+00  0.45593999997E+02  0.45594000000E+02  0.51100000000E-03 0. -1.
         11   -1    0    0    0    0 -0.00000000000E+00 -0.00000000000E+00 -0.45593999997E+02  0.45594000000E+02  0.51100000000E-03 0.  1.
    9900012    2    1    2    0    0  0.19910900293E+02  0.36624424318E+01 -0.24634563625E+02  0.59301966066E+02  0.50000040193E+02 0.  0.
         12    1    1    2    0    0 -0.19910900293E+02 -0.36624424318E+01  0.24634563625E+02  0.31886033934E+02  0.00000000000E+00 0. -1.
         11    1    3    3    0    0  0.23275773158E+01  0.13544364949E+02 -0.43331118809E+01  0.14409833340E+02  0.51100000000E-03 0. -1.
        -11    1    3    3    0    0 -0.95562306235E+00 -0.10579482935E+02  0.63826302374E+01  0.12392604392E+02  0.51100000000E-03 0.  1.
        -12    1    3    3    0    0  0.18538946040E+02  0.69756041756E+00 -0.26684081981E+02  0.32499528335E+02  0.00000000000E+00 0.  1.
</event>
<event>
 7    1  0.3220798E-013  0.5930212E+02  0.7816164E-02  0.1266604E+00
        -11   -1    0    0    0    0  0.00000000000E+00  0.00000000000E+00  0.45593999997E+02  0.45594000000E+02  0.51100000000E-03 0.  1.
         11   -1    0    0    0    0 -0.00000000000E+00 -0.00000000000E+00 -0.45593999997E+02  0.45594000000E+02  0.51100000000E-03 0. -1.
    9900012    2    1    2    0    0  0.28314492718E+02  0.11747373265E+02  0.87748714739E+01  0.59302115256E+02  0.50000312279E+02 0.  0.
         12    1    1    2    0    0 -0.28314492718E+02 -0.11747373265E+02 -0.87748714739E+01  0.31885884744E+02  0.00000000000E+00 0. -1.
         11    1    3    3    0    0  0.23624220998E+02  0.24756493279E+02  0.99038094740E+01  0.35624053947E+02  0.51100000000E-03 0. -1.
        -11    1    3    3    0    0  0.14620116782E+01  0.44012962709E+01  0.29639838819E+01  0.55040065157E+01  0.51100000000E-03 0.  1.
         12    1    3    3    0    0  0.32282600417E+01 -0.17410416285E+02 -0.40929218820E+01  0.18174054794E+02  0.00000000000E+00 0. -1.
</event>
<event>
 7    1  0.3220798E-013  0.5930194E+02  0.7816164E-02  0.1266605E+00
        -11   -1    0    0    0    0  0.00000000000E+00  0.00000000000E+00  0.45593999997E+02  0.45594000000E+02  0.51100000000E-03 0.  1.
         11   -1    0    0    0    0 -0.00000000000E+00 -0.00000000000E+00 -0.45593999997E+02  0.45594000000E+02  0.51100000000E-03 0. -1.
    9900012    2    1    2    0    0 -0.17945962510E+02 -0.22363866218E+02  0.13947077545E+02  0.59301936357E+02  0.49999986010E+02 0.  0.
         12    1    1    2    0    0  0.17945962510E+02  0.22363866218E+02 -0.13947077545E+02  0.31886063643E+02  0.00000000000E+00 0. -1.
         11    1    3    3    0    0 -0.46095689851E+01 -0.61970783293E+00 -0.13351570563E+02  0.14138479437E+02  0.51100000000E-03 0. -1.
        -11    1    3    3    0    0  0.70748908753E+01 -0.15015709861E+01  0.55309811715E+01  0.91049738772E+01  0.51100000000E-03 0.  1.
        -12    1    3    3    0    0 -0.20411284400E+02 -0.20242587399E+02  0.21767666937E+02  0.36058483043E+02  0.00000000000E+00 0.  1.
</event>
<event>
 7    1  0.3220798E-013  0.5930188E+02  0.7816164E-02  0.1266605E+00
        -11   -1    0    0    0    0  0.00000000000E+00  0.00000000000E+00  0.45593999997E+02  0.45594000000E+02  0.51100000000E-03 0. -1.
         11   -1    0    0    0    0 -0.00000000000E+00 -0.00000000000E+00 -0.45593999997E+02  0.45594000000E+02  0.51100000000E-03 0.  1.
    9900012    2    1    2    0    0  0.15330119436E+02  0.77375345870E+01 -0.26867135223E+02  0.59301875141E+02  0.49999874368E+02 0.  0.
         12    1    1    2    0    0 -0.15330119436E+02 -0.77375345870E+01  0.26867135223E+02  0.31886124859E+02  0.00000000000E+00 0. -1.
         11    1    3    3    0    0  0.37952757194E+01  0.58117428321E+01 -0.22707923376E+02  0.23745110167E+02  0.51100000000E-03 0. -1.
        -11    1    3    3    0    0  0.42860192090E+01  0.16508342291E+02 -0.79792640714E+01  0.18829869390E+02  0.51100000000E-03 0.  1.
         12    1    3    3    0    0  0.72488245073E+01 -0.14582550536E+02  0.38200522246E+01  0.16726895584E+02  0.00000000000E+00 0. -1.
</event>
<event>
 7    1  0.3220798E-013  0.5930195E+02  0.7816164E-02  0.1266605E+00
        -11   -1    0    0    0    0  0.00000000000E+00  0.00000000000E+00  0.45593999997E+02  0.45594000000E+02  0.51100000000E-03 0.  1.
         11   -1    0    0    0    0 -0.00000000000E+00 -0.00000000000E+00 -0.45593999997E+02  0.45594000000E+02  0.51100000000E-03 0. -1.
    9900012    2    1    2    0    0 -0.59518014228E+01 -0.27190810658E+02 -0.15554946347E+02  0.59301945363E+02  0.50000002435E+02 0.  0.
         12    1    1    2    0    0  0.59518014228E+01  0.27190810658E+02  0.15554946347E+02  0.31886054637E+02  0.00000000000E+00 0. -1.
         11    1    3    3    0    0 -0.66394489136E+01 -0.48890136486E+01 -0.28451233154E+01  0.87223542277E+01  0.51100000000E-03 0. -1.
        -11    1    3    3    0    0 -0.15183248949E+02  0.61394964253E+01 -0.47186009348E+01  0.17043757216E+02  0.51100000000E-03 0.  1.
        -12    1    3    3    0    0  0.15870896440E+02 -0.28441293435E+02 -0.79912220971E+01  0.33535833919E+02  0.00000000000E+00 0.  1.
</event>
<event>
 7    1  0.3220798E-013  0.5930190E+02  0.7816164E-02  0.1266605E+00
        -11   -1    0    0    0    0  0.00000000000E+00  0.00000000000E+00  0.45593999997E+02  0.45594000000E+02  0.51100000000E-03 0. -1.
         11   -1    0    0    0    0 -0.00000000000E+00 -0.00000000000E+00 -0.45593999997E+02  0.45594000000E+02  0.51100000000E-03 0.  1.
    9900012    2    1    2    0    0  0.20273183772E+02  0.19169122932E+02 -0.15435873027E+02  0.59301899104E+02  0.49999918071E+02 0.  0.
         12    1    1    2    0    0 -0.20273183772E+02 -0.19169122932E+02  0.15435873027E+02  0.31886100896E+02  0.00000000000E+00 0. -1.
         11    1    3    3    0    0  0.22200295928E+02 -0.11399177105E+01  0.57053144629E+01  0.22950014489E+02  0.51100000000E-03 0. -1.
        -11    1    3    3    0    0 -0.59494261070E+00 -0.67203259541E+00  0.37007512291E+01  0.38080368223E+01  0.51100000000E-03 0.  1.
        -12    1    3    3    0    0 -0.13321695447E+01  0.20981073238E+02 -0.24841938718E+02  0.32543847793E+02  0.00000000000E+00 0.  1.
</event>
<event>
 7    1  0.3220798E-013  0.5930194E+02  0.7816164E-02  0.1266605E+00
        -11   -1    0    0    0    0  0.00000000000E+00  0.00000000000E+00  0.45593999997E+02  0.45594000000E+02  0.51100000000E-03 0.  1.
         11   -1    0    0    0    0 -0.00000000000E+00 -0.00000000000E+00 -0.45593999997E+02  0.45594000000E+02  0.51100000000E-03 0. -1.
    9900012    2    1    2    0    0 -0.27473331652E+02 -0.26441686784E+01  0.15967009964E+02  0.59301937414E+02  0.49999987938E+02 0.  0.
         12    1    1    2    0    0  0.27473331652E+02  0.26441686784E+01 -0.15967009964E+02  0.31886062586E+02  0.00000000000E+00 0. -1.
         11    1    3    3    0    0 -0.24013222162E+02 -0.62593133311E+01  0.18098429357E+02  0.30714279862E+02  0.51100000000E-03 0. -1.
        -11    1    3    3    0    0 -0.14507607759E+02 -0.36169828772E+01  0.11054390017E+01  0.14992506251E+02  0.51100000000E-03 0.  1.
         12    1    3    3    0    0  0.11047498270E+02  0.72321275299E+01 -0.32368583951E+01  0.13595151301E+02  0.00000000000E+00 0. -1.
</event>
<event>
 7    1  0.3220798E-013  0.5930195E+02  0.7816164E-02  0.1266605E+00
        -11   -1    0    0    0    0  0.00000000000E+00  0.00000000000E+00  0.45593999997E+02  0.45594000000E+02  0.51100000000E-03 0.  1.
         11   -1    0    0    0    0 -0.00000000000E+00 -0.00000000000E+00 -0.45593999997E+02  0.45594000000E+02  0.51100000000E-03 0. -1.
    9900012    2    1    2    0    0  0.14262596213E+02 -0.27871324699E+02  0.60405261536E+01  0.59301947447E+02  0.50000006235E+02 0.  0.
         12    1    1    2    0    0 -0.14262596213E+02  0.27871324699E+02 -0.60405261536E+01  0.31886052553E+02  0.00000000000E+00 0. -1.
         11    1    3    3    0    0 -0.40716072060E+01  0.27925012454E+01  0.84963143323E+01  0.98266680996E+01  0.51100000000E-03 0. -1.
        -11    1    3    3    0    0  0.26752438681E+02 -0.15356390503E+02  0.34397416354E+01  0.31037775814E+02  0.51100000000E-03 0.  1.
         12    1    3    3    0    0 -0.84182352627E+01 -0.15307435442E+02 -0.58955298142E+01  0.18437503533E+02  0.00000000000E+00 0. -1.
</event>
<event>
 7    1  0.3220798E-013  0.5930190E+02  0.7816164E-02  0.1266605E+00
        -11   -1    0    0    0    0  0.00000000000E+00  0.00000000000E+00  0.45593999997E+02  0.45594000000E+02  0.51100000000E-03 0.  1.
         11   -1    0    0    0    0 -0.00000000000E+00 -0.00000000000E+00 -0.45593999997E+02  0.45594000000E+02  0.51100000000E-03 0. -1.
    9900012    2    1    2    0    0  0.20062290796E+02  0.58228106849E+01  0.24089884235E+02  0.59301903364E+02  0.49999925838E+02 0.  0.
         12    1    1    2    0    0 -0.20062290796E+02 -0.58228106849E+01 -0.24089884235E+02  0.31886096636E+02  0.00000000000E+00 0. -1.
         11    1    3    3    0    0  0.26458665399E+01  0.48975386758E+01  0.11101323269E+02  0.12418771010E+02  0.51100000000E-03 0.  1.
        -11    1    3    3    0    0 -0.89312816076E+01  0.12104281453E+02  0.10095067764E+02  0.18116065083E+02  0.51100000000E-03 0. -1.
         12    1    3    3    0    0  0.26347705864E+02 -0.11179009444E+02  0.28934932018E+01  0.28767067270E+02  0.00000000000E+00 0. -1.
</event>
<event>
 7    1  0.3220798E-013  0.5930197E+02  0.7816164E-02  0.1266605E+00
        -11   -1    0    0    0    0  0.00000000000E+00  0.00000000000E+00  0.45593999997E+02  0.45594000000E+02  0.51100000000E-03 0. -1.
         11   -1    0    0    0    0 -0.00000000000E+00 -0.00000000000E+00 -0.45593999997E+02  0.45594000000E+02  0.51100000000E-03 0.  1.
    9900012    2    1    2    0    0  0.16922064073E+02 -0.26604149740E+02 -0.47520516341E+01  0.59301968095E+02  0.50000043893E+02 0.  0.
         12    1    1    2    0    0 -0.16922064073E+02  0.26604149740E+02  0.47520516341E+01  0.31886031905E+02  0.00000000000E+00 0. -1.
         11    1    3    3    0    0  0.12761390600E+02  0.13773672857E+00  0.12117795256E+01  0.12819534755E+02  0.51100000000E-03 0. -1.
        -11    1    3    3    0    0  0.84123882884E+01 -0.20000658711E+01 -0.16989577647E+02  0.19063428052E+02  0.51100000000E-03 0.  1.
        -12    1    3    3    0    0 -0.42517148159E+01 -0.24741820598E+02  0.11025746487E+02  0.27419005288E+02  0.00000000000E+00 0.  1.
</event>
<event>
 7    1  0.3220798E-013  0.5930193E+02  0.7816164E-02  0.1266605E+00
        -11   -1    0    0    0    0  0.00000000000E+00  0.00000000000E+00  0.45593999997E+02  0.45594000000E+02  0.51100000000E-03 0.  1.
         11   -1    0    0    0    0 -0.00000000000E+00 -0.00000000000E+00 -0.45593999997E+02  0.45594000000E+02  0.51100000000E-03 0. -1.
    9900012    2    1    2    0    0 -0.83893428415E+01  0.13997300967E+02  0.27393715807E+02  0.59301934495E+02  0.49999982615E+02 0.  0.
         12    1    1    2    0    0  0.83893428415E+01 -0.13997300967E+02 -0.27393715807E+02  0.31886065505E+02  0.00000000000E+00 0. -1.
         11    1    3    3    0    0 -0.15301152431E+02 -0.43951311344E+01  0.13983660466E+02  0.21189270957E+02  0.51100000000E-03 0. -1.
        -11    1    3    3    0    0  0.12223144244E+02 -0.24725217687E+01  0.10662788095E+02  0.16407731998E+02  0.51100000000E-03 0.  1.
        -12    1    3    3    0    0 -0.53113346545E+01  0.20864953870E+02  0.27472672462E+01  0.21704931540E+02  0.00000000000E+00 0.  1.
</event>
<event>
 7    1  0.3220798E-013  0.5930193E+02  0.7816164E-02  0.1266605E+00
        -11   -1    0    0    0    0  0.00000000000E+00  0.00000000000E+00  0.45593999997E+02  0.45594000000E+02  0.51100000000E-03 0.  1.
         11   -1    0    0    0    0 -0.00000000000E+00 -0.00000000000E+00 -0.45593999997E+02  0.45594000000E+02  0.51100000000E-03 0. -1.
    9900012    2    1    2    0    0  0.21365797418E+02  0.16096810834E+02  0.17352723518E+02  0.59301927306E+02  0.49999969503E+02 0.  0.
         12    1    1    2    0    0 -0.21365797418E+02 -0.16096810834E+02 -0.17352723518E+02  0.31886072694E+02  0.00000000000E+00 0. -1.
         11    1    3    3    0    0  0.60489621747E-02  0.10180827376E+02  0.87531117328E+01  0.13426326672E+02  0.51100000000E-03 0. -1.
        -11    1    3    3    0    0  0.27513342976E+02  0.13007769743E+02  0.15566940260E+02  0.34183559568E+02  0.51100000000E-03 0.  1.
         12    1    3    3    0    0 -0.61535945200E+01 -0.70917862843E+01 -0.69673284743E+01  0.11692041066E+02  0.00000000000E+00 0. -1.
</event>
<event>
 7    1  0.3220798E-013  0.5930194E+02  0.7816164E-02  0.1266605E+00
        -11   -1    0    0    0    0  0.00000000000E+00  0.00000000000E+00  0.45593999997E+02  0.45594000000E+02  0.51100000000E-03 0.  1.
         11   -1    0    0    0    0 -0.00000000000E+00 -0.00000000000E+00 -0.45593999997E+02  0.45594000000E+02  0.51100000000E-03 0. -1.
    9900012    2    1    2    0    0 -0.44254920562E+01 -0.13497952846E+02  0.28547175712E+02  0.59301937965E+02  0.49999988943E+02 0.  0.
         12    1    1    2    0    0  0.44254920562E+01  0.13497952846E+02 -0.28547175712E+02  0.31886062035E+02  0.00000000000E+00 0. -1.
         11    1    3    3    0    0  0.12393394400E+02 -0.37680744364E+01  0.26475375249E+01  0.13221348831E+02  0.51100000000E-03 0. -1.
        -11    1    3    3    0    0  0.26961533486E+01 -0.16343582019E+02  0.65444378847E+01  0.17810434682E+02  0.51100000000E-03 0.  1.
        -12    1    3    3    0    0 -0.19515039804E+02  0.66137036093E+01  0.19355200302E+02  0.28270154452E+02  0.00000000000E+00 0.  1.
</event>
<event>
 7    1  0.3220798E-013  0.5930196E+02  0.7816164E-02  0.1266605E+00
        -11   -1    0    0    0    0  0.00000000000E+00  0.00000000000E+00  0.45593999997E+02  0.45594000000E+02  0.51100000000E-03 0.  1.
         11   -1    0    0    0    0 -0.00000000000E+00 -0.00000000000E+00 -0.45593999997E+02  0.45594000000E+02  0.51100000000E-03 0. -1.
    9900012    2    1    2    0    0 -0.25270520939E+02  0.56892326096E+01 -0.18594434103E+02  0.59301959546E+02  0.50000028302E+02 0.  0.
         12    1    1    2    0    0  0.25270520939E+02 -0.56892326096E+01  0.18594434103E+02  0.31886040454E+02  0.00000000000E+00 0. -1.
         11    1    3    3    0    0 -0.16649328132E+02 -0.49850598277E+01 -0.15995334590E+02  0.23619942371E+02  0.51100000000E-03 0. -1.
        -11    1    3    3    0    0  0.21267519649E+01  0.12112268480E+02 -0.14876642095E+02  0.19301414506E+02  0.51100000000E-03 0.  1.
        -12    1    3    3    0    0 -0.10747944773E+02 -0.14379760427E+01  0.12277542582E+02  0.16380602669E+02  0.00000000000E+00 0.  1.
</event>
<event>
 7    1  0.3220798E-013  0.5930193E+02  0.7816164E-02  0.1266605E+00
        -11   -1    0    0    0    0  0.00000000000E+00  0.00000000000E+00  0.45593999997E+02  0.45594000000E+02  0.51100000000E-03 0.  1.
         11   -1    0    0    0    0 -0.00000000000E+00 -0.00000000000E+00 -0.45593999997E+02  0.45594000000E+02  0.51100000000E-03 0. -1.
    9900012    2    1    2    0    0 -0.29897346470E+02  0.11037262182E+02  0.10243488208E+01  0.59301925094E+02  0.49999965469E+02 0.  0.
         12    1    1    2    0    0  0.29897346470E+02 -0.11037262182E+02 -0.10243488208E+01  0.31886074906E+02  0.00000000000E+00 0. -1.
         11    1    3    3    0    0 -0.12924443654E+00  0.14215575018E+02  0.76036849324E+01  0.16121888910E+02  0.51100000000E-03 0.  1.
        -11    1    3    3    0    0 -0.34583965840E+01  0.10226407682E+02 -0.82774205306E+01  0.13603514689E+02  0.51100000000E-03 0. -1.
         12    1    3    3    0    0 -0.26309705450E+02 -0.13404720518E+02  0.16980844190E+01  0.29576521494E+02  0.00000000000E+00 0. -1.
</event>
<event>
 7    1  0.3220798E-013  0.5930197E+02  0.7816164E-02  0.1266605E+00
        -11   -1    0    0    0    0  0.00000000000E+00  0.00000000000E+00  0.45593999997E+02  0.45594000000E+02  0.51100000000E-03 0.  1.
         11   -1    0    0    0    0 -0.00000000000E+00 -0.00000000000E+00 -0.45593999997E+02  0.45594000000E+02  0.51100000000E-03 0. -1.
    9900012    2    1    2    0    0 -0.12705056962E+02 -0.25568630584E+02 -0.14196675098E+02  0.59301969733E+02  0.50000046880E+02 0.  0.
         12    1    1    2    0    0  0.12705056962E+02  0.25568630584E+02  0.14196675098E+02  0.31886030267E+02  0.00000000000E+00 0. -1.
         11    1    3    3    0    0 -0.12280135112E+02 -0.34407373897E+01 -0.21827686973E+02  0.25280196024E+02  0.51100000000E-03 0. -1.
        -11    1    3    3    0    0 -0.10632754516E+02 -0.25383151435E+01  0.39740459475E+01  0.11631489751E+02  0.51100000000E-03 0.  1.
        -12    1    3    3    0    0  0.10207832666E+02 -0.19589578051E+02  0.36569659276E+01  0.22390283958E+02  0.00000000000E+00 0.  1.
</event>
<event>
 7    1  0.3220798E-013  0.5930195E+02  0.7816164E-02  0.1266605E+00
        -11   -1    0    0    0    0  0.00000000000E+00  0.00000000000E+00  0.45593999997E+02  0.45594000000E+02  0.51100000000E-03 0.  1.
         11   -1    0    0    0    0 -0.00000000000E+00 -0.00000000000E+00 -0.45593999997E+02  0.45594000000E+02  0.51100000000E-03 0. -1.
    9900012    2    1    2    0    0  0.29908964812E+02  0.10875449360E+02  0.19744661272E+01  0.59301951461E+02  0.50000013557E+02 0.  0.
         12    1    1    2    0    0 -0.29908964812E+02 -0.10875449360E+02 -0.19744661272E+01  0.31886048539E+02  0.00000000000E+00 0. -1.
         11    1    3    3    0    0  0.20414310745E+02  0.52326247960E+01  0.14413960470E+02  0.25532072030E+02  0.51100000000E-03 0. -1.
        -11    1    3    3    0    0  0.18783414787E+02  0.97462957133E+01 -0.72733229651E+01  0.22376509523E+02  0.51100000000E-03 0.  1.
         12    1    3    3    0    0 -0.92887607199E+01 -0.41034711496E+01 -0.51661713772E+01  0.11393369909E+02  0.00000000000E+00 0. -1.
</event>
<event>
 7    1  0.3220798E-013  0.5930196E+02  0.7816164E-02  0.1266605E+00
        -11   -1    0    0    0    0  0.00000000000E+00  0.00000000000E+00  0.45593999997E+02  0.45594000000E+02  0.51100000000E-03 0.  1.
         11   -1    0    0    0    0 -0.00000000000E+00 -0.00000000000E+00 -0.45593999997E+02  0.45594000000E+02  0.51100000000E-03 0. -1.
    9900012    2    1    2    0    0  0.21037150941E+02  0.18546978999E+02  0.15171275309E+02  0.59301956906E+02  0.50000023486E+02 0.  0.
         12    1    1    2    0    0 -0.21037150941E+02 -0.18546978999E+02 -0.15171275309E+02  0.31886043094E+02  0.00000000000E+00 0. -1.
         11    1    3    3    0    0  0.99732830380E+01  0.18540066072E+01 -0.27680809782E+01  0.10515036263E+02  0.51100000000E-03 0. -1.
        -11    1    3    3    0    0  0.18870196789E+02 -0.49223179034E+01  0.16860905962E+02  0.25779908660E+02  0.51100000000E-03 0.  1.
         12    1    3    3    0    0 -0.78063288866E+01  0.21615290296E+02  0.10784503259E+01  0.23007011982E+02  0.00000000000E+00 0. -1.
</event>
<event>
 7    1  0.3220798E-013  0.5930195E+02  0.7816164E-02  0.1266605E+00
        -11   -1    0    0    0    0  0.00000000000E+00  0.00000000000E+00  0.45593999997E+02  0.45594000000E+02  0.51100000000E-03 0.  1.
         11   -1    0    0    0    0 -0.00000000000E+00 -0.00000000000E+00 -0.45593999997E+02  0.45594000000E+02  0.51100000000E-03 0. -1.
    9900012    2    1    2    0    0 -0.26673455302E+02  0.12557045781E+02  0.12147739556E+02  0.59301949871E+02  0.50000010657E+02 0.  0.
         12    1    1    2    0    0  0.26673455302E+02 -0.12557045781E+02 -0.12147739556E+02  0.31886050129E+02  0.00000000000E+00 0. -1.
         11    1    3    3    0    0 -0.20282527902E+02  0.11473003944E+02 -0.10657625352E+02  0.25624124102E+02  0.51100000000E-03 0. -1.
        -11    1    3    3    0    0 -0.82448005702E+01  0.96276128544E+01  0.46039008706E+01  0.13485680154E+02  0.51100000000E-03 0.  1.
        -12    1    3    3    0    0  0.18538731701E+01 -0.85435710172E+01  0.18201464037E+02  0.20192145615E+02  0.00000000000E+00 0.  1.
</event>
<event>
 7    1  0.3220798E-013  0.5930194E+02  0.7816164E-02  0.1266605E+00
        -11   -1    0    0    0    0  0.00000000000E+00  0.00000000000E+00  0.45593999997E+02  0.45594000000E+02  0.51100000000E-03 0.  1.
         11   -1    0    0    0    0 -0.00000000000E+00 -0.00000000000E+00 -0.45593999997E+02  0.45594000000E+02  0.51100000000E-03 0. -1.
    9900012    2    1    2    0    0 -0.68069610871E+01  0.21175429636E+02  0.22847039054E+02  0.59301941400E+02  0.49999995207E+02 0.  0.
         12    1    1    2    0    0  0.68069610871E+01 -0.21175429636E+02 -0.22847039054E+02  0.31886058600E+02  0.00000000000E+00 0. -1.
         11    1    3    3    0    0 -0.83237547169E+01 -0.10590680990E+02  0.97051856227E+01  0.16602350576E+02  0.51100000000E-03 0. -1.
        -11    1    3    3    0    0  0.98638174171E+01  0.10646687922E+02 -0.30225091559E+01  0.14825060526E+02  0.51100000000E-03 0.  1.
        -12    1    3    3    0    0 -0.83470237873E+01  0.21119422704E+02  0.16164362588E+02  0.27874530297E+02  0.00000000000E+00 0.  1.
</event>
<event>
 7    1  0.3220798E-013  0.5930200E+02  0.7816164E-02  0.1266605E+00
        -11   -1    0    0    0    0  0.00000000000E+00  0.00000000000E+00  0.45593999997E+02  0.45594000000E+02  0.51100000000E-03 0.  1.
         11   -1    0    0    0    0 -0.00000000000E+00 -0.00000000000E+00 -0.45593999997E+02  0.45594000000E+02  0.51100000000E-03 0. -1.
    9900012    2    1    2    0    0 -0.13797856681E+02 -0.19493199302E+01  0.28679896668E+02  0.59301997270E+02  0.50000097102E+02 0.  0.
         12    1    1    2    0    0  0.13797856681E+02  0.19493199302E+01 -0.28679896668E+02  0.31886002730E+02  0.00000000000E+00 0. -1.
         11    1    3    3    0    0 -0.68822524782E+00  0.67498301851E+01  0.74868013886E-01  0.67852389052E+01  0.51100000000E-03 0. -1.
        -11    1    3    3    0    0 -0.81495717500E+01 -0.10955485671E+02  0.38703757198E+02  0.41041674034E+02  0.51100000000E-03 0.  1.
         12    1    3    3    0    0 -0.49600596828E+01  0.22563355558E+01 -0.10098728544E+02  0.11475084331E+02  0.00000000000E+00 0. -1.
</event>
<event>
 7    1  0.3220798E-013  0.5930194E+02  0.7816164E-02  0.1266605E+00
        -11   -1    0    0    0    0  0.00000000000E+00  0.00000000000E+00  0.45593999997E+02  0.45594000000E+02  0.51100000000E-03 0.  1.
         11   -1    0    0    0    0 -0.00000000000E+00 -0.00000000000E+00 -0.45593999997E+02  0.45594000000E+02  0.51100000000E-03 0. -1.
    9900012    2    1    2    0    0 -0.16892863841E+02  0.18999566561E+02  0.19244957326E+02  0.59301940966E+02  0.49999994417E+02 0.  0.
         12    1    1    2    0    0  0.16892863841E+02 -0.18999566561E+02 -0.19244957326E+02  0.31886059034E+02  0.00000000000E+00 0. -1.
         11    1    3    3    0    0 -0.14286679938E+02 -0.52674450613E+01  0.11186262070E+02  0.18894117086E+02  0.51100000000E-03 0. -1.
        -11    1    3    3    0    0 -0.35015459156E+01  0.23743802671E+02  0.18257967114E+02  0.30155967112E+02  0.51100000000E-03 0.  1.
         12    1    3    3    0    0  0.89536201259E+00  0.52320895166E+00 -0.10199271859E+02  0.10251856768E+02  0.00000000000E+00 0. -1.
</event>
<event>
 7    1  0.3220798E-013  0.5930185E+02  0.7816164E-02  0.1266605E+00
        -11   -1    0    0    0    0  0.00000000000E+00  0.00000000000E+00  0.45593999997E+02  0.45594000000E+02  0.51100000000E-03 0.  1.
         11   -1    0    0    0    0 -0.00000000000E+00 -0.00000000000E+00 -0.45593999997E+02  0.45594000000E+02  0.51100000000E-03 0. -1.
    9900012    2    1    2    0    0  0.15316756628E+02  0.27013218010E+02 -0.72394410923E+01  0.59301851155E+02  0.49999830622E+02 0.  0.
         12    1    1    2    0    0 -0.15316756628E+02 -0.27013218010E+02  0.72394410923E+01  0.31886148845E+02  0.00000000000E+00 0. -1.
         11    1    3    3    0    0  0.10166635135E+02  0.33521654828E+01 -0.44053287799E+00  0.10714081989E+02  0.51100000000E-03 0. -1.
        -11    1    3    3    0    0 -0.51852860441E+00 -0.11223114794E+02 -0.70151644169E+01  0.13245365592E+02  0.51100000000E-03 0.  1.
        -12    1    3    3    0    0  0.56686500971E+01  0.34884167321E+02  0.21625620266E+00  0.35342403574E+02  0.00000000000E+00 0.  1.
</event>
<event>
 7    1  0.3220798E-013  0.5930194E+02  0.7816164E-02  0.1266605E+00
        -11   -1    0    0    0    0  0.00000000000E+00  0.00000000000E+00  0.45593999997E+02  0.45594000000E+02  0.51100000000E-03 0.  1.
         11   -1    0    0    0    0 -0.00000000000E+00 -0.00000000000E+00 -0.45593999997E+02  0.45594000000E+02  0.51100000000E-03 0. -1.
    9900012    2    1    2    0    0  0.32157381315E+01 -0.22670906215E+02  0.22190313010E+02  0.59301937970E+02  0.49999988952E+02 0.  0.
         12    1    1    2    0    0 -0.32157381315E+01  0.22670906215E+02 -0.22190313010E+02  0.31886062030E+02  0.00000000000E+00 0. -1.
         11    1    3    3    0    0 -0.50829570683E+01  0.51545188100E+01 -0.46172224309E+01  0.85862832447E+01  0.51100000000E-03 0. -1.
        -11    1    3    3    0    0  0.18575590855E+01 -0.26223093444E+01  0.24378415111E+02  0.24589309783E+02  0.51100000000E-03 0.  1.
         12    1    3    3    0    0  0.64411361142E+01 -0.25203115680E+02  0.24291203301E+01  0.26126344942E+02  0.00000000000E+00 0. -1.
</event>
<event>
 7    1  0.3220798E-013  0.5930193E+02  0.7816164E-02  0.1266605E+00
        -11   -1    0    0    0    0  0.00000000000E+00  0.00000000000E+00  0.45593999997E+02  0.45594000000E+02  0.51100000000E-03 0.  1.
         11   -1    0    0    0    0 -0.00000000000E+00 -0.00000000000E+00 -0.45593999997E+02  0.45594000000E+02  0.51100000000E-03 0. -1.
    9900012    2    1    2    0    0  0.12424215426E+02 -0.87437413454E+01  0.28034042986E+02  0.59301926115E+02  0.49999967332E+02 0.  0.
         12    1    1    2    0    0 -0.12424215426E+02  0.87437413454E+01 -0.28034042986E+02  0.31886073885E+02  0.00000000000E+00 0. -1.
         11    1    3    3    0    0  0.19638527929E+02  0.28577036997E+01  0.26838305359E+02  0.33378629158E+02  0.51100000000E-03 0. -1.
        -11    1    3    3    0    0  0.24801863713E+01 -0.12956469832E+02  0.65905147275E+01  0.14746400224E+02  0.51100000000E-03 0.  1.
         12    1    3    3    0    0 -0.96944988747E+01  0.13550247870E+01 -0.53947771011E+01  0.11176896733E+02  0.00000000000E+00 0. -1.
</event>
<event>
 7    1  0.3220798E-013  0.5930195E+02  0.7816164E-02  0.1266605E+00
        -11   -1    0    0    0    0  0.00000000000E+00  0.00000000000E+00  0.45593999997E+02  0.45594000000E+02  0.51100000000E-03 0.  1.
         11   -1    0    0    0    0 -0.00000000000E+00 -0.00000000000E+00 -0.45593999997E+02  0.45594000000E+02  0.51100000000E-03 0. -1.
    9900012    2    1    2    0    0 -0.74415561681E+01  0.16381513840E+02  0.26324692020E+02  0.59301950326E+02  0.50000011486E+02 0.  0.
         12    1    1    2    0    0  0.74415561681E+01 -0.16381513840E+02 -0.26324692020E+02  0.31886049674E+02  0.00000000000E+00 0. -1.
         11    1    3    3    0    0 -0.93423941668E+01 -0.18787831861E+01  0.67616620581E+01  0.11684615059E+02  0.51100000000E-03 0. -1.
        -11    1    3    3    0    0 -0.10971852043E+02 -0.32773373775E+01  0.19397757938E+02  0.22525440969E+02  0.51100000000E-03 0.  1.
        -12    1    3    3    0    0  0.12872690042E+02  0.21537634403E+02  0.16527202396E+00  0.25091894298E+02  0.00000000000E+00 0.  1.
</event>
<event>
 7    1  0.3220798E-013  0.5930193E+02  0.7816164E-02  0.1266605E+00
        -11   -1    0    0    0    0  0.00000000000E+00  0.00000000000E+00  0.45593999997E+02  0.45594000000E+02  0.51100000000E-03 0.  1.
         11   -1    0    0    0    0 -0.00000000000E+00 -0.00000000000E+00 -0.45593999997E+02  0.45594000000E+02  0.51100000000E-03 0. -1.
    9900012    2    1    2    0    0 -0.22927146301E+02  0.16075248275E+01  0.22101663170E+02  0.59301926418E+02  0.49999967885E+02 0.  0.
         12    1    1    2    0    0  0.22927146301E+02 -0.16075248275E+01 -0.22101663170E+02  0.31886073582E+02  0.00000000000E+00 0. -1.
         11    1    3    3    0    0 -0.18407449664E+02 -0.33788549516E+01  0.67597298582E+01  0.19898362042E+02  0.51100000000E-03 0. -1.
        -11    1    3    3    0    0 -0.15167121844E+02  0.39262654348E+01  0.21844976835E+02  0.26882339155E+02  0.51100000000E-03 0.  1.
         12    1    3    3    0    0  0.10647425207E+02  0.10601143443E+01 -0.65030435233E+01  0.12521225221E+02  0.00000000000E+00 0. -1.
</event>
<event>
 7    1  0.3220798E-013  0.5930195E+02  0.7816164E-02  0.1266605E+00
        -11   -1    0    0    0    0  0.00000000000E+00  0.00000000000E+00  0.45593999997E+02  0.45594000000E+02  0.51100000000E-03 0. -1.
         11   -1    0    0    0    0 -0.00000000000E+00 -0.00000000000E+00 -0.45593999997E+02  0.45594000000E+02  0.51100000000E-03 0.  1.
    9900012    2    1    2    0    0  0.15237075078E+02 -0.24835404829E+02 -0.12952003770E+02  0.59301949890E+02  0.50000010692E+02 0.  0.
         12    1    1    2    0    0 -0.15237075078E+02  0.24835404829E+02  0.12952003770E+02  0.31886050110E+02  0.00000000000E+00 0. -1.
         11    1    3    3    0    0  0.28591932905E+02 -0.18774537641E+02 -0.12178605983E+02  0.36308405842E+02  0.51100000000E-03 0. -1.
        -11    1    3    3    0    0  0.21885325116E+01 -0.72874892423E-01 -0.52982895225E+01  0.57329623607E+01  0.51100000000E-03 0.  1.
         12    1    3    3    0    0 -0.15543390339E+02 -0.59879922958E+01  0.45248917354E+01  0.17260581687E+02  0.00000000000E+00 0. -1.
</event>
<event>
 7    1  0.3220798E-013  0.5930195E+02  0.7816164E-02  0.1266605E+00
        -11   -1    0    0    0    0  0.00000000000E+00  0.00000000000E+00  0.45593999997E+02  0.45594000000E+02  0.51100000000E-03 0.  1.
         11   -1    0    0    0    0 -0.00000000000E+00 -0.00000000000E+00 -0.45593999997E+02  0.45594000000E+02  0.51100000000E-03 0. -1.
    9900012    2    1    2    0    0 -0.10661255573E+01  0.42895500560E+01  0.31578214522E+02  0.59301945121E+02  0.50000001994E+02 0.  0.
         12    1    1    2    0    0  0.10661255573E+01 -0.42895500560E+01 -0.31578214522E+02  0.31886054879E+02  0.00000000000E+00 0. -1.
         11    1    3    3    0    0 -0.13086989458E+01 -0.64471863737E+01 -0.35412764296E+01  0.74712478262E+01  0.51100000000E-03 0. -1.
        -11    1    3    3    0    0 -0.13642315046E+02 -0.71240900889E+01  0.12346519028E+02  0.19730736220E+02  0.51100000000E-03 0.  1.
        -12    1    3    3    0    0  0.13884888435E+02  0.17860826519E+02  0.22772971923E+02  0.32099961074E+02  0.00000000000E+00 0.  1.
</event>
<event>
 7    1  0.3220798E-013  0.5930188E+02  0.7816164E-02  0.1266605E+00
        -11   -1    0    0    0    0  0.00000000000E+00  0.00000000000E+00  0.45593999997E+02  0.45594000000E+02  0.51100000000E-03 0.  1.
         11   -1    0    0    0    0 -0.00000000000E+00 -0.00000000000E+00 -0.45593999997E+02  0.45594000000E+02  0.51100000000E-03 0. -1.
    9900012    2    1    2    0    0 -0.15516626086E+02 -0.27794325125E+02  0.18532122070E+01  0.59301880924E+02  0.49999884914E+02 0.  0.
         12    1    1    2    0    0  0.15516626086E+02  0.27794325125E+02 -0.18532122070E+01  0.31886119076E+02  0.00000000000E+00 0. -1.
         11    1    3    3    0    0 -0.20365438475E+02 -0.12066785720E+02  0.20104826275E+01  0.23757113515E+02  0.51100000000E-03 0. -1.
        -11    1    3    3    0    0 -0.19591086386E+01  0.23259840046E+01  0.12239075023E+02  0.12611235702E+02  0.51100000000E-03 0.  1.
         12    1    3    3    0    0  0.68079210276E+01 -0.18053523410E+02 -0.12396345444E+02  0.22933531707E+02  0.00000000000E+00 0. -1.
</event>
<event>
 7    1  0.3220798E-013  0.5930196E+02  0.7816164E-02  0.1266605E+00
        -11   -1    0    0    0    0  0.00000000000E+00  0.00000000000E+00  0.45593999997E+02  0.45594000000E+02  0.51100000000E-03 0.  1.
         11   -1    0    0    0    0 -0.00000000000E+00 -0.00000000000E+00 -0.45593999997E+02  0.45594000000E+02  0.51100000000E-03 0. -1.
    9900012    2    1    2    0    0 -0.29861619950E+02  0.94446014265E+01  0.59835571487E+01  0.59301956058E+02  0.50000021940E+02 0.  0.
         12    1    1    2    0    0  0.29861619950E+02 -0.94446014265E+01 -0.59835571487E+01  0.31886043942E+02  0.00000000000E+00 0. -1.
         11    1    3    3    0    0 -0.53607090037E+01  0.13870703837E+02 -0.56825613985E+01  0.15919331967E+02  0.51100000000E-03 0. -1.
        -11    1    3    3    0    0 -0.18101928626E+02  0.90088950791E+01 -0.52124033062E+01  0.20880832335E+02  0.51100000000E-03 0.  1.
        -12    1    3    3    0    0 -0.63989823197E+01 -0.13434997490E+02  0.16878521853E+02  0.22501791756E+02  0.00000000000E+00 0.  1.
</event>
<event>
 7    1  0.3220798E-013  0.5930194E+02  0.7816164E-02  0.1266605E+00
        -11   -1    0    0    0    0  0.00000000000E+00  0.00000000000E+00  0.45593999997E+02  0.45594000000E+02  0.51100000000E-03 0. -1.
         11   -1    0    0    0    0 -0.00000000000E+00 -0.00000000000E+00 -0.45593999997E+02  0.45594000000E+02  0.51100000000E-03 0.  1.
    9900012    2    1    2    0    0 -0.24798279462E+02  0.14192734129E+02 -0.14153880953E+02  0.59301941724E+02  0.49999995798E+02 0.  0.
         12    1    1    2    0    0  0.24798279462E+02 -0.14192734129E+02  0.14153880953E+02  0.31886058276E+02  0.00000000000E+00 0. -1.
         11    1    3    3    0    0  0.24456672539E+01  0.50267338941E+01  0.54350507023E+01  0.77967376739E+01  0.51100000000E-03 0. -1.
        -11    1    3    3    0    0 -0.18063404609E+02 -0.13701970230E+02 -0.12371701979E+02  0.25828077443E+02  0.51100000000E-03 0.  1.
         12    1    3    3    0    0 -0.91805421065E+01  0.22867970466E+02 -0.72172296765E+01  0.25677126607E+02  0.00000000000E+00 0. -1.
</event>
<event>
 7    1  0.3220798E-013  0.5930196E+02  0.7816164E-02  0.1266605E+00
        -11   -1    0    0    0    0  0.00000000000E+00  0.00000000000E+00  0.45593999997E+02  0.45594000000E+02  0.51100000000E-03 0.  1.
         11   -1    0    0    0    0 -0.00000000000E+00 -0.00000000000E+00 -0.45593999997E+02  0.45594000000E+02  0.51100000000E-03 0. -1.
    9900012    2    1    2    0    0  0.12709302955E+01  0.17430548349E+02  0.26669842171E+02  0.59301956643E+02  0.50000023007E+02 0.  0.
         12    1    1    2    0    0 -0.12709302955E+01 -0.17430548349E+02 -0.26669842171E+02  0.31886043357E+02  0.00000000000E+00 0. -1.
         11    1    3    3    0    0  0.10362505618E+02  0.92141441012E+01  0.23963145239E+01  0.14072110636E+02  0.51100000000E-03 0. -1.
        -11    1    3    3    0    0 -0.12935036635E+02  0.21028777390E+02  0.14165478439E+02  0.28463756444E+02  0.51100000000E-03 0.  1.
        -12    1    3    3    0    0  0.38434613120E+01 -0.12812373143E+02  0.10108049208E+02  0.16766089562E+02  0.00000000000E+00 0.  1.
</event>
<event>
 7    1  0.3220798E-013  0.5930195E+02  0.7816164E-02  0.1266605E+00
        -11   -1    0    0    0    0  0.00000000000E+00  0.00000000000E+00  0.45593999997E+02  0.45594000000E+02  0.51100000000E-03 0.  1.
         11   -1    0    0    0    0 -0.00000000000E+00 -0.00000000000E+00 -0.45593999997E+02  0.45594000000E+02  0.51100000000E-03 0. -1.
    9900012    2    1    2    0    0 -0.16016514323E+02  0.45897543113E+01  0.27186867962E+02  0.59301947166E+02  0.50000005724E+02 0.  0.
         12    1    1    2    0    0  0.16016514323E+02 -0.45897543113E+01 -0.27186867962E+02  0.31886052834E+02  0.00000000000E+00 0. -1.
         11    1    3    3    0    0  0.82337916092E+01 -0.78178680906E+01 -0.41539018644E+01  0.12090049078E+02  0.51100000000E-03 0. -1.
        -11    1    3    3    0    0 -0.73155727980E+00  0.11436854036E+02  0.74244025968E+01  0.13654982991E+02  0.51100000000E-03 0.  1.
        -12    1    3    3    0    0 -0.23518748653E+02  0.97076836571E+00  0.23916367230E+02  0.33556915098E+02  0.00000000000E+00 0.  1.
</event>
<event>
 7    1  0.3220798E-013  0.5930191E+02  0.7816164E-02  0.1266605E+00
        -11   -1    0    0    0    0  0.00000000000E+00  0.00000000000E+00  0.45593999997E+02  0.45594000000E+02  0.51100000000E-03 0. -1.
         11   -1    0    0    0    0 -0.00000000000E+00 -0.00000000000E+00 -0.45593999997E+02  0.45594000000E+02  0.51100000000E-03 0.  1.
    9900012    2    1    2    0    0  0.15494118758E+02  0.38976965915E+01 -0.27594618535E+02  0.59301910134E+02  0.49999938187E+02 0.  0.
         12    1    1    2    0    0 -0.15494118758E+02 -0.38976965915E+01  0.27594618535E+02  0.31886089866E+02  0.00000000000E+00 0. -1.
         11    1    3    3    0    0  0.54330354997E+01  0.14583412087E+01 -0.11821060334E+00  0.56265982468E+01  0.51100000000E-03 0. -1.
        -11    1    3    3    0    0  0.31573552787E+01 -0.73760835672E+01  0.10861256186E+02  0.13503421320E+02  0.51100000000E-03 0.  1.
         12    1    3    3    0    0  0.69037279796E+01  0.98154389499E+01 -0.38337664118E+02  0.40171890568E+02  0.00000000000E+00 0. -1.
</event>
<event>
 7    1  0.3220798E-013  0.5930190E+02  0.7816164E-02  0.1266605E+00
        -11   -1    0    0    0    0  0.00000000000E+00  0.00000000000E+00  0.45593999997E+02  0.45594000000E+02  0.51100000000E-03 0.  1.
         11   -1    0    0    0    0 -0.00000000000E+00 -0.00000000000E+00 -0.45593999997E+02  0.45594000000E+02  0.51100000000E-03 0. -1.
    9900012    2    1    2    0    0  0.26688419101E+02 -0.55951761697E+01  0.16527125421E+02  0.59301896676E+02  0.49999913642E+02 0.  0.
         12    1    1    2    0    0 -0.26688419101E+02  0.55951761697E+01 -0.16527125421E+02  0.31886103324E+02  0.00000000000E+00 0. -1.
         11    1    3    3    0    0  0.16691269450E+01 -0.19484641387E+01 -0.91975210851E+01  0.95486591535E+01  0.51100000000E-03 0. -1.
        -11    1    3    3    0    0  0.10450507406E+02  0.13392890274E+02  0.19887571778E+01  0.17103735566E+02  0.51100000000E-03 0.  1.
         12    1    3    3    0    0  0.14568784750E+02 -0.17039602305E+02  0.23735889328E+02  0.32649501957E+02  0.00000000000E+00 0. -1.
</event>
<event>
 7    1  0.3220798E-013  0.5930185E+02  0.7816164E-02  0.1266605E+00
        -11   -1    0    0    0    0  0.00000000000E+00  0.00000000000E+00  0.45593999997E+02  0.45594000000E+02  0.51100000000E-03 0.  1.
         11   -1    0    0    0    0 -0.00000000000E+00 -0.00000000000E+00 -0.45593999997E+02  0.45594000000E+02  0.51100000000E-03 0. -1.
    9900012    2    1    2    0    0 -0.65934389479E+01 -0.27997623872E+02  0.13761765259E+02  0.59301849986E+02  0.49999828491E+02 0.  0.
         12    1    1    2    0    0  0.65934389479E+01  0.27997623872E+02 -0.13761765259E+02  0.31886150014E+02  0.00000000000E+00 0. -1.
         11    1    3    3    0    0  0.13953352024E+02 -0.46302331263E+00 -0.53078276593E+01  0.14935978643E+02  0.51100000000E-03 0. -1.
        -11    1    3    3    0    0 -0.78563770333E+01 -0.40964461050E+01 -0.34148237059E+01  0.94955016710E+01  0.51100000000E-03 0.  1.
        -12    1    3    3    0    0 -0.12690413939E+02 -0.23438154455E+02  0.22484416624E+02  0.34870369672E+02  0.00000000000E+00 0.  1.
</event>
<event>
 7    1  0.3220798E-013  0.5930196E+02  0.7816164E-02  0.1266605E+00
        -11   -1    0    0    0    0  0.00000000000E+00  0.00000000000E+00  0.45593999997E+02  0.45594000000E+02  0.51100000000E-03 0. -1.
         11   -1    0    0    0    0 -0.00000000000E+00 -0.00000000000E+00 -0.45593999997E+02  0.45594000000E+02  0.51100000000E-03 0.  1.
    9900012    2    1    2    0    0 -0.17085791608E+02  0.21850107876E+02  0.15727941503E+02  0.59301958650E+02  0.50000026667E+02 0.  0.
         12    1    1    2    0    0  0.17085791608E+02 -0.21850107876E+02 -0.15727941503E+02  0.31886041350E+02  0.00000000000E+00 0. -1.
         11    1    3    3    0    0  0.98443413869E+01 -0.92257511297E+00 -0.92152420452E+00  0.99303277540E+01  0.51100000000E-03 0. -1.
        -11    1    3    3    0    0 -0.19780674629E+01  0.20923913377E+02  0.10997982080E+02  0.23720845516E+02  0.51100000000E-03 0.  1.
         12    1    3    3    0    0 -0.24952065532E+02  0.18487696115E+01  0.56514836278E+01  0.25650785380E+02  0.00000000000E+00 0. -1.
</event>
<event>
 7    1  0.3220798E-013  0.5930206E+02  0.7816164E-02  0.1266604E+00
        -11   -1    0    0    0    0  0.00000000000E+00  0.00000000000E+00  0.45593999997E+02  0.45594000000E+02  0.51100000000E-03 0.  1.
         11   -1    0    0    0    0 -0.00000000000E+00 -0.00000000000E+00 -0.45593999997E+02  0.45594000000E+02  0.51100000000E-03 0. -1.
    9900012    2    1    2    0    0  0.31463165340E+02  0.11303444253E+01  0.50502173551E+01  0.59302060355E+02  0.50000212152E+02 0.  0.
         12    1    1    2    0    0 -0.31463165340E+02 -0.11303444253E+01 -0.50502173551E+01  0.31885939645E+02  0.00000000000E+00 0. -1.
         11    1    3    3    0    0  0.91463991803E+01 -0.14611930960E+02 -0.11854749931E+02  0.20921286780E+02  0.51100000000E-03 0. -1.
        -11    1    3    3    0    0 -0.77737769438E+00 -0.37838856757E+01  0.38074278344E+01  0.54238928697E+01  0.51100000000E-03 0.  1.
         12    1    3    3    0    0  0.23094143854E+02  0.19526161061E+02  0.13097539451E+02  0.32956880705E+02  0.00000000000E+00 0. -1.
</event>
<event>
 7    1  0.3220798E-013  0.5930198E+02  0.7816164E-02  0.1266605E+00
        -11   -1    0    0    0    0  0.00000000000E+00  0.00000000000E+00  0.45593999997E+02  0.45594000000E+02  0.51100000000E-03 0. -1.
         11   -1    0    0    0    0 -0.00000000000E+00 -0.00000000000E+00 -0.45593999997E+02  0.45594000000E+02  0.51100000000E-03 0.  1.
    9900012    2    1    2    0    0  0.12065217325E+02 -0.17770609477E+02 -0.23565958619E+02  0.59301977421E+02  0.50000060901E+02 0.  0.
         12    1    1    2    0    0 -0.12065217325E+02  0.17770609477E+02  0.23565958619E+02  0.31886022579E+02  0.00000000000E+00 0. -1.
         11    1    3    3    0    0  0.37126542725E+01  0.15268793025E+02 -0.77261313033E+01  0.17510366854E+02  0.51100000000E-03 0. -1.
        -11    1    3    3    0    0 -0.54515118023E+01 -0.67615328500E+01 -0.58534176308E+01  0.10473767499E+02  0.51100000000E-03 0.  1.
        -12    1    3    3    0    0  0.13804074855E+02 -0.26277869651E+02 -0.99864096849E+01  0.31317843068E+02  0.00000000000E+00 0.  1.
</event>
<event>
 7    1  0.3220798E-013  0.5930195E+02  0.7816164E-02  0.1266605E+00
        -11   -1    0    0    0    0  0.00000000000E+00  0.00000000000E+00  0.45593999997E+02  0.45594000000E+02  0.51100000000E-03 0.  1.
         11   -1    0    0    0    0 -0.00000000000E+00 -0.00000000000E+00 -0.45593999997E+02  0.45594000000E+02  0.51100000000E-03 0. -1.
    9900012    2    1    2    0    0  0.12369304189E+02  0.37813396908E+01  0.29144845098E+02  0.59301949574E+02  0.50000010115E+02 0.  0.
         12    1    1    2    0    0 -0.12369304189E+02 -0.37813396908E+01 -0.29144845098E+02  0.31886050426E+02  0.00000000000E+00 0. -1.
         11    1    3    3    0    0  0.15063587834E+02 -0.18086878650E+01  0.15119923332E+02  0.21419503077E+02  0.51100000000E-03 0. -1.
        -11    1    3    3    0    0 -0.52685198894E+01 -0.14229510468E+02  0.52657889578E+01  0.16061282750E+02  0.51100000000E-03 0.  1.
         12    1    3    3    0    0  0.25742362438E+01  0.19819538024E+02  0.87591328080E+01  0.21821163747E+02  0.00000000000E+00 0. -1.
</event>
<event>
 7    1  0.3220798E-013  0.5930198E+02  0.7816164E-02  0.1266605E+00
        -11   -1    0    0    0    0  0.00000000000E+00  0.00000000000E+00  0.45593999997E+02  0.45594000000E+02  0.51100000000E-03 0. -1.
         11   -1    0    0    0    0 -0.00000000000E+00 -0.00000000000E+00 -0.45593999997E+02  0.45594000000E+02  0.51100000000E-03 0.  1.
    9900012    2    1    2    0    0 -0.31525577571E+02 -0.44512361859E+01  0.17443511747E+01  0.59301979462E+02  0.50000064623E+02 0.  0.
         12    1    1    2    0    0  0.31525577571E+02  0.44512361859E+01 -0.17443511747E+01  0.31886020538E+02  0.00000000000E+00 0. -1.
         11    1    3    3    0    0  0.76248023027E+01  0.19819504454E+01  0.32160124389E+01  0.85093168934E+01  0.51100000000E-03 0. -1.
        -11    1    3    3    0    0 -0.67099944447E+00 -0.10386665871E+02 -0.57227375144E+01  0.11877827793E+02  0.51100000000E-03 0.  1.
        -12    1    3    3    0    0 -0.38479380429E+02  0.39534792393E+01  0.42510762502E+01  0.38914834775E+02  0.00000000000E+00 0.  1.
</event>
<event>
 7    1  0.3220798E-013  0.5930198E+02  0.7816164E-02  0.1266605E+00
        -11   -1    0    0    0    0  0.00000000000E+00  0.00000000000E+00  0.45593999997E+02  0.45594000000E+02  0.51100000000E-03 0. -1.
         11   -1    0    0    0    0 -0.00000000000E+00 -0.00000000000E+00 -0.45593999997E+02  0.45594000000E+02  0.51100000000E-03 0.  1.
    9900012    2    1    2    0    0 -0.21500496305E+02 -0.50564666479E+01 -0.22997374807E+02  0.59301977289E+02  0.50000060660E+02 0.  0.
         12    1    1    2    0    0  0.21500496305E+02  0.50564666479E+01  0.22997374807E+02  0.31886022711E+02  0.00000000000E+00 0. -1.
         11    1    3    3    0    0 -0.19763461686E+01  0.86949931578E+00 -0.51852147772E+01  0.56167985352E+01  0.51100000000E-03 0. -1.
        -11    1    3    3    0    0 -0.34089384888E+02 -0.89999801614E+00 -0.17371349604E+02  0.38270875948E+02  0.51100000000E-03 0.  1.
         12    1    3    3    0    0  0.14565234751E+02 -0.50259679475E+01 -0.44081042551E+00  0.15414302806E+02  0.00000000000E+00 0. -1.
</event>
<event>
 7    1  0.3220798E-013  0.5930193E+02  0.7816164E-02  0.1266605E+00
        -11   -1    0    0    0    0  0.00000000000E+00  0.00000000000E+00  0.45593999997E+02  0.45594000000E+02  0.51100000000E-03 0.  1.
         11   -1    0    0    0    0 -0.00000000000E+00 -0.00000000000E+00 -0.45593999997E+02  0.45594000000E+02  0.51100000000E-03 0. -1.
    9900012    2    1    2    0    0 -0.10724068706E+02 -0.78779779821E+01  0.28976772320E+02  0.59301929048E+02  0.49999972680E+02 0.  0.
         12    1    1    2    0    0  0.10724068706E+02  0.78779779821E+01 -0.28976772320E+02  0.31886070952E+02  0.00000000000E+00 0. -1.
         11    1    3    3    0    0 -0.81065983647E+01 -0.60261559811E+01  0.14884259181E+02  0.17988125655E+02  0.51100000000E-03 0. -1.
        -11    1    3    3    0    0 -0.18550923366E+02  0.21592568272E+01 -0.14032398631E+01  0.18728807494E+02  0.51100000000E-03 0.  1.
        -12    1    3    3    0    0  0.15933453025E+02 -0.40110788283E+01  0.15495753002E+02  0.22584995899E+02  0.00000000000E+00 0.  1.
</event>
<event>
 7    1  0.3220798E-013  0.5930192E+02  0.7816164E-02  0.1266605E+00
        -11   -1    0    0    0    0  0.00000000000E+00  0.00000000000E+00  0.45593999997E+02  0.45594000000E+02  0.51100000000E-03 0.  1.
         11   -1    0    0    0    0 -0.00000000000E+00 -0.00000000000E+00 -0.45593999997E+02  0.45594000000E+02  0.51100000000E-03 0. -1.
    9900012    2    1    2    0    0 -0.19214943089E+02  0.14883279483E+02  0.20639673559E+02  0.59301918857E+02  0.49999954094E+02 0.  0.
         12    1    1    2    0    0  0.19214943089E+02 -0.14883279483E+02 -0.20639673559E+02  0.31886081143E+02  0.00000000000E+00 0. -1.
         11    1    3    3    0    0 -0.83183742529E+01 -0.29352176536E+01  0.10831781268E+02  0.13969192481E+02  0.51100000000E-03 0. -1.
        -11    1    3    3    0    0 -0.21877645043E+02  0.23298696112E+02  0.63865812809E+01  0.32592161847E+02  0.51100000000E-03 0.  1.
         12    1    3    3    0    0  0.10981076207E+02 -0.54801989752E+01  0.34213110100E+01  0.12740564528E+02  0.00000000000E+00 0. -1.
</event>
<event>
 7    1  0.3220798E-013  0.5930193E+02  0.7816164E-02  0.1266605E+00
        -11   -1    0    0    0    0  0.00000000000E+00  0.00000000000E+00  0.45593999997E+02  0.45594000000E+02  0.51100000000E-03 0.  1.
         11   -1    0    0    0    0 -0.00000000000E+00 -0.00000000000E+00 -0.45593999997E+02  0.45594000000E+02  0.51100000000E-03 0. -1.
    9900012    2    1    2    0    0  0.13309746855E+02  0.34518916410E+01  0.28769025774E+02  0.59301925277E+02  0.49999965802E+02 0.  0.
         12    1    1    2    0    0 -0.13309746855E+02 -0.34518916410E+01 -0.28769025774E+02  0.31886074723E+02  0.00000000000E+00 0. -1.
         11    1    3    3    0    0  0.37036527297E+01  0.33477515824E+01 -0.11862498367E+02  0.12870250657E+02  0.51100000000E-03 0. -1.
        -11    1    3    3    0    0  0.32129031452E+01 -0.16599443768E+00 -0.16866116745E+01  0.36324867481E+01  0.51100000000E-03 0.  1.
        -12    1    3    3    0    0  0.63931909807E+01  0.27013449629E+00  0.42318135816E+02  0.42799187872E+02  0.00000000000E+00 0.  1.
</event>
<event>
 7    1  0.3220798E-013  0.5930190E+02  0.7816164E-02  0.1266605E+00
        -11   -1    0    0    0    0  0.00000000000E+00  0.00000000000E+00  0.45593999997E+02  0.45594000000E+02  0.51100000000E-03 0. -1.
         11   -1    0    0    0    0 -0.00000000000E+00 -0.00000000000E+00 -0.45593999997E+02  0.45594000000E+02  0.51100000000E-03 0.  1.
    9900012    2    1    2    0    0  0.80958658803E+01 -0.19566030939E+02 -0.23840113833E+02  0.59301895839E+02  0.49999912114E+02 0.  0.
         12    1    1    2    0    0 -0.80958658803E+01  0.19566030939E+02  0.23840113833E+02  0.31886104161E+02  0.00000000000E+00 0. -1.
         11    1    3    3    0    0 -0.90307177978E+01  0.58020961681E+01 -0.16612357872E+02  0.19778488774E+02  0.51100000000E-03 0. -1.
        -11    1    3    3    0    0  0.91308373162E+01 -0.44517716276E+00 -0.95823735713E+01  0.13243574152E+02  0.51100000000E-03 0.  1.
        -12    1    3    3    0    0  0.79957463619E+01 -0.24922949944E+02  0.23546176102E+01  0.26279832912E+02  0.00000000000E+00 0.  1.
</event>
<event>
 7    1  0.3220798E-013  0.5930189E+02  0.7816164E-02  0.1266605E+00
        -11   -1    0    0    0    0  0.00000000000E+00  0.00000000000E+00  0.45593999997E+02  0.45594000000E+02  0.51100000000E-03 0.  1.
         11   -1    0    0    0    0 -0.00000000000E+00 -0.00000000000E+00 -0.45593999997E+02  0.45594000000E+02  0.51100000000E-03 0. -1.
    9900012    2    1    2    0    0  0.11719071212E+02  0.19114431141E+02  0.22672139342E+02  0.59301890011E+02  0.49999901486E+02 0.  0.
         12    1    1    2    0    0 -0.11719071212E+02 -0.19114431141E+02 -0.22672139342E+02  0.31886109989E+02  0.00000000000E+00 0. -1.
         11    1    3    3    0    0 -0.24459289756E+01 -0.12219005826E+02  0.18357513139E+01  0.12595898344E+02  0.51100000000E-03 0. -1.
        -11    1    3    3    0    0 -0.47199163544E+01  0.98386611685E+00 -0.85108151797E+00  0.48959108386E+01  0.51100000000E-03 0.  1.
         12    1    3    3    0    0  0.18884916542E+02  0.30349570850E+02  0.21687469546E+02  0.41810080829E+02  0.00000000000E+00 0. -1.
</event>
<event>
 7    1  0.3220798E-013  0.5930183E+02  0.7816164E-02  0.1266605E+00
        -11   -1    0    0    0    0  0.00000000000E+00  0.00000000000E+00  0.45593999997E+02  0.45594000000E+02  0.51100000000E-03 0. -1.
         11   -1    0    0    0    0 -0.00000000000E+00 -0.00000000000E+00 -0.45593999997E+02  0.45594000000E+02  0.51100000000E-03 0.  1.
    9900012    2    1    2    0    0 -0.21118392764E+02 -0.94006668664E+01 -0.21962888842E+02  0.59301834712E+02  0.49999800634E+02 0.  0.
         12    1    1    2    0    0  0.21118392764E+02  0.94006668664E+01  0.21962888842E+02  0.31886165288E+02  0.00000000000E+00 0. -1.
         11    1    3    3    0    0 -0.13808307825E+01  0.27886422618E+00  0.13371204236E+02  0.13445205908E+02  0.51100000000E-03 0. -1.
        -11    1    3    3    0    0 -0.10805084201E+02 -0.84625177768E+01 -0.56643286224E+01  0.14847513958E+02  0.51100000000E-03 0.  1.
        -12    1    3    3    0    0 -0.89324777808E+01 -0.12170133158E+01 -0.29669764456E+02  0.31009114847E+02  0.00000000000E+00 0.  1.
</event>
<event>
 7    1  0.3220798E-013  0.5930197E+02  0.7816164E-02  0.1266605E+00
        -11   -1    0    0    0    0  0.00000000000E+00  0.00000000000E+00  0.45593999997E+02  0.45594000000E+02  0.51100000000E-03 0.  1.
         11   -1    0    0    0    0 -0.00000000000E+00 -0.00000000000E+00 -0.45593999997E+02  0.45594000000E+02  0.51100000000E-03 0. -1.
    9900012    2    1    2    0    0 -0.23875153793E+02  0.19787571251E+02  0.74261604504E+01  0.59301971654E+02  0.50000050383E+02 0.  0.
         12    1    1    2    0    0  0.23875153793E+02 -0.19787571251E+02 -0.74261604504E+01  0.31886028346E+02  0.00000000000E+00 0. -1.
         11    1    3    3    0    0 -0.43302353410E+01  0.59193044838E+01  0.14153997211E+02  0.15941290443E+02  0.51100000000E-03 0. -1.
        -11    1    3    3    0    0  0.71339914132E+01  0.14427133704E+02 -0.14576318827E+01  0.16160467548E+02  0.51100000000E-03 0.  1.
        -12    1    3    3    0    0 -0.26678909866E+02 -0.55886693675E+00 -0.52702048775E+01  0.27200213663E+02  0.00000000000E+00 0.  1.
</event>
<event>
 7    1  0.3220798E-013  0.5930194E+02  0.7816164E-02  0.1266605E+00
        -11   -1    0    0    0    0  0.00000000000E+00  0.00000000000E+00  0.45593999997E+02  0.45594000000E+02  0.51100000000E-03 0. -1.
         11   -1    0    0    0    0 -0.00000000000E+00 -0.00000000000E+00 -0.45593999997E+02  0.45594000000E+02  0.51100000000E-03 0.  1.
    9900012    2    1    2    0    0 -0.12466624244E+02  0.12073276836E+02 -0.26749586847E+02  0.59301935174E+02  0.49999983852E+02 0.  0.
         12    1    1    2    0    0  0.12466624244E+02 -0.12073276836E+02  0.26749586847E+02  0.31886064826E+02  0.00000000000E+00 0. -1.
         11    1    3    3    0    0  0.70851192509E+01  0.12762786037E+02 -0.23960979537E+02  0.28057372701E+02  0.51100000000E-03 0. -1.
        -11    1    3    3    0    0  0.50549210179E+01 -0.36847426875E+01  0.31181973792E+00  0.62631291684E+01  0.51100000000E-03 0.  1.
         12    1    3    3    0    0 -0.24606664513E+02  0.29952334865E+01 -0.31004270485E+01  0.24981433305E+02  0.00000000000E+00 0. -1.
</event>
<event>
 7    1  0.3220798E-013  0.5930196E+02  0.7816164E-02  0.1266605E+00
        -11   -1    0    0    0    0  0.00000000000E+00  0.00000000000E+00  0.45593999997E+02  0.45594000000E+02  0.51100000000E-03 0.  1.
         11   -1    0    0    0    0 -0.00000000000E+00 -0.00000000000E+00 -0.45593999997E+02  0.45594000000E+02  0.51100000000E-03 0. -1.
    9900012    2    1    2    0    0 -0.30766474523E+01  0.27818863545E+02  0.15276272992E+02  0.59301961597E+02  0.50000032043E+02 0.  0.
         12    1    1    2    0    0  0.30766474523E+01 -0.27818863545E+02 -0.15276272992E+02  0.31886038403E+02  0.00000000000E+00 0. -1.
         11    1    3    3    0    0 -0.18317672046E+02  0.25851665028E+00  0.34658903000E+01  0.18644471992E+02  0.51100000000E-03 0. -1.
        -11    1    3    3    0    0  0.66298235645E+01 -0.28910154030E+01  0.27815121317E+01  0.77491509571E+01  0.51100000000E-03 0.  1.
        -12    1    3    3    0    0  0.86112010290E+01  0.30451362298E+02  0.90288705599E+01  0.32908338648E+02  0.00000000000E+00 0.  1.
</event>
<event>
 7    1  0.3220798E-013  0.5930192E+02  0.7816164E-02  0.1266605E+00
        -11   -1    0    0    0    0  0.00000000000E+00  0.00000000000E+00  0.45593999997E+02  0.45594000000E+02  0.51100000000E-03 0. -1.
         11   -1    0    0    0    0 -0.00000000000E+00 -0.00000000000E+00 -0.45593999997E+02  0.45594000000E+02  0.51100000000E-03 0.  1.
    9900012    2    1    2    0    0 -0.63317814430E+01  0.20553773252E+02 -0.23540878772E+02  0.59301921149E+02  0.49999958274E+02 0.  0.
         12    1    1    2    0    0  0.63317814430E+01 -0.20553773252E+02  0.23540878772E+02  0.31886078851E+02  0.00000000000E+00 0. -1.
         11    1    3    3    0    0 -0.15071178582E+02  0.16782070307E+02 -0.81831722339E+01  0.23994637228E+02  0.51100000000E-03 0. -1.
        -11    1    3    3    0    0 -0.81661786557E+01  0.81431389190E+01 -0.13487658497E+02  0.17745819713E+02  0.51100000000E-03 0.  1.
         12    1    3    3    0    0  0.16905575795E+02 -0.43714359744E+01 -0.18700480409E+01  0.17561464207E+02  0.00000000000E+00 0. -1.
</event>
<event>
 7    1  0.3220798E-013  0.5930195E+02  0.7816164E-02  0.1266605E+00
        -11   -1    0    0    0    0  0.00000000000E+00  0.00000000000E+00  0.45593999997E+02  0.45594000000E+02  0.51100000000E-03 0.  1.
         11   -1    0    0    0    0 -0.00000000000E+00 -0.00000000000E+00 -0.45593999997E+02  0.45594000000E+02  0.51100000000E-03 0. -1.
    9900012    2    1    2    0    0  0.27276584643E+01 -0.22023086736E+01  0.31692743554E+02  0.59301948533E+02  0.50000008216E+02 0.  0.
         12    1    1    2    0    0 -0.27276584643E+01  0.22023086736E+01 -0.31692743554E+02  0.31886051467E+02  0.00000000000E+00 0. -1.
         11    1    3    3    0    0  0.21473824561E+01  0.88808497302E+01  0.61303313576E+01  0.11002804468E+02  0.51100000000E-03 0. -1.
        -11    1    3    3    0    0 -0.11750069074E+02  0.10430468814E+02  0.64175547578E+01  0.16971853530E+02  0.51100000000E-03 0.  1.
         12    1    3    3    0    0  0.12330345082E+02 -0.21513627218E+02  0.19144857439E+02  0.31327290535E+02  0.00000000000E+00 0. -1.
</event>
<event>
 7    1  0.3220798E-013  0.5930194E+02  0.7816164E-02  0.1266605E+00
        -11   -1    0    0    0    0  0.00000000000E+00  0.00000000000E+00  0.45593999997E+02  0.45594000000E+02  0.51100000000E-03 0. -1.
         11   -1    0    0    0    0 -0.00000000000E+00 -0.00000000000E+00 -0.45593999997E+02  0.45594000000E+02  0.51100000000E-03 0.  1.
    9900012    2    1    2    0    0 -0.75615329474E+01 -0.19409670319E+02 -0.24141431132E+02  0.59301940672E+02  0.49999993879E+02 0.  0.
         12    1    1    2    0    0  0.75615329474E+01  0.19409670319E+02  0.24141431132E+02  0.31886059328E+02  0.00000000000E+00 0. -1.
         11    1    3    3    0    0  0.36357915178E-01  0.66315184880E+01  0.76737028898E+01  0.10142192843E+02  0.51100000000E-03 0. -1.
        -11    1    3    3    0    0 -0.79995797968E+01 -0.11373849197E+02  0.23855103356E+00  0.13907358820E+02  0.51100000000E-03 0.  1.
         12    1    3    3    0    0  0.40168893422E+00 -0.14667339609E+02 -0.32053685055E+02  0.35252389009E+02  0.00000000000E+00 0. -1.
</event>
<event>
 7    1  0.3220798E-013  0.5930178E+02  0.7816164E-02  0.1266605E+00
        -11   -1    0    0    0    0  0.00000000000E+00  0.00000000000E+00  0.45593999997E+02  0.45594000000E+02  0.51100000000E-03 0.  1.
         11   -1    0    0    0    0 -0.00000000000E+00 -0.00000000000E+00 -0.45593999997E+02  0.45594000000E+02  0.51100000000E-03 0. -1.
    9900012    2    1    2    0    0 -0.12689993103E+02 -0.19487869128E+02  0.21815546941E+02  0.59301779521E+02  0.49999699978E+02 0.  0.
         12    1    1    2    0    0  0.12689993103E+02  0.19487869128E+02 -0.21815546941E+02  0.31886220479E+02  0.00000000000E+00 0. -1.
         11    1    3    3    0    0 -0.24913190176E+01 -0.12395942956E+02 -0.27847192146E+01  0.12946842611E+02  0.51100000000E-03 0. -1.
        -11    1    3    3    0    0 -0.15756188278E+02  0.71117880430E+01 -0.14417911070E+00  0.17287445910E+02  0.51100000000E-03 0.  1.
        -12    1    3    3    0    0  0.55575141922E+01 -0.14203714215E+02  0.24744445266E+02  0.29067491000E+02  0.00000000000E+00 0.  1.
</event>
<event>
 7    1  0.3220798E-013  0.5930194E+02  0.7816164E-02  0.1266605E+00
        -11   -1    0    0    0    0  0.00000000000E+00  0.00000000000E+00  0.45593999997E+02  0.45594000000E+02  0.51100000000E-03 0.  1.
         11   -1    0    0    0    0 -0.00000000000E+00 -0.00000000000E+00 -0.45593999997E+02  0.45594000000E+02  0.51100000000E-03 0. -1.
    9900012    2    1    2    0    0 -0.18300647988E+02  0.34428533756E+01  0.25883472777E+02  0.59301935346E+02  0.49999984167E+02 0.  0.
         12    1    1    2    0    0  0.18300647988E+02 -0.34428533756E+01 -0.25883472777E+02  0.31886064654E+02  0.00000000000E+00 0. -1.
         11    1    3    3    0    0  0.53388762344E+01 -0.74369503031E+01 -0.15134279425E+01  0.92791321607E+01  0.51100000000E-03 0. -1.
        -11    1    3    3    0    0 -0.18641029844E+02 -0.94625942016E+01  0.13566754820E+02  0.24921587415E+02  0.51100000000E-03 0.  1.
        -12    1    3    3    0    0 -0.49984943785E+01  0.20342397880E+02  0.13830145899E+02  0.25101215771E+02  0.00000000000E+00 0.  1.
</event>
<event>
 7    1  0.3220798E-013  0.5930210E+02  0.7816164E-02  0.1266604E+00
        -11   -1    0    0    0    0  0.00000000000E+00  0.00000000000E+00  0.45593999997E+02  0.45594000000E+02  0.51100000000E-03 0.  1.
         11   -1    0    0    0    0 -0.00000000000E+00 -0.00000000000E+00 -0.45593999997E+02  0.45594000000E+02  0.51100000000E-03 0. -1.
    9900012    2    1    2    0    0  0.38760906046E+01  0.15592911420E+02  0.27541744318E+02  0.59302099589E+02  0.50000283706E+02 0.  0.
         12    1    1    2    0    0 -0.38760906046E+01 -0.15592911420E+02 -0.27541744318E+02  0.31885900411E+02  0.00000000000E+00 0. -1.
         11    1    3    3    0    0 -0.20248455655E+01  0.16458268596E+01  0.29397828325E+02  0.29513404685E+02  0.51100000000E-03 0. -1.
        -11    1    3    3    0    0 -0.94977202978E+01  0.94419856277E+00 -0.12428878813E+01  0.96251219383E+01  0.51100000000E-03 0.  1.
        -12    1    3    3    0    0  0.15398656468E+02  0.13002885998E+02 -0.61319612558E+00  0.20163572966E+02  0.00000000000E+00 0.  1.
</event>
<event>
 7    1  0.3220798E-013  0.5930194E+02  0.7816164E-02  0.1266605E+00
        -11   -1    0    0    0    0  0.00000000000E+00  0.00000000000E+00  0.45593999997E+02  0.45594000000E+02  0.51100000000E-03 0.  1.
         11   -1    0    0    0    0 -0.00000000000E+00 -0.00000000000E+00 -0.45593999997E+02  0.45594000000E+02  0.51100000000E-03 0. -1.
    9900012    2    1    2    0    0 -0.16375530882E+02 -0.72927743520E+01  0.26370026746E+02  0.59301939095E+02  0.49999991004E+02 0.  0.
         12    1    1    2    0    0  0.16375530882E+02  0.72927743520E+01 -0.26370026746E+02  0.31886060905E+02  0.00000000000E+00 0. -1.
         11    1    3    3    0    0 -0.26398034987E+02  0.17018348208E+01  0.21668615651E+02  0.34194756870E+02  0.51100000000E-03 0.  1.
        -11    1    3    3    0    0 -0.57257850467E-01  0.21411179308E+01 -0.61924020394E+01  0.65523665750E+01  0.51100000000E-03 0. -1.
        -12    1    3    3    0    0  0.10079761955E+02 -0.11135727104E+02  0.10893813134E+02  0.18554815650E+02  0.00000000000E+00 0.  1.
</event>
<event>
 7    1  0.3220798E-013  0.5930183E+02  0.7816164E-02  0.1266605E+00
        -11   -1    0    0    0    0  0.00000000000E+00  0.00000000000E+00  0.45593999997E+02  0.45594000000E+02  0.51100000000E-03 0. -1.
         11   -1    0    0    0    0 -0.00000000000E+00 -0.00000000000E+00 -0.45593999997E+02  0.45594000000E+02  0.51100000000E-03 0.  1.
    9900012    2    1    2    0    0 -0.20820944216E+02  0.39921387171E+01 -0.23817615702E+02  0.59301832038E+02  0.49999795757E+02 0.  0.
         12    1    1    2    0    0  0.20820944216E+02 -0.39921387171E+01  0.23817615702E+02  0.31886167962E+02  0.00000000000E+00 0. -1.
         11    1    3    3    0    0  0.28653332663E+01  0.12648403288E+02 -0.13069121097E+02  0.18411794236E+02  0.51100000000E-03 0. -1.
        -11    1    3    3    0    0  0.51103741584E+00 -0.29845204820E+01 -0.15323082491E+02  0.15619391123E+02  0.51100000000E-03 0.  1.
        -12    1    3    3    0    0 -0.24197314898E+02 -0.56717440888E+01  0.45745878866E+01  0.25270646680E+02  0.00000000000E+00 0.  1.
</event>
<event>
 7    1  0.3220798E-013  0.5930195E+02  0.7816164E-02  0.1266605E+00
        -11   -1    0    0    0    0  0.00000000000E+00  0.00000000000E+00  0.45593999997E+02  0.45594000000E+02  0.51100000000E-03 0.  1.
         11   -1    0    0    0    0 -0.00000000000E+00 -0.00000000000E+00 -0.45593999997E+02  0.45594000000E+02  0.51100000000E-03 0. -1.
    9900012    2    1    2    0    0 -0.15587154444E+02  0.27501535927E+02  0.41744814231E+01  0.59301950430E+02  0.50000011677E+02 0.  0.
         12    1    1    2    0    0  0.15587154444E+02 -0.27501535927E+02 -0.41744814231E+01  0.31886049570E+02  0.00000000000E+00 0. -1.
         11    1    3    3    0    0 -0.14054284003E+02 -0.48992166367E+01  0.10771471528E+02  0.18372528994E+02  0.51100000000E-03 0. -1.
        -11    1    3    3    0    0 -0.17264282757E+01 -0.14842537566E+01  0.46900699109E+01  0.52134748331E+01  0.51100000000E-03 0.  1.
         12    1    3    3    0    0  0.19355783530E+00  0.33885006321E+02 -0.11287060016E+02  0.35715946603E+02  0.00000000000E+00 0. -1.
</event>
<event>
 7    1  0.3220798E-013  0.5930195E+02  0.7816164E-02  0.1266605E+00
        -11   -1    0    0    0    0  0.00000000000E+00  0.00000000000E+00  0.45593999997E+02  0.45594000000E+02  0.51100000000E-03 0.  1.
         11   -1    0    0    0    0 -0.00000000000E+00 -0.00000000000E+00 -0.45593999997E+02  0.45594000000E+02  0.51100000000E-03 0. -1.
    9900012    2    1    2    0    0  0.78192259168E+01 -0.30906947449E+02 -0.58362616390E+00  0.59301947970E+02  0.50000007190E+02 0.  0.
         12    1    1    2    0    0 -0.78192259168E+01  0.30906947449E+02  0.58362616390E+00  0.31886052030E+02  0.00000000000E+00 0. -1.
         11    1    3    3    0    0  0.13849616977E+01 -0.56938368003E+01 -0.12865067206E+02  0.14136755317E+02  0.51100000000E-03 0. -1.
        -11    1    3    3    0    0 -0.86858034705E+01 -0.49050240915E+01 -0.79504532135E+01  0.12755867271E+02  0.51100000000E-03 0.  1.
        -12    1    3    3    0    0  0.15120067690E+02 -0.20308086557E+02  0.20231894256E+02  0.32409325382E+02  0.00000000000E+00 0.  1.
</event>
<event>
 7    1  0.3220798E-013  0.5930193E+02  0.7816164E-02  0.1266605E+00
        -11   -1    0    0    0    0  0.00000000000E+00  0.00000000000E+00  0.45593999997E+02  0.45594000000E+02  0.51100000000E-03 0.  1.
         11   -1    0    0    0    0 -0.00000000000E+00 -0.00000000000E+00 -0.45593999997E+02  0.45594000000E+02  0.51100000000E-03 0. -1.
    9900012    2    1    2    0    0  0.93784959423E+01  0.17553841132E+02  0.24912404961E+02  0.59301930228E+02  0.49999974832E+02 0.  0.
         12    1    1    2    0    0 -0.93784959423E+01 -0.17553841132E+02 -0.24912404961E+02  0.31886069772E+02  0.00000000000E+00 0. -1.
         11    1    3    3    0    0 -0.61589417129E+01  0.30500087934E+01  0.18897765538E+01  0.71278588894E+01  0.51100000000E-03 0. -1.
        -11    1    3    3    0    0 -0.70273862438E+01  0.20788044014E+02  0.17603034141E+02  0.28131721287E+02  0.51100000000E-03 0.  1.
         12    1    3    3    0    0  0.22564823899E+02 -0.62842116757E+01  0.54195942654E+01  0.24042350051E+02  0.00000000000E+00 0. -1.
</event>
<event>
 7    1  0.3220798E-013  0.5930192E+02  0.7816164E-02  0.1266605E+00
        -11   -1    0    0    0    0  0.00000000000E+00  0.00000000000E+00  0.45593999997E+02  0.45594000000E+02  0.51100000000E-03 0.  1.
         11   -1    0    0    0    0 -0.00000000000E+00 -0.00000000000E+00 -0.45593999997E+02  0.45594000000E+02  0.51100000000E-03 0. -1.
    9900012    2    1    2    0    0 -0.18479033568E+02  0.17272129956E+02  0.19414447098E+02  0.59301922930E+02  0.49999961522E+02 0.  0.
         12    1    1    2    0    0  0.18479033568E+02 -0.17272129956E+02 -0.19414447098E+02  0.31886077070E+02  0.00000000000E+00 0. -1.
         11    1    3    3    0    0 -0.16177279468E+02 -0.38879290440E+01  0.18811060170E+01  0.16743921982E+02  0.51100000000E-03 0. -1.
        -11    1    3    3    0    0  0.72501467154E+01 -0.53471207532E+01 -0.63742529467E+00  0.90312036303E+01  0.51100000000E-03 0.  1.
        -12    1    3    3    0    0 -0.95519008151E+01  0.26507179753E+02  0.18170766376E+02  0.33526797317E+02  0.00000000000E+00 0.  1.
</event>
<event>
 7    1  0.3220798E-013  0.5930197E+02  0.7816164E-02  0.1266605E+00
        -11   -1    0    0    0    0  0.00000000000E+00  0.00000000000E+00  0.45593999997E+02  0.45594000000E+02  0.51100000000E-03 0. -1.
         11   -1    0    0    0    0 -0.00000000000E+00 -0.00000000000E+00 -0.45593999997E+02  0.45594000000E+02  0.51100000000E-03 0.  1.
    9900012    2    1    2    0    0  0.29758969330E+02 -0.81919224825E+01 -0.80009310275E+01  0.59301972546E+02  0.50000052010E+02 0.  0.
         12    1    1    2    0    0 -0.29758969330E+02  0.81919224825E+01  0.80009310275E+01  0.31886027454E+02  0.00000000000E+00 0. -1.
         11    1    3    3    0    0  0.22821607914E+02 -0.55072508408E+01  0.12718088014E+02  0.26700287688E+02  0.51100000000E-03 0. -1.
        -11    1    3    3    0    0 -0.28027915104E+01 -0.59305116337E+01  0.26517921015E+01  0.70752109579E+01  0.51100000000E-03 0.  1.
         12    1    3    3    0    0  0.97401529257E+01  0.32458399920E+01 -0.23370811143E+02  0.25526473900E+02  0.00000000000E+00 0. -1.
</event>
<event>
 7    1  0.3220798E-013  0.5930196E+02  0.7816164E-02  0.1266605E+00
        -11   -1    0    0    0    0  0.00000000000E+00  0.00000000000E+00  0.45593999997E+02  0.45594000000E+02  0.51100000000E-03 0.  1.
         11   -1    0    0    0    0 -0.00000000000E+00 -0.00000000000E+00 -0.45593999997E+02  0.45594000000E+02  0.51100000000E-03 0. -1.
    9900012    2    1    2    0    0 -0.10294965735E+02  0.24652097199E+02 -0.17407098227E+02  0.59301964115E+02  0.50000036634E+02 0.  0.
         12    1    1    2    0    0  0.10294965735E+02 -0.24652097199E+02  0.17407098227E+02  0.31886035885E+02  0.00000000000E+00 0. -1.
         11    1    3    3    0    0  0.59933126568E+01  0.23302115876E+02 -0.14573978439E+02  0.28130219492E+02  0.51100000000E-03 0. -1.
        -11    1    3    3    0    0 -0.64011620173E+01  0.13743056044E+02 -0.72058860992E+00  0.15177803294E+02  0.51100000000E-03 0.  1.
        -12    1    3    3    0    0 -0.98871163741E+01 -0.12393074722E+02 -0.21125311787E+01  0.15993941329E+02  0.00000000000E+00 0.  1.
</event>
<event>
 7    1  0.3220798E-013  0.5930188E+02  0.7816164E-02  0.1266605E+00
        -11   -1    0    0    0    0  0.00000000000E+00  0.00000000000E+00  0.45593999997E+02  0.45594000000E+02  0.51100000000E-03 0. -1.
         11   -1    0    0    0    0 -0.00000000000E+00 -0.00000000000E+00 -0.45593999997E+02  0.45594000000E+02  0.51100000000E-03 0.  1.
    9900012    2    1    2    0    0  0.14521916468E+02 -0.12205078217E+02 -0.25629563093E+02  0.59301882386E+02  0.49999887580E+02 0.  0.
         12    1    1    2    0    0 -0.14521916468E+02  0.12205078217E+02  0.25629563093E+02  0.31886117614E+02  0.00000000000E+00 0. -1.
         11    1    3    3    0    0  0.12990966029E+02  0.76309750243E+01 -0.23050433995E+02  0.27537601308E+02  0.51100000000E-03 0. -1.
        -11    1    3    3    0    0  0.76881136754E+01  0.45754767029E+00  0.50690743372E+01  0.92201928751E+01  0.51100000000E-03 0.  1.
        -12    1    3    3    0    0 -0.61571632366E+01 -0.20293600912E+02 -0.76482034345E+01  0.22544088202E+02  0.00000000000E+00 0.  1.
</event>
<event>
 7    1  0.3220798E-013  0.5930186E+02  0.7816164E-02  0.1266605E+00
        -11   -1    0    0    0    0  0.00000000000E+00  0.00000000000E+00  0.45593999997E+02  0.45594000000E+02  0.51100000000E-03 0. -1.
         11   -1    0    0    0    0 -0.00000000000E+00 -0.00000000000E+00 -0.45593999997E+02  0.45594000000E+02  0.51100000000E-03 0.  1.
    9900012    2    1    2    0    0  0.18942789454E+01 -0.16715374250E+02 -0.27087518991E+02  0.59301863292E+02  0.49999852758E+02 0.  0.
         12    1    1    2    0    0 -0.18942789454E+01  0.16715374250E+02  0.27087518991E+02  0.31886136708E+02  0.00000000000E+00 0. -1.
         11    1    3    3    0    0  0.12579769179E+02  0.54305067419E+01  0.45816900178E+01  0.14447590794E+02  0.51100000000E-03 0. -1.
        -11    1    3    3    0    0 -0.62171664676E+01 -0.13485252365E+02 -0.31812811077E+02  0.35107835865E+02  0.51100000000E-03 0.  1.
        -12    1    3    3    0    0 -0.44683237657E+01 -0.86606286272E+01  0.14360206847E+00  0.97464366333E+01  0.00000000000E+00 0.  1.
</event>
<event>
 7    1  0.3220798E-013  0.5930217E+02  0.7816164E-02  0.1266604E+00
        -11   -1    0    0    0    0  0.00000000000E+00  0.00000000000E+00  0.45593999997E+02  0.45594000000E+02  0.51100000000E-03 0.  1.
         11   -1    0    0    0    0 -0.00000000000E+00 -0.00000000000E+00 -0.45593999997E+02  0.45594000000E+02  0.51100000000E-03 0. -1.
    9900012    2    1    2    0    0 -0.29632661028E+02  0.23659392640E+01 -0.11533153662E+02  0.59302173970E+02  0.50000419358E+02 0.  0.
         12    1    1    2    0    0  0.29632661028E+02 -0.23659392640E+01  0.11533153662E+02  0.31885826030E+02  0.00000000000E+00 0. -1.
         11    1    3    3    0    0 -0.11273977368E+02 -0.16927403561E+02  0.68731340906E+01  0.21468104935E+02  0.51100000000E-03 0. -1.
        -11    1    3    3    0    0 -0.23050131126E+01 -0.19365977414E+01 -0.91846701547E+01  0.96654882119E+01  0.51100000000E-03 0.  1.
        -12    1    3    3    0    0 -0.16053670548E+02  0.21229940566E+02 -0.92216175974E+01  0.28168580823E+02  0.00000000000E+00 0.  1.
</event>
<event>
 7    1  0.3220798E-013  0.5930194E+02  0.7816164E-02  0.1266605E+00
        -11   -1    0    0    0    0  0.00000000000E+00  0.00000000000E+00  0.45593999997E+02  0.45594000000E+02  0.51100000000E-03 0.  1.
         11   -1    0    0    0    0 -0.00000000000E+00 -0.00000000000E+00 -0.45593999997E+02  0.45594000000E+02  0.51100000000E-03 0. -1.
    9900012    2    1    2    0    0  0.26577947491E+02 -0.17604957183E+02 -0.63183483695E+00  0.59301936814E+02  0.49999986844E+02 0.  0.
         12    1    1    2    0    0 -0.26577947491E+02  0.17604957183E+02  0.63183483695E+00  0.31886063186E+02  0.00000000000E+00 0. -1.
         11    1    3    3    0    0  0.80971182858E+01 -0.14967809215E+02 -0.96837628693E+01  0.19579936180E+02  0.51100000000E-03 0. -1.
        -11    1    3    3    0    0  0.21140499395E+02 -0.14892156783E+02  0.83025429816E+01  0.27159331151E+02  0.51100000000E-03 0.  1.
        -12    1    3    3    0    0 -0.26596701902E+01  0.12255008816E+02  0.74938505072E+00  0.12562669483E+02  0.00000000000E+00 0.  1.
</event>
<event>
 7    1  0.3220798E-013  0.5930191E+02  0.7816164E-02  0.1266605E+00
        -11   -1    0    0    0    0  0.00000000000E+00  0.00000000000E+00  0.45593999997E+02  0.45594000000E+02  0.51100000000E-03 0.  1.
         11   -1    0    0    0    0 -0.00000000000E+00 -0.00000000000E+00 -0.45593999997E+02  0.45594000000E+02  0.51100000000E-03 0. -1.
    9900012    2    1    2    0    0  0.71411392793E+01 -0.44529822026E+01  0.30755447521E+02  0.59301914117E+02  0.49999945450E+02 0.  0.
         12    1    1    2    0    0 -0.71411392793E+01  0.44529822026E+01 -0.30755447521E+02  0.31886085883E+02  0.00000000000E+00 0. -1.
         11    1    3    3    0    0  0.13924100965E+01  0.18420001420E+02  0.18522855755E+02  0.26159729428E+02  0.51100000000E-03 0.  1.
        -11    1    3    3    0    0 -0.14225793424E+00  0.20875119814E+01 -0.27382272072E+01  0.34461329185E+01  0.51100000000E-03 0. -1.
        -12    1    3    3    0    0  0.58909871170E+01 -0.24960495604E+02  0.14970818974E+02  0.29696051770E+02  0.00000000000E+00 0.  1.
</event>
<event>
 7    1  0.3220798E-013  0.5930194E+02  0.7816164E-02  0.1266605E+00
        -11   -1    0    0    0    0  0.00000000000E+00  0.00000000000E+00  0.45593999997E+02  0.45594000000E+02  0.51100000000E-03 0.  1.
         11   -1    0    0    0    0 -0.00000000000E+00 -0.00000000000E+00 -0.45593999997E+02  0.45594000000E+02  0.51100000000E-03 0. -1.
    9900012    2    1    2    0    0 -0.16119400568E+02  0.21758789920E+01  0.27425373291E+02  0.59301943106E+02  0.49999998320E+02 0.  0.
         12    1    1    2    0    0  0.16119400568E+02 -0.21758789920E+01 -0.27425373291E+02  0.31886056894E+02  0.00000000000E+00 0. -1.
         11    1    3    3    0    0  0.73695530352E+01 -0.68821438732E+01  0.62173893012E+01  0.11846102575E+02  0.51100000000E-03 0.  1.
        -11    1    3    3    0    0 -0.42859116541E+01 -0.79702668844E+01 -0.53582675374E+01  0.10516901834E+02  0.51100000000E-03 0. -1.
         12    1    3    3    0    0 -0.19203041950E+02  0.17028289750E+02  0.26566251527E+02  0.36938938698E+02  0.00000000000E+00 0. -1.
</event>
<event>
 7    1  0.3220798E-013  0.5930196E+02  0.7816164E-02  0.1266605E+00
        -11   -1    0    0    0    0  0.00000000000E+00  0.00000000000E+00  0.45593999997E+02  0.45594000000E+02  0.51100000000E-03 0.  1.
         11   -1    0    0    0    0 -0.00000000000E+00 -0.00000000000E+00 -0.45593999997E+02  0.45594000000E+02  0.51100000000E-03 0. -1.
    9900012    2    1    2    0    0 -0.26384772200E+02  0.17290321372E+02  0.46484553720E+01  0.59301959880E+02  0.50000028911E+02 0.  0.
         12    1    1    2    0    0  0.26384772200E+02 -0.17290321372E+02 -0.46484553720E+01  0.31886040120E+02  0.00000000000E+00 0. -1.
         11    1    3    3    0    0  0.86664556977E+01 -0.41682650672E+01 -0.66811312833E+01  0.11709799465E+02  0.51100000000E-03 0. -1.
        -11    1    3    3    0    0 -0.76545922938E+01 -0.35131662164E+01 -0.11005965091E+01  0.84939056379E+01  0.51100000000E-03 0.  1.
        -12    1    3    3    0    0 -0.27396635604E+02  0.24971752655E+02  0.12430183164E+02  0.39098254777E+02  0.00000000000E+00 0.  1.
</event>
<event>
 7    1  0.3220798E-013  0.5930196E+02  0.7816164E-02  0.1266605E+00
        -11   -1    0    0    0    0  0.00000000000E+00  0.00000000000E+00  0.45593999997E+02  0.45594000000E+02  0.51100000000E-03 0.  1.
         11   -1    0    0    0    0 -0.00000000000E+00 -0.00000000000E+00 -0.45593999997E+02  0.45594000000E+02  0.51100000000E-03 0. -1.
    9900012    2    1    2    0    0 -0.31209507764E+02 -0.15891317580E+00  0.65315491918E+01  0.59301956609E+02  0.50000022946E+02 0.  0.
         12    1    1    2    0    0  0.31209507764E+02  0.15891317580E+00 -0.65315491918E+01  0.31886043391E+02  0.00000000000E+00 0. -1.
         11    1    3    3    0    0 -0.35147206620E+00  0.33939586363E+01  0.59481084082E+01  0.68572940534E+01  0.51100000000E-03 0. -1.
        -11    1    3    3    0    0 -0.23337275358E+02  0.17953945072E+02  0.26712937854E+01  0.29565323870E+02  0.51100000000E-03 0.  1.
        -12    1    3    3    0    0 -0.75207603395E+01 -0.21506816884E+02 -0.20878530017E+01  0.22879338686E+02  0.00000000000E+00 0.  1.
</event>
<event>
 7    1  0.3220798E-013  0.5930198E+02  0.7816164E-02  0.1266605E+00
        -11   -1    0    0    0    0  0.00000000000E+00  0.00000000000E+00  0.45593999997E+02  0.45594000000E+02  0.51100000000E-03 0.  1.
         11   -1    0    0    0    0 -0.00000000000E+00 -0.00000000000E+00 -0.45593999997E+02  0.45594000000E+02  0.51100000000E-03 0. -1.
    9900012    2    1    2    0    0  0.20618619209E+02 -0.19452198676E+02  0.14601461742E+02  0.59301981490E+02  0.50000068322E+02 0.  0.
         12    1    1    2    0    0 -0.20618619209E+02  0.19452198676E+02 -0.14601461742E+02  0.31886018510E+02  0.00000000000E+00 0. -1.
         11    1    3    3    0    0 -0.33708349024E+01 -0.49231438889E+01 -0.10128485224E+02  0.11755257840E+02  0.51100000000E-03 0. -1.
        -11    1    3    3    0    0  0.16722360091E+02  0.65841995141E+01  0.81402095266E+01  0.19729470891E+02  0.51100000000E-03 0.  1.
        -12    1    3    3    0    0  0.72670940202E+01 -0.21113254302E+02  0.16589737439E+02  0.27817252758E+02  0.00000000000E+00 0.  1.
</event>
<event>
 7    1  0.3220798E-013  0.5930196E+02  0.7816164E-02  0.1266605E+00
        -11   -1    0    0    0    0  0.00000000000E+00  0.00000000000E+00  0.45593999997E+02  0.45594000000E+02  0.51100000000E-03 0.  1.
         11   -1    0    0    0    0 -0.00000000000E+00 -0.00000000000E+00 -0.45593999997E+02  0.45594000000E+02  0.51100000000E-03 0. -1.
    9900012    2    1    2    0    0 -0.99098317453E+01 -0.29209493854E+02  0.80821138015E+01  0.59301955091E+02  0.50000020176E+02 0.  0.
         12    1    1    2    0    0  0.99098317453E+01  0.29209493854E+02 -0.80821138015E+01  0.31886044909E+02  0.00000000000E+00 0. -1.
         11    1    3    3    0    0  0.17647166196E+02 -0.10741864408E+02 -0.34475760479E+00  0.20662259890E+02  0.51100000000E-03 0. -1.
        -11    1    3    3    0    0 -0.12673121891E+02 -0.34207842580E+00  0.83602303797E+01  0.15186128156E+02  0.51100000000E-03 0.  1.
        -12    1    3    3    0    0 -0.14883876051E+02 -0.18125551021E+02  0.66641026602E-01  0.23453567045E+02  0.00000000000E+00 0.  1.
</event>
<event>
 7    1  0.3220798E-013  0.5930194E+02  0.7816164E-02  0.1266605E+00
        -11   -1    0    0    0    0  0.00000000000E+00  0.00000000000E+00  0.45593999997E+02  0.45594000000E+02  0.51100000000E-03 0. -1.
         11   -1    0    0    0    0 -0.00000000000E+00 -0.00000000000E+00 -0.45593999997E+02  0.45594000000E+02  0.51100000000E-03 0.  1.
    9900012    2    1    2    0    0 -0.23963483169E+02 -0.11733590842E+02 -0.17458381553E+02  0.59301940882E+02  0.49999994263E+02 0.  0.
         12    1    1    2    0    0  0.23963483169E+02  0.11733590842E+02  0.17458381553E+02  0.31886059118E+02  0.00000000000E+00 0. -1.
         11    1    3    3    0    0  0.25002479952E+01 -0.22385106426E+01 -0.12344954502E+02  0.12792969626E+02  0.51100000000E-03 0. -1.
        -11    1    3    3    0    0 -0.12526087184E+02 -0.27072655660E+01 -0.20815039689E+02  0.24443772714E+02  0.51100000000E-03 0.  1.
         12    1    3    3    0    0 -0.13937643981E+02 -0.67878146331E+01  0.15701612639E+02  0.22065198542E+02  0.00000000000E+00 0. -1.
</event>
<event>
 7    1  0.3220798E-013  0.5930197E+02  0.7816164E-02  0.1266605E+00
        -11   -1    0    0    0    0  0.00000000000E+00  0.00000000000E+00  0.45593999997E+02  0.45594000000E+02  0.51100000000E-03 0.  1.
         11   -1    0    0    0    0 -0.00000000000E+00 -0.00000000000E+00 -0.45593999997E+02  0.45594000000E+02  0.51100000000E-03 0. -1.
    9900012    2    1    2    0    0  0.23507196882E+02  0.20036096838E+02 -0.79174296359E+01  0.59301965850E+02  0.50000039799E+02 0.  0.
         12    1    1    2    0    0 -0.23507196882E+02 -0.20036096838E+02  0.79174296359E+01  0.31886034150E+02  0.00000000000E+00 0. -1.
         11    1    3    3    0    0 -0.35391570178E+01 -0.14913823058E+00 -0.30153426632E+01  0.46518992085E+01  0.51100000000E-03 0. -1.
        -11    1    3    3    0    0  0.58924047337E+01  0.22539033563E+02 -0.18191276384E+02  0.29557587930E+02  0.51100000000E-03 0.  1.
        -12    1    3    3    0    0  0.21153949166E+02 -0.23537984941E+01  0.13289189412E+02  0.25092478712E+02  0.00000000000E+00 0.  1.
</event>
<event>
 7    1  0.3220798E-013  0.5930196E+02  0.7816164E-02  0.1266605E+00
        -11   -1    0    0    0    0  0.00000000000E+00  0.00000000000E+00  0.45593999997E+02  0.45594000000E+02  0.51100000000E-03 0. -1.
         11   -1    0    0    0    0 -0.00000000000E+00 -0.00000000000E+00 -0.45593999997E+02  0.45594000000E+02  0.51100000000E-03 0.  1.
    9900012    2    1    2    0    0  0.27846669965E+02 -0.15460463909E+02 -0.15022323626E+01  0.59301957999E+02  0.50000025480E+02 0.  0.
         12    1    1    2    0    0 -0.27846669965E+02  0.15460463909E+02  0.15022323626E+01  0.31886042001E+02  0.00000000000E+00 0. -1.
         11    1    3    3    0    0  0.36071127501E+00 -0.23524714623E+01 -0.25210181125E+01  0.34669535892E+01  0.51100000000E-03 0. -1.
        -11    1    3    3    0    0  0.34612133225E+02  0.81884017659E+00 -0.10756742366E+02  0.36254348321E+02  0.51100000000E-03 0.  1.
         12    1    3    3    0    0 -0.71261745349E+01 -0.13926832624E+02  0.11775528116E+02  0.19580656088E+02  0.00000000000E+00 0. -1.
</event>
<event>
 7    1  0.3220798E-013  0.5930195E+02  0.7816164E-02  0.1266605E+00
        -11   -1    0    0    0    0  0.00000000000E+00  0.00000000000E+00  0.45593999997E+02  0.45594000000E+02  0.51100000000E-03 0.  1.
         11   -1    0    0    0    0 -0.00000000000E+00 -0.00000000000E+00 -0.45593999997E+02  0.45594000000E+02  0.51100000000E-03 0. -1.
    9900012    2    1    2    0    0 -0.21677426573E+02 -0.10160253725E+02  0.21061306535E+02  0.59301949577E+02  0.50000010121E+02 0.  0.
         12    1    1    2    0    0  0.21677426573E+02  0.10160253725E+02 -0.21061306535E+02  0.31886050423E+02  0.00000000000E+00 0. -1.
         11    1    3    3    0    0  0.77205330931E+01 -0.13329189699E+02 -0.24316009437E+01  0.15594441724E+02  0.51100000000E-03 0. -1.
        -11    1    3    3    0    0 -0.39645636191E+01 -0.73758609085E+01  0.10009985771E+02  0.13050705124E+02  0.51100000000E-03 0.  1.
         12    1    3    3    0    0 -0.25433396047E+02  0.10544796882E+02  0.13482921708E+02  0.30656802729E+02  0.00000000000E+00 0. -1.
</event>
<event>
 7    1  0.3220798E-013  0.5930194E+02  0.7816164E-02  0.1266605E+00
        -11   -1    0    0    0    0  0.00000000000E+00  0.00000000000E+00  0.45593999997E+02  0.45594000000E+02  0.51100000000E-03 0. -1.
         11   -1    0    0    0    0 -0.00000000000E+00 -0.00000000000E+00 -0.45593999997E+02  0.45594000000E+02  0.51100000000E-03 0.  1.
    9900012    2    1    2    0    0  0.27109284571E+02 -0.97755678305E+01 -0.13647194907E+02  0.59301937760E+02  0.49999988569E+02 0.  0.
         12    1    1    2    0    0 -0.27109284571E+02  0.97755678305E+01  0.13647194907E+02  0.31886062240E+02  0.00000000000E+00 0. -1.
         11    1    3    3    0    0  0.56454038829E+01 -0.40613511609E+01  0.89459198401E+01  0.11331135879E+02  0.51100000000E-03 0. -1.
        -11    1    3    3    0    0  0.22934086809E+02 -0.17263825682E+02 -0.90224440664E+01  0.30090139782E+02  0.51100000000E-03 0.  1.
         12    1    3    3    0    0 -0.14702061213E+01  0.11549609012E+02 -0.13570670681E+02  0.17880662099E+02  0.00000000000E+00 0. -1.
</event>
<event>
 7    1  0.3220798E-013  0.5930194E+02  0.7816164E-02  0.1266605E+00
        -11   -1    0    0    0    0  0.00000000000E+00  0.00000000000E+00  0.45593999997E+02  0.45594000000E+02  0.51100000000E-03 0.  1.
         11   -1    0    0    0    0 -0.00000000000E+00 -0.00000000000E+00 -0.45593999997E+02  0.45594000000E+02  0.51100000000E-03 0. -1.
    9900012    2    1    2    0    0 -0.29161722040E+02 -0.12863080249E+02 -0.92515004996E+00  0.59301940845E+02  0.49999994196E+02 0.  0.
         12    1    1    2    0    0  0.29161722040E+02  0.12863080249E+02  0.92515004996E+00  0.31886059155E+02  0.00000000000E+00 0. -1.
         11    1    3    3    0    0 -0.14464698240E+02 -0.13846054225E+02 -0.11794752732E+02  0.23239124447E+02  0.51100000000E-03 0. -1.
        -11    1    3    3    0    0 -0.17270239558E+02 -0.28817283233E+01  0.19534202972E+02  0.26232625079E+02  0.51100000000E-03 0.  1.
        -12    1    3    3    0    0  0.25732157581E+01  0.38647022989E+01 -0.86646002897E+01  0.98301913195E+01  0.00000000000E+00 0.  1.
</event>
<event>
 7    1  0.3220798E-013  0.5930194E+02  0.7816164E-02  0.1266605E+00
        -11   -1    0    0    0    0  0.00000000000E+00  0.00000000000E+00  0.45593999997E+02  0.45594000000E+02  0.51100000000E-03 0.  1.
         11   -1    0    0    0    0 -0.00000000000E+00 -0.00000000000E+00 -0.45593999997E+02  0.45594000000E+02  0.51100000000E-03 0. -1.
    9900012    2    1    2    0    0 -0.93697179825E+01 -0.86614392123E+01  0.29221715119E+02  0.59301940682E+02  0.49999993898E+02 0.  0.
         12    1    1    2    0    0  0.93697179825E+01  0.86614392123E+01 -0.29221715119E+02  0.31886059318E+02  0.00000000000E+00 0. -1.
         11    1    3    3    0    0 -0.57913555011E+01 -0.67133928543E+01  0.30115744769E+02  0.31393749783E+02  0.51100000000E-03 0. -1.
        -11    1    3    3    0    0 -0.37334425903E+01  0.56458545583E+01  0.11516236509E+02  0.13358067632E+02  0.51100000000E-03 0.  1.
         12    1    3    3    0    0  0.15508010897E+00 -0.75939009164E+01 -0.12410266159E+02  0.14550123267E+02  0.00000000000E+00 0. -1.
</event>
<event>
 7    1  0.3220798E-013  0.5930197E+02  0.7816164E-02  0.1266605E+00
        -11   -1    0    0    0    0  0.00000000000E+00  0.00000000000E+00  0.45593999997E+02  0.45594000000E+02  0.51100000000E-03 0.  1.
         11   -1    0    0    0    0 -0.00000000000E+00 -0.00000000000E+00 -0.45593999997E+02  0.45594000000E+02  0.51100000000E-03 0. -1.
    9900012    2    1    2    0    0  0.24423007853E+02  0.15584150885E+02  0.13318021315E+02  0.59301972290E+02  0.50000051544E+02 0.  0.
         12    1    1    2    0    0 -0.24423007853E+02 -0.15584150885E+02 -0.13318021315E+02  0.31886027710E+02  0.00000000000E+00 0. -1.
         11    1    3    3    0    0 -0.10860276054E+02  0.16748464093E+02  0.27804797491E+01  0.20154099169E+02  0.51100000000E-03 0. -1.
        -11    1    3    3    0    0  0.14475694369E+02 -0.51910012094E+01  0.91820179624E+01  0.17910937305E+02  0.51100000000E-03 0.  1.
        -12    1    3    3    0    0  0.20807589537E+02  0.40266880011E+01  0.13555236036E+01  0.21236935815E+02  0.00000000000E+00 0.  1.
</event>
<event>
 7    1  0.3220798E-013  0.5930223E+02  0.7816164E-02  0.1266604E+00
        -11   -1    0    0    0    0  0.00000000000E+00  0.00000000000E+00  0.45593999997E+02  0.45594000000E+02  0.51100000000E-03 0.  1.
         11   -1    0    0    0    0 -0.00000000000E+00 -0.00000000000E+00 -0.45593999997E+02  0.45594000000E+02  0.51100000000E-03 0. -1.
    9900012    2    1    2    0    0 -0.63025108490E+01  0.81130389666E+01  0.30185417860E+02  0.59302227379E+02  0.50000516762E+02 0.  0.
         12    1    1    2    0    0  0.63025108490E+01 -0.81130389666E+01 -0.30185417860E+02  0.31885772621E+02  0.00000000000E+00 0. -1.
         11    1    3    3    0    0  0.55518883388E+01  0.14906843178E+02 -0.38129607979E+01  0.16357753757E+02  0.51100000000E-03 0. -1.
        -11    1    3    3    0    0 -0.45649797109E+01  0.76830334832E+01  0.18370748611E+02  0.20429205762E+02  0.51100000000E-03 0.  1.
        -12    1    3    3    0    0 -0.72894194768E+01 -0.14476837695E+02  0.15627630046E+02  0.22515267860E+02  0.00000000000E+00 0.  1.
</event>
<event>
 7    1  0.3220798E-013  0.5930195E+02  0.7816164E-02  0.1266605E+00
        -11   -1    0    0    0    0  0.00000000000E+00  0.00000000000E+00  0.45593999997E+02  0.45594000000E+02  0.51100000000E-03 0. -1.
         11   -1    0    0    0    0 -0.00000000000E+00 -0.00000000000E+00 -0.45593999997E+02  0.45594000000E+02  0.51100000000E-03 0.  1.
    9900012    2    1    2    0    0 -0.17374224374E+02 -0.16576970081E+02 -0.20977617615E+02  0.59301952103E+02  0.50000014727E+02 0.  0.
         12    1    1    2    0    0  0.17374224374E+02  0.16576970081E+02  0.20977617615E+02  0.31886047897E+02  0.00000000000E+00 0. -1.
         11    1    3    3    0    0 -0.29778857716E+02 -0.99072692108E+01 -0.47188280492E+01  0.31736441018E+02  0.51100000000E-03 0. -1.
        -11    1    3    3    0    0  0.85062544464E+01 -0.37579396909E+00  0.12029857708E+01  0.85991139567E+01  0.51100000000E-03 0.  1.
        -12    1    3    3    0    0  0.38983788954E+01 -0.62939069015E+01 -0.17461775337E+02  0.18966397128E+02  0.00000000000E+00 0.  1.
</event>
<event>
 7    1  0.3220798E-013  0.5930194E+02  0.7816164E-02  0.1266605E+00
        -11   -1    0    0    0    0  0.00000000000E+00  0.00000000000E+00  0.45593999997E+02  0.45594000000E+02  0.51100000000E-03 0.  1.
         11   -1    0    0    0    0 -0.00000000000E+00 -0.00000000000E+00 -0.45593999997E+02  0.45594000000E+02  0.51100000000E-03 0. -1.
    9900012    2    1    2    0    0  0.51205522024E+01 -0.31426605112E+02 -0.16939084402E+01  0.59301938946E+02  0.49999990732E+02 0.  0.
         12    1    1    2    0    0 -0.51205522024E+01  0.31426605112E+02  0.16939084402E+01  0.31886061054E+02  0.00000000000E+00 0. -1.
         11    1    3    3    0    0 -0.19369615128E+01 -0.32534069892E+02 -0.17248058684E+01  0.32637286639E+02  0.51100000000E-03 0. -1.
        -11    1    3    3    0    0  0.96175137481E+01 -0.99972515595E+01 -0.42225857456E+01  0.14500753087E+02  0.51100000000E-03 0.  1.
        -12    1    3    3    0    0 -0.25600000329E+01  0.11104716339E+02  0.42534831737E+01  0.12163899220E+02  0.00000000000E+00 0.  1.
</event>
<event>
 7    1  0.3220798E-013  0.5930215E+02  0.7816164E-02  0.1266604E+00
        -11   -1    0    0    0    0  0.00000000000E+00  0.00000000000E+00  0.45593999997E+02  0.45594000000E+02  0.51100000000E-03 0.  1.
         11   -1    0    0    0    0 -0.00000000000E+00 -0.00000000000E+00 -0.45593999997E+02  0.45594000000E+02  0.51100000000E-03 0. -1.
    9900012    2    1    2    0    0 -0.28456399872E+02  0.13851259172E+02  0.38837512154E+01  0.59302147371E+02  0.50000370849E+02 0.  0.
         12    1    1    2    0    0  0.28456399872E+02 -0.13851259172E+02 -0.38837512154E+01  0.31885852629E+02  0.00000000000E+00 0. -1.
         11    1    3    3    0    0 -0.12367749243E+02  0.12857092570E+02 -0.13152947053E+01  0.17888433445E+02  0.51100000000E-03 0. -1.
        -11    1    3    3    0    0  0.16816491389E+01  0.15049059735E+02  0.10140465173E+02  0.18224466438E+02  0.51100000000E-03 0.  1.
        -12    1    3    3    0    0 -0.17770299768E+02 -0.14054893133E+02 -0.49414192527E+01  0.23189247488E+02  0.00000000000E+00 0.  1.
</event>
<event>
 7    1  0.3220798E-013  0.5930189E+02  0.7816164E-02  0.1266605E+00
        -11   -1    0    0    0    0  0.00000000000E+00  0.00000000000E+00  0.45593999997E+02  0.45594000000E+02  0.51100000000E-03 0. -1.
         11   -1    0    0    0    0 -0.00000000000E+00 -0.00000000000E+00 -0.45593999997E+02  0.45594000000E+02  0.51100000000E-03 0.  1.
    9900012    2    1    2    0    0 -0.22057221954E+02 -0.22692021627E+02 -0.39083007648E+01  0.59301894865E+02  0.49999910338E+02 0.  0.
         12    1    1    2    0    0  0.22057221954E+02  0.22692021627E+02  0.39083007648E+01  0.31886105135E+02  0.00000000000E+00 0. -1.
         11    1    3    3    0    0  0.35406354888E+01 -0.98706917768E+01  0.17665698587E+02  0.20543698855E+02  0.51100000000E-03 0. -1.
        -11    1    3    3    0    0 -0.25383411827E+01 -0.54681586374E+01  0.43489123934E+00  0.60442588872E+01  0.51100000000E-03 0.  1.
        -12    1    3    3    0    0 -0.23059516260E+02 -0.73531712124E+01 -0.22008890591E+02  0.32713937123E+02  0.00000000000E+00 0.  1.
</event>
<event>
 7    1  0.3220798E-013  0.5930198E+02  0.7816164E-02  0.1266605E+00
        -11   -1    0    0    0    0  0.00000000000E+00  0.00000000000E+00  0.45593999997E+02  0.45594000000E+02  0.51100000000E-03 0.  1.
         11   -1    0    0    0    0 -0.00000000000E+00 -0.00000000000E+00 -0.45593999997E+02  0.45594000000E+02  0.51100000000E-03 0. -1.
    9900012    2    1    2    0    0 -0.21949467199E+02  0.11564532808E+02  0.20029997457E+02  0.59301979120E+02  0.50000064001E+02 0.  0.
         12    1    1    2    0    0  0.21949467199E+02 -0.11564532808E+02 -0.20029997457E+02  0.31886020880E+02  0.00000000000E+00 0. -1.
         11    1    3    3    0    0 -0.16207657645E+02 -0.28005720089E+01 -0.11435619562E+02  0.20032592567E+02  0.51100000000E-03 0.  1.
        -11    1    3    3    0    0 -0.11299039151E+01  0.49153461428E+01 -0.10014517229E+01  0.51420050929E+01  0.51100000000E-03 0. -1.
         12    1    3    3    0    0 -0.46119056391E+01  0.94497586744E+01  0.32467068742E+02  0.34127381461E+02  0.00000000000E+00 0. -1.
</event>
<event>
 7    1  0.3220798E-013  0.5930196E+02  0.7816164E-02  0.1266605E+00
        -11   -1    0    0    0    0  0.00000000000E+00  0.00000000000E+00  0.45593999997E+02  0.45594000000E+02  0.51100000000E-03 0.  1.
         11   -1    0    0    0    0 -0.00000000000E+00 -0.00000000000E+00 -0.45593999997E+02  0.45594000000E+02  0.51100000000E-03 0. -1.
    9900012    2    1    2    0    0  0.13445160999E+02 -0.13630480007E+02  0.25498178215E+02  0.59301961805E+02  0.50000032421E+02 0.  0.
         12    1    1    2    0    0 -0.13445160999E+02  0.13630480007E+02 -0.25498178215E+02  0.31886038195E+02  0.00000000000E+00 0. -1.
         11    1    3    3    0    0  0.24436946632E+02 -0.56000055633E+01  0.77299258327E+01  0.26235018137E+02  0.51100000000E-03 0. -1.
        -11    1    3    3    0    0  0.32596505007E+01  0.66249911123E+01  0.57047622224E+01  0.93306023868E+01  0.51100000000E-03 0.  1.
        -12    1    3    3    0    0 -0.14251436134E+02 -0.14655465556E+02  0.12063490160E+02  0.23736341281E+02  0.00000000000E+00 0.  1.
</event>
<event>
 7    1  0.3220798E-013  0.5930192E+02  0.7816164E-02  0.1266605E+00
        -11   -1    0    0    0    0  0.00000000000E+00  0.00000000000E+00  0.45593999997E+02  0.45594000000E+02  0.51100000000E-03 0.  1.
         11   -1    0    0    0    0 -0.00000000000E+00 -0.00000000000E+00 -0.45593999997E+02  0.45594000000E+02  0.51100000000E-03 0. -1.
    9900012    2    1    2    0    0  0.20450489100E+02  0.37116275351E+01  0.24181048846E+02  0.59301924564E+02  0.49999964503E+02 0.  0.
         12    1    1    2    0    0 -0.20450489100E+02 -0.37116275351E+01 -0.24181048846E+02  0.31886075436E+02  0.00000000000E+00 0. -1.
         11    1    3    3    0    0  0.40412700647E+01 -0.12044987676E+02  0.91302531459E+01  0.15645290494E+02  0.51100000000E-03 0.  1.
        -11    1    3    3    0    0  0.22833276746E+02  0.10574036005E+02 -0.14521092568E+01  0.25204709598E+02  0.51100000000E-03 0. -1.
         12    1    3    3    0    0 -0.64240577103E+01  0.51825792062E+01  0.16502904957E+02  0.18451924472E+02  0.00000000000E+00 0. -1.
</event>
<event>
 7    1  0.3220798E-013  0.5930194E+02  0.7816164E-02  0.1266605E+00
        -11   -1    0    0    0    0  0.00000000000E+00  0.00000000000E+00  0.45593999997E+02  0.45594000000E+02  0.51100000000E-03 0. -1.
         11   -1    0    0    0    0 -0.00000000000E+00 -0.00000000000E+00 -0.45593999997E+02  0.45594000000E+02  0.51100000000E-03 0.  1.
    9900012    2    1    2    0    0  0.31036887555E+02  0.49599577008E+01 -0.53694875430E+01  0.59301937747E+02  0.49999988546E+02 0.  0.
         12    1    1    2    0    0 -0.31036887555E+02 -0.49599577008E+01  0.53694875430E+01  0.31886062253E+02  0.00000000000E+00 0. -1.
         11    1    3    3    0    0  0.11479591604E+02  0.13597668675E+01  0.15037962925E+01  0.11657246368E+02  0.51100000000E-03 0.  1.
        -11    1    3    3    0    0  0.43452174836E+01  0.76674478445E+00 -0.24093173958E+02  0.24493873605E+02  0.51100000000E-03 0. -1.
         12    1    3    3    0    0  0.15212078467E+02  0.28334460488E+01  0.17219890122E+02  0.23150817774E+02  0.00000000000E+00 0. -1.
</event>
<event>
 7    1  0.3220798E-013  0.5930226E+02  0.7816164E-02  0.1266604E+00
        -11   -1    0    0    0    0  0.00000000000E+00  0.00000000000E+00  0.45593999997E+02  0.45594000000E+02  0.51100000000E-03 0.  1.
         11   -1    0    0    0    0 -0.00000000000E+00 -0.00000000000E+00 -0.45593999997E+02  0.45594000000E+02  0.51100000000E-03 0. -1.
    9900012    2    1    2    0    0  0.88618082729E+01  0.10822546312E+02  0.28653822811E+02  0.59302255282E+02  0.50000567649E+02 0.  0.
         12    1    1    2    0    0 -0.88618082729E+01 -0.10822546312E+02 -0.28653822811E+02  0.31885744718E+02  0.00000000000E+00 0. -1.
         11    1    3    3    0    0 -0.74140711150E+01 -0.19503796084E-01 -0.28267875254E+01  0.79347059725E+01  0.51100000000E-03 0. -1.
        -11    1    3    3    0    0  0.73936063629E+01 -0.10273343147E+02  0.27980663459E+00  0.12660382556E+02  0.51100000000E-03 0.  1.
        -12    1    3    3    0    0  0.88822730250E+01  0.21115393254E+02  0.31200803702E+02  0.38707166753E+02  0.00000000000E+00 0.  1.
</event>
<event>
 7    1  0.3220798E-013  0.5930197E+02  0.7816164E-02  0.1266605E+00
        -11   -1    0    0    0    0  0.00000000000E+00  0.00000000000E+00  0.45593999997E+02  0.45594000000E+02  0.51100000000E-03 0.  1.
         11   -1    0    0    0    0 -0.00000000000E+00 -0.00000000000E+00 -0.45593999997E+02  0.45594000000E+02  0.51100000000E-03 0. -1.
    9900012    2    1    2    0    0  0.71426823125E+01  0.94733105156E+01  0.29596574906E+02  0.59301972199E+02  0.50000051377E+02 0.  0.
         12    1    1    2    0    0 -0.71426823125E+01 -0.94733105156E+01 -0.29596574906E+02  0.31886027801E+02  0.00000000000E+00 0. -1.
         11    1    3    3    0    0 -0.23509296776E+01 -0.45376632366E+01 -0.24740901333E+01  0.56778851914E+01  0.51100000000E-03 0. -1.
        -11    1    3    3    0    0  0.23114307508E+02  0.10988104214E+02  0.99258245640E+01  0.27450530766E+02  0.51100000000E-03 0.  1.
         12    1    3    3    0    0 -0.13620695518E+02  0.30228695387E+01  0.22144840476E+02  0.26173556242E+02  0.00000000000E+00 0. -1.
</event>
<event>
 7    1  0.3220798E-013  0.5930192E+02  0.7816164E-02  0.1266605E+00
        -11   -1    0    0    0    0  0.00000000000E+00  0.00000000000E+00  0.45593999997E+02  0.45594000000E+02  0.51100000000E-03 0.  1.
         11   -1    0    0    0    0 -0.00000000000E+00 -0.00000000000E+00 -0.45593999997E+02  0.45594000000E+02  0.51100000000E-03 0. -1.
    9900012    2    1    2    0    0 -0.28698604291E+02  0.13801314191E+02  0.16235536123E+01  0.59301920154E+02  0.49999956460E+02 0.  0.
         12    1    1    2    0    0  0.28698604291E+02 -0.13801314191E+02 -0.16235536123E+01  0.31886079846E+02  0.00000000000E+00 0. -1.
         11    1    3    3    0    0  0.77100582705E+01  0.14999765892E+02  0.23073756258E+01  0.17022395774E+02  0.51100000000E-03 0. -1.
        -11    1    3    3    0    0 -0.83571451274E+01 -0.85441145619E+00  0.92720123086E+01  0.12511678789E+02  0.51100000000E-03 0.  1.
        -12    1    3    3    0    0 -0.28051517434E+02 -0.34404024526E+00 -0.99558343221E+01  0.29767845590E+02  0.00000000000E+00 0.  1.
</event>
<event>
 7    1  0.3220798E-013  0.5930191E+02  0.7816164E-02  0.1266605E+00
        -11   -1    0    0    0    0  0.00000000000E+00  0.00000000000E+00  0.45593999997E+02  0.45594000000E+02  0.51100000000E-03 0.  1.
         11   -1    0    0    0    0 -0.00000000000E+00 -0.00000000000E+00 -0.45593999997E+02  0.45594000000E+02  0.51100000000E-03 0. -1.
    9900012    2    1    2    0    0  0.58976367883E+01 -0.26526968214E+02  0.16681152571E+02  0.59301905642E+02  0.49999929994E+02 0.  0.
         12    1    1    2    0    0 -0.58976367883E+01  0.26526968214E+02 -0.16681152571E+02  0.31886094358E+02  0.00000000000E+00 0. -1.
         11    1    3    3    0    0  0.71551152883E+00 -0.10598308874E+02  0.23198114750E+02  0.25514478947E+02  0.51100000000E-03 0. -1.
        -11    1    3    3    0    0  0.16464341504E+02 -0.86574077597E+01  0.56702113100E+00  0.18610393965E+02  0.51100000000E-03 0.  1.
         12    1    3    3    0    0 -0.11282216245E+02 -0.72712515806E+01 -0.70839833104E+01  0.15177032730E+02  0.00000000000E+00 0. -1.
</event>
<event>
 7    1  0.3220798E-013  0.5930195E+02  0.7816164E-02  0.1266605E+00
        -11   -1    0    0    0    0  0.00000000000E+00  0.00000000000E+00  0.45593999997E+02  0.45594000000E+02  0.51100000000E-03 0.  1.
         11   -1    0    0    0    0 -0.00000000000E+00 -0.00000000000E+00 -0.45593999997E+02  0.45594000000E+02  0.51100000000E-03 0. -1.
    9900012    2    1    2    0    0  0.26436740746E+02 -0.14718640637E+02 -0.10058865936E+02  0.59301946193E+02  0.50000003950E+02 0.  0.
         12    1    1    2    0    0 -0.26436740746E+02  0.14718640637E+02  0.10058865936E+02  0.31886053807E+02  0.00000000000E+00 0. -1.
         11    1    3    3    0    0  0.22764127024E+02 -0.12155404333E+02  0.33109785353E+01  0.26017723051E+02  0.51100000000E-03 0.  1.
        -11    1    3    3    0    0  0.15923301221E+02 -0.10910401959E+01 -0.13561176235E+02  0.20943910609E+02  0.51100000000E-03 0. -1.
        -12    1    3    3    0    0 -0.12250687499E+02 -0.14721961073E+01  0.19133176329E+00  0.12340312533E+02  0.00000000000E+00 0.  1.
</event>
<event>
 7    1  0.3220798E-013  0.5930201E+02  0.7816164E-02  0.1266605E+00
        -11   -1    0    0    0    0  0.00000000000E+00  0.00000000000E+00  0.45593999997E+02  0.45594000000E+02  0.51100000000E-03 0. -1.
         11   -1    0    0    0    0 -0.00000000000E+00 -0.00000000000E+00 -0.45593999997E+02  0.45594000000E+02  0.51100000000E-03 0.  1.
    9900012    2    1    2    0    0  0.93603841624E+00 -0.17190419878E+02 -0.26838958930E+02  0.59302009033E+02  0.50000118554E+02 0.  0.
         12    1    1    2    0    0 -0.93603841624E+00  0.17190419878E+02  0.26838958930E+02  0.31885990967E+02  0.00000000000E+00 0. -1.
         11    1    3    3    0    0 -0.61948189294E+01 -0.56378366696E+01 -0.23537774292E+02  0.24983750774E+02  0.51100000000E-03 0.  1.
        -11    1    3    3    0    0  0.47399377299E+01  0.97391710434E+01 -0.65348894953E+01  0.12650029378E+02  0.51100000000E-03 0. -1.
         12    1    3    3    0    0  0.23909196157E+01 -0.21291754252E+02  0.32337048567E+01  0.21668228881E+02  0.00000000000E+00 0. -1.
</event>
<event>
 7    1  0.3220798E-013  0.5930199E+02  0.7816164E-02  0.1266605E+00
        -11   -1    0    0    0    0  0.00000000000E+00  0.00000000000E+00  0.45593999997E+02  0.45594000000E+02  0.51100000000E-03 0.  1.
         11   -1    0    0    0    0 -0.00000000000E+00 -0.00000000000E+00 -0.45593999997E+02  0.45594000000E+02  0.51100000000E-03 0. -1.
    9900012    2    1    2    0    0  0.23127634115E+02 -0.46465001006E+01  0.21453204471E+02  0.59301993586E+02  0.50000090382E+02 0.  0.
         12    1    1    2    0    0 -0.23127634115E+02  0.46465001006E+01 -0.21453204471E+02  0.31886006414E+02  0.00000000000E+00 0. -1.
         11    1    3    3    0    0 -0.91019253435E+01 -0.87959944507E+01  0.58434840426E+01  0.13941336713E+02  0.51100000000E-03 0. -1.
        -11    1    3    3    0    0  0.10726193249E+02 -0.11058603156E+02  0.10189793337E+02  0.18470945127E+02  0.51100000000E-03 0.  1.
        -12    1    3    3    0    0  0.21503366209E+02  0.15208097506E+02  0.54199270914E+01  0.26889711746E+02  0.00000000000E+00 0.  1.
</event>
<event>
 7    1  0.3220798E-013  0.5930190E+02  0.7816164E-02  0.1266605E+00
        -11   -1    0    0    0    0  0.00000000000E+00  0.00000000000E+00  0.45593999997E+02  0.45594000000E+02  0.51100000000E-03 0. -1.
         11   -1    0    0    0    0 -0.00000000000E+00 -0.00000000000E+00 -0.45593999997E+02  0.45594000000E+02  0.51100000000E-03 0.  1.
    9900012    2    1    2    0    0 -0.30789263642E+02 -0.74608361987E+01 -0.36166642572E+01  0.59301904398E+02  0.49999927725E+02 0.  0.
         12    1    1    2    0    0  0.30789263642E+02  0.74608361987E+01  0.36166642572E+01  0.31886095602E+02  0.00000000000E+00 0. -1.
         11    1    3    3    0    0  0.14598532288E+01  0.10033119077E+02 -0.95664964927E+01  0.13939602049E+02  0.51100000000E-03 0. -1.
        -11    1    3    3    0    0 -0.53859422127E+00 -0.71587407988E+01 -0.65759083041E+01  0.97355135378E+01  0.51100000000E-03 0.  1.
        -12    1    3    3    0    0 -0.31710522649E+02 -0.10335214477E+02  0.12525740540E+02  0.35626788812E+02  0.00000000000E+00 0.  1.
</event>
<event>
 7    1  0.3220798E-013  0.5930196E+02  0.7816164E-02  0.1266605E+00
        -11   -1    0    0    0    0  0.00000000000E+00  0.00000000000E+00  0.45593999997E+02  0.45594000000E+02  0.51100000000E-03 0. -1.
         11   -1    0    0    0    0 -0.00000000000E+00 -0.00000000000E+00 -0.45593999997E+02  0.45594000000E+02  0.51100000000E-03 0.  1.
    9900012    2    1    2    0    0  0.57558721607E+01 -0.68113747571E+00 -0.31354837146E+02  0.59301955638E+02  0.50000021175E+02 0.  0.
         12    1    1    2    0    0 -0.57558721607E+01  0.68113747571E+00  0.31354837146E+02  0.31886044362E+02  0.00000000000E+00 0. -1.
         11    1    3    3    0    0 -0.63002528248E+01  0.14881884219E+01  0.90723917521E+01  0.11145231393E+02  0.51100000000E-03 0. -1.
        -11    1    3    3    0    0 -0.28477426249E+01 -0.51523004965E+01 -0.27740687227E+02  0.28358447887E+02  0.51100000000E-03 0.  1.
        -12    1    3    3    0    0  0.14903867610E+02  0.29829745990E+01 -0.12686541671E+02  0.19798276359E+02  0.00000000000E+00 0.  1.
</event>
<event>
 7    1  0.3220798E-013  0.5930193E+02  0.7816164E-02  0.1266605E+00
        -11   -1    0    0    0    0  0.00000000000E+00  0.00000000000E+00  0.45593999997E+02  0.45594000000E+02  0.51100000000E-03 0. -1.
         11   -1    0    0    0    0 -0.00000000000E+00 -0.00000000000E+00 -0.45593999997E+02  0.45594000000E+02  0.51100000000E-03 0.  1.
    9900012    2    1    2    0    0 -0.26355303889E+02 -0.47186963670E+01 -0.17316273781E+02  0.59301929747E+02  0.49999973956E+02 0.  0.
         12    1    1    2    0    0  0.26355303889E+02  0.47186963670E+01  0.17316273781E+02  0.31886070253E+02  0.00000000000E+00 0. -1.
         11    1    3    3    0    0 -0.22220318954E+02  0.90701362479E+01  0.78606590273E+01  0.25254700683E+02  0.51100000000E-03 0.  1.
        -11    1    3    3    0    0  0.41839178998E+01  0.22639439684E+01 -0.64737035100E+01  0.80336447942E+01  0.51100000000E-03 0. -1.
        -12    1    3    3    0    0 -0.83189028352E+01 -0.16052776583E+02 -0.18703229298E+02  0.26013584270E+02  0.00000000000E+00 0.  1.
</event>
<event>
 7    1  0.3220798E-013  0.5930194E+02  0.7816164E-02  0.1266605E+00
        -11   -1    0    0    0    0  0.00000000000E+00  0.00000000000E+00  0.45593999997E+02  0.45594000000E+02  0.51100000000E-03 0. -1.
         11   -1    0    0    0    0 -0.00000000000E+00 -0.00000000000E+00 -0.45593999997E+02  0.45594000000E+02  0.51100000000E-03 0.  1.
    9900012    2    1    2    0    0  0.20762816995E+02  0.17338907260E+02 -0.16881597313E+02  0.59301943449E+02  0.49999998944E+02 0.  0.
         12    1    1    2    0    0 -0.20762816995E+02 -0.17338907260E+02  0.16881597313E+02  0.31886056551E+02  0.00000000000E+00 0. -1.
         11    1    3    3    0    0 -0.59546219973E+01 -0.49798646279E+01  0.82680107931E+00  0.78064188415E+01  0.51100000000E-03 0. -1.
        -11    1    3    3    0    0  0.30983245700E+01  0.23939483194E+02 -0.12779396821E+02  0.27313210249E+02  0.51100000000E-03 0.  1.
        -12    1    3    3    0    0  0.23619114423E+02 -0.16207113061E+01 -0.49290015718E+01  0.24182314359E+02  0.00000000000E+00 0.  1.
</event>
<event>
 7    1  0.3220798E-013  0.5930197E+02  0.7816164E-02  0.1266605E+00
        -11   -1    0    0    0    0  0.00000000000E+00  0.00000000000E+00  0.45593999997E+02  0.45594000000E+02  0.51100000000E-03 0. -1.
         11   -1    0    0    0    0 -0.00000000000E+00 -0.00000000000E+00 -0.45593999997E+02  0.45594000000E+02  0.51100000000E-03 0.  1.
    9900012    2    1    2    0    0  0.16394367456E+02  0.22284165050E+02 -0.15854316299E+02  0.59301974196E+02  0.50000055019E+02 0.  0.
         12    1    1    2    0    0 -0.16394367456E+02 -0.22284165050E+02  0.15854316299E+02  0.31886025804E+02  0.00000000000E+00 0. -1.
         11    1    3    3    0    0  0.40315751250E+01  0.16969747630E+02  0.11773026600E+02  0.21043528416E+02  0.51100000000E-03 0. -1.
        -11    1    3    3    0    0  0.53502410348E+01 -0.55319138063E+01  0.71556183662E-01  0.76962503883E+01  0.51100000000E-03 0.  1.
        -12    1    3    3    0    0  0.70125512966E+01  0.10846331227E+02 -0.27698899083E+02  0.30562195392E+02  0.00000000000E+00 0.  1.
</event>
<event>
 7    1  0.3220798E-013  0.5930196E+02  0.7816164E-02  0.1266605E+00
        -11   -1    0    0    0    0  0.00000000000E+00  0.00000000000E+00  0.45593999997E+02  0.45594000000E+02  0.51100000000E-03 0.  1.
         11   -1    0    0    0    0 -0.00000000000E+00 -0.00000000000E+00 -0.45593999997E+02  0.45594000000E+02  0.51100000000E-03 0. -1.
    9900012    2    1    2    0    0 -0.17786871838E+02 -0.26006749484E+02  0.48985530994E+01  0.59301958368E+02  0.50000026153E+02 0.  0.
         12    1    1    2    0    0  0.17786871838E+02  0.26006749484E+02 -0.48985530994E+01  0.31886041632E+02  0.00000000000E+00 0. -1.
         11    1    3    3    0    0 -0.23541284886E+02  0.45049008109E+01  0.15020820801E+01  0.24015463273E+02  0.51100000000E-03 0. -1.
        -11    1    3    3    0    0 -0.48848366752E+01 -0.18008383436E+02  0.27101353308E+01  0.18854928722E+02  0.51100000000E-03 0.  1.
        -12    1    3    3    0    0  0.10639249723E+02 -0.12503266859E+02  0.68633568847E+00  0.16431566373E+02  0.00000000000E+00 0.  1.
</event>
<event>
 7    1  0.3220798E-013  0.5930191E+02  0.7816164E-02  0.1266605E+00
        -11   -1    0    0    0    0  0.00000000000E+00  0.00000000000E+00  0.45593999997E+02  0.45594000000E+02  0.51100000000E-03 0. -1.
         11   -1    0    0    0    0 -0.00000000000E+00 -0.00000000000E+00 -0.45593999997E+02  0.45594000000E+02  0.51100000000E-03 0.  1.
    9900012    2    1    2    0    0  0.31555339890E+02 -0.20099084139E-01 -0.45806771065E+01  0.59301913971E+02  0.49999945183E+02 0.  0.
         12    1    1    2    0    0 -0.31555339890E+02  0.20099084139E-01  0.45806771065E+01  0.31886086029E+02  0.00000000000E+00 0. -1.
         11    1    3    3    0    0  0.23929378405E+02 -0.28791565842E+01  0.16709435251E+02  0.29327630661E+02  0.51100000000E-03 0. -1.
        -11    1    3    3    0    0  0.11684481686E+02  0.61009452231E+00 -0.44687976717E+01  0.12524754707E+02  0.51100000000E-03 0.  1.
         12    1    3    3    0    0 -0.40585202015E+01  0.22489629777E+01 -0.16821314686E+02  0.17449528603E+02  0.00000000000E+00 0. -1.
</event>
<event>
 7    1  0.3220798E-013  0.5930195E+02  0.7816164E-02  0.1266605E+00
        -11   -1    0    0    0    0  0.00000000000E+00  0.00000000000E+00  0.45593999997E+02  0.45594000000E+02  0.51100000000E-03 0.  1.
         11   -1    0    0    0    0 -0.00000000000E+00 -0.00000000000E+00 -0.45593999997E+02  0.45594000000E+02  0.51100000000E-03 0. -1.
    9900012    2    1    2    0    0 -0.15906161934E+02 -0.78113136699E+01  0.26508445131E+02  0.59301948630E+02  0.50000008394E+02 0.  0.
         12    1    1    2    0    0  0.15906161934E+02  0.78113136699E+01 -0.26508445131E+02  0.31886051370E+02  0.00000000000E+00 0. -1.
         11    1    3    3    0    0  0.55812252810E+00  0.64413810194E+01  0.13265477713E+00  0.64668761968E+01  0.51100000000E-03 0. -1.
        -11    1    3    3    0    0 -0.46266026552E+00 -0.87530624201E+01 -0.96481962716E+01  0.13035254037E+02  0.51100000000E-03 0.  1.
        -12    1    3    3    0    0 -0.16001624197E+02 -0.54996322691E+01  0.36023986625E+02  0.39799818396E+02  0.00000000000E+00 0.  1.
</event>
<event>
 7    1  0.3220798E-013  0.5930195E+02  0.7816164E-02  0.1266605E+00
        -11   -1    0    0    0    0  0.00000000000E+00  0.00000000000E+00  0.45593999997E+02  0.45594000000E+02  0.51100000000E-03 0.  1.
         11   -1    0    0    0    0 -0.00000000000E+00 -0.00000000000E+00 -0.45593999997E+02  0.45594000000E+02  0.51100000000E-03 0. -1.
    9900012    2    1    2    0    0  0.12417902667E+02  0.15097240622E+02  0.25191055576E+02  0.59301948785E+02  0.50000008677E+02 0.  0.
         12    1    1    2    0    0 -0.12417902667E+02 -0.15097240622E+02 -0.25191055576E+02  0.31886051215E+02  0.00000000000E+00 0. -1.
         11    1    3    3    0    0 -0.24275739200E+01 -0.48102507410E+01 -0.51101252344E+00  0.54122787612E+01  0.51100000000E-03 0. -1.
        -11    1    3    3    0    0  0.57437279583E+00 -0.64199062511E+01 -0.70217500181E+01  0.95315305150E+01  0.51100000000E-03 0.  1.
        -12    1    3    3    0    0  0.14271103791E+02  0.26327397614E+02  0.32723818117E+02  0.44358139509E+02  0.00000000000E+00 0.  1.
</event>
<event>
 7    1  0.3220798E-013  0.5930174E+02  0.7816164E-02  0.1266605E+00
        -11   -1    0    0    0    0  0.00000000000E+00  0.00000000000E+00  0.45593999997E+02  0.45594000000E+02  0.51100000000E-03 0.  1.
         11   -1    0    0    0    0 -0.00000000000E+00 -0.00000000000E+00 -0.45593999997E+02  0.45594000000E+02  0.51100000000E-03 0. -1.
    9900012    2    1    2    0    0 -0.64595519925E+01 -0.28390942871E+02  0.12998536277E+02  0.59301742860E+02  0.49999633117E+02 0.  0.
         12    1    1    2    0    0  0.64595519925E+01  0.28390942871E+02 -0.12998536277E+02  0.31886257140E+02  0.00000000000E+00 0. -1.
         11    1    3    3    0    0 -0.33033559635E+01  0.88680331836E+01 -0.41112872563E+01  0.10317793191E+02  0.51100000000E-03 0. -1.
        -11    1    3    3    0    0 -0.47230224255E+01 -0.23713461878E+02 -0.33359151809E+01  0.24408267972E+02  0.51100000000E-03 0.  1.
        -12    1    3    3    0    0  0.15668263965E+01 -0.13545514177E+02  0.20445738714E+02  0.24575681697E+02  0.00000000000E+00 0.  1.
</event>
<event>
 7    1  0.3220798E-013  0.5930189E+02  0.7816164E-02  0.1266605E+00
        -11   -1    0    0    0    0  0.00000000000E+00  0.00000000000E+00  0.45593999997E+02  0.45594000000E+02  0.51100000000E-03 0. -1.
         11   -1    0    0    0    0 -0.00000000000E+00 -0.00000000000E+00 -0.45593999997E+02  0.45594000000E+02  0.51100000000E-03 0.  1.
    9900012    2    1    2    0    0 -0.90982238653E+01  0.93016057844E+01 -0.29110584818E+02  0.59301894937E+02  0.49999910470E+02 0.  0.
         12    1    1    2    0    0  0.90982238653E+01 -0.93016057844E+01  0.29110584818E+02  0.31886105063E+02  0.00000000000E+00 0. -1.
         11    1    3    3    0    0 -0.95355484026E+01  0.12871982120E+02  0.57100979342E+01  0.17006464234E+02  0.51100000000E-03 0. -1.
        -11    1    3    3    0    0  0.68457588433E+01 -0.64113283810E+01 -0.32046141492E+01  0.99115638451E+01  0.51100000000E-03 0.  1.
         12    1    3    3    0    0 -0.64084343061E+01  0.28409520449E+01 -0.31616068603E+02  0.32383866858E+02  0.00000000000E+00 0. -1.
</event>
<event>
 7    1  0.3220798E-013  0.5930194E+02  0.7816164E-02  0.1266605E+00
        -11   -1    0    0    0    0  0.00000000000E+00  0.00000000000E+00  0.45593999997E+02  0.45594000000E+02  0.51100000000E-03 0. -1.
         11   -1    0    0    0    0 -0.00000000000E+00 -0.00000000000E+00 -0.45593999997E+02  0.45594000000E+02  0.51100000000E-03 0.  1.
    9900012    2    1    2    0    0  0.14960379127E+02 -0.17221465066E+02 -0.22278447812E+02  0.59301936594E+02  0.49999986442E+02 0.  0.
         12    1    1    2    0    0 -0.14960379127E+02  0.17221465066E+02  0.22278447812E+02  0.31886063406E+02  0.00000000000E+00 0. -1.
         11    1    3    3    0    0 -0.23942063173E+01  0.78198897306E+01 -0.11520883852E+02  0.14128469991E+02  0.51100000000E-03 0. -1.
        -11    1    3    3    0    0  0.20720978838E+02 -0.25208318888E+01 -0.74519057638E+01  0.22164035219E+02  0.51100000000E-03 0.  1.
        -12    1    3    3    0    0 -0.33663933930E+01 -0.22520522908E+02 -0.33056581956E+01  0.23009431384E+02  0.00000000000E+00 0.  1.
</event>
<event>
 7    1  0.3220798E-013  0.5930194E+02  0.7816164E-02  0.1266605E+00
        -11   -1    0    0    0    0  0.00000000000E+00  0.00000000000E+00  0.45593999997E+02  0.45594000000E+02  0.51100000000E-03 0.  1.
         11   -1    0    0    0    0 -0.00000000000E+00 -0.00000000000E+00 -0.45593999997E+02  0.45594000000E+02  0.51100000000E-03 0. -1.
    9900012    2    1    2    0    0 -0.26780258551E+02 -0.25280848368E+01  0.17121548755E+02  0.59301938896E+02  0.49999990641E+02 0.  0.
         12    1    1    2    0    0  0.26780258551E+02  0.25280848368E+01 -0.17121548755E+02  0.31886061104E+02  0.00000000000E+00 0. -1.
         11    1    3    3    0    0 -0.15299791746E+01 -0.10218665097E+02 -0.15857644538E+01  0.10453544940E+02  0.51100000000E-03 0. -1.
        -11    1    3    3    0    0 -0.29686436713E+01  0.11529197264E+01 -0.10822969491E+02  0.11281787891E+02  0.51100000000E-03 0.  1.
        -12    1    3    3    0    0 -0.22281635705E+02  0.65376605340E+01  0.29530282700E+02  0.37566606065E+02  0.00000000000E+00 0.  1.
</event>
<event>
 7    1  0.3220798E-013  0.5930196E+02  0.7816164E-02  0.1266605E+00
        -11   -1    0    0    0    0  0.00000000000E+00  0.00000000000E+00  0.45593999997E+02  0.45594000000E+02  0.51100000000E-03 0.  1.
         11   -1    0    0    0    0 -0.00000000000E+00 -0.00000000000E+00 -0.45593999997E+02  0.45594000000E+02  0.51100000000E-03 0. -1.
    9900012    2    1    2    0    0 -0.12042004002E+02 -0.37383443435E+01  0.29287100142E+02  0.59301963659E+02  0.50000035803E+02 0.  0.
         12    1    1    2    0    0  0.12042004002E+02  0.37383443435E+01 -0.29287100142E+02  0.31886036341E+02  0.00000000000E+00 0. -1.
         11    1    3    3    0    0  0.22177971580E+01  0.45771887915E+01  0.18530328080E+01  0.54132256849E+01  0.51100000000E-03 0. -1.
        -11    1    3    3    0    0  0.11773868692E+02 -0.13177122262E+02  0.31353064916E+01  0.17946885027E+02  0.51100000000E-03 0.  1.
         12    1    3    3    0    0 -0.26033669852E+02  0.48615891273E+01  0.24298760843E+02  0.35941852947E+02  0.00000000000E+00 0. -1.
</event>
<event>
 7    1  0.3223464E-013  0.5930194E+02  0.7816164E-02  0.1266605E+00
        -11   -1    0    0    0    0  0.00000000000E+00  0.00000000000E+00  0.45593999997E+02  0.45594000000E+02  0.51100000000E-03 0. -1.
         11   -1    0    0    0    0 -0.00000000000E+00 -0.00000000000E+00 -0.45593999997E+02  0.45594000000E+02  0.51100000000E-03 0.  1.
    9900012    2    1    2    0    0  0.28842312110E+02 -0.13221247859E+02 -0.31686254316E+01  0.59301944271E+02  0.50000000444E+02 0.  0.
         12    1    1    2    0    0 -0.28842312110E+02  0.13221247859E+02  0.31686254316E+01  0.31886055729E+02  0.00000000000E+00 0. -1.
         11    1    3    3    0    0  0.12443071981E+02 -0.13735720717E+01  0.15555161019E+02  0.19966967099E+02  0.51100000000E-03 0. -1.
        -11    1    3    3    0    0  0.21741893974E+02 -0.44677120135E+01 -0.48223801604E+01  0.22713999095E+02  0.51100000000E-03 0.  1.
         12    1    3    3    0    0 -0.53426538443E+01 -0.73799637737E+01 -0.13901406290E+02  0.16620978077E+02  0.00000000000E+00 0. -1.
</event>
<event>
 7    1  0.3220798E-013  0.5930196E+02  0.7816164E-02  0.1266605E+00
        -11   -1    0    0    0    0  0.00000000000E+00  0.00000000000E+00  0.45593999997E+02  0.45594000000E+02  0.51100000000E-03 0.  1.
         11   -1    0    0    0    0 -0.00000000000E+00 -0.00000000000E+00 -0.45593999997E+02  0.45594000000E+02  0.51100000000E-03 0. -1.
    9900012    2    1    2    0    0 -0.12232776846E+02 -0.24164589915E+02  0.16827109582E+02  0.59301955215E+02  0.50000020403E+02 0.  0.
         12    1    1    2    0    0  0.12232776846E+02  0.24164589915E+02 -0.16827109582E+02  0.31886044785E+02  0.00000000000E+00 0. -1.
         11    1    3    3    0    0  0.12023862605E+02 -0.12105400326E+02  0.88234454022E+00  0.17084862339E+02  0.51100000000E-03 0. -1.
        -11    1    3    3    0    0  0.39984857515E+00 -0.13322225904E+02  0.10188149226E+01  0.13367107617E+02  0.51100000000E-03 0.  1.
        -12    1    3    3    0    0 -0.24656488026E+02  0.12630363145E+01  0.14925950120E+02  0.28849985259E+02  0.00000000000E+00 0.  1.
</event>
<event>
 7    1  0.3220798E-013  0.5930198E+02  0.7816164E-02  0.1266605E+00
        -11   -1    0    0    0    0  0.00000000000E+00  0.00000000000E+00  0.45593999997E+02  0.45594000000E+02  0.51100000000E-03 0. -1.
         11   -1    0    0    0    0 -0.00000000000E+00 -0.00000000000E+00 -0.45593999997E+02  0.45594000000E+02  0.51100000000E-03 0.  1.
    9900012    2    1    2    0    0  0.30038115577E+02  0.77830161131E+01 -0.73385454948E+01  0.59301984613E+02  0.50000074018E+02 0.  0.
         12    1    1    2    0    0 -0.30038115577E+02 -0.77830161131E+01  0.73385454948E+01  0.31886015387E+02  0.00000000000E+00 0. -1.
         11    1    3    3    0    0  0.14788274071E+02 -0.68894544842E+01  0.16038403954E+01  0.16392984395E+02  0.51100000000E-03 0. -1.
        -11    1    3    3    0    0 -0.42882077080E+01 -0.43277080736E+01 -0.13929121559E+02  0.15203230255E+02  0.51100000000E-03 0.  1.
         12    1    3    3    0    0  0.19538049214E+02  0.19000178671E+02  0.49867356691E+01  0.27705769963E+02  0.00000000000E+00 0. -1.
</event>
<event>
 7    1  0.3220798E-013  0.5930194E+02  0.7816164E-02  0.1266605E+00
        -11   -1    0    0    0    0  0.00000000000E+00  0.00000000000E+00  0.45593999997E+02  0.45594000000E+02  0.51100000000E-03 0.  1.
         11   -1    0    0    0    0 -0.00000000000E+00 -0.00000000000E+00 -0.45593999997E+02  0.45594000000E+02  0.51100000000E-03 0. -1.
    9900012    2    1    2    0    0  0.18940822721E+02  0.17366039439E+02 -0.18878202131E+02  0.59301943379E+02  0.49999998817E+02 0.  0.
         12    1    1    2    0    0 -0.18940822721E+02 -0.17366039439E+02  0.18878202131E+02  0.31886056621E+02  0.00000000000E+00 0. -1.
         11    1    3    3    0    0 -0.10686199807E+01 -0.11986451047E+01  0.79854739015E+00  0.17934260357E+01  0.51100000000E-03 0. -1.
        -11    1    3    3    0    0 -0.26669341452E+01 -0.54879841442E+01  0.10891659096E+02  0.12484340024E+02  0.51100000000E-03 0.  1.
         12    1    3    3    0    0  0.22676376847E+02  0.24052668688E+02 -0.30568408617E+02  0.45024177319E+02  0.00000000000E+00 0. -1.
</event>
<event>
 7    1  0.3220798E-013  0.5930197E+02  0.7816164E-02  0.1266605E+00
        -11   -1    0    0    0    0  0.00000000000E+00  0.00000000000E+00  0.45593999997E+02  0.45594000000E+02  0.51100000000E-03 0.  1.
         11   -1    0    0    0    0 -0.00000000000E+00 -0.00000000000E+00 -0.45593999997E+02  0.45594000000E+02  0.51100000000E-03 0. -1.
    9900012    2    1    2    0    0 -0.11739285795E+02  0.76007300181E+01  0.28655491918E+02  0.59301966304E+02  0.50000040626E+02 0.  0.
         12    1    1    2    0    0  0.11739285795E+02 -0.76007300181E+01 -0.28655491918E+02  0.31886033696E+02  0.00000000000E+00 0. -1.
         11    1    3    3    0    0  0.26554490475E+01  0.41809340965E+00  0.90596357617E+01  0.94500376792E+01  0.51100000000E-03 0. -1.
        -11    1    3    3    0    0 -0.13205219653E+01  0.14661412497E+02 -0.91968582632E+01  0.17357505490E+02  0.51100000000E-03 0.  1.
         12    1    3    3    0    0 -0.13074212877E+02 -0.74787758888E+01  0.28792714420E+02  0.32494423134E+02  0.00000000000E+00 0. -1.
</event>
<event>
 7    1  0.3220798E-013  0.5930193E+02  0.7816164E-02  0.1266605E+00
        -11   -1    0    0    0    0  0.00000000000E+00  0.00000000000E+00  0.45593999997E+02  0.45594000000E+02  0.51100000000E-03 0.  1.
         11   -1    0    0    0    0 -0.00000000000E+00 -0.00000000000E+00 -0.45593999997E+02  0.45594000000E+02  0.51100000000E-03 0. -1.
    9900012    2    1    2    0    0 -0.20493034914E+02 -0.24295213878E+02  0.25494561223E+01  0.59301927431E+02  0.49999969731E+02 0.  0.
         12    1    1    2    0    0  0.20493034914E+02  0.24295213878E+02 -0.25494561223E+01  0.31886072569E+02  0.00000000000E+00 0. -1.
         11    1    3    3    0    0 -0.97722707601E+01 -0.47104056976E+01 -0.73330084873E+01  0.13094205260E+02  0.51100000000E-03 0. -1.
        -11    1    3    3    0    0 -0.75172909720E+00  0.11993477009E+02  0.22707905724E+01  0.12229680187E+02  0.51100000000E-03 0.  1.
         12    1    3    3    0    0 -0.99690350571E+01 -0.31578285189E+02  0.76116740372E+01  0.33978041984E+02  0.00000000000E+00 0. -1.
</event>
<event>
 7    1  0.3220798E-013  0.5930195E+02  0.7816164E-02  0.1266605E+00
        -11   -1    0    0    0    0  0.00000000000E+00  0.00000000000E+00  0.45593999997E+02  0.45594000000E+02  0.51100000000E-03 0. -1.
         11   -1    0    0    0    0 -0.00000000000E+00 -0.00000000000E+00 -0.45593999997E+02  0.45594000000E+02  0.51100000000E-03 0.  1.
    9900012    2    1    2    0    0  0.83991716188E+01  0.30215609164E+02  0.57611916877E+01  0.59301945827E+02  0.50000003282E+02 0.  0.
         12    1    1    2    0    0 -0.83991716188E+01 -0.30215609164E+02 -0.57611916877E+01  0.31886054173E+02  0.00000000000E+00 0. -1.
         11    1    3    3    0    0  0.16906978854E+02  0.13381433405E+02 -0.42070187938E+01  0.21968334059E+02  0.51100000000E-03 0. -1.
        -11    1    3    3    0    0 -0.42129138274E+01  0.24963175393E+02  0.24078451301E+01  0.25430424437E+02  0.51100000000E-03 0.  1.
         12    1    3    3    0    0 -0.42948934073E+01 -0.81289996332E+01  0.75603653514E+01  0.11903187332E+02  0.00000000000E+00 0. -1.
</event>
<event>
 7    1  0.3220798E-013  0.5930196E+02  0.7816164E-02  0.1266605E+00
        -11   -1    0    0    0    0  0.00000000000E+00  0.00000000000E+00  0.45593999997E+02  0.45594000000E+02  0.51100000000E-03 0.  1.
         11   -1    0    0    0    0 -0.00000000000E+00 -0.00000000000E+00 -0.45593999997E+02  0.45594000000E+02  0.51100000000E-03 0. -1.
    9900012    2    1    2    0    0 -0.27861461915E+02  0.12497815856E+02  0.91795098392E+01  0.59301955057E+02  0.50000020114E+02 0.  0.
         12    1    1    2    0    0  0.27861461915E+02 -0.12497815856E+02 -0.91795098392E+01  0.31886044943E+02  0.00000000000E+00 0. -1.
         11    1    3    3    0    0  0.53580639246E+01 -0.47900876507E+01 -0.10259182048E+01  0.72599102711E+01  0.51100000000E-03 0. -1.
        -11    1    3    3    0    0 -0.28253886487E+02 -0.79406270748E+00 -0.39605767826E+01  0.28541177374E+02  0.51100000000E-03 0.  1.
         12    1    3    3    0    0 -0.49656393534E+01  0.18081966214E+02  0.14166004827E+02  0.23500867412E+02  0.00000000000E+00 0. -1.
</event>
<event>
 7    1  0.3220798E-013  0.5930183E+02  0.7816164E-02  0.1266605E+00
        -11   -1    0    0    0    0  0.00000000000E+00  0.00000000000E+00  0.45593999997E+02  0.45594000000E+02  0.51100000000E-03 0.  1.
         11   -1    0    0    0    0 -0.00000000000E+00 -0.00000000000E+00 -0.45593999997E+02  0.45594000000E+02  0.51100000000E-03 0. -1.
    9900012    2    1    2    0    0  0.17770196939E+01  0.30415672856E+02  0.94051615239E+01  0.59301827172E+02  0.49999786883E+02 0.  0.
         12    1    1    2    0    0 -0.17770196939E+01 -0.30415672856E+02 -0.94051615239E+01  0.31886172828E+02  0.00000000000E+00 0. -1.
         11    1    3    3    0    0  0.73413932450E+01 -0.61062868392E+01 -0.16604636071E+01  0.96922615210E+01  0.51100000000E-03 0. -1.
        -11    1    3    3    0    0  0.82736417578E+01 -0.83049958531E+00  0.18659746987E+00  0.83173130502E+01  0.51100000000E-03 0.  1.
        -12    1    3    3    0    0 -0.13838015309E+02  0.37352459281E+02  0.10879027661E+02  0.41292252601E+02  0.00000000000E+00 0.  1.
</event>
<event>
 7    1  0.3220798E-013  0.5930195E+02  0.7816164E-02  0.1266605E+00
        -11   -1    0    0    0    0  0.00000000000E+00  0.00000000000E+00  0.45593999997E+02  0.45594000000E+02  0.51100000000E-03 0.  1.
         11   -1    0    0    0    0 -0.00000000000E+00 -0.00000000000E+00 -0.45593999997E+02  0.45594000000E+02  0.51100000000E-03 0. -1.
    9900012    2    1    2    0    0 -0.27480343419E+02  0.11619875025E+02 -0.11248540724E+02  0.59301946019E+02  0.50000003632E+02 0.  0.
         12    1    1    2    0    0  0.27480343419E+02 -0.11619875025E+02  0.11248540724E+02  0.31886053981E+02  0.00000000000E+00 0. -1.
         11    1    3    3    0    0 -0.15297025020E+02 -0.59671424748E+01  0.12087818802E+02  0.20389240481E+02  0.51100000000E-03 0. -1.
        -11    1    3    3    0    0 -0.57623432970E+01  0.13453888167E+02 -0.29501138214E+00  0.14638945968E+02  0.51100000000E-03 0.  1.
         12    1    3    3    0    0 -0.64209751026E+01  0.41331293330E+01 -0.23041348144E+02  0.24273759570E+02  0.00000000000E+00 0. -1.
</event>
<event>
 7    1  0.3220798E-013  0.5930193E+02  0.7816164E-02  0.1266605E+00
        -11   -1    0    0    0    0  0.00000000000E+00  0.00000000000E+00  0.45593999997E+02  0.45594000000E+02  0.51100000000E-03 0.  1.
         11   -1    0    0    0    0 -0.00000000000E+00 -0.00000000000E+00 -0.45593999997E+02  0.45594000000E+02  0.51100000000E-03 0. -1.
    9900012    2    1    2    0    0  0.56642151045E+01  0.11418411797E+02  0.29227687944E+02  0.59301934027E+02  0.49999981760E+02 0.  0.
         12    1    1    2    0    0 -0.56642151045E+01 -0.11418411797E+02 -0.29227687944E+02  0.31886065973E+02  0.00000000000E+00 0. -1.
         11    1    3    3    0    0  0.94436036865E+01 -0.37443980714E+01 -0.44343641232E+01  0.11084482529E+02  0.51100000000E-03 0. -1.
        -11    1    3    3    0    0  0.11239136816E+02  0.76284821214E-01  0.44874286534E+01  0.12102108574E+02  0.51100000000E-03 0.  1.
        -12    1    3    3    0    0 -0.15018525398E+02  0.15086525047E+02  0.29174623414E+02  0.36115342923E+02  0.00000000000E+00 0.  1.
</event>
<event>
 7    1  0.3220798E-013  0.5930193E+02  0.7816164E-02  0.1266605E+00
        -11   -1    0    0    0    0  0.00000000000E+00  0.00000000000E+00  0.45593999997E+02  0.45594000000E+02  0.51100000000E-03 0.  1.
         11   -1    0    0    0    0 -0.00000000000E+00 -0.00000000000E+00 -0.45593999997E+02  0.45594000000E+02  0.51100000000E-03 0. -1.
    9900012    2    1    2    0    0  0.24248436302E+02 -0.16168663784E+02  0.12934803719E+02  0.59301929390E+02  0.49999973305E+02 0.  0.
         12    1    1    2    0    0 -0.24248436302E+02  0.16168663784E+02 -0.12934803719E+02  0.31886070610E+02  0.00000000000E+00 0. -1.
         11    1    3    3    0    0 -0.90105164688E+01 -0.10379238281E+02  0.55997617639E+01  0.14841675324E+02  0.51100000000E-03 0.  1.
        -11    1    3    3    0    0  0.20047113160E+02 -0.14263291999E+02 -0.42292973644E+01  0.24964278502E+02  0.51100000000E-03 0. -1.
        -12    1    3    3    0    0  0.13211839611E+02  0.84738664960E+01  0.11564339320E+02  0.19495975564E+02  0.00000000000E+00 0.  1.
</event>
<event>
 7    1  0.3220798E-013  0.5930192E+02  0.7816164E-02  0.1266605E+00
        -11   -1    0    0    0    0  0.00000000000E+00  0.00000000000E+00  0.45593999997E+02  0.45594000000E+02  0.51100000000E-03 0. -1.
         11   -1    0    0    0    0 -0.00000000000E+00 -0.00000000000E+00 -0.45593999997E+02  0.45594000000E+02  0.51100000000E-03 0.  1.
    9900012    2    1    2    0    0  0.83452713433E+01 -0.68916346558E+01 -0.29993060842E+02  0.59301923404E+02  0.49999962387E+02 0.  0.
         12    1    1    2    0    0 -0.83452713433E+01  0.68916346558E+01  0.29993060842E+02  0.31886076596E+02  0.00000000000E+00 0. -1.
         11    1    3    3    0    0 -0.52904026416E+01  0.10836838751E+02  0.65680840572E+01  0.13731903097E+02  0.51100000000E-03 0. -1.
        -11    1    3    3    0    0  0.51104355629E+01  0.19484512511E+01 -0.49833157862E+01  0.73990844303E+01  0.51100000000E-03 0.  1.
         12    1    3    3    0    0  0.85252384220E+01 -0.19676924658E+02 -0.31577829113E+02  0.38170935876E+02  0.00000000000E+00 0. -1.
</event>
<event>
 7    1  0.3220798E-013  0.5930195E+02  0.7816164E-02  0.1266605E+00
        -11   -1    0    0    0    0  0.00000000000E+00  0.00000000000E+00  0.45593999997E+02  0.45594000000E+02  0.51100000000E-03 0.  1.
         11   -1    0    0    0    0 -0.00000000000E+00 -0.00000000000E+00 -0.45593999997E+02  0.45594000000E+02  0.51100000000E-03 0. -1.
    9900012    2    1    2    0    0  0.18153815645E+02 -0.26213370044E+02  0.13582292209E+00  0.59301949140E+02  0.50000009324E+02 0.  0.
         12    1    1    2    0    0 -0.18153815645E+02  0.26213370044E+02 -0.13582292209E+00  0.31886050860E+02  0.00000000000E+00 0. -1.
         11    1    3    3    0    0 -0.11483358120E+02 -0.83472235170E+01  0.34075220852E+01  0.14599824012E+02  0.51100000000E-03 0. -1.
        -11    1    3    3    0    0 -0.11565270942E+01 -0.12408390051E+02  0.29712390085E+01  0.12811477670E+02  0.51100000000E-03 0.  1.
        -12    1    3    3    0    0  0.30793700859E+02 -0.54577564765E+01 -0.62429381716E+01  0.31890647459E+02  0.00000000000E+00 0.  1.
</event>
<event>
 7    1  0.3220798E-013  0.5930191E+02  0.7816164E-02  0.1266605E+00
        -11   -1    0    0    0    0  0.00000000000E+00  0.00000000000E+00  0.45593999997E+02  0.45594000000E+02  0.51100000000E-03 0.  1.
         11   -1    0    0    0    0 -0.00000000000E+00 -0.00000000000E+00 -0.45593999997E+02  0.45594000000E+02  0.51100000000E-03 0. -1.
    9900012    2    1    2    0    0  0.22744892028E+02 -0.47018197931E+01  0.21846865769E+02  0.59301909511E+02  0.49999937049E+02 0.  0.
         12    1    1    2    0    0 -0.22744892028E+02  0.47018197931E+01 -0.21846865769E+02  0.31886090489E+02  0.00000000000E+00 0. -1.
         11    1    3    3    0    0 -0.62714369824E-01  0.61761228815E+01  0.63353116891E+01  0.88478585770E+01  0.51100000000E-03 0. -1.
        -11    1    3    3    0    0  0.23927042929E+02  0.63686599000E+01 -0.32185922803E+01  0.24968431043E+02  0.51100000000E-03 0.  1.
        -12    1    3    3    0    0 -0.11194365306E+01 -0.17246602575E+02  0.18730146361E+02  0.25485619890E+02  0.00000000000E+00 0.  1.
</event>
<event>
 7    1  0.3220798E-013  0.5930194E+02  0.7816164E-02  0.1266605E+00
        -11   -1    0    0    0    0  0.00000000000E+00  0.00000000000E+00  0.45593999997E+02  0.45594000000E+02  0.51100000000E-03 0. -1.
         11   -1    0    0    0    0 -0.00000000000E+00 -0.00000000000E+00 -0.45593999997E+02  0.45594000000E+02  0.51100000000E-03 0.  1.
    9900012    2    1    2    0    0 -0.28831968231E+02 -0.97572915963E+01  0.94991554038E+01  0.59301935884E+02  0.49999985149E+02 0.  0.
         12    1    1    2    0    0  0.28831968231E+02  0.97572915963E+01 -0.94991554038E+01  0.31886064116E+02  0.00000000000E+00 0. -1.
         11    1    3    3    0    0 -0.42770343203E+01  0.14775775867E+02 -0.21373566831E+01  0.15530127781E+02  0.51100000000E-03 0. -1.
        -11    1    3    3    0    0  0.33068805402E+01 -0.93361333163E+01 -0.18109595420E+00  0.99061415401E+01  0.51100000000E-03 0.  1.
        -12    1    3    3    0    0 -0.27861814451E+02 -0.15196934147E+02  0.11817608041E+02  0.33865666564E+02  0.00000000000E+00 0.  1.
</event>
<event>
 7    1  0.3220798E-013  0.5930194E+02  0.7816164E-02  0.1266605E+00
        -11   -1    0    0    0    0  0.00000000000E+00  0.00000000000E+00  0.45593999997E+02  0.45594000000E+02  0.51100000000E-03 0. -1.
         11   -1    0    0    0    0 -0.00000000000E+00 -0.00000000000E+00 -0.45593999997E+02  0.45594000000E+02  0.51100000000E-03 0.  1.
    9900012    2    1    2    0    0  0.28251866875E+02 -0.73424575549E+01 -0.12831260727E+02  0.59301938520E+02  0.49999989954E+02 0.  0.
         12    1    1    2    0    0 -0.28251866875E+02  0.73424575549E+01  0.12831260727E+02  0.31886061480E+02  0.00000000000E+00 0. -1.
         11    1    3    3    0    0  0.17210052005E+02  0.11792414260E+02  0.43102937057E+01  0.21303181833E+02  0.51100000000E-03 0. -1.
        -11    1    3    3    0    0  0.17022937894E+02 -0.51680793496E+01 -0.13612604046E+02  0.22400724271E+02  0.51100000000E-03 0.  1.
         12    1    3    3    0    0 -0.59811230239E+01 -0.13966792465E+02 -0.35289503869E+01  0.15598032415E+02  0.00000000000E+00 0. -1.
</event>
<event>
 7    1  0.3220798E-013  0.5930198E+02  0.7816164E-02  0.1266605E+00
        -11   -1    0    0    0    0  0.00000000000E+00  0.00000000000E+00  0.45593999997E+02  0.45594000000E+02  0.51100000000E-03 0.  1.
         11   -1    0    0    0    0 -0.00000000000E+00 -0.00000000000E+00 -0.45593999997E+02  0.45594000000E+02  0.51100000000E-03 0. -1.
    9900012    2    1    2    0    0  0.15969070097E+02 -0.13197855623E+02 -0.24238893727E+02  0.59301975445E+02  0.50000057298E+02 0.  0.
         12    1    1    2    0    0 -0.15969070097E+02  0.13197855623E+02  0.24238893727E+02  0.31886024555E+02  0.00000000000E+00 0. -1.
         11    1    3    3    0    0  0.18186269264E+01 -0.17138805321E+01 -0.49550939203E+01  0.55495717308E+01  0.51100000000E-03 0. -1.
        -11    1    3    3    0    0  0.16680572970E+02 -0.23250677126E+02  0.26455589649E+01  0.28737336061E+02  0.51100000000E-03 0.  1.
         12    1    3    3    0    0 -0.25301297993E+01  0.11766702035E+02 -0.21929358771E+02  0.25015067653E+02  0.00000000000E+00 0. -1.
</event>
<event>
 7    1  0.3220798E-013  0.5930194E+02  0.7816164E-02  0.1266605E+00
        -11   -1    0    0    0    0  0.00000000000E+00  0.00000000000E+00  0.45593999997E+02  0.45594000000E+02  0.51100000000E-03 0. -1.
         11   -1    0    0    0    0 -0.00000000000E+00 -0.00000000000E+00 -0.45593999997E+02  0.45594000000E+02  0.51100000000E-03 0.  1.
    9900012    2    1    2    0    0  0.96749114472E+01 -0.30270916720E+02 -0.26054164004E+01  0.59301944973E+02  0.50000001724E+02 0.  0.
         12    1    1    2    0    0 -0.96749114472E+01  0.30270916720E+02  0.26054164004E+01  0.31886055027E+02  0.00000000000E+00 0. -1.
         11    1    3    3    0    0  0.17557442051E+02 -0.13637353834E+02 -0.62141184555E+01  0.23083683836E+02  0.51100000000E-03 0. -1.
        -11    1    3    3    0    0 -0.13875213456E+01 -0.21646251301E+02 -0.70136264640E+01  0.22796411281E+02  0.51100000000E-03 0.  1.
         12    1    3    3    0    0 -0.64950092582E+01  0.50126884153E+01  0.10622328519E+02  0.13421849857E+02  0.00000000000E+00 0. -1.
</event>
<event>
 7    1  0.3220798E-013  0.5930208E+02  0.7816164E-02  0.1266604E+00
        -11   -1    0    0    0    0  0.00000000000E+00  0.00000000000E+00  0.45593999997E+02  0.45594000000E+02  0.51100000000E-03 0. -1.
         11   -1    0    0    0    0 -0.00000000000E+00 -0.00000000000E+00 -0.45593999997E+02  0.45594000000E+02  0.51100000000E-03 0.  1.
    9900012    2    1    2    0    0  0.85458810090E+01 -0.30524158732E+02  0.34576892310E+01  0.59302078917E+02  0.50000246004E+02 0.  0.
         12    1    1    2    0    0 -0.85458810090E+01  0.30524158732E+02 -0.34576892310E+01  0.31885921083E+02  0.00000000000E+00 0. -1.
         11    1    3    3    0    0  0.11322065930E+02 -0.13820170657E+02  0.30193137311E+01  0.18119121104E+02  0.51100000000E-03 0. -1.
        -11    1    3    3    0    0  0.42835271881E+01 -0.18246022986E+02 -0.15085877526E+02  0.24059294690E+02  0.51100000000E-03 0.  1.
         12    1    3    3    0    0 -0.70597121095E+01  0.15420349110E+01  0.15524253026E+02  0.17123663123E+02  0.00000000000E+00 0. -1.
</event>
<event>
 7    1  0.3220798E-013  0.5930211E+02  0.7816164E-02  0.1266604E+00
        -11   -1    0    0    0    0  0.00000000000E+00  0.00000000000E+00  0.45593999997E+02  0.45594000000E+02  0.51100000000E-03 0.  1.
         11   -1    0    0    0    0 -0.00000000000E+00 -0.00000000000E+00 -0.45593999997E+02  0.45594000000E+02  0.51100000000E-03 0. -1.
    9900012    2    1    2    0    0 -0.91419012311E+01 -0.20237268948E+02  0.22882055025E+02  0.59302111981E+02  0.50000306305E+02 0.  0.
         12    1    1    2    0    0  0.91419012311E+01  0.20237268948E+02 -0.22882055025E+02  0.31885888019E+02  0.00000000000E+00 0. -1.
         11    1    3    3    0    0 -0.10948009479E+02 -0.71852049667E+01  0.17683540397E+02  0.22004401450E+02  0.51100000000E-03 0. -1.
        -11    1    3    3    0    0 -0.93192972620E+01  0.44919279367E+01 -0.76541797750E+01  0.12869078690E+02  0.51100000000E-03 0.  1.
         12    1    3    3    0    0  0.11125405510E+02 -0.17543991918E+02  0.12852694404E+02  0.24428631840E+02  0.00000000000E+00 0. -1.
</event>
<event>
 7    1  0.3220798E-013  0.5930197E+02  0.7816164E-02  0.1266605E+00
        -11   -1    0    0    0    0  0.00000000000E+00  0.00000000000E+00  0.45593999997E+02  0.45594000000E+02  0.51100000000E-03 0.  1.
         11   -1    0    0    0    0 -0.00000000000E+00 -0.00000000000E+00 -0.45593999997E+02  0.45594000000E+02  0.51100000000E-03 0. -1.
    9900012    2    1    2    0    0  0.16808073697E+02  0.10004216338E+02  0.25181800093E+02  0.59301972624E+02  0.50000052152E+02 0.  0.
         12    1    1    2    0    0 -0.16808073697E+02 -0.10004216338E+02 -0.25181800093E+02  0.31886027376E+02  0.00000000000E+00 0. -1.
         11    1    3    3    0    0 -0.60255137236E+01  0.64248432753E+01 -0.55953826828E-01  0.88084367420E+01  0.51100000000E-03 0. -1.
        -11    1    3    3    0    0 -0.58914756699E+01 -0.10210333889E+02  0.54627067629E+01  0.12992365802E+02  0.51100000000E-03 0.  1.
         12    1    3    3    0    0  0.28725063090E+02  0.13789706951E+02  0.19775047157E+02  0.37501170080E+02  0.00000000000E+00 0. -1.
</event>
<event>
 7    1  0.3220798E-013  0.5930193E+02  0.7816164E-02  0.1266605E+00
        -11   -1    0    0    0    0  0.00000000000E+00  0.00000000000E+00  0.45593999997E+02  0.45594000000E+02  0.51100000000E-03 0.  1.
         11   -1    0    0    0    0 -0.00000000000E+00 -0.00000000000E+00 -0.45593999997E+02  0.45594000000E+02  0.51100000000E-03 0. -1.
    9900012    2    1    2    0    0 -0.15718313443E+02 -0.27419088187E+02 -0.42248537802E+01  0.59301934643E+02  0.49999982884E+02 0.  0.
         12    1    1    2    0    0  0.15718313443E+02  0.27419088187E+02  0.42248537802E+01  0.31886065357E+02  0.00000000000E+00 0. -1.
         11    1    3    3    0    0 -0.11080887147E+02 -0.14188572407E+02 -0.71576889719E+01  0.19373542747E+02  0.51100000000E-03 0. -1.
        -11    1    3    3    0    0 -0.19423643851E+02 -0.76075874934E+01  0.93463892265E+01  0.22858440887E+02  0.51100000000E-03 0.  1.
        -12    1    3    3    0    0  0.14786217555E+02 -0.56229282866E+01 -0.64135540347E+01  0.17069951009E+02  0.00000000000E+00 0.  1.
</event>
<event>
 7    1  0.3220798E-013  0.5930198E+02  0.7816164E-02  0.1266605E+00
        -11   -1    0    0    0    0  0.00000000000E+00  0.00000000000E+00  0.45593999997E+02  0.45594000000E+02  0.51100000000E-03 0. -1.
         11   -1    0    0    0    0 -0.00000000000E+00 -0.00000000000E+00 -0.45593999997E+02  0.45594000000E+02  0.51100000000E-03 0.  1.
    9900012    2    1    2    0    0 -0.17027029409E+02 -0.25925001159E+02 -0.73954643892E+01  0.59301979409E+02  0.50000064528E+02 0.  0.
         12    1    1    2    0    0  0.17027029409E+02  0.25925001159E+02  0.73954643892E+01  0.31886020591E+02  0.00000000000E+00 0. -1.
         11    1    3    3    0    0  0.90661413803E+01 -0.18912285131E+02 -0.17159205154E+01  0.21043142158E+02  0.51100000000E-03 0. -1.
        -11    1    3    3    0    0 -0.30438228626E+00 -0.93424731739E+01 -0.79427846787E+01  0.12266306791E+02  0.51100000000E-03 0.  1.
         12    1    3    3    0    0 -0.25788788503E+02  0.23297571458E+01  0.22632408048E+01  0.25992530461E+02  0.00000000000E+00 0. -1.
</event>
<event>
 7    1  0.3220798E-013  0.5930191E+02  0.7816164E-02  0.1266605E+00
        -11   -1    0    0    0    0  0.00000000000E+00  0.00000000000E+00  0.45593999997E+02  0.45594000000E+02  0.51100000000E-03 0.  1.
         11   -1    0    0    0    0 -0.00000000000E+00 -0.00000000000E+00 -0.45593999997E+02  0.45594000000E+02  0.51100000000E-03 0. -1.
    9900012    2    1    2    0    0  0.35212268379E+01  0.22699174823E+02 -0.22114955119E+02  0.59301908738E+02  0.49999935639E+02 0.  0.
         12    1    1    2    0    0 -0.35212268379E+01 -0.22699174823E+02  0.22114955119E+02  0.31886091262E+02  0.00000000000E+00 0. -1.
         11    1    3    3    0    0 -0.66740068424E+01 -0.67810328497E+01  0.45385072527E+01  0.10541481024E+02  0.51100000000E-03 0. -1.
        -11    1    3    3    0    0 -0.82869702725E+01  0.14128673430E+02 -0.14303741819E+02  0.21746041467E+02  0.51100000000E-03 0.  1.
         12    1    3    3    0    0  0.18482203953E+02  0.15351534243E+02 -0.12349720553E+02  0.27014386247E+02  0.00000000000E+00 0. -1.
</event>
<event>
 7    1  0.3220798E-013  0.5930190E+02  0.7816164E-02  0.1266605E+00
        -11   -1    0    0    0    0  0.00000000000E+00  0.00000000000E+00  0.45593999997E+02  0.45594000000E+02  0.51100000000E-03 0.  1.
         11   -1    0    0    0    0 -0.00000000000E+00 -0.00000000000E+00 -0.45593999997E+02  0.45594000000E+02  0.51100000000E-03 0. -1.
    9900012    2    1    2    0    0 -0.25934511774E+02  0.17118518739E+02 -0.71470924840E+01  0.59301897765E+02  0.49999915627E+02 0.  0.
         12    1    1    2    0    0  0.25934511774E+02 -0.17118518739E+02  0.71470924840E+01  0.31886102235E+02  0.00000000000E+00 0. -1.
         11    1    3    3    0    0 -0.15870249776E+02  0.17274401514E+02  0.14187867990E+02  0.27414692666E+02  0.51100000000E-03 0.  1.
        -11    1    3    3    0    0 -0.79783292276E+01 -0.12976813349E+01  0.20842585172E+01  0.83475653899E+01  0.51100000000E-03 0. -1.
         12    1    3    3    0    0 -0.20859327710E+01  0.11417985602E+01 -0.23419218991E+02  0.23539639709E+02  0.00000000000E+00 0. -1.
</event>
<event>
 7    1  0.3220798E-013  0.5930194E+02  0.7816164E-02  0.1266605E+00
        -11   -1    0    0    0    0  0.00000000000E+00  0.00000000000E+00  0.45593999997E+02  0.45594000000E+02  0.51100000000E-03 0.  1.
         11   -1    0    0    0    0 -0.00000000000E+00 -0.00000000000E+00 -0.45593999997E+02  0.45594000000E+02  0.51100000000E-03 0. -1.
    9900012    2    1    2    0    0  0.20095070607E+02 -0.88924634790E+01  0.23104830099E+02  0.59301938102E+02  0.49999989193E+02 0.  0.
         12    1    1    2    0    0 -0.20095070607E+02  0.88924634790E+01 -0.23104830099E+02  0.31886061898E+02  0.00000000000E+00 0. -1.
         11    1    3    3    0    0 -0.74476965336E+01 -0.12086907213E+02 -0.10215980430E+01  0.14233944375E+02  0.51100000000E-03 0. -1.
        -11    1    3    3    0    0 -0.12766949700E+01  0.23764121988E+01  0.14384870432E+02  0.14635634000E+02  0.51100000000E-03 0.  1.
        -12    1    3    3    0    0  0.28819462111E+02  0.81803153525E+00  0.97415577105E+01  0.30432359728E+02  0.00000000000E+00 0.  1.
</event>
<event>
 7    1  0.3220798E-013  0.5930195E+02  0.7816164E-02  0.1266605E+00
        -11   -1    0    0    0    0  0.00000000000E+00  0.00000000000E+00  0.45593999997E+02  0.45594000000E+02  0.51100000000E-03 0.  1.
         11   -1    0    0    0    0 -0.00000000000E+00 -0.00000000000E+00 -0.45593999997E+02  0.45594000000E+02  0.51100000000E-03 0. -1.
    9900012    2    1    2    0    0  0.24778773096E+02 -0.14093289716E+02  0.14286779437E+02  0.59301945402E+02  0.50000002506E+02 0.  0.
         12    1    1    2    0    0 -0.24778773096E+02  0.14093289716E+02 -0.14286779437E+02  0.31886054598E+02  0.00000000000E+00 0. -1.
         11    1    3    3    0    0 -0.34001993432E+01  0.18663697130E+01 -0.11183352880E+02  0.11836894584E+02  0.51100000000E-03 0. -1.
        -11    1    3    3    0    0 -0.41606352691E+01 -0.19615196003E+01  0.14687570146E+01  0.48286325615E+01  0.51100000000E-03 0.  1.
         12    1    3    3    0    0  0.32339607708E+02 -0.13998139829E+02  0.24001375303E+02  0.42636418257E+02  0.00000000000E+00 0. -1.
</event>
<event>
 7    1  0.3220798E-013  0.5930195E+02  0.7816164E-02  0.1266605E+00
        -11   -1    0    0    0    0  0.00000000000E+00  0.00000000000E+00  0.45593999997E+02  0.45594000000E+02  0.51100000000E-03 0.  1.
         11   -1    0    0    0    0 -0.00000000000E+00 -0.00000000000E+00 -0.45593999997E+02  0.45594000000E+02  0.51100000000E-03 0. -1.
    9900012    2    1    2    0    0 -0.43436105925E+01  0.12866615089E+02  0.28849667701E+02  0.59301951902E+02  0.50000014361E+02 0.  0.
         12    1    1    2    0    0  0.43436105925E+01 -0.12866615089E+02 -0.28849667701E+02  0.31886048098E+02  0.00000000000E+00 0. -1.
         11    1    3    3    0    0 -0.69547400266E+01  0.15686594926E+02 -0.51856271644E+01  0.17925635234E+02  0.51100000000E-03 0. -1.
        -11    1    3    3    0    0 -0.98267615335E+01  0.17896209743E+01  0.11548930206E+02  0.15269111783E+02  0.51100000000E-03 0.  1.
        -12    1    3    3    0    0  0.12437890968E+02 -0.46096008105E+01  0.22486364659E+02  0.26107204886E+02  0.00000000000E+00 0.  1.
</event>
<event>
 7    1  0.3220798E-013  0.5930196E+02  0.7816164E-02  0.1266605E+00
        -11   -1    0    0    0    0  0.00000000000E+00  0.00000000000E+00  0.45593999997E+02  0.45594000000E+02  0.51100000000E-03 0.  1.
         11   -1    0    0    0    0 -0.00000000000E+00 -0.00000000000E+00 -0.45593999997E+02  0.45594000000E+02  0.51100000000E-03 0. -1.
    9900012    2    1    2    0    0  0.62437673926E+01 -0.19268224854E+02  0.24626619668E+02  0.59301960475E+02  0.50000029997E+02 0.  0.
         12    1    1    2    0    0 -0.62437673926E+01  0.19268224854E+02 -0.24626619668E+02  0.31886039525E+02  0.00000000000E+00 0. -1.
         11    1    3    3    0    0  0.62601407993E+01  0.51173307907E+01 -0.45215780903E+01  0.92639681528E+01  0.51100000000E-03 0. -1.
        -11    1    3    3    0    0 -0.93436393936E+01 -0.11639962995E+02 -0.20533417829E+01  0.15066802858E+02  0.51100000000E-03 0.  1.
         12    1    3    3    0    0  0.93272659870E+01 -0.12745592650E+02  0.31201539541E+02  0.34971189464E+02  0.00000000000E+00 0. -1.
</event>
<event>
 7    1  0.3220798E-013  0.5930201E+02  0.7816164E-02  0.1266605E+00
        -11   -1    0    0    0    0  0.00000000000E+00  0.00000000000E+00  0.45593999997E+02  0.45594000000E+02  0.51100000000E-03 0.  1.
         11   -1    0    0    0    0 -0.00000000000E+00 -0.00000000000E+00 -0.45593999997E+02  0.45594000000E+02  0.51100000000E-03 0. -1.
    9900012    2    1    2    0    0  0.83881732925E+01  0.30236891286E+02  0.56643872789E+01  0.59302010458E+02  0.50000121153E+02 0.  0.
         12    1    1    2    0    0 -0.83881732925E+01 -0.30236891286E+02 -0.56643872789E+01  0.31885989542E+02  0.00000000000E+00 0. -1.
         11    1    3    3    0    0  0.24252071460E+02  0.13530434994E+02  0.77353851627E+01  0.28828316376E+02  0.51100000000E-03 0. -1.
        -11    1    3    3    0    0 -0.11032120643E+02  0.19872079013E+02 -0.59755966558E+01  0.23501382211E+02  0.51100000000E-03 0.  1.
        -12    1    3    3    0    0 -0.48317775243E+01 -0.31656227209E+01  0.39045987720E+01  0.69723118710E+01  0.00000000000E+00 0.  1.
</event>
<event>
 7    1  0.3220798E-013  0.5930194E+02  0.7816164E-02  0.1266605E+00
        -11   -1    0    0    0    0  0.00000000000E+00  0.00000000000E+00  0.45593999997E+02  0.45594000000E+02  0.51100000000E-03 0.  1.
         11   -1    0    0    0    0 -0.00000000000E+00 -0.00000000000E+00 -0.45593999997E+02  0.45594000000E+02  0.51100000000E-03 0. -1.
    9900012    2    1    2    0    0 -0.27185198797E+02 -0.16663869001E+02  0.38979359537E-01  0.59301935910E+02  0.49999985196E+02 0.  0.
         12    1    1    2    0    0  0.27185198797E+02  0.16663869001E+02 -0.38979359537E-01  0.31886064090E+02  0.00000000000E+00 0. -1.
         11    1    3    3    0    0  0.56174872127E+01 -0.10193507180E+02  0.43159777252E+00  0.11646889203E+02  0.51100000000E-03 0.  1.
        -11    1    3    3    0    0  0.56925181534E+01  0.22098409474E+01  0.49140607854E+01  0.78381218161E+01  0.51100000000E-03 0. -1.
        -12    1    3    3    0    0 -0.38495204163E+02 -0.86802027688E+01 -0.53066791984E+01  0.39816924891E+02  0.00000000000E+00 0.  1.
</event>
<event>
 7    1  0.3220798E-013  0.5930195E+02  0.7816164E-02  0.1266605E+00
        -11   -1    0    0    0    0  0.00000000000E+00  0.00000000000E+00  0.45593999997E+02  0.45594000000E+02  0.51100000000E-03 0.  1.
         11   -1    0    0    0    0 -0.00000000000E+00 -0.00000000000E+00 -0.45593999997E+02  0.45594000000E+02  0.51100000000E-03 0. -1.
    9900012    2    1    2    0    0  0.35661268793E+01  0.29727628073E+02 -0.10966824749E+02  0.59301946985E+02  0.50000005394E+02 0.  0.
         12    1    1    2    0    0 -0.35661268793E+01 -0.29727628073E+02  0.10966824749E+02  0.31886053015E+02  0.00000000000E+00 0. -1.
         11    1    3    3    0    0  0.10206758288E+02  0.10755979271E+02 -0.20627178398E+02  0.25403729919E+02  0.51100000000E-03 0. -1.
        -11    1    3    3    0    0  0.76059119051E-01 -0.63185942883E+01  0.21495405459E+01  0.66746493233E+01  0.51100000000E-03 0.  1.
         12    1    3    3    0    0 -0.67166905279E+01  0.25290243090E+02  0.75108131034E+01  0.27223567743E+02  0.00000000000E+00 0. -1.
</event>
<event>
 7    1  0.3220798E-013  0.5930195E+02  0.7816164E-02  0.1266605E+00
        -11   -1    0    0    0    0  0.00000000000E+00  0.00000000000E+00  0.45593999997E+02  0.45594000000E+02  0.51100000000E-03 0. -1.
         11   -1    0    0    0    0 -0.00000000000E+00 -0.00000000000E+00 -0.45593999997E+02  0.45594000000E+02  0.51100000000E-03 0.  1.
    9900012    2    1    2    0    0 -0.56488283625E-01 -0.29303911258E+02  0.12569725980E+02  0.59301946353E+02  0.50000004241E+02 0.  0.
         12    1    1    2    0    0  0.56488283625E-01  0.29303911258E+02 -0.12569725980E+02  0.31886053647E+02  0.00000000000E+00 0. -1.
         11    1    3    3    0    0 -0.11907887684E+02 -0.52015648150E+01 -0.44602394402E+01  0.13738551661E+02  0.51100000000E-03 0. -1.
        -11    1    3    3    0    0 -0.57541804599E+01 -0.23641931293E+02  0.71073838851E+01  0.25348893743E+02  0.51100000000E-03 0.  1.
         12    1    3    3    0    0  0.17605579860E+02 -0.46041514971E+00  0.99225815352E+01  0.20214500950E+02  0.00000000000E+00 0. -1.
</event>
<event>
 7    1  0.3220798E-013  0.5930195E+02  0.7816164E-02  0.1266605E+00
        -11   -1    0    0    0    0  0.00000000000E+00  0.00000000000E+00  0.45593999997E+02  0.45594000000E+02  0.51100000000E-03 0.  1.
         11   -1    0    0    0    0 -0.00000000000E+00 -0.00000000000E+00 -0.45593999997E+02  0.45594000000E+02  0.51100000000E-03 0. -1.
    9900012    2    1    2    0    0  0.90413551409E+01  0.76160969190E+01  0.29613669475E+02  0.59301945763E+02  0.50000003164E+02 0.  0.
         12    1    1    2    0    0 -0.90413551409E+01 -0.76160969190E+01 -0.29613669475E+02  0.31886054237E+02  0.00000000000E+00 0. -1.
         11    1    3    3    0    0  0.33889381899E+01 -0.18593349680E+01  0.15868313447E+02  0.16332342162E+02  0.51100000000E-03 0.  1.
        -11    1    3    3    0    0  0.24647465010E+00  0.22648892035E+02 -0.73326518596E+00  0.22662099158E+02  0.51100000000E-03 0. -1.
         12    1    3    3    0    0  0.54059423009E+01 -0.13173460148E+02  0.14478621214E+02  0.20307504443E+02  0.00000000000E+00 0. -1.
</event>
<event>
 7    1  0.3220798E-013  0.5930192E+02  0.7816164E-02  0.1266605E+00
        -11   -1    0    0    0    0  0.00000000000E+00  0.00000000000E+00  0.45593999997E+02  0.45594000000E+02  0.51100000000E-03 0.  1.
         11   -1    0    0    0    0 -0.00000000000E+00 -0.00000000000E+00 -0.45593999997E+02  0.45594000000E+02  0.51100000000E-03 0. -1.
    9900012    2    1    2    0    0  0.74463121884E+01 -0.27457142622E+02  0.14400695311E+02  0.59301917274E+02  0.49999951207E+02 0.  0.
         12    1    1    2    0    0 -0.74463121884E+01  0.27457142622E+02 -0.14400695311E+02  0.31886082726E+02  0.00000000000E+00 0. -1.
         11    1    3    3    0    0 -0.46342891577E+01 -0.32722412126E+02 -0.42148857209E-01  0.33048973783E+02  0.51100000000E-03 0. -1.
        -11    1    3    3    0    0 -0.44904840737E+00  0.74524092299E+00 -0.36688391956E+01  0.37705980706E+01  0.51100000000E-03 0.  1.
        -12    1    3    3    0    0  0.12529649753E+02  0.45200285809E+01  0.18111683363E+02  0.22482345420E+02  0.00000000000E+00 0.  1.
</event>
<event>
 7    1  0.3220798E-013  0.5930175E+02  0.7816164E-02  0.1266605E+00
        -11   -1    0    0    0    0  0.00000000000E+00  0.00000000000E+00  0.45593999997E+02  0.45594000000E+02  0.51100000000E-03 0. -1.
         11   -1    0    0    0    0 -0.00000000000E+00 -0.00000000000E+00 -0.45593999997E+02  0.45594000000E+02  0.51100000000E-03 0.  1.
    9900012    2    1    2    0    0 -0.19057580882E+01  0.12236961242E+02 -0.29382954921E+02  0.59301746313E+02  0.49999639414E+02 0.  0.
         12    1    1    2    0    0  0.19057580882E+01 -0.12236961242E+02  0.29382954921E+02  0.31886253687E+02  0.00000000000E+00 0. -1.
         11    1    3    3    0    0  0.86378820936E+01  0.71915333464E+01 -0.11660982854E+02  0.16195977288E+02  0.51100000000E-03 0. -1.
        -11    1    3    3    0    0 -0.69447123292E+01 -0.15861965174E+02 -0.12206643995E+02  0.21185682108E+02  0.51100000000E-03 0.  1.
        -12    1    3    3    0    0 -0.35989278526E+01  0.20907393070E+02 -0.55153280723E+01  0.21920086916E+02  0.00000000000E+00 0.  1.
</event>
<event>
 7    1  0.3220798E-013  0.5930200E+02  0.7816164E-02  0.1266605E+00
        -11   -1    0    0    0    0  0.00000000000E+00  0.00000000000E+00  0.45593999997E+02  0.45594000000E+02  0.51100000000E-03 0.  1.
         11   -1    0    0    0    0 -0.00000000000E+00 -0.00000000000E+00 -0.45593999997E+02  0.45594000000E+02  0.51100000000E-03 0. -1.
    9900012    2    1    2    0    0  0.90013444928E+01 -0.17040921544E+02  0.25402756876E+02  0.59301995756E+02  0.50000094340E+02 0.  0.
         12    1    1    2    0    0 -0.90013444928E+01  0.17040921544E+02 -0.25402756876E+02  0.31886004244E+02  0.00000000000E+00 0. -1.
         11    1    3    3    0    0  0.13680799316E+02  0.61452363749E+01  0.52058346967E+00  0.15006638779E+02  0.51100000000E-03 0. -1.
        -11    1    3    3    0    0 -0.29660093363E+01 -0.16839237763E+01  0.22313378414E+02  0.22572542328E+02  0.51100000000E-03 0.  1.
         12    1    3    3    0    0 -0.17134454868E+01 -0.21502234143E+02  0.25687949931E+01  0.21722814649E+02  0.00000000000E+00 0. -1.
</event>
<event>
 7    1  0.3220798E-013  0.5930197E+02  0.7816164E-02  0.1266605E+00
        -11   -1    0    0    0    0  0.00000000000E+00  0.00000000000E+00  0.45593999997E+02  0.45594000000E+02  0.51100000000E-03 0. -1.
         11   -1    0    0    0    0 -0.00000000000E+00 -0.00000000000E+00 -0.45593999997E+02  0.45594000000E+02  0.51100000000E-03 0.  1.
    9900012    2    1    2    0    0  0.14006274587E+02  0.80584752591E+01 -0.27488252673E+02  0.59301971927E+02  0.50000050881E+02 0.  0.
         12    1    1    2    0    0 -0.14006274587E+02 -0.80584752591E+01  0.27488252673E+02  0.31886028073E+02  0.00000000000E+00 0. -1.
         11    1    3    3    0    0  0.67347241678E+01  0.21342328492E+02 -0.16470716414E+02  0.27787335146E+02  0.51100000000E-03 0. -1.
        -11    1    3    3    0    0  0.14745388282E+02 -0.18432682997E+01 -0.97877512171E+01  0.17793936826E+02  0.51100000000E-03 0.  1.
         12    1    3    3    0    0 -0.74738378628E+01 -0.11440584933E+02 -0.12297850413E+01  0.13720699955E+02  0.00000000000E+00 0. -1.
</event>
<event>
 7    1  0.3220798E-013  0.5930194E+02  0.7816164E-02  0.1266605E+00
        -11   -1    0    0    0    0  0.00000000000E+00  0.00000000000E+00  0.45593999997E+02  0.45594000000E+02  0.51100000000E-03 0. -1.
         11   -1    0    0    0    0 -0.00000000000E+00 -0.00000000000E+00 -0.45593999997E+02  0.45594000000E+02  0.51100000000E-03 0.  1.
    9900012    2    1    2    0    0 -0.21511843149E+02 -0.19114333111E+01 -0.23458645075E+02  0.59301937187E+02  0.49999987524E+02 0.  0.
         12    1    1    2    0    0  0.21511843149E+02  0.19114333111E+01  0.23458645075E+02  0.31886062813E+02  0.00000000000E+00 0. -1.
         11    1    3    3    0    0  0.31342359582E+01  0.10397424069E+02 -0.97420066341E+00  0.10903161446E+02  0.51100000000E-03 0. -1.
        -11    1    3    3    0    0 -0.92817187439E+01 -0.10326582835E+02  0.66549481285E+01  0.15397303359E+02  0.51100000000E-03 0.  1.
         12    1    3    3    0    0 -0.15364360364E+02 -0.19822745459E+01 -0.29139392540E+02  0.33001472382E+02  0.00000000000E+00 0. -1.
</event>
<event>
 7    1  0.3220798E-013  0.5930197E+02  0.7816164E-02  0.1266605E+00
        -11   -1    0    0    0    0  0.00000000000E+00  0.00000000000E+00  0.45593999997E+02  0.45594000000E+02  0.51100000000E-03 0. -1.
         11   -1    0    0    0    0 -0.00000000000E+00 -0.00000000000E+00 -0.45593999997E+02  0.45594000000E+02  0.51100000000E-03 0.  1.
    9900012    2    1    2    0    0 -0.18179792563E+02 -0.26107502372E+02 -0.21477088156E+01  0.59301965582E+02  0.50000039310E+02 0.  0.
         12    1    1    2    0    0  0.18179792563E+02  0.26107502372E+02  0.21477088156E+01  0.31886034418E+02  0.00000000000E+00 0. -1.
         11    1    3    3    0    0  0.81105602109E+01 -0.93351550562E+01  0.45195928945E+01  0.13166359674E+02  0.51100000000E-03 0. -1.
        -11    1    3    3    0    0 -0.13507422388E+02 -0.11349350172E+02  0.13103103229E+02  0.21976112563E+02  0.51100000000E-03 0.  1.
         12    1    3    3    0    0 -0.12782930386E+02 -0.54229971440E+01 -0.19770404939E+02  0.24159493346E+02  0.00000000000E+00 0. -1.
</event>
<event>
 7    1  0.3220798E-013  0.5930195E+02  0.7816164E-02  0.1266605E+00
        -11   -1    0    0    0    0  0.00000000000E+00  0.00000000000E+00  0.45593999997E+02  0.45594000000E+02  0.51100000000E-03 0. -1.
         11   -1    0    0    0    0 -0.00000000000E+00 -0.00000000000E+00 -0.45593999997E+02  0.45594000000E+02  0.51100000000E-03 0.  1.
    9900012    2    1    2    0    0 -0.10418178512E+02 -0.26388972136E+02  0.14553479448E+02  0.59301951986E+02  0.50000014514E+02 0.  0.
         12    1    1    2    0    0  0.10418178512E+02  0.26388972136E+02 -0.14553479448E+02  0.31886048014E+02  0.00000000000E+00 0. -1.
         11    1    3    3    0    0 -0.22469236979E+02  0.96044166554E+00  0.44008668237E+01  0.22916297425E+02  0.51100000000E-03 0.  1.
        -11    1    3    3    0    0  0.18503683947E+01 -0.13807400583E+01  0.80857616713E+01  0.84089148153E+01  0.51100000000E-03 0. -1.
        -12    1    3    3    0    0  0.10200690073E+02 -0.25968673743E+02  0.20668509527E+01  0.27976739746E+02  0.00000000000E+00 0.  1.
</event>
<event>
 7    1  0.3220798E-013  0.5930195E+02  0.7816164E-02  0.1266605E+00
        -11   -1    0    0    0    0  0.00000000000E+00  0.00000000000E+00  0.45593999997E+02  0.45594000000E+02  0.51100000000E-03 0.  1.
         11   -1    0    0    0    0 -0.00000000000E+00 -0.00000000000E+00 -0.45593999997E+02  0.45594000000E+02  0.51100000000E-03 0. -1.
    9900012    2    1    2    0    0  0.73893377151E+01 -0.30068031285E+02  0.76178439085E+01  0.59301947202E+02  0.50000005789E+02 0.  0.
         12    1    1    2    0    0 -0.73893377151E+01  0.30068031285E+02 -0.76178439085E+01  0.31886052798E+02  0.00000000000E+00 0. -1.
         11    1    3    3    0    0  0.26449655621E+01 -0.40820846886E+01 -0.11932423808E+02  0.12885728401E+02  0.51100000000E-03 0. -1.
        -11    1    3    3    0    0  0.13722384978E+02 -0.26918053911E+00  0.16540633731E+01  0.13824334832E+02  0.51100000000E-03 0.  1.
        -12    1    3    3    0    0 -0.89780128248E+01 -0.25716766057E+02  0.17896204344E+02  0.32591883969E+02  0.00000000000E+00 0.  1.
</event>
<event>
 7    1  0.3220798E-013  0.5930192E+02  0.7816164E-02  0.1266605E+00
        -11   -1    0    0    0    0  0.00000000000E+00  0.00000000000E+00  0.45593999997E+02  0.45594000000E+02  0.51100000000E-03 0. -1.
         11   -1    0    0    0    0 -0.00000000000E+00 -0.00000000000E+00 -0.45593999997E+02  0.45594000000E+02  0.51100000000E-03 0.  1.
    9900012    2    1    2    0    0 -0.52456883900E+01 -0.14991435061E+02 -0.27648898518E+02  0.59301922143E+02  0.49999960087E+02 0.  0.
         12    1    1    2    0    0  0.52456883900E+01  0.14991435061E+02  0.27648898518E+02  0.31886077857E+02  0.00000000000E+00 0. -1.
         11    1    3    3    0    0  0.17071653412E+02  0.36552480732E+01 -0.11266004434E+02  0.20777994245E+02  0.51100000000E-03 0. -1.
        -11    1    3    3    0    0  0.48123369801E+00 -0.31133739550E+00 -0.80958524084E+01  0.81161162711E+01  0.51100000000E-03 0.  1.
         12    1    3    3    0    0 -0.22798575500E+02 -0.18335345739E+02 -0.82870416752E+01  0.30407811627E+02  0.00000000000E+00 0. -1.
</event>
<event>
 7    1  0.3220798E-013  0.5930197E+02  0.7816164E-02  0.1266605E+00
        -11   -1    0    0    0    0  0.00000000000E+00  0.00000000000E+00  0.45593999997E+02  0.45594000000E+02  0.51100000000E-03 0.  1.
         11   -1    0    0    0    0 -0.00000000000E+00 -0.00000000000E+00 -0.45593999997E+02  0.45594000000E+02  0.51100000000E-03 0. -1.
    9900012    2    1    2    0    0 -0.25491802569E+02 -0.18363296052E+02 -0.54475641973E+01  0.59301974914E+02  0.50000056329E+02 0.  0.
         12    1    1    2    0    0  0.25491802569E+02  0.18363296052E+02  0.54475641973E+01  0.31886025086E+02  0.00000000000E+00 0. -1.
         11    1    3    3    0    0 -0.28688544916E+02 -0.11654089714E+02 -0.15949418060E+02  0.34831513794E+02  0.51100000000E-03 0. -1.
        -11    1    3    3    0    0 -0.63606126930E+01  0.35917655980E+00  0.10845620846E+02  0.12578310436E+02  0.51100000000E-03 0.  1.
        -12    1    3    3    0    0  0.95573550402E+01 -0.70683828979E+01 -0.34376698264E+00  0.11892150684E+02  0.00000000000E+00 0.  1.
</event>
<event>
 7    1  0.3220798E-013  0.5930197E+02  0.7816164E-02  0.1266605E+00
        -11   -1    0    0    0    0  0.00000000000E+00  0.00000000000E+00  0.45593999997E+02  0.45594000000E+02  0.51100000000E-03 0.  1.
         11   -1    0    0    0    0 -0.00000000000E+00 -0.00000000000E+00 -0.45593999997E+02  0.45594000000E+02  0.51100000000E-03 0. -1.
    9900012    2    1    2    0    0  0.19703285466E+02  0.11503768687E+02  0.22274710550E+02  0.59301970422E+02  0.50000048137E+02 0.  0.
         12    1    1    2    0    0 -0.19703285466E+02 -0.11503768687E+02 -0.22274710550E+02  0.31886029578E+02  0.00000000000E+00 0. -1.
         11    1    3    3    0    0  0.15656146728E+02 -0.21207893393E+01  0.98573673873E+01  0.18622039895E+02  0.51100000000E-03 0. -1.
        -11    1    3    3    0    0  0.19378587222E+02  0.10277707016E+02  0.24083945045E+01  0.22067198929E+02  0.51100000000E-03 0.  1.
         12    1    3    3    0    0 -0.15331448483E+02  0.33468510104E+01  0.10008948658E+02  0.18612731598E+02  0.00000000000E+00 0. -1.
</event>
<event>
 7    1  0.3220798E-013  0.5930194E+02  0.7816164E-02  0.1266605E+00
        -11   -1    0    0    0    0  0.00000000000E+00  0.00000000000E+00  0.45593999997E+02  0.45594000000E+02  0.51100000000E-03 0. -1.
         11   -1    0    0    0    0 -0.00000000000E+00 -0.00000000000E+00 -0.45593999997E+02  0.45594000000E+02  0.51100000000E-03 0.  1.
    9900012    2    1    2    0    0 -0.13383253207E+02 -0.22435469226E+02 -0.18282755330E+02  0.59301938966E+02  0.49999990769E+02 0.  0.
         12    1    1    2    0    0  0.13383253207E+02  0.22435469226E+02  0.18282755330E+02  0.31886061034E+02  0.00000000000E+00 0. -1.
         11    1    3    3    0    0 -0.19725247797E+01 -0.62653630196E+01 -0.12219860197E+02  0.13873377789E+02  0.51100000000E-03 0. -1.
        -11    1    3    3    0    0 -0.21654059653E+02 -0.23156472906E+02 -0.84308248213E+01  0.32805477352E+02  0.51100000000E-03 0.  1.
         12    1    3    3    0    0  0.10243331225E+02  0.69863666995E+01  0.23679296876E+01  0.12623083825E+02  0.00000000000E+00 0. -1.
</event>
<event>
 7    1  0.3220798E-013  0.5930192E+02  0.7816164E-02  0.1266605E+00
        -11   -1    0    0    0    0  0.00000000000E+00  0.00000000000E+00  0.45593999997E+02  0.45594000000E+02  0.51100000000E-03 0. -1.
         11   -1    0    0    0    0 -0.00000000000E+00 -0.00000000000E+00 -0.45593999997E+02  0.45594000000E+02  0.51100000000E-03 0.  1.
    9900012    2    1    2    0    0 -0.30307264690E+02 -0.32420152984E+01  0.93638204297E+01  0.59301920134E+02  0.49999956423E+02 0.  0.
         12    1    1    2    0    0  0.30307264690E+02  0.32420152984E+01 -0.93638204297E+01  0.31886079866E+02  0.00000000000E+00 0. -1.
         11    1    3    3    0    0  0.32437778960E+01 -0.11857513396E+01 -0.94207437690E+00  0.35798890585E+01  0.51100000000E-03 0. -1.
        -11    1    3    3    0    0 -0.24896076816E+02  0.18742485892E+02  0.53591289997E+00  0.31167011745E+02  0.51100000000E-03 0.  1.
         12    1    3    3    0    0 -0.86549657707E+01 -0.20798749851E+02  0.97699819067E+01  0.24555019330E+02  0.00000000000E+00 0. -1.
</event>
<event>
 7    1  0.3220798E-013  0.5930196E+02  0.7816164E-02  0.1266605E+00
        -11   -1    0    0    0    0  0.00000000000E+00  0.00000000000E+00  0.45593999997E+02  0.45594000000E+02  0.51100000000E-03 0. -1.
         11   -1    0    0    0    0 -0.00000000000E+00 -0.00000000000E+00 -0.45593999997E+02  0.45594000000E+02  0.51100000000E-03 0.  1.
    9900012    2    1    2    0    0  0.18501637548E+02 -0.24740889164E+02 -0.78928635568E+01  0.59301960990E+02  0.50000030936E+02 0.  0.
         12    1    1    2    0    0 -0.18501637548E+02  0.24740889164E+02  0.78928635568E+01  0.31886039010E+02  0.00000000000E+00 0. -1.
         11    1    3    3    0    0 -0.45434126572E+01 -0.13496421726E+02 -0.18301286090E+02  0.23189072228E+02  0.51100000000E-03 0. -1.
        -11    1    3    3    0    0  0.15200480455E+02  0.53345302360E+01  0.33096725900E+01  0.16445842995E+02  0.51100000000E-03 0.  1.
         12    1    3    3    0    0  0.78445697502E+01 -0.16578997674E+02  0.70987499435E+01  0.19667045767E+02  0.00000000000E+00 0. -1.
</event>
<event>
 7    1  0.3220798E-013  0.5930196E+02  0.7816164E-02  0.1266605E+00
        -11   -1    0    0    0    0  0.00000000000E+00  0.00000000000E+00  0.45593999997E+02  0.45594000000E+02  0.51100000000E-03 0.  1.
         11   -1    0    0    0    0 -0.00000000000E+00 -0.00000000000E+00 -0.45593999997E+02  0.45594000000E+02  0.51100000000E-03 0. -1.
    9900012    2    1    2    0    0 -0.24826485929E+02 -0.47488904449E+01  0.19437413333E+02  0.59301962285E+02  0.50000033298E+02 0.  0.
         12    1    1    2    0    0  0.24826485929E+02  0.47488904449E+01 -0.19437413333E+02  0.31886037715E+02  0.00000000000E+00 0. -1.
         11    1    3    3    0    0 -0.49314779150E+01 -0.45362164217E+01 -0.64494850530E+01  0.93001393301E+01  0.51100000000E-03 0. -1.
        -11    1    3    3    0    0 -0.11902256513E+02 -0.62096562634E+01 -0.73432191823E+01  0.15301843328E+02  0.51100000000E-03 0.  1.
        -12    1    3    3    0    0 -0.79927515014E+01  0.59969822402E+01  0.33230117568E+02  0.34699979628E+02  0.00000000000E+00 0.  1.
</event>
<event>
 7    1  0.3220798E-013  0.5930199E+02  0.7816164E-02  0.1266605E+00
        -11   -1    0    0    0    0  0.00000000000E+00  0.00000000000E+00  0.45593999997E+02  0.45594000000E+02  0.51100000000E-03 0.  1.
         11   -1    0    0    0    0 -0.00000000000E+00 -0.00000000000E+00 -0.45593999997E+02  0.45594000000E+02  0.51100000000E-03 0. -1.
    9900012    2    1    2    0    0  0.26921401783E+02  0.16229688721E+02  0.53435233046E+01  0.59301985648E+02  0.50000075905E+02 0.  0.
         12    1    1    2    0    0 -0.26921401783E+02 -0.16229688721E+02 -0.53435233046E+01  0.31886014352E+02  0.00000000000E+00 0. -1.
         11    1    3    3    0    0 -0.65402513748E+01 -0.22309415341E+01 -0.65201969207E+01  0.95007871421E+01  0.51100000000E-03 0. -1.
        -11    1    3    3    0    0  0.41668649800E+01 -0.48473966815E+01  0.10558299830E+02  0.12342516515E+02  0.51100000000E-03 0.  1.
         12    1    3    3    0    0  0.29294788178E+02  0.23308026937E+02  0.13054203953E+01  0.37458681991E+02  0.00000000000E+00 0. -1.
</event>
<event>
 7    1  0.3220798E-013  0.5930194E+02  0.7816164E-02  0.1266605E+00
        -11   -1    0    0    0    0  0.00000000000E+00  0.00000000000E+00  0.45593999997E+02  0.45594000000E+02  0.51100000000E-03 0. -1.
         11   -1    0    0    0    0 -0.00000000000E+00 -0.00000000000E+00 -0.45593999997E+02  0.45594000000E+02  0.51100000000E-03 0.  1.
    9900012    2    1    2    0    0 -0.30963251882E+02 -0.58245099875E+01 -0.49064354887E+01  0.59301937325E+02  0.49999987775E+02 0.  0.
         12    1    1    2    0    0  0.30963251882E+02  0.58245099875E+01  0.49064354887E+01  0.31886062675E+02  0.00000000000E+00 0. -1.
         11    1    3    3    0    0 -0.15193560834E+01 -0.25741246900E+01  0.17486435963E+02  0.17740067750E+02  0.51100000000E-03 0. -1.
        -11    1    3    3    0    0 -0.93323110109E+01  0.23152374057E+01  0.16179270112E+01  0.97503867166E+01  0.51100000000E-03 0.  1.
         12    1    3    3    0    0 -0.20111584788E+02 -0.55656227032E+01 -0.24010798463E+02  0.31811482858E+02  0.00000000000E+00 0. -1.
</event>
<event>
 7    1  0.3220798E-013  0.5930194E+02  0.7816164E-02  0.1266605E+00
        -11   -1    0    0    0    0  0.00000000000E+00  0.00000000000E+00  0.45593999997E+02  0.45594000000E+02  0.51100000000E-03 0. -1.
         11   -1    0    0    0    0 -0.00000000000E+00 -0.00000000000E+00 -0.45593999997E+02  0.45594000000E+02  0.51100000000E-03 0.  1.
    9900012    2    1    2    0    0 -0.26331080406E+02  0.14209164208E+02 -0.11022456727E+02  0.59301941994E+02  0.49999996291E+02 0.  0.
         12    1    1    2    0    0  0.26331080406E+02 -0.14209164208E+02  0.11022456727E+02  0.31886058006E+02  0.00000000000E+00 0. -1.
         11    1    3    3    0    0 -0.15227781671E+02 -0.52887645525E+00 -0.19951778613E+02  0.25104551679E+02  0.51100000000E-03 0. -1.
        -11    1    3    3    0    0 -0.25271303942E+01 -0.58233891618E+01 -0.48617484861E+01  0.79959269608E+01  0.51100000000E-03 0.  1.
         12    1    3    3    0    0 -0.85761683410E+01  0.20561429825E+02  0.13791070372E+02  0.26201463354E+02  0.00000000000E+00 0. -1.
</event>
<event>
 7    1  0.3220798E-013  0.5930197E+02  0.7816164E-02  0.1266605E+00
        -11   -1    0    0    0    0  0.00000000000E+00  0.00000000000E+00  0.45593999997E+02  0.45594000000E+02  0.51100000000E-03 0.  1.
         11   -1    0    0    0    0 -0.00000000000E+00 -0.00000000000E+00 -0.45593999997E+02  0.45594000000E+02  0.51100000000E-03 0. -1.
    9900012    2    1    2    0    0  0.20825447955E+02 -0.11081786931E+02  0.21452595740E+02  0.59301966253E+02  0.50000040533E+02 0.  0.
         12    1    1    2    0    0 -0.20825447955E+02  0.11081786931E+02 -0.21452595740E+02  0.31886033747E+02  0.00000000000E+00 0. -1.
         11    1    3    3    0    0  0.26383949373E+02 -0.94398308336E+01  0.38239324577E+01  0.28281542574E+02  0.51100000000E-03 0. -1.
        -11    1    3    3    0    0 -0.84414631042E+00 -0.10696264765E+02  0.17831039329E+02  0.20810300976E+02  0.51100000000E-03 0.  1.
         12    1    3    3    0    0 -0.47143551073E+01  0.90543086680E+01 -0.20237604596E+00  0.10210122702E+02  0.00000000000E+00 0. -1.
</event>
<event>
 7    1  0.3220798E-013  0.5930194E+02  0.7816164E-02  0.1266605E+00
        -11   -1    0    0    0    0  0.00000000000E+00  0.00000000000E+00  0.45593999997E+02  0.45594000000E+02  0.51100000000E-03 0. -1.
         11   -1    0    0    0    0 -0.00000000000E+00 -0.00000000000E+00 -0.45593999997E+02  0.45594000000E+02  0.51100000000E-03 0.  1.
    9900012    2    1    2    0    0 -0.60336361392E+01 -0.21183829610E+02 -0.23055609282E+02  0.59301944719E+02  0.50000001260E+02 0.  0.
         12    1    1    2    0    0  0.60336361392E+01  0.21183829610E+02  0.23055609282E+02  0.31886055281E+02  0.00000000000E+00 0. -1.
         11    1    3    3    0    0 -0.72459695134E+01 -0.27893267066E+01  0.45049075526E+01  0.89765589167E+01  0.51100000000E-03 0. -1.
        -11    1    3    3    0    0 -0.14526453581E+02 -0.20666954696E+02 -0.11608072064E+02  0.27800867025E+02  0.51100000000E-03 0.  1.
        -12    1    3    3    0    0  0.15738786955E+02  0.22724517920E+01 -0.15952444771E+02  0.22524518777E+02  0.00000000000E+00 0.  1.
</event>
<event>
 7    1  0.3220798E-013  0.5930194E+02  0.7816164E-02  0.1266605E+00
        -11   -1    0    0    0    0  0.00000000000E+00  0.00000000000E+00  0.45593999997E+02  0.45594000000E+02  0.51100000000E-03 0.  1.
         11   -1    0    0    0    0 -0.00000000000E+00 -0.00000000000E+00 -0.45593999997E+02  0.45594000000E+02  0.51100000000E-03 0. -1.
    9900012    2    1    2    0    0  0.14119798902E+02  0.12961013943E+02  0.25482629287E+02  0.59301937232E+02  0.49999987607E+02 0.  0.
         12    1    1    2    0    0 -0.14119798902E+02 -0.12961013943E+02 -0.25482629287E+02  0.31886062768E+02  0.00000000000E+00 0. -1.
         11    1    3    3    0    0  0.93251145823E+01  0.79954854012E+01  0.50925744417E+01  0.13297363027E+02  0.51100000000E-03 0.  1.
        -11    1    3    3    0    0  0.21335250318E+02 -0.39430285945E+01  0.65291245503E+01  0.22657666435E+02  0.51100000000E-03 0. -1.
        -12    1    3    3    0    0 -0.16540565998E+02  0.89085571363E+01  0.13860930295E+02  0.23346907770E+02  0.00000000000E+00 0.  1.
</event>
<event>
 7    1  0.3220798E-013  0.5930198E+02  0.7816164E-02  0.1266605E+00
        -11   -1    0    0    0    0  0.00000000000E+00  0.00000000000E+00  0.45593999997E+02  0.45594000000E+02  0.51100000000E-03 0. -1.
         11   -1    0    0    0    0 -0.00000000000E+00 -0.00000000000E+00 -0.45593999997E+02  0.45594000000E+02  0.51100000000E-03 0.  1.
    9900012    2    1    2    0    0  0.11805947678E+02  0.29608591739E+02  0.81806772881E+00  0.59301978922E+02  0.50000063639E+02 0.  0.
         12    1    1    2    0    0 -0.11805947678E+02 -0.29608591739E+02 -0.81806772881E+00  0.31886021078E+02  0.00000000000E+00 0. -1.
         11    1    3    3    0    0  0.53178451143E+01  0.21208666414E+02  0.17311930121E+02  0.27888885465E+02  0.51100000000E-03 0. -1.
        -11    1    3    3    0    0 -0.19618456091E+01  0.10495422379E+02  0.21002471292E+01  0.10881809012E+02  0.51100000000E-03 0.  1.
         12    1    3    3    0    0  0.84499481731E+01 -0.20954970534E+01 -0.18594109522E+02  0.20531284444E+02  0.00000000000E+00 0. -1.
</event>
<event>
 7    1  0.3220798E-013  0.5930194E+02  0.7816164E-02  0.1266605E+00
        -11   -1    0    0    0    0  0.00000000000E+00  0.00000000000E+00  0.45593999997E+02  0.45594000000E+02  0.51100000000E-03 0. -1.
         11   -1    0    0    0    0 -0.00000000000E+00 -0.00000000000E+00 -0.45593999997E+02  0.45594000000E+02  0.51100000000E-03 0.  1.
    9900012    2    1    2    0    0  0.22775701766E+02 -0.22244213498E+02  0.17840661957E+01  0.59301944783E+02  0.50000001378E+02 0.  0.
         12    1    1    2    0    0 -0.22775701766E+02  0.22244213498E+02 -0.17840661957E+01  0.31886055217E+02  0.00000000000E+00 0. -1.
         11    1    3    3    0    0 -0.45817633822E+01 -0.12880473574E+01  0.26091851410E+01  0.54276577865E+01  0.51100000000E-03 0. -1.
        -11    1    3    3    0    0  0.21828085710E+02 -0.25218435860E+02 -0.16132595639E+02  0.37049905200E+02  0.51100000000E-03 0.  1.
         12    1    3    3    0    0  0.55293794380E+01  0.42622697194E+01  0.15307476694E+02  0.16824381797E+02  0.00000000000E+00 0. -1.
</event>
<event>
 7    1  0.3220798E-013  0.5930193E+02  0.7816164E-02  0.1266605E+00
        -11   -1    0    0    0    0  0.00000000000E+00  0.00000000000E+00  0.45593999997E+02  0.45594000000E+02  0.51100000000E-03 0. -1.
         11   -1    0    0    0    0 -0.00000000000E+00 -0.00000000000E+00 -0.45593999997E+02  0.45594000000E+02  0.51100000000E-03 0.  1.
    9900012    2    1    2    0    0  0.13223377131E+02  0.18862674742E+02 -0.22046838437E+02  0.59301932726E+02  0.49999979388E+02 0.  0.
         12    1    1    2    0    0 -0.13223377131E+02 -0.18862674742E+02  0.22046838437E+02  0.31886067274E+02  0.00000000000E+00 0. -1.
         11    1    3    3    0    0  0.22254056164E+02 -0.51684269931E-01 -0.10748881910E+02  0.24714047617E+02  0.51100000000E-03 0. -1.
        -11    1    3    3    0    0 -0.28397771066E+01  0.23206192208E+02 -0.13159222316E+02  0.26828284012E+02  0.51100000000E-03 0.  1.
        -12    1    3    3    0    0 -0.61909019269E+01 -0.42918331962E+01  0.18612657885E+01  0.77596010972E+01  0.00000000000E+00 0.  1.
</event>
<event>
 7    1  0.3220798E-013  0.5930197E+02  0.7816164E-02  0.1266605E+00
        -11   -1    0    0    0    0  0.00000000000E+00  0.00000000000E+00  0.45593999997E+02  0.45594000000E+02  0.51100000000E-03 0. -1.
         11   -1    0    0    0    0 -0.00000000000E+00 -0.00000000000E+00 -0.45593999997E+02  0.45594000000E+02  0.51100000000E-03 0.  1.
    9900012    2    1    2    0    0 -0.16614504726E+02  0.26123782445E+02  0.76305408249E+01  0.59301969676E+02  0.50000046777E+02 0.  0.
         12    1    1    2    0    0  0.16614504726E+02 -0.26123782445E+02 -0.76305408249E+01  0.31886030324E+02  0.00000000000E+00 0. -1.
         11    1    3    3    0    0 -0.41053478217E+00 -0.32722336765E+01 -0.32996808963E+01  0.46651844894E+01  0.51100000000E-03 0. -1.
        -11    1    3    3    0    0 -0.10282133453E+02  0.14847776404E+02 -0.15560638711E+02  0.23839299693E+02  0.51100000000E-03 0.  1.
         12    1    3    3    0    0 -0.59218364903E+01  0.14548239717E+02  0.26490860432E+02  0.30797485494E+02  0.00000000000E+00 0. -1.
</event>
<event>
 7    1  0.3220798E-013  0.5930196E+02  0.7816164E-02  0.1266605E+00
        -11   -1    0    0    0    0  0.00000000000E+00  0.00000000000E+00  0.45593999997E+02  0.45594000000E+02  0.51100000000E-03 0.  1.
         11   -1    0    0    0    0 -0.00000000000E+00 -0.00000000000E+00 -0.45593999997E+02  0.45594000000E+02  0.51100000000E-03 0. -1.
    9900012    2    1    2    0    0 -0.19987865680E+02  0.24708572662E+02  0.25867462067E+01  0.59301959271E+02  0.50000027800E+02 0.  0.
         12    1    1    2    0    0  0.19987865680E+02 -0.24708572662E+02 -0.25867462067E+01  0.31886040729E+02  0.00000000000E+00 0. -1.
         11    1    3    3    0    0 -0.18017949198E+02  0.23851523992E+02 -0.16026977841E+02  0.33917631241E+02  0.51100000000E-03 0. -1.
        -11    1    3    3    0    0 -0.53861536286E+00  0.64220051298E+01  0.59543491591E+00  0.64720011895E+01  0.51100000000E-03 0.  1.
        -12    1    3    3    0    0 -0.14313011189E+01 -0.55649564602E+01  0.18018289131E+02  0.18912326840E+02  0.00000000000E+00 0.  1.
</event>
<event>
 7    1  0.3220798E-013  0.5930193E+02  0.7816164E-02  0.1266605E+00
        -11   -1    0    0    0    0  0.00000000000E+00  0.00000000000E+00  0.45593999997E+02  0.45594000000E+02  0.51100000000E-03 0. -1.
         11   -1    0    0    0    0 -0.00000000000E+00 -0.00000000000E+00 -0.45593999997E+02  0.45594000000E+02  0.51100000000E-03 0.  1.
    9900012    2    1    2    0    0 -0.10804395602E+01  0.28607248485E+02 -0.14042068463E+02  0.59301926203E+02  0.49999967491E+02 0.  0.
         12    1    1    2    0    0  0.10804395602E+01 -0.28607248485E+02  0.14042068463E+02  0.31886073797E+02  0.00000000000E+00 0. -1.
         11    1    3    3    0    0 -0.19887428834E+01  0.80766793625E+01 -0.35517475067E+01  0.90444877353E+01  0.51100000000E-03 0. -1.
        -11    1    3    3    0    0 -0.17811910095E+02  0.23830309568E+02 -0.32988676011E+01  0.29933765601E+02  0.51100000000E-03 0.  1.
         12    1    3    3    0    0  0.18720213418E+02 -0.32997404463E+01 -0.71914533551E+01  0.20323672866E+02  0.00000000000E+00 0. -1.
</event>
<event>
 7    1  0.3220798E-013  0.5930193E+02  0.7816164E-02  0.1266605E+00
        -11   -1    0    0    0    0  0.00000000000E+00  0.00000000000E+00  0.45593999997E+02  0.45594000000E+02  0.51100000000E-03 0.  1.
         11   -1    0    0    0    0 -0.00000000000E+00 -0.00000000000E+00 -0.45593999997E+02  0.45594000000E+02  0.51100000000E-03 0. -1.
    9900012    2    1    2    0    0 -0.29923441151E+02  0.39055606463E+01 -0.10298326908E+02  0.59301932959E+02  0.49999979813E+02 0.  0.
         12    1    1    2    0    0  0.29923441151E+02 -0.39055606463E+01  0.10298326908E+02  0.31886067041E+02  0.00000000000E+00 0. -1.
         11    1    3    3    0    0 -0.20224827182E+02  0.12903195473E+02  0.35814526838E+01  0.24256192850E+02  0.51100000000E-03 0. -1.
        -11    1    3    3    0    0  0.89542054408E+01 -0.45810838942E+01  0.18776876993E+01  0.10231805123E+02  0.51100000000E-03 0.  1.
         12    1    3    3    0    0 -0.18652819409E+02 -0.44165509331E+01 -0.15757467291E+02  0.24813934986E+02  0.00000000000E+00 0. -1.
</event>
<event>
 7    1  0.3220798E-013  0.5930193E+02  0.7816164E-02  0.1266605E+00
        -11   -1    0    0    0    0  0.00000000000E+00  0.00000000000E+00  0.45593999997E+02  0.45594000000E+02  0.51100000000E-03 0. -1.
         11   -1    0    0    0    0 -0.00000000000E+00 -0.00000000000E+00 -0.45593999997E+02  0.45594000000E+02  0.51100000000E-03 0.  1.
    9900012    2    1    2    0    0  0.23051884833E+02 -0.51560115648E+00 -0.22024213443E+02  0.59301933816E+02  0.49999981377E+02 0.  0.
         12    1    1    2    0    0 -0.23051884833E+02  0.51560115648E+00  0.22024213443E+02  0.31886066184E+02  0.00000000000E+00 0. -1.
         11    1    3    3    0    0 -0.89857829582E+01 -0.31721559988E+01 -0.16578951242E+01  0.96724084672E+01  0.51100000000E-03 0. -1.
        -11    1    3    3    0    0  0.19159727374E+02 -0.14335188383E+02 -0.10280329880E+02  0.26043770114E+02  0.51100000000E-03 0.  1.
        -12    1    3    3    0    0  0.12877940417E+02  0.16991743226E+02 -0.10085988439E+02  0.23585755235E+02  0.00000000000E+00 0.  1.
</event>
<event>
 7    1  0.3220798E-013  0.5930194E+02  0.7816164E-02  0.1266605E+00
        -11   -1    0    0    0    0  0.00000000000E+00  0.00000000000E+00  0.45593999997E+02  0.45594000000E+02  0.51100000000E-03 0.  1.
         11   -1    0    0    0    0 -0.00000000000E+00 -0.00000000000E+00 -0.45593999997E+02  0.45594000000E+02  0.51100000000E-03 0. -1.
    9900012    2    1    2    0    0 -0.31579981420E+02  0.37291176250E+01  0.23492882414E+01  0.59301941919E+02  0.49999996154E+02 0.  0.
         12    1    1    2    0    0  0.31579981420E+02 -0.37291176250E+01 -0.23492882414E+01  0.31886058081E+02  0.00000000000E+00 0. -1.
         11    1    3    3    0    0  0.10619619283E+00  0.47882920252E+01 -0.18178180324E+02  0.18798544048E+02  0.51100000000E-03 0. -1.
        -11    1    3    3    0    0  0.28756388608E+00 -0.62294645463E+00  0.48354452384E+01  0.48838802390E+01  0.51100000000E-03 0.  1.
         12    1    3    3    0    0 -0.31973741498E+02 -0.43622794550E+00  0.15692023327E+02  0.35619517632E+02  0.00000000000E+00 0. -1.
</event>
<event>
 7    1  0.3220798E-013  0.5930193E+02  0.7816164E-02  0.1266605E+00
        -11   -1    0    0    0    0  0.00000000000E+00  0.00000000000E+00  0.45593999997E+02  0.45594000000E+02  0.51100000000E-03 0.  1.
         11   -1    0    0    0    0 -0.00000000000E+00 -0.00000000000E+00 -0.45593999997E+02  0.45594000000E+02  0.51100000000E-03 0. -1.
    9900012    2    1    2    0    0 -0.18335842612E+02 -0.13890385829E+02 -0.22081111240E+02  0.59301930685E+02  0.49999975666E+02 0.  0.
         12    1    1    2    0    0  0.18335842612E+02  0.13890385829E+02  0.22081111240E+02  0.31886069315E+02  0.00000000000E+00 0. -1.
         11    1    3    3    0    0  0.46529484601E+01 -0.40563631966E+01 -0.10954521540E+02  0.12574003109E+02  0.51100000000E-03 0. -1.
        -11    1    3    3    0    0 -0.10873099712E+02 -0.62047611013E+01  0.13888093436E+02  0.18697660207E+02  0.51100000000E-03 0.  1.
         12    1    3    3    0    0 -0.12115691361E+02 -0.36292615316E+01 -0.25014683136E+02  0.28030267369E+02  0.00000000000E+00 0. -1.
</event>
<event>
 7    1  0.3220798E-013  0.5930193E+02  0.7816164E-02  0.1266605E+00
        -11   -1    0    0    0    0  0.00000000000E+00  0.00000000000E+00  0.45593999997E+02  0.45594000000E+02  0.51100000000E-03 0.  1.
         11   -1    0    0    0    0 -0.00000000000E+00 -0.00000000000E+00 -0.45593999997E+02  0.45594000000E+02  0.51100000000E-03 0. -1.
    9900012    2    1    2    0    0 -0.54223625585E+01 -0.18243541130E+01  0.31368637944E+02  0.59301925765E+02  0.49999966693E+02 0.  0.
         12    1    1    2    0    0  0.54223625585E+01  0.18243541130E+01 -0.31368637944E+02  0.31886074235E+02  0.00000000000E+00 0. -1.
         11    1    3    3    0    0  0.11863429991E+02  0.26485267650E+01  0.43094405496E+01  0.12896780345E+02  0.51100000000E-03 0. -1.
        -11    1    3    3    0    0 -0.64641057456E+01 -0.14983421938E+02  0.26728041646E+02  0.31315743749E+02  0.51100000000E-03 0.  1.
         12    1    3    3    0    0 -0.10821686803E+02  0.10510541060E+02  0.33115574890E+00  0.15089401671E+02  0.00000000000E+00 0. -1.
</event>
<event>
 7    1  0.3220798E-013  0.5930168E+02  0.7816164E-02  0.1266606E+00
        -11   -1    0    0    0    0  0.00000000000E+00  0.00000000000E+00  0.45593999997E+02  0.45594000000E+02  0.51100000000E-03 0.  1.
         11   -1    0    0    0    0 -0.00000000000E+00 -0.00000000000E+00 -0.45593999997E+02  0.45594000000E+02  0.51100000000E-03 0. -1.
    9900012    2    1    2    0    0 -0.27551472059E+02 -0.10119790912E+02  0.12459675872E+02  0.59301681561E+02  0.49999521322E+02 0.  0.
         12    1    1    2    0    0  0.27551472059E+02  0.10119790912E+02 -0.12459675872E+02  0.31886318439E+02  0.00000000000E+00 0. -1.
         11    1    3    3    0    0  0.19068862098E+00 -0.53196004833E+01 -0.15325296029E+01  0.55392380972E+01  0.51100000000E-03 0. -1.
        -11    1    3    3    0    0  0.11316078090E+02 -0.37197388563E+01  0.77053963232E+01  0.14186726658E+02  0.51100000000E-03 0.  1.
        -12    1    3    3    0    0 -0.39058238770E+02 -0.10804515722E+01  0.62868091515E+01  0.39575716807E+02  0.00000000000E+00 0.  1.
</event>
<event>
 7    1  0.3220798E-013  0.5930195E+02  0.7816164E-02  0.1266605E+00
        -11   -1    0    0    0    0  0.00000000000E+00  0.00000000000E+00  0.45593999997E+02  0.45594000000E+02  0.51100000000E-03 0.  1.
         11   -1    0    0    0    0 -0.00000000000E+00 -0.00000000000E+00 -0.45593999997E+02  0.45594000000E+02  0.51100000000E-03 0. -1.
    9900012    2    1    2    0    0 -0.21941664685E+02  0.17475586107E+02  0.15162035173E+02  0.59301951804E+02  0.50000014182E+02 0.  0.
         12    1    1    2    0    0  0.21941664685E+02 -0.17475586107E+02 -0.15162035173E+02  0.31886048196E+02  0.00000000000E+00 0. -1.
         11    1    3    3    0    0 -0.14751812400E+02  0.19589976832E+02  0.14985615220E+02  0.28739377605E+02  0.51100000000E-03 0. -1.
        -11    1    3    3    0    0  0.92230914033E+01  0.31398948899E+01  0.70320278830E+01  0.12015563714E+02  0.51100000000E-03 0.  1.
         12    1    3    3    0    0 -0.16412943689E+02 -0.52542856143E+01 -0.68556079300E+01  0.18547010485E+02  0.00000000000E+00 0. -1.
</event>
<event>
 7    1  0.3220798E-013  0.5930195E+02  0.7816164E-02  0.1266605E+00
        -11   -1    0    0    0    0  0.00000000000E+00  0.00000000000E+00  0.45593999997E+02  0.45594000000E+02  0.51100000000E-03 0. -1.
         11   -1    0    0    0    0 -0.00000000000E+00 -0.00000000000E+00 -0.45593999997E+02  0.45594000000E+02  0.51100000000E-03 0.  1.
    9900012    2    1    2    0    0  0.28962975737E+02 -0.12307625132E+02  0.51370109289E+01  0.59301945349E+02  0.50000002409E+02 0.  0.
         12    1    1    2    0    0 -0.28962975737E+02  0.12307625132E+02 -0.51370109289E+01  0.31886054651E+02  0.00000000000E+00 0. -1.
         11    1    3    3    0    0  0.18700105653E+02 -0.42418911270E+01  0.25770056378E+01  0.19347572201E+02  0.51100000000E-03 0. -1.
        -11    1    3    3    0    0  0.17884570836E+02 -0.10197413858E+02 -0.11674828182E+02  0.23667419308E+02  0.51100000000E-03 0.  1.
         12    1    3    3    0    0 -0.76217007519E+01  0.21316798528E+01  0.14234833473E+02  0.16286953839E+02  0.00000000000E+00 0. -1.
</event>
<event>
 7    1  0.3220798E-013  0.5930194E+02  0.7816164E-02  0.1266605E+00
        -11   -1    0    0    0    0  0.00000000000E+00  0.00000000000E+00  0.45593999997E+02  0.45594000000E+02  0.51100000000E-03 0.  1.
         11   -1    0    0    0    0 -0.00000000000E+00 -0.00000000000E+00 -0.45593999997E+02  0.45594000000E+02  0.51100000000E-03 0. -1.
    9900012    2    1    2    0    0  0.21527277719E+02 -0.94020768300E+01  0.21561488482E+02  0.59301944736E+02  0.50000001292E+02 0.  0.
         12    1    1    2    0    0 -0.21527277719E+02  0.94020768300E+01 -0.21561488482E+02  0.31886055264E+02  0.00000000000E+00 0. -1.
         11    1    3    3    0    0 -0.49172902414E+01 -0.80206855433E+01  0.55294498439E+01  0.10912651178E+02  0.51100000000E-03 0. -1.
        -11    1    3    3    0    0  0.26760207295E+02  0.24724482325E+01  0.26186997214E+02  0.37523066480E+02  0.51100000000E-03 0.  1.
         12    1    3    3    0    0 -0.31563933451E+00 -0.38538395192E+01 -0.10154958575E+02  0.10866227077E+02  0.00000000000E+00 0. -1.
</event>
<event>
 7    1  0.3220798E-013  0.5930193E+02  0.7816164E-02  0.1266605E+00
        -11   -1    0    0    0    0  0.00000000000E+00  0.00000000000E+00  0.45593999997E+02  0.45594000000E+02  0.51100000000E-03 0.  1.
         11   -1    0    0    0    0 -0.00000000000E+00 -0.00000000000E+00 -0.45593999997E+02  0.45594000000E+02  0.51100000000E-03 0. -1.
    9900012    2    1    2    0    0 -0.32150605158E+01  0.13254698880E+02  0.28821831037E+02  0.59301927792E+02  0.49999970390E+02 0.  0.
         12    1    1    2    0    0  0.32150605158E+01 -0.13254698880E+02 -0.28821831037E+02  0.31886072208E+02  0.00000000000E+00 0. -1.
         11    1    3    3    0    0  0.62477782061E+00 -0.48388514754E+01  0.81911483789E+01  0.95341356689E+01  0.51100000000E-03 0. -1.
        -11    1    3    3    0    0  0.15649713436E+02  0.22722376433E-01  0.16723632351E+02  0.22904015504E+02  0.51100000000E-03 0.  1.
         12    1    3    3    0    0 -0.19489551772E+02  0.18070827979E+02  0.39070503073E+01  0.26863776619E+02  0.00000000000E+00 0. -1.
</event>
<event>
 7    1  0.3220798E-013  0.5930192E+02  0.7816164E-02  0.1266605E+00
        -11   -1    0    0    0    0  0.00000000000E+00  0.00000000000E+00  0.45593999997E+02  0.45594000000E+02  0.51100000000E-03 0.  1.
         11   -1    0    0    0    0 -0.00000000000E+00 -0.00000000000E+00 -0.45593999997E+02  0.45594000000E+02  0.51100000000E-03 0. -1.
    9900012    2    1    2    0    0 -0.19117884125E+02  0.37829266576E+01  0.25237230451E+02  0.59301924224E+02  0.49999963884E+02 0.  0.
         12    1    1    2    0    0  0.19117884125E+02 -0.37829266576E+01 -0.25237230451E+02  0.31886075776E+02  0.00000000000E+00 0. -1.
         11    1    3    3    0    0 -0.23381755021E+01 -0.92557911456E+01  0.57248715504E+01  0.11131526802E+02  0.51100000000E-03 0. -1.
        -11    1    3    3    0    0  0.38543264326E+01  0.22319530572E+01 -0.97796935314E+01  0.10746155244E+02  0.51100000000E-03 0.  1.
        -12    1    3    3    0    0 -0.20634035055E+02  0.10806764746E+02  0.29292052433E+02  0.37424242179E+02  0.00000000000E+00 0.  1.
</event>
<event>
 7    1  0.3220798E-013  0.5930193E+02  0.7816164E-02  0.1266605E+00
        -11   -1    0    0    0    0  0.00000000000E+00  0.00000000000E+00  0.45593999997E+02  0.45594000000E+02  0.51100000000E-03 0.  1.
         11   -1    0    0    0    0 -0.00000000000E+00 -0.00000000000E+00 -0.45593999997E+02  0.45594000000E+02  0.51100000000E-03 0. -1.
    9900012    2    1    2    0    0 -0.28677463537E+02  0.48789472202E+01  0.13058348810E+02  0.59301929146E+02  0.49999972858E+02 0.  0.
         12    1    1    2    0    0  0.28677463537E+02 -0.48789472202E+01 -0.13058348810E+02  0.31886070854E+02  0.00000000000E+00 0. -1.
         11    1    3    3    0    0 -0.17796135669E+02 -0.48494843148E+01 -0.89973359199E+01  0.20522475406E+02  0.51100000000E-03 0. -1.
        -11    1    3    3    0    0 -0.20559199512E+02  0.79599709905E+01  0.14753370677E+02  0.26527415429E+02  0.51100000000E-03 0.  1.
         12    1    3    3    0    0  0.96778716436E+01  0.17684605445E+01  0.73023140530E+01  0.12252038311E+02  0.00000000000E+00 0. -1.
</event>
<event>
 7    1  0.3220798E-013  0.5930195E+02  0.7816164E-02  0.1266605E+00
        -11   -1    0    0    0    0  0.00000000000E+00  0.00000000000E+00  0.45593999997E+02  0.45594000000E+02  0.51100000000E-03 0.  1.
         11   -1    0    0    0    0 -0.00000000000E+00 -0.00000000000E+00 -0.45593999997E+02  0.45594000000E+02  0.51100000000E-03 0. -1.
    9900012    2    1    2    0    0  0.62181582042E+01 -0.29609265223E+02  0.10067084716E+02  0.59301948611E+02  0.50000008358E+02 0.  0.
         12    1    1    2    0    0 -0.62181582042E+01  0.29609265223E+02 -0.10067084716E+02  0.31886051389E+02  0.00000000000E+00 0. -1.
         11    1    3    3    0    0 -0.61653468646E+00  0.48617179235E+01 -0.32648146055E+01  0.58885847923E+01  0.51100000000E-03 0. -1.
        -11    1    3    3    0    0  0.24413630434E+01  0.12183987396E+01  0.17046273659E+02  0.17263261422E+02  0.51100000000E-03 0.  1.
         12    1    3    3    0    0  0.43933298473E+01 -0.35689381886E+02 -0.37143743369E+01  0.36150102397E+02  0.00000000000E+00 0. -1.
</event>
<event>
 7    1  0.3220798E-013  0.5930199E+02  0.7816164E-02  0.1266605E+00
        -11   -1    0    0    0    0  0.00000000000E+00  0.00000000000E+00  0.45593999997E+02  0.45594000000E+02  0.51100000000E-03 0.  1.
         11   -1    0    0    0    0 -0.00000000000E+00 -0.00000000000E+00 -0.45593999997E+02  0.45594000000E+02  0.51100000000E-03 0. -1.
    9900012    2    1    2    0    0 -0.30939655644E-01 -0.31680427042E+02  0.36149017485E+01  0.59301985362E+02  0.50000075385E+02 0.  0.
         12    1    1    2    0    0  0.30939655644E-01  0.31680427042E+02 -0.36149017485E+01  0.31886014638E+02  0.00000000000E+00 0. -1.
         11    1    3    3    0    0 -0.13420483264E+02 -0.11730544291E+02  0.25544512185E+01  0.18006672699E+02  0.51100000000E-03 0. -1.
        -11    1    3    3    0    0 -0.23682107290E+00 -0.22484723986E+02  0.10201861811E+02  0.24692040856E+02  0.51100000000E-03 0.  1.
        -12    1    3    3    0    0  0.13626364681E+02  0.25348412351E+01 -0.91414112814E+01  0.16603271808E+02  0.00000000000E+00 0.  1.
</event>
<event>
 7    1  0.3220798E-013  0.5930197E+02  0.7816164E-02  0.1266605E+00
        -11   -1    0    0    0    0  0.00000000000E+00  0.00000000000E+00  0.45593999997E+02  0.45594000000E+02  0.51100000000E-03 0. -1.
         11   -1    0    0    0    0 -0.00000000000E+00 -0.00000000000E+00 -0.45593999997E+02  0.45594000000E+02  0.51100000000E-03 0.  1.
    9900012    2    1    2    0    0  0.25227763507E+02 -0.19234689931E+02 -0.32101782638E+01  0.59301974961E+02  0.50000056414E+02 0.  0.
         12    1    1    2    0    0 -0.25227763507E+02  0.19234689931E+02  0.32101782638E+01  0.31886025039E+02  0.00000000000E+00 0. -1.
         11    1    3    3    0    0 -0.21075569789E+01 -0.78445575597E+01 -0.54170480900E+01  0.97633646863E+01  0.51100000000E-03 0. -1.
        -11    1    3    3    0    0 -0.11077454755E+01 -0.14422671872E+02 -0.10862907740E+02  0.18089868126E+02  0.51100000000E-03 0.  1.
         12    1    3    3    0    0  0.28443065962E+02  0.30325395007E+01  0.13069777566E+02  0.31448742149E+02  0.00000000000E+00 0. -1.
</event>
<event>
 7    1  0.3220798E-013  0.5930195E+02  0.7816164E-02  0.1266605E+00
        -11   -1    0    0    0    0  0.00000000000E+00  0.00000000000E+00  0.45593999997E+02  0.45594000000E+02  0.51100000000E-03 0. -1.
         11   -1    0    0    0    0 -0.00000000000E+00 -0.00000000000E+00 -0.45593999997E+02  0.45594000000E+02  0.51100000000E-03 0.  1.
    9900012    2    1    2    0    0  0.20138923879E+02 -0.53227045154E+00 -0.24715600764E+02  0.59301945243E+02  0.50000002217E+02 0.  0.
         12    1    1    2    0    0 -0.20138923879E+02  0.53227045154E+00  0.24715600764E+02  0.31886054757E+02  0.00000000000E+00 0. -1.
         11    1    3    3    0    0  0.11309557590E+02  0.57511282212E+00 -0.10524830952E+02  0.15459913146E+02  0.51100000000E-03 0.  1.
        -11    1    3    3    0    0 -0.27969412219E-01 -0.15788496458E+02 -0.20231458189E+02  0.25662994826E+02  0.51100000000E-03 0. -1.
         12    1    3    3    0    0  0.88573357006E+01  0.14681113184E+02  0.60406883779E+01  0.18179037272E+02  0.00000000000E+00 0. -1.
</event>
<event>
 7    1  0.3220798E-013  0.5930196E+02  0.7816164E-02  0.1266605E+00
        -11   -1    0    0    0    0  0.00000000000E+00  0.00000000000E+00  0.45593999997E+02  0.45594000000E+02  0.51100000000E-03 0.  1.
         11   -1    0    0    0    0 -0.00000000000E+00 -0.00000000000E+00 -0.45593999997E+02  0.45594000000E+02  0.51100000000E-03 0. -1.
    9900012    2    1    2    0    0  0.39501400258E+00  0.17327312867E+02  0.26764303486E+02  0.59301956841E+02  0.50000023368E+02 0.  0.
         12    1    1    2    0    0 -0.39501400258E+00 -0.17327312867E+02 -0.26764303486E+02  0.31886043159E+02  0.00000000000E+00 0. -1.
         11    1    3    3    0    0  0.17699205430E+02 -0.50842261007E+00  0.50908464178E+01  0.18423818386E+02  0.51100000000E-03 0. -1.
        -11    1    3    3    0    0  0.36329386460E+01  0.39657154211E+01 -0.25794197059E+01  0.59647756275E+01  0.51100000000E-03 0.  1.
         12    1    3    3    0    0 -0.20937130074E+02  0.13870020056E+02  0.24252876774E+02  0.34913362827E+02  0.00000000000E+00 0. -1.
</event>
<event>
 7    1  0.3220798E-013  0.5930199E+02  0.7816164E-02  0.1266605E+00
        -11   -1    0    0    0    0  0.00000000000E+00  0.00000000000E+00  0.45593999997E+02  0.45594000000E+02  0.51100000000E-03 0.  1.
         11   -1    0    0    0    0 -0.00000000000E+00 -0.00000000000E+00 -0.45593999997E+02  0.45594000000E+02  0.51100000000E-03 0. -1.
    9900012    2    1    2    0    0 -0.10469969154E+02  0.17085196329E+02  0.24803092744E+02  0.59301990570E+02  0.50000084882E+02 0.  0.
         12    1    1    2    0    0  0.10469969154E+02 -0.17085196329E+02 -0.24803092744E+02  0.31886009430E+02  0.00000000000E+00 0. -1.
         11    1    3    3    0    0 -0.32181856493E+01 -0.50689357859E+01 -0.60179435026E+01  0.85009689528E+01  0.51100000000E-03 0. -1.
        -11    1    3    3    0    0 -0.11397739827E+01  0.16216564965E+02 -0.24642687020E+01  0.16442283433E+02  0.51100000000E-03 0.  1.
        -12    1    3    3    0    0 -0.61120095221E+01  0.59375671495E+01  0.33285304949E+02  0.34358738184E+02  0.00000000000E+00 0.  1.
</event>
<event>
 7    1  0.3220798E-013  0.5930193E+02  0.7816164E-02  0.1266605E+00
        -11   -1    0    0    0    0  0.00000000000E+00  0.00000000000E+00  0.45593999997E+02  0.45594000000E+02  0.51100000000E-03 0. -1.
         11   -1    0    0    0    0 -0.00000000000E+00 -0.00000000000E+00 -0.45593999997E+02  0.45594000000E+02  0.51100000000E-03 0.  1.
    9900012    2    1    2    0    0 -0.26398597865E+02  0.90239702347E+01 -0.15440314721E+02  0.59301932090E+02  0.49999978229E+02 0.  0.
         12    1    1    2    0    0  0.26398597865E+02 -0.90239702347E+01  0.15440314721E+02  0.31886067910E+02  0.00000000000E+00 0. -1.
         11    1    3    3    0    0 -0.17967991439E+02 -0.88267884398E+01 -0.12605306144E+02  0.23657021236E+02  0.51100000000E-03 0. -1.
        -11    1    3    3    0    0 -0.67594180629E+01  0.24326723501E+01 -0.14538161705E+02  0.16216219453E+02  0.51100000000E-03 0.  1.
         12    1    3    3    0    0 -0.16711883634E+01  0.15418086324E+02  0.11703153128E+02  0.19428691402E+02  0.00000000000E+00 0. -1.
</event>
<event>
 7    1  0.3220798E-013  0.5930196E+02  0.7816164E-02  0.1266605E+00
        -11   -1    0    0    0    0  0.00000000000E+00  0.00000000000E+00  0.45593999997E+02  0.45594000000E+02  0.51100000000E-03 0. -1.
         11   -1    0    0    0    0 -0.00000000000E+00 -0.00000000000E+00 -0.45593999997E+02  0.45594000000E+02  0.51100000000E-03 0.  1.
    9900012    2    1    2    0    0 -0.23122308161E+01 -0.13876477500E+02 -0.28614974678E+02  0.59301955796E+02  0.50000021462E+02 0.  0.
         12    1    1    2    0    0  0.23122308161E+01  0.13876477500E+02  0.28614974678E+02  0.31886044204E+02  0.00000000000E+00 0. -1.
         11    1    3    3    0    0  0.25859097829E+01  0.18214237336E+01  0.29744382412E+01  0.43418656053E+01  0.51100000000E-03 0. -1.
        -11    1    3    3    0    0  0.32674868436E+01  0.13884933728E+02 -0.92412442649E+01  0.16996130464E+02  0.51100000000E-03 0.  1.
        -12    1    3    3    0    0 -0.81656274426E+01 -0.29582834962E+02 -0.22348168655E+02  0.37963959727E+02  0.00000000000E+00 0.  1.
</event>
<event>
 7    1  0.3220798E-013  0.5930194E+02  0.7816164E-02  0.1266605E+00
        -11   -1    0    0    0    0  0.00000000000E+00  0.00000000000E+00  0.45593999997E+02  0.45594000000E+02  0.51100000000E-03 0.  1.
         11   -1    0    0    0    0 -0.00000000000E+00 -0.00000000000E+00 -0.45593999997E+02  0.45594000000E+02  0.51100000000E-03 0. -1.
    9900012    2    1    2    0    0 -0.21739298588E+02  0.22590977040E+02  0.58113471935E+01  0.59301935600E+02  0.49999984630E+02 0.  0.
         12    1    1    2    0    0  0.21739298588E+02 -0.22590977040E+02 -0.58113471935E+01  0.31886064400E+02  0.00000000000E+00 0. -1.
         11    1    3    3    0    0 -0.12391263594E+02  0.16618560249E+01 -0.15676620709E+02  0.20051474160E+02  0.51100000000E-03 0. -1.
        -11    1    3    3    0    0 -0.88322559014E+01 -0.21250922592E+01  0.26185249465E+01  0.94541755100E+01  0.51100000000E-03 0.  1.
         12    1    3    3    0    0 -0.51577909286E+00  0.23054213274E+02  0.18869442956E+02  0.29796285930E+02  0.00000000000E+00 0. -1.
</event>
<event>
 7    1  0.3220798E-013  0.5930193E+02  0.7816164E-02  0.1266605E+00
        -11   -1    0    0    0    0  0.00000000000E+00  0.00000000000E+00  0.45593999997E+02  0.45594000000E+02  0.51100000000E-03 0.  1.
         11   -1    0    0    0    0 -0.00000000000E+00 -0.00000000000E+00 -0.45593999997E+02  0.45594000000E+02  0.51100000000E-03 0. -1.
    9900012    2    1    2    0    0  0.11962137792E+02  0.74928109467E+01  0.28591726197E+02  0.59301925244E+02  0.49999965743E+02 0.  0.
         12    1    1    2    0    0 -0.11962137792E+02 -0.74928109467E+01 -0.28591726197E+02  0.31886074756E+02  0.00000000000E+00 0. -1.
         11    1    3    3    0    0  0.22024677410E+01 -0.10924663912E+02  0.69315140061E+01  0.13124215497E+02  0.51100000000E-03 0. -1.
        -11    1    3    3    0    0  0.66589850132E+01 -0.53211149526E+01 -0.53665716357E+01  0.10072558619E+02  0.51100000000E-03 0.  1.
        -12    1    3    3    0    0  0.31006850376E+01  0.23738589812E+02  0.27026783827E+02  0.36105151128E+02  0.00000000000E+00 0.  1.
</event>
<event>
 7    1  0.3220798E-013  0.5930195E+02  0.7816164E-02  0.1266605E+00
        -11   -1    0    0    0    0  0.00000000000E+00  0.00000000000E+00  0.45593999997E+02  0.45594000000E+02  0.51100000000E-03 0.  1.
         11   -1    0    0    0    0 -0.00000000000E+00 -0.00000000000E+00 -0.45593999997E+02  0.45594000000E+02  0.51100000000E-03 0. -1.
    9900012    2    1    2    0    0  0.24477828385E+02  0.75199784738E+01  0.19000159293E+02  0.59301949573E+02  0.50000010113E+02 0.  0.
         12    1    1    2    0    0 -0.24477828385E+02 -0.75199784738E+01 -0.19000159293E+02  0.31886050427E+02  0.00000000000E+00 0. -1.
         11    1    3    3    0    0 -0.62679501067E+01 -0.18773303521E+01  0.11885098580E+02  0.13567134418E+02  0.51100000000E-03 0. -1.
        -11    1    3    3    0    0 -0.32556890644E+01  0.10633071007E+02  0.25168389104E+01  0.11401587112E+02  0.51100000000E-03 0.  1.
        -12    1    3    3    0    0  0.34001467556E+02 -0.12357621806E+01  0.45982218022E+01  0.34333228043E+02  0.00000000000E+00 0.  1.
</event>
<event>
 7    1  0.3220798E-013  0.5930187E+02  0.7816164E-02  0.1266605E+00
        -11   -1    0    0    0    0  0.00000000000E+00  0.00000000000E+00  0.45593999997E+02  0.45594000000E+02  0.51100000000E-03 0. -1.
         11   -1    0    0    0    0 -0.00000000000E+00 -0.00000000000E+00 -0.45593999997E+02  0.45594000000E+02  0.51100000000E-03 0.  1.
    9900012    2    1    2    0    0  0.46973517664E+01 -0.16700682014E+01 -0.31493981203E+02  0.59301873025E+02  0.49999870508E+02 0.  0.
         12    1    1    2    0    0 -0.46973517664E+01  0.16700682014E+01  0.31493981203E+02  0.31886126975E+02  0.00000000000E+00 0. -1.
         11    1    3    3    0    0 -0.24730949326E+01  0.87142095695E+00 -0.21595309186E+02  0.21753918087E+02  0.51100000000E-03 0. -1.
        -11    1    3    3    0    0  0.19582950091E+01  0.15472990918E+02 -0.10471858207E+02  0.18785850576E+02  0.51100000000E-03 0.  1.
        -12    1    3    3    0    0  0.52121516900E+01 -0.18014480077E+02  0.57318618967E+00  0.18762104362E+02  0.00000000000E+00 0.  1.
</event>
<event>
 7    1  0.3220798E-013  0.5930197E+02  0.7816164E-02  0.1266605E+00
        -11   -1    0    0    0    0  0.00000000000E+00  0.00000000000E+00  0.45593999997E+02  0.45594000000E+02  0.51100000000E-03 0.  1.
         11   -1    0    0    0    0 -0.00000000000E+00 -0.00000000000E+00 -0.45593999997E+02  0.45594000000E+02  0.51100000000E-03 0. -1.
    9900012    2    1    2    0    0  0.29501379372E+02  0.40766329925E+01 -0.11391614272E+02  0.59301965484E+02  0.50000039132E+02 0.  0.
         12    1    1    2    0    0 -0.29501379372E+02 -0.40766329925E+01  0.11391614272E+02  0.31886034516E+02  0.00000000000E+00 0. -1.
         11    1    3    3    0    0 -0.37579662842E+01 -0.43171761520E+01 -0.12941597800E+02  0.14150804726E+02  0.51100000000E-03 0. -1.
        -11    1    3    3    0    0  0.88587751288E+00  0.62303501867E+01 -0.90455441979E+01  0.11019251904E+02  0.51100000000E-03 0.  1.
        -12    1    3    3    0    0  0.32373468143E+02  0.21634589578E+01  0.10595527726E+02  0.34131908855E+02  0.00000000000E+00 0.  1.
</event>
<event>
 7    1  0.3220798E-013  0.5930194E+02  0.7816164E-02  0.1266605E+00
        -11   -1    0    0    0    0  0.00000000000E+00  0.00000000000E+00  0.45593999997E+02  0.45594000000E+02  0.51100000000E-03 0. -1.
         11   -1    0    0    0    0 -0.00000000000E+00 -0.00000000000E+00 -0.45593999997E+02  0.45594000000E+02  0.51100000000E-03 0.  1.
    9900012    2    1    2    0    0  0.31775133482E+02 -0.22369225282E+00 -0.26480042242E+01  0.59301936078E+02  0.49999985502E+02 0.  0.
         12    1    1    2    0    0 -0.31775133482E+02  0.22369225282E+00  0.26480042242E+01  0.31886063922E+02  0.00000000000E+00 0. -1.
         11    1    3    3    0    0  0.99650283911E+01  0.92054974127E+01  0.11465385271E+02  0.17762264302E+02  0.51100000000E-03 0. -1.
        -11    1    3    3    0    0  0.33257167170E+00  0.89037490838E+00 -0.17452849511E+02  0.17478710699E+02  0.51100000000E-03 0.  1.
         12    1    3    3    0    0  0.21477533419E+02 -0.10319564574E+02  0.33394600155E+01  0.24060961078E+02  0.00000000000E+00 0. -1.
</event>
<event>
 7    1  0.3220798E-013  0.5930199E+02  0.7816164E-02  0.1266605E+00
        -11   -1    0    0    0    0  0.00000000000E+00  0.00000000000E+00  0.45593999997E+02  0.45594000000E+02  0.51100000000E-03 0.  1.
         11   -1    0    0    0    0 -0.00000000000E+00 -0.00000000000E+00 -0.45593999997E+02  0.45594000000E+02  0.51100000000E-03 0. -1.
    9900012    2    1    2    0    0 -0.14368581063E+02  0.23929049751E+02  0.15416296627E+02  0.59301988248E+02  0.50000080647E+02 0.  0.
         12    1    1    2    0    0  0.14368581063E+02 -0.23929049751E+02 -0.15416296627E+02  0.31886011752E+02  0.00000000000E+00 0. -1.
         11    1    3    3    0    0 -0.15886370952E+02  0.20793507687E+02  0.11440321694E+02  0.28559196499E+02  0.51100000000E-03 0. -1.
        -11    1    3    3    0    0  0.11351774350E+02  0.12479160371E+02  0.30753100629E+01  0.17147879073E+02  0.51100000000E-03 0.  1.
         12    1    3    3    0    0 -0.98339844611E+01 -0.93436183068E+01  0.90066486952E+00  0.13594912675E+02  0.00000000000E+00 0. -1.
</event>
<event>
 7    1  0.3220798E-013  0.5930195E+02  0.7816164E-02  0.1266605E+00
        -11   -1    0    0    0    0  0.00000000000E+00  0.00000000000E+00  0.45593999997E+02  0.45594000000E+02  0.51100000000E-03 0. -1.
         11   -1    0    0    0    0 -0.00000000000E+00 -0.00000000000E+00 -0.45593999997E+02  0.45594000000E+02  0.51100000000E-03 0.  1.
    9900012    2    1    2    0    0  0.57173172482E+01 -0.30853989601E+02 -0.56624660267E+01  0.59301954269E+02  0.50000018678E+02 0.  0.
         12    1    1    2    0    0 -0.57173172482E+01  0.30853989601E+02  0.56624660267E+01  0.31886045731E+02  0.00000000000E+00 0. -1.
         11    1    3    3    0    0 -0.22309390862E+01  0.80327759892E+01 -0.13784761092E+02  0.16109693290E+02  0.51100000000E-03 0. -1.
        -11    1    3    3    0    0  0.53547904463E+00 -0.57251575815E+01  0.71806048884E+01  0.91991985501E+01  0.51100000000E-03 0.  1.
        -12    1    3    3    0    0  0.74127772898E+01 -0.33161608009E+02  0.94169017640E+00  0.33993062429E+02  0.00000000000E+00 0.  1.
</event>
<event>
 7    1  0.3220798E-013  0.5930218E+02  0.7816164E-02  0.1266604E+00
        -11   -1    0    0    0    0  0.00000000000E+00  0.00000000000E+00  0.45593999997E+02  0.45594000000E+02  0.51100000000E-03 0. -1.
         11   -1    0    0    0    0 -0.00000000000E+00 -0.00000000000E+00 -0.45593999997E+02  0.45594000000E+02  0.51100000000E-03 0.  1.
    9900012    2    1    2    0    0 -0.26898293950E+02  0.55298406173E+01 -0.16205182138E+02  0.59302183674E+02  0.50000437055E+02 0.  0.
         12    1    1    2    0    0  0.26898293950E+02 -0.55298406173E+01  0.16205182138E+02  0.31885816326E+02  0.00000000000E+00 0. -1.
         11    1    3    3    0    0 -0.10578254988E+02 -0.75570399822E+01 -0.88187810051E+01  0.15709208464E+02  0.51100000000E-03 0. -1.
        -11    1    3    3    0    0 -0.26937921672E+02  0.94586449268E+01  0.24715197369E+01  0.28657040984E+02  0.51100000000E-03 0.  1.
         12    1    3    3    0    0  0.10617882710E+02  0.36282356726E+01 -0.98579208697E+01  0.14935934226E+02  0.00000000000E+00 0. -1.
</event>
<event>
 7    1  0.3220798E-013  0.5930194E+02  0.7816164E-02  0.1266605E+00
        -11   -1    0    0    0    0  0.00000000000E+00  0.00000000000E+00  0.45593999997E+02  0.45594000000E+02  0.51100000000E-03 0.  1.
         11   -1    0    0    0    0 -0.00000000000E+00 -0.00000000000E+00 -0.45593999997E+02  0.45594000000E+02  0.51100000000E-03 0. -1.
    9900012    2    1    2    0    0 -0.16642107194E+01  0.42518583208E+01  0.31557456885E+02  0.59301937503E+02  0.49999988100E+02 0.  0.
         12    1    1    2    0    0  0.16642107194E+01 -0.42518583208E+01 -0.31557456885E+02  0.31886062497E+02  0.00000000000E+00 0. -1.
         11    1    3    3    0    0  0.73402773437E+01 -0.11862362077E+01  0.14820197397E+02  0.16580864844E+02  0.51100000000E-03 0.  1.
        -11    1    3    3    0    0 -0.15760075386E+02 -0.75305444754E+01  0.21165959677E+02  0.27442429294E+02  0.51100000000E-03 0. -1.
         12    1    3    3    0    0  0.67555873226E+01  0.12968639004E+02 -0.44287001890E+01  0.15278643364E+02  0.00000000000E+00 0. -1.
</event>
<event>
 7    1  0.3220798E-013  0.5930191E+02  0.7816164E-02  0.1266605E+00
        -11   -1    0    0    0    0  0.00000000000E+00  0.00000000000E+00  0.45593999997E+02  0.45594000000E+02  0.51100000000E-03 0.  1.
         11   -1    0    0    0    0 -0.00000000000E+00 -0.00000000000E+00 -0.45593999997E+02  0.45594000000E+02  0.51100000000E-03 0. -1.
    9900012    2    1    2    0    0  0.73223281321E+01 -0.18103320530E+02  0.25206663247E+02  0.59301912508E+02  0.49999942516E+02 0.  0.
         12    1    1    2    0    0 -0.73223281321E+01  0.18103320530E+02 -0.25206663247E+02  0.31886087492E+02  0.00000000000E+00 0. -1.
         11    1    3    3    0    0 -0.57389413018E+01 -0.55527789776E+00 -0.33893882722E+01  0.66881786706E+01  0.51100000000E-03 0. -1.
        -11    1    3    3    0    0 -0.42689370578E+01 -0.10647930482E+02  0.31692747928E+02  0.33705081496E+02  0.51100000000E-03 0.  1.
         12    1    3    3    0    0  0.17330206492E+02 -0.69001121508E+01 -0.30966964090E+01  0.18908652342E+02  0.00000000000E+00 0. -1.
</event>
<event>
 7    1  0.3220798E-013  0.5930221E+02  0.7816164E-02  0.1266604E+00
        -11   -1    0    0    0    0  0.00000000000E+00  0.00000000000E+00  0.45593999997E+02  0.45594000000E+02  0.51100000000E-03 0. -1.
         11   -1    0    0    0    0 -0.00000000000E+00 -0.00000000000E+00 -0.45593999997E+02  0.45594000000E+02  0.51100000000E-03 0.  1.
    9900012    2    1    2    0    0  0.86583971868E+01 -0.87384465094E+01 -0.29417264891E+02  0.59302207507E+02  0.50000480520E+02 0.  0.
         12    1    1    2    0    0 -0.86583971868E+01  0.87384465094E+01  0.29417264891E+02  0.31885792493E+02  0.00000000000E+00 0. -1.
         11    1    3    3    0    0  0.58046095386E+01  0.22154226619E+01 -0.19341779854E+02  0.20315167674E+02  0.51100000000E-03 0.  1.
        -11    1    3    3    0    0 -0.18546147139E+01  0.10887202609E+02 -0.12303741576E+02  0.16533385419E+02  0.51100000000E-03 0. -1.
        -12    1    3    3    0    0  0.47084023620E+01 -0.21841071780E+02  0.22282565377E+01  0.22453654413E+02  0.00000000000E+00 0.  1.
</event>
<event>
 7    1  0.3220798E-013  0.5930191E+02  0.7816164E-02  0.1266605E+00
        -11   -1    0    0    0    0  0.00000000000E+00  0.00000000000E+00  0.45593999997E+02  0.45594000000E+02  0.51100000000E-03 0. -1.
         11   -1    0    0    0    0 -0.00000000000E+00 -0.00000000000E+00 -0.45593999997E+02  0.45594000000E+02  0.51100000000E-03 0.  1.
    9900012    2    1    2    0    0  0.63595848959E+01 -0.26606661877E+02 -0.16381825976E+02  0.59301905875E+02  0.49999930418E+02 0.  0.
         12    1    1    2    0    0 -0.63595848959E+01  0.26606661877E+02  0.16381825976E+02  0.31886094125E+02  0.00000000000E+00 0. -1.
         11    1    3    3    0    0  0.20292637871E+01 -0.55576236977E+01 -0.22783312572E+01  0.63400225758E+01  0.51100000000E-03 0. -1.
        -11    1    3    3    0    0 -0.47044306050E+01 -0.17285325293E+02 -0.29620351612E+02  0.34616172054E+02  0.51100000000E-03 0.  1.
         12    1    3    3    0    0  0.90347517138E+01 -0.37637128859E+01  0.15516856894E+02  0.18345711245E+02  0.00000000000E+00 0. -1.
</event>
<event>
 7    1  0.3220798E-013  0.5930196E+02  0.7816164E-02  0.1266605E+00
        -11   -1    0    0    0    0  0.00000000000E+00  0.00000000000E+00  0.45593999997E+02  0.45594000000E+02  0.51100000000E-03 0. -1.
         11   -1    0    0    0    0 -0.00000000000E+00 -0.00000000000E+00 -0.45593999997E+02  0.45594000000E+02  0.51100000000E-03 0.  1.
    9900012    2    1    2    0    0  0.12320648198E+02  0.21957037181E+02 -0.19565530011E+02  0.59301955742E+02  0.50000021364E+02 0.  0.
         12    1    1    2    0    0 -0.12320648198E+02 -0.21957037181E+02  0.19565530011E+02  0.31886044258E+02  0.00000000000E+00 0. -1.
         11    1    3    3    0    0  0.55024389437E+00 -0.44387540777E+01 -0.84326202979E+00  0.45515269105E+01  0.51100000000E-03 0. -1.
        -11    1    3    3    0    0  0.21865517750E+02  0.23009469914E+02  0.16273207044E+01  0.31783403612E+02  0.51100000000E-03 0.  1.
         12    1    3    3    0    0 -0.10095113446E+02  0.33863213448E+01 -0.20349588686E+02  0.22967025220E+02  0.00000000000E+00 0. -1.
</event>
<event>
 7    1  0.3220798E-013  0.5930192E+02  0.7816164E-02  0.1266605E+00
        -11   -1    0    0    0    0  0.00000000000E+00  0.00000000000E+00  0.45593999997E+02  0.45594000000E+02  0.51100000000E-03 0.  1.
         11   -1    0    0    0    0 -0.00000000000E+00 -0.00000000000E+00 -0.45593999997E+02  0.45594000000E+02  0.51100000000E-03 0. -1.
    9900012    2    1    2    0    0 -0.18095408536E+02  0.20002101363E+02  0.17005707344E+02  0.59301922297E+02  0.49999960368E+02 0.  0.
         12    1    1    2    0    0  0.18095408536E+02 -0.20002101363E+02 -0.17005707344E+02  0.31886077703E+02  0.00000000000E+00 0. -1.
         11    1    3    3    0    0  0.57509545064E+01  0.92764066488E+00  0.12688898007E+01  0.59618853164E+01  0.51100000000E-03 0.  1.
        -11    1    3    3    0    0  0.44278117095E+00  0.24475665111E+02  0.14445644734E+02  0.28424125138E+02  0.51100000000E-03 0. -1.
        -12    1    3    3    0    0 -0.24289144213E+02 -0.54012044130E+01  0.12911728090E+01  0.24915911842E+02  0.00000000000E+00 0.  1.
</event>
<event>
 7    1  0.3220798E-013  0.5930197E+02  0.7816164E-02  0.1266605E+00
        -11   -1    0    0    0    0  0.00000000000E+00  0.00000000000E+00  0.45593999997E+02  0.45594000000E+02  0.51100000000E-03 0.  1.
         11   -1    0    0    0    0 -0.00000000000E+00 -0.00000000000E+00 -0.45593999997E+02  0.45594000000E+02  0.51100000000E-03 0. -1.
    9900012    2    1    2    0    0 -0.18610214567E+02 -0.21097712461E+02  0.15008847259E+02  0.59301967740E+02  0.50000043245E+02 0.  0.
         12    1    1    2    0    0  0.18610214567E+02  0.21097712461E+02 -0.15008847259E+02  0.31886032260E+02  0.00000000000E+00 0. -1.
         11    1    3    3    0    0 -0.82414850115E+01 -0.35297523265E+01 -0.78337053724E+01  0.11905803913E+02  0.51100000000E-03 0. -1.
        -11    1    3    3    0    0 -0.66010771782E+01  0.10799968054E+02  0.94744326736E+01  0.15810705380E+02  0.51100000000E-03 0.  1.
         12    1    3    3    0    0 -0.37676523768E+01 -0.28367928188E+02  0.13368119958E+02  0.31585458447E+02  0.00000000000E+00 0. -1.
</event>
<event>
 7    1  0.3220798E-013  0.5930193E+02  0.7816164E-02  0.1266605E+00
        -11   -1    0    0    0    0  0.00000000000E+00  0.00000000000E+00  0.45593999997E+02  0.45594000000E+02  0.51100000000E-03 0. -1.
         11   -1    0    0    0    0 -0.00000000000E+00 -0.00000000000E+00 -0.45593999997E+02  0.45594000000E+02  0.51100000000E-03 0.  1.
    9900012    2    1    2    0    0  0.31227495545E+01 -0.39717807232E+01 -0.31483246717E+02  0.59301930460E+02  0.49999975255E+02 0.  0.
         12    1    1    2    0    0 -0.31227495545E+01  0.39717807232E+01  0.31483246717E+02  0.31886069540E+02  0.00000000000E+00 0. -1.
         11    1    3    3    0    0  0.85229915762E+01 -0.55620665000E+01  0.48919345313E-01  0.10177443811E+02  0.51100000000E-03 0. -1.
        -11    1    3    3    0    0  0.19076900950E+01  0.17728146800E+02 -0.76823815613E+01  0.19415083239E+02  0.51100000000E-03 0.  1.
         12    1    3    3    0    0 -0.73079321167E+01 -0.16137861023E+02 -0.23849784501E+02  0.29709403410E+02  0.00000000000E+00 0. -1.
</event>
<event>
 7    1  0.3220798E-013  0.5930193E+02  0.7816164E-02  0.1266605E+00
        -11   -1    0    0    0    0  0.00000000000E+00  0.00000000000E+00  0.45593999997E+02  0.45594000000E+02  0.51100000000E-03 0. -1.
         11   -1    0    0    0    0 -0.00000000000E+00 -0.00000000000E+00 -0.45593999997E+02  0.45594000000E+02  0.51100000000E-03 0.  1.
    9900012    2    1    2    0    0  0.67820412754E+01  0.18573626146E+02 -0.25014915245E+02  0.59301926915E+02  0.49999968791E+02 0.  0.
         12    1    1    2    0    0 -0.67820412754E+01 -0.18573626146E+02  0.25014915245E+02  0.31886073085E+02  0.00000000000E+00 0. -1.
         11    1    3    3    0    0 -0.57289632295E+01  0.93914580818E+01 -0.11392094844E+01  0.11059760535E+02  0.51100000000E-03 0. -1.
        -11    1    3    3    0    0  0.48365502050E+01  0.14713413845E+02  0.62233282733E+01  0.16691512212E+02  0.51100000000E-03 0.  1.
         12    1    3    3    0    0  0.76744543000E+01 -0.55312457809E+01 -0.30099034033E+02  0.31550654168E+02  0.00000000000E+00 0. -1.
</event>
<event>
 7    1  0.3220798E-013  0.5930195E+02  0.7816164E-02  0.1266605E+00
        -11   -1    0    0    0    0  0.00000000000E+00  0.00000000000E+00  0.45593999997E+02  0.45594000000E+02  0.51100000000E-03 0. -1.
         11   -1    0    0    0    0 -0.00000000000E+00 -0.00000000000E+00 -0.45593999997E+02  0.45594000000E+02  0.51100000000E-03 0.  1.
    9900012    2    1    2    0    0 -0.73502566320E+00 -0.51172102757E+01 -0.31464171027E+02  0.59301950352E+02  0.50000011534E+02 0.  0.
         12    1    1    2    0    0  0.73502566320E+00  0.51172102757E+01  0.31464171027E+02  0.31886049648E+02  0.00000000000E+00 0. -1.
         11    1    3    3    0    0 -0.73661374723E+01 -0.70259635093E+01  0.27803859245E+00  0.10183390900E+02  0.51100000000E-03 0. -1.
        -11    1    3    3    0    0 -0.10753143325E+01 -0.16993836293E+02 -0.15613567936E+02  0.23102603247E+02  0.51100000000E-03 0.  1.
         12    1    3    3    0    0  0.77064261416E+01  0.18902589526E+02 -0.16128641684E+02  0.26015956205E+02  0.00000000000E+00 0. -1.
</event>
<event>
 7    1  0.3220798E-013  0.5930197E+02  0.7816164E-02  0.1266605E+00
        -11   -1    0    0    0    0  0.00000000000E+00  0.00000000000E+00  0.45593999997E+02  0.45594000000E+02  0.51100000000E-03 0.  1.
         11   -1    0    0    0    0 -0.00000000000E+00 -0.00000000000E+00 -0.45593999997E+02  0.45594000000E+02  0.51100000000E-03 0. -1.
    9900012    2    1    2    0    0 -0.11633762762E+02 -0.26157829856E+02  0.14040736324E+02  0.59301972099E+02  0.50000051195E+02 0.  0.
         12    1    1    2    0    0  0.11633762762E+02  0.26157829856E+02 -0.14040736324E+02  0.31886027901E+02  0.00000000000E+00 0. -1.
         11    1    3    3    0    0 -0.32544025341E+01  0.77735686872E+01  0.13651997964E+01  0.85371703002E+01  0.51100000000E-03 0. -1.
        -11    1    3    3    0    0 -0.70887845853E+01 -0.25096846144E+00  0.15394606895E+02  0.16950155568E+02  0.51100000000E-03 0.  1.
        -12    1    3    3    0    0 -0.12905756426E+01 -0.33680430082E+02 -0.27190703677E+01  0.33814646230E+02  0.00000000000E+00 0.  1.
</event>
<event>
 7    1  0.3220798E-013  0.5930189E+02  0.7816164E-02  0.1266605E+00
        -11   -1    0    0    0    0  0.00000000000E+00  0.00000000000E+00  0.45593999997E+02  0.45594000000E+02  0.51100000000E-03 0. -1.
         11   -1    0    0    0    0 -0.00000000000E+00 -0.00000000000E+00 -0.45593999997E+02  0.45594000000E+02  0.51100000000E-03 0.  1.
    9900012    2    1    2    0    0 -0.27735803645E+01  0.27424436804E+02 -0.16029076546E+02  0.59301893669E+02  0.49999908158E+02 0.  0.
         12    1    1    2    0    0  0.27735803645E+01 -0.27424436804E+02  0.16029076546E+02  0.31886106331E+02  0.00000000000E+00 0. -1.
         11    1    3    3    0    0 -0.11833342490E+01  0.16667936027E+02  0.47714543264E-01  0.16709956562E+02  0.51100000000E-03 0. -1.
        -11    1    3    3    0    0  0.12594127767E+02  0.17260262101E+02 -0.16477970344E+02  0.26982442605E+02  0.51100000000E-03 0.  1.
        -12    1    3    3    0    0 -0.14184373883E+02 -0.65037613249E+01  0.40117925493E+00  0.15609494502E+02  0.00000000000E+00 0.  1.
</event>
<event>
 7    1  0.3220798E-013  0.5930195E+02  0.7816164E-02  0.1266605E+00
        -11   -1    0    0    0    0  0.00000000000E+00  0.00000000000E+00  0.45593999997E+02  0.45594000000E+02  0.51100000000E-03 0. -1.
         11   -1    0    0    0    0 -0.00000000000E+00 -0.00000000000E+00 -0.45593999997E+02  0.45594000000E+02  0.51100000000E-03 0.  1.
    9900012    2    1    2    0    0 -0.96307925361E+01 -0.29739172072E+02 -0.62888346630E+01  0.59301953494E+02  0.50000017263E+02 0.  0.
         12    1    1    2    0    0  0.96307925361E+01  0.29739172072E+02  0.62888346630E+01  0.31886046506E+02  0.00000000000E+00 0. -1.
         11    1    3    3    0    0  0.32120873629E+01 -0.13751290614E+02 -0.48376558494E+01  0.14927103308E+02  0.51100000000E-03 0. -1.
        -11    1    3    3    0    0 -0.10227294837E+01 -0.14147228992E+02 -0.18646172402E+02  0.23427970660E+02  0.51100000000E-03 0.  1.
         12    1    3    3    0    0 -0.11820150415E+02 -0.18406524654E+01  0.17194993588E+02  0.20946879525E+02  0.00000000000E+00 0. -1.
</event>
<event>
 7    1  0.3220798E-013  0.5930196E+02  0.7816164E-02  0.1266605E+00
        -11   -1    0    0    0    0  0.00000000000E+00  0.00000000000E+00  0.45593999997E+02  0.45594000000E+02  0.51100000000E-03 0. -1.
         11   -1    0    0    0    0 -0.00000000000E+00 -0.00000000000E+00 -0.45593999997E+02  0.45594000000E+02  0.51100000000E-03 0.  1.
    9900012    2    1    2    0    0 -0.28196733373E+02 -0.79128586697E+01 -0.12611518808E+02  0.59301960549E+02  0.50000030130E+02 0.  0.
         12    1    1    2    0    0  0.28196733373E+02  0.79128586697E+01  0.12611518808E+02  0.31886039451E+02  0.00000000000E+00 0. -1.
         11    1    3    3    0    0  0.51327720636E+00  0.79393162636E+01  0.32673178502E+01  0.86006722074E+01  0.51100000000E-03 0. -1.
        -11    1    3    3    0    0  0.67940695172E+01  0.24465369945E+01 -0.64014685708E+01  0.96500634192E+01  0.51100000000E-03 0.  1.
         12    1    3    3    0    0 -0.35504080097E+02 -0.18298711928E+02 -0.94773680871E+01  0.41051224922E+02  0.00000000000E+00 0. -1.
</event>
<event>
 7    1  0.3220798E-013  0.5930195E+02  0.7816164E-02  0.1266605E+00
        -11   -1    0    0    0    0  0.00000000000E+00  0.00000000000E+00  0.45593999997E+02  0.45594000000E+02  0.51100000000E-03 0. -1.
         11   -1    0    0    0    0 -0.00000000000E+00 -0.00000000000E+00 -0.45593999997E+02  0.45594000000E+02  0.51100000000E-03 0.  1.
    9900012    2    1    2    0    0 -0.20531252551E+02  0.17936966037E+02  0.16536411008E+02  0.59301953350E+02  0.50000017002E+02 0.  0.
         12    1    1    2    0    0  0.20531252551E+02 -0.17936966037E+02 -0.16536411008E+02  0.31886046650E+02  0.00000000000E+00 0. -1.
         11    1    3    3    0    0 -0.89467108907E+01 -0.10782693141E+02  0.19162160415E+02  0.23738123328E+02  0.51100000000E-03 0. -1.
        -11    1    3    3    0    0 -0.41567161701E+01  0.13853313218E+02  0.73055130168E+01  0.16203798849E+02  0.51100000000E-03 0.  1.
        -12    1    3    3    0    0 -0.74278254902E+01  0.14866345959E+02 -0.99312624230E+01  0.19360031173E+02  0.00000000000E+00 0.  1.
</event>
<event>
 7    1  0.3220798E-013  0.5930166E+02  0.7816164E-02  0.1266606E+00
        -11   -1    0    0    0    0  0.00000000000E+00  0.00000000000E+00  0.45593999997E+02  0.45594000000E+02  0.51100000000E-03 0.  1.
         11   -1    0    0    0    0 -0.00000000000E+00 -0.00000000000E+00 -0.45593999997E+02  0.45594000000E+02  0.51100000000E-03 0. -1.
    9900012    2    1    2    0    0  0.18119742330E+02 -0.19452803109E+02 -0.17606884580E+02  0.59301655031E+02  0.49999472936E+02 0.  0.
         12    1    1    2    0    0 -0.18119742330E+02  0.19452803109E+02  0.17606884580E+02  0.31886344969E+02  0.00000000000E+00 0. -1.
         11    1    3    3    0    0  0.31330291188E+02 -0.11579776704E+02 -0.23563023441E+02  0.40876575791E+02  0.51100000000E-03 0. -1.
        -11    1    3    3    0    0 -0.63493736159E+01 -0.70154039407E+00 -0.77202389499E+00  0.64344949603E+01  0.51100000000E-03 0.  1.
        -12    1    3    3    0    0 -0.68611752418E+01 -0.71714860101E+01  0.67281627558E+01  0.11990584279E+02  0.00000000000E+00 0.  1.
</event>
<event>
 7    1  0.3220798E-013  0.5930200E+02  0.7816164E-02  0.1266605E+00
        -11   -1    0    0    0    0  0.00000000000E+00  0.00000000000E+00  0.45593999997E+02  0.45594000000E+02  0.51100000000E-03 0.  1.
         11   -1    0    0    0    0 -0.00000000000E+00 -0.00000000000E+00 -0.45593999997E+02  0.45594000000E+02  0.51100000000E-03 0. -1.
    9900012    2    1    2    0    0  0.22083256879E+02  0.22083829122E+02  0.64304865759E+01  0.59302001495E+02  0.50000104806E+02 0.  0.
         12    1    1    2    0    0 -0.22083256879E+02 -0.22083829122E+02 -0.64304865759E+01  0.31885998505E+02  0.00000000000E+00 0. -1.
         11    1    3    3    0    0 -0.10943580199E+01 -0.20447942147E+01 -0.10726960011E+02  0.10974810896E+02  0.51100000000E-03 0. -1.
        -11    1    3    3    0    0  0.14517307799E+02  0.29692431913E+02  0.68374293170E+01  0.33751195217E+02  0.51100000000E-03 0.  1.
         12    1    3    3    0    0  0.86603070992E+01 -0.55638085761E+01  0.10320017270E+02  0.14575995382E+02  0.00000000000E+00 0. -1.
</event>
<event>
 7    1  0.3220798E-013  0.5930214E+02  0.7816164E-02  0.1266604E+00
        -11   -1    0    0    0    0  0.00000000000E+00  0.00000000000E+00  0.45593999997E+02  0.45594000000E+02  0.51100000000E-03 0.  1.
         11   -1    0    0    0    0 -0.00000000000E+00 -0.00000000000E+00 -0.45593999997E+02  0.45594000000E+02  0.51100000000E-03 0. -1.
    9900012    2    1    2    0    0 -0.10577783801E+01 -0.11445730110E+02  0.29741961094E+02  0.59302142906E+02  0.50000362706E+02 0.  0.
         12    1    1    2    0    0  0.10577783801E+01  0.11445730110E+02 -0.29741961094E+02  0.31885857094E+02  0.00000000000E+00 0. -1.
         11    1    3    3    0    0 -0.10345671517E+02  0.97318027046E+01  0.12500371196E+02  0.18920892773E+02  0.51100000000E-03 0.  1.
        -11    1    3    3    0    0 -0.78180869532E+01 -0.72498235031E+00 -0.12264734380E+01  0.79468434218E+01  0.51100000000E-03 0. -1.
        -12    1    3    3    0    0  0.17105980090E+02 -0.20452550464E+02  0.18468063336E+02  0.32434406712E+02  0.00000000000E+00 0.  1.
</event>
<event>
 7    1  0.3220798E-013  0.5930194E+02  0.7816164E-02  0.1266605E+00
        -11   -1    0    0    0    0  0.00000000000E+00  0.00000000000E+00  0.45593999997E+02  0.45594000000E+02  0.51100000000E-03 0. -1.
         11   -1    0    0    0    0 -0.00000000000E+00 -0.00000000000E+00 -0.45593999997E+02  0.45594000000E+02  0.51100000000E-03 0.  1.
    9900012    2    1    2    0    0 -0.99729758152E+01 -0.30256258713E+02 -0.13488418770E+01  0.59301940157E+02  0.49999992941E+02 0.  0.
         12    1    1    2    0    0  0.99729758152E+01  0.30256258713E+02  0.13488418770E+01  0.31886059843E+02  0.00000000000E+00 0. -1.
         11    1    3    3    0    0  0.13624568521E+01 -0.49031553392E+01 -0.68734790718E+01  0.85523058741E+01  0.51100000000E-03 0. -1.
        -11    1    3    3    0    0  0.24534698920E+01 -0.18175122351E+02 -0.15904578732E+02  0.24275712386E+02  0.51100000000E-03 0.  1.
         12    1    3    3    0    0 -0.13788902559E+02 -0.71779810229E+01  0.21429215926E+02  0.26473921896E+02  0.00000000000E+00 0. -1.
</event>
<event>
 7    1  0.3220798E-013  0.5930189E+02  0.7816164E-02  0.1266605E+00
        -11   -1    0    0    0    0  0.00000000000E+00  0.00000000000E+00  0.45593999997E+02  0.45594000000E+02  0.51100000000E-03 0. -1.
         11   -1    0    0    0    0 -0.00000000000E+00 -0.00000000000E+00 -0.45593999997E+02  0.45594000000E+02  0.51100000000E-03 0.  1.
    9900012    2    1    2    0    0 -0.30054822711E+02  0.10548700913E+02  0.14684703308E+01  0.59301892300E+02  0.49999905661E+02 0.  0.
         12    1    1    2    0    0  0.30054822711E+02 -0.10548700913E+02 -0.14684703308E+01  0.31886107700E+02  0.00000000000E+00 0. -1.
         11    1    3    3    0    0 -0.11555604954E+02  0.50950335045E+01 -0.80570450848E+01  0.14980231908E+02  0.51100000000E-03 0. -1.
        -11    1    3    3    0    0  0.76555690389E+01  0.88672377738E+01 -0.65607313931E+01  0.13426795586E+02  0.51100000000E-03 0.  1.
         12    1    3    3    0    0 -0.26154786796E+02 -0.34135703649E+01  0.16086246809E+02  0.30894864806E+02  0.00000000000E+00 0. -1.
</event>
<event>
 7    1  0.3220798E-013  0.5930199E+02  0.7816164E-02  0.1266605E+00
        -11   -1    0    0    0    0  0.00000000000E+00  0.00000000000E+00  0.45593999997E+02  0.45594000000E+02  0.51100000000E-03 0. -1.
         11   -1    0    0    0    0 -0.00000000000E+00 -0.00000000000E+00 -0.45593999997E+02  0.45594000000E+02  0.51100000000E-03 0.  1.
    9900012    2    1    2    0    0  0.29235487968E+02  0.19390111538E+01 -0.12579511505E+02  0.59301990047E+02  0.50000083928E+02 0.  0.
         12    1    1    2    0    0 -0.29235487968E+02 -0.19390111538E+01  0.12579511505E+02  0.31886009953E+02  0.00000000000E+00 0. -1.
         11    1    3    3    0    0  0.37626850767E+01 -0.14283114215E+02 -0.97942543843E+01  0.17722656964E+02  0.51100000000E-03 0.  1.
        -11    1    3    3    0    0 -0.46813654235E+01 -0.26923289598E+01  0.17941689919E+01  0.56905940014E+01  0.51100000000E-03 0. -1.
         12    1    3    3    0    0  0.30154168315E+02  0.18914454329E+02 -0.45794261128E+01  0.35888739082E+02  0.00000000000E+00 0. -1.
</event>
<event>
 7    1  0.3220798E-013  0.5930192E+02  0.7816164E-02  0.1266605E+00
        -11   -1    0    0    0    0  0.00000000000E+00  0.00000000000E+00  0.45593999997E+02  0.45594000000E+02  0.51100000000E-03 0.  1.
         11   -1    0    0    0    0 -0.00000000000E+00 -0.00000000000E+00 -0.45593999997E+02  0.45594000000E+02  0.51100000000E-03 0. -1.
    9900012    2    1    2    0    0  0.76236474529E+01  0.19765090652E+02  0.23831564411E+02  0.59301917280E+02  0.49999951218E+02 0.  0.
         12    1    1    2    0    0 -0.76236474529E+01 -0.19765090652E+02 -0.23831564411E+02  0.31886082720E+02  0.00000000000E+00 0. -1.
         11    1    3    3    0    0  0.21311352185E+02  0.11168081367E+02 -0.37049935817E+01  0.24343926369E+02  0.51100000000E-03 0. -1.
        -11    1    3    3    0    0 -0.29891749750E+00 -0.34870240118E+01  0.43820840153E+01  0.56081502037E+01  0.51100000000E-03 0.  1.
         12    1    3    3    0    0 -0.13388787235E+02  0.12084033297E+02  0.23154473977E+02  0.29349840707E+02  0.00000000000E+00 0. -1.
</event>
<event>
 7    1  0.4076454E-013  0.5930194E+02  0.7816164E-02  0.1266605E+00
        -11   -1    0    0    0    0  0.00000000000E+00  0.00000000000E+00  0.45593999997E+02  0.45594000000E+02  0.51100000000E-03 0. -1.
         11   -1    0    0    0    0 -0.00000000000E+00 -0.00000000000E+00 -0.45593999997E+02  0.45594000000E+02  0.51100000000E-03 0.  1.
    9900012    2    1    2    0    0  0.11579818823E+02  0.12426526929E+02 -0.26985369363E+02  0.59301938231E+02  0.49999989428E+02 0.  0.
         12    1    1    2    0    0 -0.11579818823E+02 -0.12426526929E+02  0.26985369363E+02  0.31886061769E+02  0.00000000000E+00 0. -1.
         11    1    3    3    0    0 -0.56130577554E+01  0.14546777402E+02 -0.12976838601E+02  0.20285795289E+02  0.51100000000E-03 0. -1.
        -11    1    3    3    0    0  0.12775757693E+02 -0.87783001013E+01 -0.22521835867E+02  0.27340658887E+02  0.51100000000E-03 0.  1.
         12    1    3    3    0    0  0.44171188856E+01  0.66580496278E+01  0.85133051052E+01  0.11675484055E+02  0.00000000000E+00 0. -1.
</event>
<event>
 7    1  0.3220798E-013  0.5930191E+02  0.7816164E-02  0.1266605E+00
        -11   -1    0    0    0    0  0.00000000000E+00  0.00000000000E+00  0.45593999997E+02  0.45594000000E+02  0.51100000000E-03 0.  1.
         11   -1    0    0    0    0 -0.00000000000E+00 -0.00000000000E+00 -0.45593999997E+02  0.45594000000E+02  0.51100000000E-03 0. -1.
    9900012    2    1    2    0    0  0.22203101787E+02  0.15809226754E+02  0.16547312469E+02  0.59301906958E+02  0.49999932394E+02 0.  0.
         12    1    1    2    0    0 -0.22203101787E+02 -0.15809226754E+02 -0.16547312469E+02  0.31886093042E+02  0.00000000000E+00 0. -1.
         11    1    3    3    0    0  0.63677595853E+01  0.12265284723E+01  0.83952844005E+01  0.10608182439E+02  0.51100000000E-03 0. -1.
        -11    1    3    3    0    0  0.30175767057E+02  0.96513688064E+01  0.10440050813E+02  0.33357465409E+02  0.51100000000E-03 0.  1.
         12    1    3    3    0    0 -0.14340424855E+02  0.49313294753E+01 -0.22880227444E+01  0.15336259110E+02  0.00000000000E+00 0. -1.
</event>
<event>
 7    1  0.3220798E-013  0.5930205E+02  0.7816164E-02  0.1266604E+00
        -11   -1    0    0    0    0  0.00000000000E+00  0.00000000000E+00  0.45593999997E+02  0.45594000000E+02  0.51100000000E-03 0.  1.
         11   -1    0    0    0    0 -0.00000000000E+00 -0.00000000000E+00 -0.45593999997E+02  0.45594000000E+02  0.51100000000E-03 0. -1.
    9900012    2    1    2    0    0  0.13849405011E+02 -0.11796951716E+02  0.26186636710E+02  0.59302046491E+02  0.50000186869E+02 0.  0.
         12    1    1    2    0    0 -0.13849405011E+02  0.11796951716E+02 -0.26186636710E+02  0.31885953509E+02  0.00000000000E+00 0. -1.
         11    1    3    3    0    0  0.87560743303E+01 -0.66480250315E+01 -0.23327799756E+01  0.11238635912E+02  0.51100000000E-03 0. -1.
        -11    1    3    3    0    0  0.34919725822E+01 -0.20784108204E+02  0.87800430492E+01  0.22831166912E+02  0.51100000000E-03 0.  1.
         12    1    3    3    0    0  0.16013580988E+01  0.15635181519E+02  0.19739373637E+02  0.25232243667E+02  0.00000000000E+00 0. -1.
</event>
<event>
 7    1  0.3220798E-013  0.5930194E+02  0.7816164E-02  0.1266605E+00
        -11   -1    0    0    0    0  0.00000000000E+00  0.00000000000E+00  0.45593999997E+02  0.45594000000E+02  0.51100000000E-03 0. -1.
         11   -1    0    0    0    0 -0.00000000000E+00 -0.00000000000E+00 -0.45593999997E+02  0.45594000000E+02  0.51100000000E-03 0.  1.
    9900012    2    1    2    0    0  0.31152045468E+01 -0.19812922524E+02 -0.24788395065E+02  0.59301938340E+02  0.49999989627E+02 0.  0.
         12    1    1    2    0    0 -0.31152045468E+01  0.19812922524E+02  0.24788395065E+02  0.31886061660E+02  0.00000000000E+00 0. -1.
         11    1    3    3    0    0  0.54789867160E+01 -0.21896205224E+02 -0.84629319705E+01  0.24105690541E+02  0.51100000000E-03 0.  1.
        -11    1    3    3    0    0  0.14303811946E+02  0.24916021951E-01 -0.62337549784E+01  0.15603184239E+02  0.51100000000E-03 0. -1.
        -12    1    3    3    0    0 -0.16667594115E+02  0.20583666783E+01 -0.10091708116E+02  0.19593063560E+02  0.00000000000E+00 0.  1.
</event>
<event>
 7    1  0.3220798E-013  0.5930193E+02  0.7816164E-02  0.1266605E+00
        -11   -1    0    0    0    0  0.00000000000E+00  0.00000000000E+00  0.45593999997E+02  0.45594000000E+02  0.51100000000E-03 0.  1.
         11   -1    0    0    0    0 -0.00000000000E+00 -0.00000000000E+00 -0.45593999997E+02  0.45594000000E+02  0.51100000000E-03 0. -1.
    9900012    2    1    2    0    0  0.10168927736E+02 -0.48982520762E+01  0.29821496959E+02  0.59301927091E+02  0.49999969111E+02 0.  0.
         12    1    1    2    0    0 -0.10168927736E+02  0.48982520762E+01 -0.29821496959E+02  0.31886072909E+02  0.00000000000E+00 0. -1.
         11    1    3    3    0    0  0.14954227617E+02 -0.12534939917E+02  0.14207894964E+01  0.19564567089E+02  0.51100000000E-03 0. -1.
        -11    1    3    3    0    0 -0.22012970911E+01  0.12980256547E+01 -0.50145636313E+01  0.56281816031E+01  0.51100000000E-03 0.  1.
        -12    1    3    3    0    0 -0.25840027892E+01  0.63386621864E+01  0.33415271094E+02  0.34109178398E+02  0.00000000000E+00 0.  1.
</event>
<event>
 7    1  0.3220798E-013  0.5930186E+02  0.7816164E-02  0.1266605E+00
        -11   -1    0    0    0    0  0.00000000000E+00  0.00000000000E+00  0.45593999997E+02  0.45594000000E+02  0.51100000000E-03 0.  1.
         11   -1    0    0    0    0 -0.00000000000E+00 -0.00000000000E+00 -0.45593999997E+02  0.45594000000E+02  0.51100000000E-03 0. -1.
    9900012    2    1    2    0    0 -0.14877559139E+02 -0.17376751939E+02  0.22213348343E+02  0.59301856952E+02  0.49999841195E+02 0.  0.
         12    1    1    2    0    0  0.14877559139E+02  0.17376751939E+02 -0.22213348343E+02  0.31886143048E+02  0.00000000000E+00 0. -1.
         11    1    3    3    0    0 -0.58972086646E+01  0.37346949786E+00  0.15399991752E+02  0.16494735394E+02  0.51100000000E-03 0. -1.
        -11    1    3    3    0    0 -0.21930330085E+02 -0.97375945854E+01  0.11857705446E+02  0.26765001488E+02  0.51100000000E-03 0.  1.
        -12    1    3    3    0    0  0.12949979611E+02 -0.80126268513E+01 -0.50443488549E+01  0.16042120070E+02  0.00000000000E+00 0.  1.
</event>
<event>
 7    1  0.3220798E-013  0.5930195E+02  0.7816164E-02  0.1266605E+00
        -11   -1    0    0    0    0  0.00000000000E+00  0.00000000000E+00  0.45593999997E+02  0.45594000000E+02  0.51100000000E-03 0.  1.
         11   -1    0    0    0    0 -0.00000000000E+00 -0.00000000000E+00 -0.45593999997E+02  0.45594000000E+02  0.51100000000E-03 0. -1.
    9900012    2    1    2    0    0 -0.26304741788E+01 -0.22555157120E+02  0.22384494998E+02  0.59301950959E+02  0.50000012641E+02 0.  0.
         12    1    1    2    0    0  0.26304741788E+01  0.22555157120E+02 -0.22384494998E+02  0.31886049041E+02  0.00000000000E+00 0. -1.
         11    1    3    3    0    0  0.77978564393E+01 -0.24944070494E+01 -0.13806054803E+00  0.81882655399E+01  0.51100000000E-03 0. -1.
        -11    1    3    3    0    0  0.40831673093E+01 -0.15220949583E+02 -0.74740805168E+01  0.17441658216E+02  0.51100000000E-03 0.  1.
         12    1    3    3    0    0 -0.14511497927E+02 -0.48398004880E+01  0.29996636063E+02  0.33672027203E+02  0.00000000000E+00 0. -1.
</event>
<event>
 7    1  0.3220798E-013  0.5930195E+02  0.7816164E-02  0.1266605E+00
        -11   -1    0    0    0    0  0.00000000000E+00  0.00000000000E+00  0.45593999997E+02  0.45594000000E+02  0.51100000000E-03 0.  1.
         11   -1    0    0    0    0 -0.00000000000E+00 -0.00000000000E+00 -0.45593999997E+02  0.45594000000E+02  0.51100000000E-03 0. -1.
    9900012    2    1    2    0    0  0.11889769239E+02 -0.18710854721E+02  0.22918495293E+02  0.59301950959E+02  0.50000012642E+02 0.  0.
         12    1    1    2    0    0 -0.11889769239E+02  0.18710854721E+02 -0.22918495293E+02  0.31886049041E+02  0.00000000000E+00 0. -1.
         11    1    3    3    0    0  0.14016093237E+02 -0.10112149459E+01  0.85782923735E+01  0.16463915865E+02  0.51100000000E-03 0. -1.
        -11    1    3    3    0    0  0.79778219907E+01  0.45290544382E+01  0.15915257381E+02  0.18369904616E+02  0.51100000000E-03 0.  1.
         12    1    3    3    0    0 -0.10104145988E+02 -0.22228694213E+02 -0.15750544621E+01  0.24468130479E+02  0.00000000000E+00 0. -1.
</event>
<event>
 7    1  0.3220798E-013  0.5930195E+02  0.7816164E-02  0.1266605E+00
        -11   -1    0    0    0    0  0.00000000000E+00  0.00000000000E+00  0.45593999997E+02  0.45594000000E+02  0.51100000000E-03 0.  1.
         11   -1    0    0    0    0 -0.00000000000E+00 -0.00000000000E+00 -0.45593999997E+02  0.45594000000E+02  0.51100000000E-03 0. -1.
    9900012    2    1    2    0    0 -0.63969136251E+01  0.26359386313E+02  0.16762539244E+02  0.59301945483E+02  0.50000002654E+02 0.  0.
         12    1    1    2    0    0  0.63969136251E+01 -0.26359386313E+02 -0.16762539244E+02  0.31886054517E+02  0.00000000000E+00 0. -1.
         11    1    3    3    0    0 -0.19841631902E+01  0.17502657687E+02 -0.63194365539E+00  0.17626096638E+02  0.51100000000E-03 0. -1.
        -11    1    3    3    0    0  0.63286536191E+01  0.20636546360E+02  0.12757448050E+02  0.25073320149E+02  0.51100000000E-03 0.  1.
         12    1    3    3    0    0 -0.10741404054E+02 -0.11779817733E+02  0.46370348500E+01  0.16602528695E+02  0.00000000000E+00 0. -1.
</event>
<event>
 7    1  0.3220798E-013  0.5930196E+02  0.7816164E-02  0.1266605E+00
        -11   -1    0    0    0    0  0.00000000000E+00  0.00000000000E+00  0.45593999997E+02  0.45594000000E+02  0.51100000000E-03 0.  1.
         11   -1    0    0    0    0 -0.00000000000E+00 -0.00000000000E+00 -0.45593999997E+02  0.45594000000E+02  0.51100000000E-03 0. -1.
    9900012    2    1    2    0    0  0.25474673403E+02  0.37193358795E+00  0.19173482681E+02  0.59301956694E+02  0.50000023101E+02 0.  0.
         12    1    1    2    0    0 -0.25474673403E+02 -0.37193358795E+00 -0.19173482681E+02  0.31886043306E+02  0.00000000000E+00 0. -1.
         11    1    3    3    0    0  0.13714132482E+02  0.11666062753E+02  0.28705946530E+02  0.33885185795E+02  0.51100000000E-03 0. -1.
        -11    1    3    3    0    0  0.50194272040E+01  0.30635869562E+01  0.15328253000E+01  0.60769867662E+01  0.51100000000E-03 0.  1.
         12    1    3    3    0    0  0.67411137168E+01 -0.14357716121E+02 -0.11065289149E+02  0.19339784133E+02  0.00000000000E+00 0. -1.
</event>
<event>
 7    1  0.3220798E-013  0.5930192E+02  0.7816164E-02  0.1266605E+00
        -11   -1    0    0    0    0  0.00000000000E+00  0.00000000000E+00  0.45593999997E+02  0.45594000000E+02  0.51100000000E-03 0. -1.
         11   -1    0    0    0    0 -0.00000000000E+00 -0.00000000000E+00 -0.45593999997E+02  0.45594000000E+02  0.51100000000E-03 0.  1.
    9900012    2    1    2    0    0 -0.37057098858E+01  0.28470246533E+02 -0.13872084659E+02  0.59301922220E+02  0.49999960228E+02 0.  0.
         12    1    1    2    0    0  0.37057098858E+01 -0.28470246533E+02  0.13872084659E+02  0.31886077780E+02  0.00000000000E+00 0. -1.
         11    1    3    3    0    0 -0.83831476413E+01  0.59511787889E+00  0.31440220834E+01  0.89730822345E+01  0.51100000000E-03 0. -1.
        -11    1    3    3    0    0 -0.12582573385E+02  0.14960920837E+02  0.42965324567E+01  0.20015256598E+02  0.51100000000E-03 0.  1.
         12    1    3    3    0    0  0.17260011141E+02  0.12914207817E+02 -0.21312639199E+02  0.30313583387E+02  0.00000000000E+00 0. -1.
</event>
<event>
 7    1  0.3220798E-013  0.5930192E+02  0.7816164E-02  0.1266605E+00
        -11   -1    0    0    0    0  0.00000000000E+00  0.00000000000E+00  0.45593999997E+02  0.45594000000E+02  0.51100000000E-03 0. -1.
         11   -1    0    0    0    0 -0.00000000000E+00 -0.00000000000E+00 -0.45593999997E+02  0.45594000000E+02  0.51100000000E-03 0.  1.
    9900012    2    1    2    0    0  0.21151749319E+02  0.15473227192E+02  0.18163274862E+02  0.59301924471E+02  0.49999964332E+02 0.  0.
         12    1    1    2    0    0 -0.21151749319E+02 -0.15473227192E+02 -0.18163274862E+02  0.31886075529E+02  0.00000000000E+00 0. -1.
         11    1    3    3    0    0 -0.30712932109E+01 -0.14187783004E+01 -0.23987656066E+01  0.41472702528E+01  0.51100000000E-03 0. -1.
        -11    1    3    3    0    0  0.29795594515E+02 -0.35203506206E+01  0.11371120723E+02  0.32085397111E+02  0.51100000000E-03 0.  1.
         12    1    3    3    0    0 -0.55725519854E+01  0.20412356113E+02  0.91909197449E+01  0.23069257107E+02  0.00000000000E+00 0. -1.
</event>
<event>
 7    1  0.3220798E-013  0.5930193E+02  0.7816164E-02  0.1266605E+00
        -11   -1    0    0    0    0  0.00000000000E+00  0.00000000000E+00  0.45593999997E+02  0.45594000000E+02  0.51100000000E-03 0.  1.
         11   -1    0    0    0    0 -0.00000000000E+00 -0.00000000000E+00 -0.45593999997E+02  0.45594000000E+02  0.51100000000E-03 0. -1.
    9900012    2    1    2    0    0  0.37711399695E+01 -0.24053425058E+02  0.20589625710E+02  0.59301930305E+02  0.49999974974E+02 0.  0.
         12    1    1    2    0    0 -0.37711399695E+01  0.24053425058E+02 -0.20589625710E+02  0.31886069695E+02  0.00000000000E+00 0. -1.
         11    1    3    3    0    0 -0.17599988281E+02 -0.16286463009E+02  0.78318927323E+01  0.25225919386E+02  0.51100000000E-03 0. -1.
        -11    1    3    3    0    0  0.59612354992E+01 -0.24976630343E+01  0.16189918993E+02  0.17432387288E+02  0.51100000000E-03 0.  1.
         12    1    3    3    0    0  0.15409892752E+02 -0.52692990149E+01 -0.34321860150E+01  0.16643623631E+02  0.00000000000E+00 0. -1.
</event>
<event>
 7    1  0.3220798E-013  0.5930195E+02  0.7816164E-02  0.1266605E+00
        -11   -1    0    0    0    0  0.00000000000E+00  0.00000000000E+00  0.45593999997E+02  0.45594000000E+02  0.51100000000E-03 0. -1.
         11   -1    0    0    0    0 -0.00000000000E+00 -0.00000000000E+00 -0.45593999997E+02  0.45594000000E+02  0.51100000000E-03 0.  1.
    9900012    2    1    2    0    0 -0.89267630748E+01 -0.55851089853E+00 -0.30605901079E+02  0.59301949535E+02  0.50000010043E+02 0.  0.
         12    1    1    2    0    0  0.89267630748E+01  0.55851089853E+00  0.30605901079E+02  0.31886050465E+02  0.00000000000E+00 0. -1.
         11    1    3    3    0    0  0.18767529919E+01  0.10130600914E+01 -0.15998039683E+02  0.16139571447E+02  0.51100000000E-03 0. -1.
        -11    1    3    3    0    0 -0.13882255069E+02  0.41313816974E+01 -0.26168266952E+02  0.29909254689E+02  0.51100000000E-03 0.  1.
         12    1    3    3    0    0  0.30787390021E+01 -0.57029526873E+01  0.11560405556E+02  0.13253123398E+02  0.00000000000E+00 0. -1.
</event>
<event>
 7    1  0.3220798E-013  0.5930195E+02  0.7816164E-02  0.1266605E+00
        -11   -1    0    0    0    0  0.00000000000E+00  0.00000000000E+00  0.45593999997E+02  0.45594000000E+02  0.51100000000E-03 0.  1.
         11   -1    0    0    0    0 -0.00000000000E+00 -0.00000000000E+00 -0.45593999997E+02  0.45594000000E+02  0.51100000000E-03 0. -1.
    9900012    2    1    2    0    0 -0.15875141531E+02  0.90218330094E+01  0.26140137571E+02  0.59301946909E+02  0.50000005255E+02 0.  0.
         12    1    1    2    0    0  0.15875141531E+02 -0.90218330094E+01 -0.26140137571E+02  0.31886053091E+02  0.00000000000E+00 0. -1.
         11    1    3    3    0    0  0.79271692749E+01  0.53546145310E+01 -0.40759660296E+01  0.10398336830E+02  0.51100000000E-03 0. -1.
        -11    1    3    3    0    0 -0.27179420582E+01  0.14395578882E+02  0.95191686746E+01  0.17470960847E+02  0.51100000000E-03 0.  1.
         12    1    3    3    0    0 -0.21084368747E+02 -0.10728360404E+02  0.20696934926E+02  0.31432649233E+02  0.00000000000E+00 0. -1.
</event>
<event>
 7    1  0.3220798E-013  0.5930197E+02  0.7816164E-02  0.1266605E+00
        -11   -1    0    0    0    0  0.00000000000E+00  0.00000000000E+00  0.45593999997E+02  0.45594000000E+02  0.51100000000E-03 0. -1.
         11   -1    0    0    0    0 -0.00000000000E+00 -0.00000000000E+00 -0.45593999997E+02  0.45594000000E+02  0.51100000000E-03 0.  1.
    9900012    2    1    2    0    0  0.18045802375E+02 -0.55430779575E+01 -0.25697128588E+02  0.59301966784E+02  0.50000041503E+02 0.  0.
         12    1    1    2    0    0 -0.18045802375E+02  0.55430779575E+01  0.25697128588E+02  0.31886033216E+02  0.00000000000E+00 0. -1.
         11    1    3    3    0    0 -0.12163196891E+02 -0.86400165732E+01 -0.29952461225E+01  0.15217251545E+02  0.51100000000E-03 0. -1.
        -11    1    3    3    0    0 -0.90486575354E+00  0.16684360832E+01  0.31027992147E+01  0.36372825328E+01  0.51100000000E-03 0.  1.
        -12    1    3    3    0    0  0.31113865019E+02  0.14285025325E+01 -0.25804681680E+02  0.40447432706E+02  0.00000000000E+00 0.  1.
</event>
<event>
 7    1  0.3220798E-013  0.5930194E+02  0.7816164E-02  0.1266605E+00
        -11   -1    0    0    0    0  0.00000000000E+00  0.00000000000E+00  0.45593999997E+02  0.45594000000E+02  0.51100000000E-03 0.  1.
         11   -1    0    0    0    0 -0.00000000000E+00 -0.00000000000E+00 -0.45593999997E+02  0.45594000000E+02  0.51100000000E-03 0. -1.
    9900012    2    1    2    0    0  0.11216820482E+02  0.28042667951E+02  0.10223126018E+02  0.59301943594E+02  0.49999999208E+02 0.  0.
         12    1    1    2    0    0 -0.11216820482E+02 -0.28042667951E+02 -0.10223126018E+02  0.31886056406E+02  0.00000000000E+00 0. -1.
         11    1    3    3    0    0 -0.55613987071E+01 -0.51661002323E+01  0.83099227177E+01  0.11254890627E+02  0.51100000000E-03 0. -1.
        -11    1    3    3    0    0 -0.10713353792E+01  0.79763649297E+01  0.12933906119E+02  0.15233387172E+02  0.51100000000E-03 0.  1.
         12    1    3    3    0    0  0.17849554569E+02  0.25232403254E+02 -0.11020702818E+02  0.32813665795E+02  0.00000000000E+00 0. -1.
</event>
<event>
 7    1  0.3220798E-013  0.5930200E+02  0.7816164E-02  0.1266605E+00
        -11   -1    0    0    0    0  0.00000000000E+00  0.00000000000E+00  0.45593999997E+02  0.45594000000E+02  0.51100000000E-03 0.  1.
         11   -1    0    0    0    0 -0.00000000000E+00 -0.00000000000E+00 -0.45593999997E+02  0.45594000000E+02  0.51100000000E-03 0. -1.
    9900012    2    1    2    0    0 -0.14361342282E+02  0.22274015913E+02 -0.17729546556E+02  0.59302003730E+02  0.50000108883E+02 0.  0.
         12    1    1    2    0    0  0.14361342282E+02 -0.22274015913E+02  0.17729546556E+02  0.31885996270E+02  0.00000000000E+00 0. -1.
         11    1    3    3    0    0 -0.40521718007E+01 -0.85041649484E+01 -0.65278500724E+01  0.11460966129E+02  0.51100000000E-03 0. -1.
        -11    1    3    3    0    0 -0.19352232631E+02  0.12092220516E+02 -0.14184387871E+02  0.26868709763E+02  0.51100000000E-03 0.  1.
        -12    1    3    3    0    0  0.90430621498E+01  0.18685960345E+02  0.29826913868E+01  0.20972327838E+02  0.00000000000E+00 0.  1.
</event>
<event>
 7    1  0.3220798E-013  0.5930196E+02  0.7816164E-02  0.1266605E+00
        -11   -1    0    0    0    0  0.00000000000E+00  0.00000000000E+00  0.45593999997E+02  0.45594000000E+02  0.51100000000E-03 0.  1.
         11   -1    0    0    0    0 -0.00000000000E+00 -0.00000000000E+00 -0.45593999997E+02  0.45594000000E+02  0.51100000000E-03 0. -1.
    9900012    2    1    2    0    0  0.31703152178E+02  0.23414617902E+01 -0.24793821725E+01  0.59301958582E+02  0.50000026544E+02 0.  0.
         12    1    1    2    0    0 -0.31703152178E+02 -0.23414617902E+01  0.24793821725E+01  0.31886041418E+02  0.00000000000E+00 0. -1.
         11    1    3    3    0    0  0.26036543081E+02 -0.57774899898E+01 -0.16256069392E+01  0.26719348128E+02  0.51100000000E-03 0. -1.
        -11    1    3    3    0    0  0.79087322577E+01 -0.46020362768E+01  0.11508710279E+02  0.14702965563E+02  0.51100000000E-03 0.  1.
         12    1    3    3    0    0 -0.22421231608E+01  0.12720988057E+02 -0.12362485512E+02  0.17879644891E+02  0.00000000000E+00 0. -1.
</event>
<event>
 7    1  0.3220798E-013  0.5930193E+02  0.7816164E-02  0.1266605E+00
        -11   -1    0    0    0    0  0.00000000000E+00  0.00000000000E+00  0.45593999997E+02  0.45594000000E+02  0.51100000000E-03 0.  1.
         11   -1    0    0    0    0 -0.00000000000E+00 -0.00000000000E+00 -0.45593999997E+02  0.45594000000E+02  0.51100000000E-03 0. -1.
    9900012    2    1    2    0    0  0.76051156217E+00  0.29432380566E+02  0.12242471201E+02  0.59301929299E+02  0.49999973139E+02 0.  0.
         12    1    1    2    0    0 -0.76051156217E+00 -0.29432380566E+02 -0.12242471201E+02  0.31886070701E+02  0.00000000000E+00 0. -1.
         11    1    3    3    0    0 -0.18110703531E+01  0.11260589761E+02 -0.10638430285E+02  0.15596700189E+02  0.51100000000E-03 0. -1.
        -11    1    3    3    0    0  0.44129145394E+01  0.23855516247E+02  0.48899094566E+01  0.24748145080E+02  0.51100000000E-03 0.  1.
        -12    1    3    3    0    0 -0.18413326241E+01 -0.56837254412E+01  0.17990992030E+02  0.18957084030E+02  0.00000000000E+00 0.  1.
</event>
<event>
 7    1  0.3220798E-013  0.5930195E+02  0.7816164E-02  0.1266605E+00
        -11   -1    0    0    0    0  0.00000000000E+00  0.00000000000E+00  0.45593999997E+02  0.45594000000E+02  0.51100000000E-03 0.  1.
         11   -1    0    0    0    0 -0.00000000000E+00 -0.00000000000E+00 -0.45593999997E+02  0.45594000000E+02  0.51100000000E-03 0. -1.
    9900012    2    1    2    0    0  0.25065854163E+02 -0.91876348439E+01  0.17435904256E+02  0.59301946055E+02  0.50000003698E+02 0.  0.
         12    1    1    2    0    0 -0.25065854163E+02  0.91876348439E+01 -0.17435904256E+02  0.31886053945E+02  0.00000000000E+00 0. -1.
         11    1    3    3    0    0 -0.10888216069E+02 -0.20049837548E+01  0.56904455523E+01  0.12448067314E+02  0.51100000000E-03 0. -1.
        -11    1    3    3    0    0  0.24772782447E+02 -0.44293946100E+01  0.20443344890E+02  0.32422841290E+02  0.51100000000E-03 0.  1.
         12    1    3    3    0    0  0.11181287785E+02 -0.27532564792E+01 -0.86978861871E+01  0.14431037451E+02  0.00000000000E+00 0. -1.
</event>
<event>
 7    1  0.3220798E-013  0.5930194E+02  0.7816164E-02  0.1266605E+00
        -11   -1    0    0    0    0  0.00000000000E+00  0.00000000000E+00  0.45593999997E+02  0.45594000000E+02  0.51100000000E-03 0. -1.
         11   -1    0    0    0    0 -0.00000000000E+00 -0.00000000000E+00 -0.45593999997E+02  0.45594000000E+02  0.51100000000E-03 0.  1.
    9900012    2    1    2    0    0 -0.30093179643E+00  0.26280469774E+02 -0.18054562435E+02  0.59301939155E+02  0.49999991114E+02 0.  0.
         12    1    1    2    0    0  0.30093179643E+00 -0.26280469774E+02  0.18054562435E+02  0.31886060845E+02  0.00000000000E+00 0. -1.
         11    1    3    3    0    0  0.14360128404E+02  0.90345623068E+01  0.54589038692E+01  0.17822352133E+02  0.51100000000E-03 0. -1.
        -11    1    3    3    0    0  0.55358614680E+01  0.96709953904E+01 -0.14028315722E+02  0.17915567428E+02  0.51100000000E-03 0.  1.
        -12    1    3    3    0    0 -0.20196921668E+02  0.75749120765E+01 -0.94851505827E+01  0.23564019594E+02  0.00000000000E+00 0.  1.
</event>
<event>
 7    1  0.3220798E-013  0.5930191E+02  0.7816164E-02  0.1266605E+00
        -11   -1    0    0    0    0  0.00000000000E+00  0.00000000000E+00  0.45593999997E+02  0.45594000000E+02  0.51100000000E-03 0. -1.
         11   -1    0    0    0    0 -0.00000000000E+00 -0.00000000000E+00 -0.45593999997E+02  0.45594000000E+02  0.51100000000E-03 0.  1.
    9900012    2    1    2    0    0 -0.10455511509E+02 -0.29883193516E+02  0.37947401589E+01  0.59301905406E+02  0.49999929562E+02 0.  0.
         12    1    1    2    0    0  0.10455511509E+02  0.29883193516E+02 -0.37947401589E+01  0.31886094594E+02  0.00000000000E+00 0. -1.
         11    1    3    3    0    0  0.21394781717E+01  0.16948328054E+01  0.48894681978E+01  0.55997075463E+01  0.51100000000E-03 0. -1.
        -11    1    3    3    0    0  0.95680881012E+01 -0.29779585077E+02  0.15031028931E+01  0.31315033384E+02  0.51100000000E-03 0.  1.
        -12    1    3    3    0    0 -0.22163077782E+02 -0.17984412438E+01 -0.25978309320E+01  0.22387164475E+02  0.00000000000E+00 0.  1.
</event>
<event>
 7    1  0.3220798E-013  0.5930182E+02  0.7816164E-02  0.1266605E+00
        -11   -1    0    0    0    0  0.00000000000E+00  0.00000000000E+00  0.45593999997E+02  0.45594000000E+02  0.51100000000E-03 0.  1.
         11   -1    0    0    0    0 -0.00000000000E+00 -0.00000000000E+00 -0.45593999997E+02  0.45594000000E+02  0.51100000000E-03 0. -1.
    9900012    2    1    2    0    0 -0.14678683812E+02  0.16179620657E+01  0.28260342459E+02  0.59301819363E+02  0.49999772641E+02 0.  0.
         12    1    1    2    0    0  0.14678683812E+02 -0.16179620657E+01 -0.28260342459E+02  0.31886180637E+02  0.00000000000E+00 0. -1.
         11    1    3    3    0    0 -0.16784256420E+02 -0.18034233027E+01  0.87439955656E+01  0.19011077242E+02  0.51100000000E-03 0. -1.
        -11    1    3    3    0    0  0.37135965760E+01 -0.55656635385E+01  0.27414218664E+02  0.28218908473E+02  0.51100000000E-03 0.  1.
         12    1    3    3    0    0 -0.16080239674E+01  0.89870489069E+01 -0.78978717704E+01  0.12071833649E+02  0.00000000000E+00 0. -1.
</event>
<event>
 7    1  0.3220798E-013  0.5930196E+02  0.7816164E-02  0.1266605E+00
        -11   -1    0    0    0    0  0.00000000000E+00  0.00000000000E+00  0.45593999997E+02  0.45594000000E+02  0.51100000000E-03 0. -1.
         11   -1    0    0    0    0 -0.00000000000E+00 -0.00000000000E+00 -0.45593999997E+02  0.45594000000E+02  0.51100000000E-03 0.  1.
    9900012    2    1    2    0    0 -0.20526199468E+02  0.42377883197E+01 -0.24029899584E+02  0.59301956212E+02  0.50000022221E+02 0.  0.
         12    1    1    2    0    0  0.20526199468E+02 -0.42377883197E+01  0.24029899584E+02  0.31886043788E+02  0.00000000000E+00 0. -1.
         11    1    3    3    0    0 -0.10574097510E+02  0.75880942008E+01 -0.16469669460E+02  0.20991444070E+02  0.51100000000E-03 0. -1.
        -11    1    3    3    0    0  0.35799783546E+01 -0.17035100794E+02 -0.77728676302E+01  0.19063797511E+02  0.51100000000E-03 0.  1.
         12    1    3    3    0    0 -0.13532080313E+02  0.13684794913E+02  0.21263750613E+00  0.19246714631E+02  0.00000000000E+00 0. -1.
</event>
<event>
 7    1  0.3220798E-013  0.5930194E+02  0.7816164E-02  0.1266605E+00
        -11   -1    0    0    0    0  0.00000000000E+00  0.00000000000E+00  0.45593999997E+02  0.45594000000E+02  0.51100000000E-03 0.  1.
         11   -1    0    0    0    0 -0.00000000000E+00 -0.00000000000E+00 -0.45593999997E+02  0.45594000000E+02  0.51100000000E-03 0. -1.
    9900012    2    1    2    0    0  0.11746951329E+02 -0.28231512206E+02 -0.90394403584E+01  0.59301943032E+02  0.49999998183E+02 0.  0.
         12    1    1    2    0    0 -0.11746951329E+02  0.28231512206E+02  0.90394403584E+01  0.31886056968E+02  0.00000000000E+00 0. -1.
         11    1    3    3    0    0  0.11815562945E+02  0.52410969760E+01 -0.86250086846E+00  0.12954556466E+02  0.51100000000E-03 0. -1.
        -11    1    3    3    0    0  0.12394829650E+02 -0.15569272898E+02 -0.13304698835E+02  0.23938443391E+02  0.51100000000E-03 0.  1.
        -12    1    3    3    0    0 -0.12463441266E+02 -0.17903336284E+02  0.51277593451E+01  0.22408943174E+02  0.00000000000E+00 0.  1.
</event>
<event>
 7    1  0.3220798E-013  0.5930192E+02  0.7816164E-02  0.1266605E+00
        -11   -1    0    0    0    0  0.00000000000E+00  0.00000000000E+00  0.45593999997E+02  0.45594000000E+02  0.51100000000E-03 0.  1.
         11   -1    0    0    0    0 -0.00000000000E+00 -0.00000000000E+00 -0.45593999997E+02  0.45594000000E+02  0.51100000000E-03 0. -1.
    9900012    2    1    2    0    0  0.12714435966E+01  0.30296418177E+02 -0.98606463311E+01  0.59301923584E+02  0.49999962715E+02 0.  0.
         12    1    1    2    0    0 -0.12714435966E+01 -0.30296418177E+02  0.98606463311E+01  0.31886076416E+02  0.00000000000E+00 0. -1.
         11    1    3    3    0    0  0.59166786966E+01 -0.60253055134E+01 -0.18588091384E+02  0.20416379084E+02  0.51100000000E-03 0. -1.
        -11    1    3    3    0    0 -0.13330921808E+00  0.28375873095E+01  0.37953305089E+01  0.47406968918E+01  0.51100000000E-03 0.  1.
        -12    1    3    3    0    0 -0.45119258820E+01  0.33484136381E+02  0.49321145441E+01  0.34144847608E+02  0.00000000000E+00 0.  1.
</event>
<event>
 7    1  0.3220798E-013  0.5930193E+02  0.7816164E-02  0.1266605E+00
        -11   -1    0    0    0    0  0.00000000000E+00  0.00000000000E+00  0.45593999997E+02  0.45594000000E+02  0.51100000000E-03 0.  1.
         11   -1    0    0    0    0 -0.00000000000E+00 -0.00000000000E+00 -0.45593999997E+02  0.45594000000E+02  0.51100000000E-03 0. -1.
    9900012    2    1    2    0    0 -0.15744075344E+02 -0.10977259174E+02  0.25462623433E+02  0.59301932204E+02  0.49999978436E+02 0.  0.
         12    1    1    2    0    0  0.15744075344E+02  0.10977259174E+02 -0.25462623433E+02  0.31886067796E+02  0.00000000000E+00 0. -1.
         11    1    3    3    0    0  0.13205961624E+01  0.67886933613E+01  0.87949260186E+00  0.69716453780E+01  0.51100000000E-03 0. -1.
        -11    1    3    3    0    0 -0.57331795012E+01  0.78169106285E+01  0.22229628166E+02  0.24251387746E+02  0.51100000000E-03 0.  1.
        -12    1    3    3    0    0 -0.11331492005E+02 -0.25582863164E+02  0.23535026656E+01  0.28078899079E+02  0.00000000000E+00 0.  1.
</event>
<event>
 7    1  0.3220798E-013  0.5930195E+02  0.7816164E-02  0.1266605E+00
        -11   -1    0    0    0    0  0.00000000000E+00  0.00000000000E+00  0.45593999997E+02  0.45594000000E+02  0.51100000000E-03 0.  1.
         11   -1    0    0    0    0 -0.00000000000E+00 -0.00000000000E+00 -0.45593999997E+02  0.45594000000E+02  0.51100000000E-03 0. -1.
    9900012    2    1    2    0    0  0.16590990091E+02 -0.95661474973E+01  0.25494076794E+02  0.59301951613E+02  0.50000013834E+02 0.  0.
         12    1    1    2    0    0 -0.16590990091E+02  0.95661474973E+01 -0.25494076794E+02  0.31886048387E+02  0.00000000000E+00 0. -1.
         11    1    3    3    0    0 -0.12760930466E+02 -0.77452479137E+01 -0.35451460242E+01  0.15342694424E+02  0.51100000000E-03 0. -1.
        -11    1    3    3    0    0  0.25915936511E+00 -0.34423566048E+01  0.55341447661E+01  0.65225563335E+01  0.51100000000E-03 0.  1.
        -12    1    3    3    0    0  0.29092761192E+02  0.16214570212E+01  0.23505078053E+02  0.37436700855E+02  0.00000000000E+00 0.  1.
</event>
<event>
 7    1  0.3220798E-013  0.5930196E+02  0.7816164E-02  0.1266605E+00
        -11   -1    0    0    0    0  0.00000000000E+00  0.00000000000E+00  0.45593999997E+02  0.45594000000E+02  0.51100000000E-03 0.  1.
         11   -1    0    0    0    0 -0.00000000000E+00 -0.00000000000E+00 -0.45593999997E+02  0.45594000000E+02  0.51100000000E-03 0. -1.
    9900012    2    1    2    0    0 -0.69769966123E+01  0.12811902043E+02  0.28353066141E+02  0.59301957986E+02  0.50000025457E+02 0.  0.
         12    1    1    2    0    0  0.69769966123E+01 -0.12811902043E+02 -0.28353066141E+02  0.31886042014E+02  0.00000000000E+00 0. -1.
         11    1    3    3    0    0  0.29549304745E+01 -0.50877130031E+01  0.25721497814E+01  0.64212453987E+01  0.51100000000E-03 0. -1.
        -11    1    3    3    0    0  0.14551346630E+02  0.15643224416E+02  0.14559381052E+02  0.25853969439E+02  0.51100000000E-03 0.  1.
         12    1    3    3    0    0 -0.24483273717E+02  0.22563906300E+01  0.11221535308E+02  0.27026743149E+02  0.00000000000E+00 0. -1.
</event>
<event>
 7    1  0.3220798E-013  0.5930194E+02  0.7816164E-02  0.1266605E+00
        -11   -1    0    0    0    0  0.00000000000E+00  0.00000000000E+00  0.45593999997E+02  0.45594000000E+02  0.51100000000E-03 0.  1.
         11   -1    0    0    0    0 -0.00000000000E+00 -0.00000000000E+00 -0.45593999997E+02  0.45594000000E+02  0.51100000000E-03 0. -1.
    9900012    2    1    2    0    0 -0.31020303968E+01  0.28906711673E+02  0.13095818813E+02  0.59301936544E+02  0.49999986351E+02 0.  0.
         12    1    1    2    0    0  0.31020303968E+01 -0.28906711673E+02 -0.13095818813E+02  0.31886063456E+02  0.00000000000E+00 0. -1.
         11    1    3    3    0    0  0.26758680387E+01  0.29951004625E+02  0.23518034662E+02  0.38174872658E+02  0.51100000000E-03 0. -1.
        -11    1    3    3    0    0  0.55116970612E+01  0.31292957293E+01 -0.37770819022E+01  0.73781870546E+01  0.51100000000E-03 0.  1.
        -12    1    3    3    0    0 -0.11289595497E+02 -0.41735886806E+01 -0.66451339473E+01  0.13748876832E+02  0.00000000000E+00 0.  1.
</event>
<event>
 7    1  0.3220798E-013  0.5930194E+02  0.7816164E-02  0.1266605E+00
        -11   -1    0    0    0    0  0.00000000000E+00  0.00000000000E+00  0.45593999997E+02  0.45594000000E+02  0.51100000000E-03 0. -1.
         11   -1    0    0    0    0 -0.00000000000E+00 -0.00000000000E+00 -0.45593999997E+02  0.45594000000E+02  0.51100000000E-03 0.  1.
    9900012    2    1    2    0    0  0.28762921348E+02 -0.97662756782E+01 -0.96971649661E+01  0.59301940452E+02  0.49999993479E+02 0.  0.
         12    1    1    2    0    0 -0.28762921348E+02  0.97662756782E+01  0.96971649661E+01  0.31886059548E+02  0.00000000000E+00 0. -1.
         11    1    3    3    0    0  0.25060818411E+02  0.30218139494E+01  0.10920017307E+02  0.27503140861E+02  0.51100000000E-03 0. -1.
        -11    1    3    3    0    0 -0.76807430076E+01 -0.58496247531E+01 -0.38888484103E+01  0.10408413189E+02  0.51100000000E-03 0.  1.
        -12    1    3    3    0    0  0.11382845945E+02 -0.69384648744E+01 -0.16728333862E+02  0.21390386402E+02  0.00000000000E+00 0.  1.
</event>
<event>
 7    1  0.3220798E-013  0.5930195E+02  0.7816164E-02  0.1266605E+00
        -11   -1    0    0    0    0  0.00000000000E+00  0.00000000000E+00  0.45593999997E+02  0.45594000000E+02  0.51100000000E-03 0. -1.
         11   -1    0    0    0    0 -0.00000000000E+00 -0.00000000000E+00 -0.45593999997E+02  0.45594000000E+02  0.51100000000E-03 0.  1.
    9900012    2    1    2    0    0 -0.24893802366E+02 -0.27672050169E+01 -0.19732244636E+02  0.59301948219E+02  0.50000007644E+02 0.  0.
         12    1    1    2    0    0  0.24893802366E+02  0.27672050169E+01  0.19732244636E+02  0.31886051781E+02  0.00000000000E+00 0. -1.
         11    1    3    3    0    0 -0.15603545831E+02 -0.10176471347E+02 -0.30394682323E+01  0.18875104741E+02  0.51100000000E-03 0. -1.
        -11    1    3    3    0    0 -0.19461860721E+02  0.13561521285E+02 -0.15809780328E+02  0.28506631449E+02  0.51100000000E-03 0.  1.
         12    1    3    3    0    0  0.10171604186E+02 -0.61522549545E+01 -0.88299607545E+00  0.11920212029E+02  0.00000000000E+00 0. -1.
</event>
<event>
 7    1  0.3220798E-013  0.5930196E+02  0.7816164E-02  0.1266605E+00
        -11   -1    0    0    0    0  0.00000000000E+00  0.00000000000E+00  0.45593999997E+02  0.45594000000E+02  0.51100000000E-03 0.  1.
         11   -1    0    0    0    0 -0.00000000000E+00 -0.00000000000E+00 -0.45593999997E+02  0.45594000000E+02  0.51100000000E-03 0. -1.
    9900012    2    1    2    0    0 -0.57380069746E+01 -0.30584422453E+02 -0.69561358114E+01  0.59301961578E+02  0.50000032008E+02 0.  0.
         12    1    1    2    0    0  0.57380069746E+01  0.30584422453E+02  0.69561358114E+01  0.31886038422E+02  0.00000000000E+00 0. -1.
         11    1    3    3    0    0 -0.13566963077E+01 -0.18386700445E+00 -0.47880637214E+01  0.49799584745E+01  0.51100000000E-03 0. -1.
        -11    1    3    3    0    0 -0.22030139150E+02 -0.22598804521E+02 -0.10560014566E+02  0.33279827293E+02  0.51100000000E-03 0.  1.
         12    1    3    3    0    0  0.17648828483E+02 -0.78017509273E+01  0.83919424755E+01  0.21042175811E+02  0.00000000000E+00 0. -1.
</event>
<event>
 7    1  0.3220798E-013  0.5930198E+02  0.7816164E-02  0.1266605E+00
        -11   -1    0    0    0    0  0.00000000000E+00  0.00000000000E+00  0.45593999997E+02  0.45594000000E+02  0.51100000000E-03 0.  1.
         11   -1    0    0    0    0 -0.00000000000E+00 -0.00000000000E+00 -0.45593999997E+02  0.45594000000E+02  0.51100000000E-03 0. -1.
    9900012    2    1    2    0    0  0.15960820216E+02 -0.14100327509E+02  0.23730806493E+02  0.59301981204E+02  0.50000067801E+02 0.  0.
         12    1    1    2    0    0 -0.15960820216E+02  0.14100327509E+02 -0.23730806493E+02  0.31886018796E+02  0.00000000000E+00 0. -1.
         11    1    3    3    0    0 -0.12565176093E+01 -0.91426220088E+01 -0.54943952968E+01  0.10740333032E+02  0.51100000000E-03 0. -1.
        -11    1    3    3    0    0 -0.52330794441E+01 -0.76826624861E+01  0.23443404943E+02  0.25219073316E+02  0.51100000000E-03 0.  1.
         12    1    3    3    0    0  0.22450417269E+02  0.27249569858E+01  0.57817968468E+01  0.23342574856E+02  0.00000000000E+00 0. -1.
</event>
<event>
 7    1  0.3220798E-013  0.5930191E+02  0.7816164E-02  0.1266605E+00
        -11   -1    0    0    0    0  0.00000000000E+00  0.00000000000E+00  0.45593999997E+02  0.45594000000E+02  0.51100000000E-03 0.  1.
         11   -1    0    0    0    0 -0.00000000000E+00 -0.00000000000E+00 -0.45593999997E+02  0.45594000000E+02  0.51100000000E-03 0. -1.
    9900012    2    1    2    0    0  0.21682526714E+02  0.12097977665E+02  0.20005747136E+02  0.59301906687E+02  0.49999931899E+02 0.  0.
         12    1    1    2    0    0 -0.21682526714E+02 -0.12097977665E+02 -0.20005747136E+02  0.31886093313E+02  0.00000000000E+00 0. -1.
         11    1    3    3    0    0  0.15242466710E+02 -0.12061304193E+01 -0.30618739385E+01  0.15593672251E+02  0.51100000000E-03 0. -1.
        -11    1    3    3    0    0  0.19539154286E+02  0.23266789911E+01  0.93112471218E+01  0.21769044733E+02  0.51100000000E-03 0.  1.
        -12    1    3    3    0    0 -0.13099094282E+02  0.10977429094E+02  0.13756373953E+02  0.21939189703E+02  0.00000000000E+00 0.  1.
</event>
<event>
 7    1  0.3220798E-013  0.5930194E+02  0.7816164E-02  0.1266605E+00
        -11   -1    0    0    0    0  0.00000000000E+00  0.00000000000E+00  0.45593999997E+02  0.45594000000E+02  0.51100000000E-03 0. -1.
         11   -1    0    0    0    0 -0.00000000000E+00 -0.00000000000E+00 -0.45593999997E+02  0.45594000000E+02  0.51100000000E-03 0.  1.
    9900012    2    1    2    0    0 -0.51714888671E+01 -0.15068408200E+02 -0.27621002246E+02  0.59301937404E+02  0.49999987921E+02 0.  0.
         12    1    1    2    0    0  0.51714888671E+01  0.15068408200E+02  0.27621002246E+02  0.31886062596E+02  0.00000000000E+00 0. -1.
         11    1    3    3    0    0  0.93364388563E+01  0.11619561117E+01 -0.37752891553E+01  0.10137654610E+02  0.51100000000E-03 0. -1.
        -11    1    3    3    0    0 -0.10911296880E+02  0.28159276854E+01 -0.27246891670E+02  0.29485232817E+02  0.51100000000E-03 0.  1.
         12    1    3    3    0    0 -0.35966308430E+01 -0.19046291998E+02  0.34011785799E+01  0.19679049977E+02  0.00000000000E+00 0. -1.
</event>
<event>
 7    1  0.3220798E-013  0.5930193E+02  0.7816164E-02  0.1266605E+00
        -11   -1    0    0    0    0  0.00000000000E+00  0.00000000000E+00  0.45593999997E+02  0.45594000000E+02  0.51100000000E-03 0.  1.
         11   -1    0    0    0    0 -0.00000000000E+00 -0.00000000000E+00 -0.45593999997E+02  0.45594000000E+02  0.51100000000E-03 0. -1.
    9900012    2    1    2    0    0  0.21398582285E+02  0.16973529024E+02  0.16453617814E+02  0.59301928581E+02  0.49999971830E+02 0.  0.
         12    1    1    2    0    0 -0.21398582285E+02 -0.16973529024E+02 -0.16453617814E+02  0.31886071419E+02  0.00000000000E+00 0. -1.
         11    1    3    3    0    0 -0.30024198624E+01 -0.39310640877E+00 -0.73933606325E+01  0.79894204660E+01  0.51100000000E-03 0. -1.
        -11    1    3    3    0    0 -0.50654617715E+01  0.12415086526E+02  0.15067348294E+02  0.20169736272E+02  0.51100000000E-03 0.  1.
         12    1    3    3    0    0  0.29466463919E+02  0.49515489069E+01  0.87796301523E+01  0.31142771843E+02  0.00000000000E+00 0. -1.
</event>
<event>
 7    1  0.3220798E-013  0.5930195E+02  0.7816164E-02  0.1266605E+00
        -11   -1    0    0    0    0  0.00000000000E+00  0.00000000000E+00  0.45593999997E+02  0.45594000000E+02  0.51100000000E-03 0.  1.
         11   -1    0    0    0    0 -0.00000000000E+00 -0.00000000000E+00 -0.45593999997E+02  0.45594000000E+02  0.51100000000E-03 0. -1.
    9900012    2    1    2    0    0 -0.22022566780E+02 -0.42604379408E+01  0.22662203667E+02  0.59301948911E+02  0.50000008906E+02 0.  0.
         12    1    1    2    0    0  0.22022566780E+02  0.42604379408E+01 -0.22662203667E+02  0.31886051089E+02  0.00000000000E+00 0. -1.
         11    1    3    3    0    0 -0.40532975041E+01 -0.14347198284E+02  0.65030701665E+01  0.16265338641E+02  0.51100000000E-03 0. -1.
        -11    1    3    3    0    0 -0.15540906450E+02 -0.95042120978E+01  0.11779660790E+01  0.18254791843E+02  0.51100000000E-03 0.  1.
         12    1    3    3    0    0 -0.24283628258E+01  0.19590972441E+02  0.14981167421E+02  0.24781818426E+02  0.00000000000E+00 0. -1.
</event>
<event>
 7    1  0.3220798E-013  0.5930195E+02  0.7816164E-02  0.1266605E+00
        -11   -1    0    0    0    0  0.00000000000E+00  0.00000000000E+00  0.45593999997E+02  0.45594000000E+02  0.51100000000E-03 0.  1.
         11   -1    0    0    0    0 -0.00000000000E+00 -0.00000000000E+00 -0.45593999997E+02  0.45594000000E+02  0.51100000000E-03 0. -1.
    9900012    2    1    2    0    0  0.30716247995E+02  0.42212264086E+01 -0.74440123562E+01  0.59301953471E+02  0.50000017222E+02 0.  0.
         12    1    1    2    0    0 -0.30716247995E+02 -0.42212264086E+01  0.74440123562E+01  0.31886046529E+02  0.00000000000E+00 0. -1.
         11    1    3    3    0    0 -0.31133207749E+01  0.18473402210E+01 -0.37160596051E+01  0.51879216830E+01  0.51100000000E-03 0. -1.
        -11    1    3    3    0    0  0.18859315514E+02  0.20030508308E+02  0.73129539829E+01  0.28467074683E+02  0.51100000000E-03 0.  1.
         12    1    3    3    0    0  0.14970253256E+02 -0.17656622121E+02 -0.11040906734E+02  0.25646957105E+02  0.00000000000E+00 0. -1.
</event>
<event>
 7    1  0.3220798E-013  0.5930195E+02  0.7816164E-02  0.1266605E+00
        -11   -1    0    0    0    0  0.00000000000E+00  0.00000000000E+00  0.45593999997E+02  0.45594000000E+02  0.51100000000E-03 0. -1.
         11   -1    0    0    0    0 -0.00000000000E+00 -0.00000000000E+00 -0.45593999997E+02  0.45594000000E+02  0.51100000000E-03 0.  1.
    9900012    2    1    2    0    0 -0.22705717401E+00  0.18409596970E+02 -0.26033736815E+02  0.59301948691E+02  0.50000008504E+02 0.  0.
         12    1    1    2    0    0  0.22705717401E+00 -0.18409596970E+02  0.26033736815E+02  0.31886051309E+02  0.00000000000E+00 0. -1.
         11    1    3    3    0    0  0.16047575129E+01  0.14558073655E+02 -0.47116598561E+01  0.15385463727E+02  0.51100000000E-03 0. -1.
        -11    1    3    3    0    0  0.87247166126E+01  0.15314421332E+02 -0.22155311204E+02  0.28310951865E+02  0.51100000000E-03 0.  1.
        -12    1    3    3    0    0 -0.10556531300E+02 -0.11462898017E+02  0.83323424491E+00  0.15605533100E+02  0.00000000000E+00 0.  1.
</event>
<event>
 7    1  0.3220798E-013  0.5930195E+02  0.7816164E-02  0.1266605E+00
        -11   -1    0    0    0    0  0.00000000000E+00  0.00000000000E+00  0.45593999997E+02  0.45594000000E+02  0.51100000000E-03 0.  1.
         11   -1    0    0    0    0 -0.00000000000E+00 -0.00000000000E+00 -0.45593999997E+02  0.45594000000E+02  0.51100000000E-03 0. -1.
    9900012    2    1    2    0    0  0.31061704550E+02 -0.12357202091E+01  0.70967585643E+01  0.59301945429E+02  0.50000002556E+02 0.  0.
         12    1    1    2    0    0 -0.31061704550E+02  0.12357202091E+01 -0.70967585643E+01  0.31886054571E+02  0.00000000000E+00 0. -1.
         11    1    3    3    0    0  0.28428679721E+01 -0.42470664783E+01 -0.74494816071E+01  0.90340604632E+01  0.51100000000E-03 0. -1.
        -11    1    3    3    0    0  0.63463461555E+01 -0.34802531874E+01 -0.12768917524E+02  0.14677653994E+02  0.51100000000E-03 0.  1.
        -12    1    3    3    0    0  0.21872490422E+02  0.64915994566E+01  0.27315157695E+02  0.35590230972E+02  0.00000000000E+00 0.  1.
</event>
<event>
 7    1  0.3220798E-013  0.5930196E+02  0.7816164E-02  0.1266605E+00
        -11   -1    0    0    0    0  0.00000000000E+00  0.00000000000E+00  0.45593999997E+02  0.45594000000E+02  0.51100000000E-03 0.  1.
         11   -1    0    0    0    0 -0.00000000000E+00 -0.00000000000E+00 -0.45593999997E+02  0.45594000000E+02  0.51100000000E-03 0. -1.
    9900012    2    1    2    0    0 -0.80083303913E+01 -0.13058044767E+02  0.27965582725E+02  0.59301957506E+02  0.50000024580E+02 0.  0.
         12    1    1    2    0    0  0.80083303913E+01  0.13058044767E+02 -0.27965582725E+02  0.31886042494E+02  0.00000000000E+00 0. -1.
         11    1    3    3    0    0  0.10686916288E+02  0.33871124799E+01  0.51158842332E+01  0.12322945364E+02  0.51100000000E-03 0. -1.
        -11    1    3    3    0    0  0.36871086109E+01 -0.18094192685E+02  0.84013502185E+01  0.20287367118E+02  0.51100000000E-03 0.  1.
        -12    1    3    3    0    0 -0.22382355290E+02  0.16490354380E+01  0.14448348273E+02  0.26691645023E+02  0.00000000000E+00 0.  1.
</event>
<event>
 7    1  0.3220798E-013  0.5930194E+02  0.7816164E-02  0.1266605E+00
        -11   -1    0    0    0    0  0.00000000000E+00  0.00000000000E+00  0.45593999997E+02  0.45594000000E+02  0.51100000000E-03 0.  1.
         11   -1    0    0    0    0 -0.00000000000E+00 -0.00000000000E+00 -0.45593999997E+02  0.45594000000E+02  0.51100000000E-03 0. -1.
    9900012    2    1    2    0    0 -0.26398068097E+02  0.13149121058E+02 -0.12122838897E+02  0.59301943381E+02  0.49999998820E+02 0.  0.
         12    1    1    2    0    0  0.26398068097E+02 -0.13149121058E+02  0.12122838897E+02  0.31886056619E+02  0.00000000000E+00 0. -1.
         11    1    3    3    0    0 -0.13650981822E+02 -0.41891305122E+01  0.65632626187E+01  0.15715423495E+02  0.51100000000E-03 0. -1.
        -11    1    3    3    0    0 -0.19027422928E+02  0.42399834901E+01  0.52575678824E+00  0.19501197495E+02  0.51100000000E-03 0.  1.
         12    1    3    3    0    0  0.62803366542E+01  0.13098268080E+02 -0.19211858303E+02  0.24085322390E+02  0.00000000000E+00 0. -1.
</event>
<event>
 7    1  0.3220798E-013  0.5930194E+02  0.7816164E-02  0.1266605E+00
        -11   -1    0    0    0    0  0.00000000000E+00  0.00000000000E+00  0.45593999997E+02  0.45594000000E+02  0.51100000000E-03 0. -1.
         11   -1    0    0    0    0 -0.00000000000E+00 -0.00000000000E+00 -0.45593999997E+02  0.45594000000E+02  0.51100000000E-03 0.  1.
    9900012    2    1    2    0    0 -0.50408641046E+00  0.24391743446E+02 -0.20530705899E+02  0.59301935079E+02  0.49999983680E+02 0.  0.
         12    1    1    2    0    0  0.50408641046E+00 -0.24391743446E+02  0.20530705899E+02  0.31886064921E+02  0.00000000000E+00 0. -1.
         11    1    3    3    0    0  0.84876040962E+01  0.19467834372E+02  0.38014876477E+01  0.21575154855E+02  0.51100000000E-03 0. -1.
        -11    1    3    3    0    0  0.75587107137E+01  0.90124548958E+01 -0.92304507519E+01  0.14951911993E+02  0.51100000000E-03 0.  1.
         12    1    3    3    0    0 -0.16550401220E+02 -0.40885458219E+01 -0.15101742795E+02  0.22774868231E+02  0.00000000000E+00 0. -1.
</event>
<event>
 7    1  0.3220798E-013  0.5930194E+02  0.7816164E-02  0.1266605E+00
        -11   -1    0    0    0    0  0.00000000000E+00  0.00000000000E+00  0.45593999997E+02  0.45594000000E+02  0.51100000000E-03 0.  1.
         11   -1    0    0    0    0 -0.00000000000E+00 -0.00000000000E+00 -0.45593999997E+02  0.45594000000E+02  0.51100000000E-03 0. -1.
    9900012    2    1    2    0    0 -0.30467674548E+02 -0.93813106225E+01  0.65776766379E+00  0.59301939728E+02  0.49999992159E+02 0.  0.
         12    1    1    2    0    0  0.30467674548E+02  0.93813106225E+01 -0.65776766379E+00  0.31886060272E+02  0.00000000000E+00 0. -1.
         11    1    3    3    0    0 -0.32495924942E+01  0.11235841064E+02  0.90681044778E+01  0.14799814015E+02  0.51100000000E-03 0. -1.
        -11    1    3    3    0    0 -0.21194894738E+02 -0.82382627760E+00 -0.10572838113E+02  0.23699940057E+02  0.51100000000E-03 0.  1.
         12    1    3    3    0    0 -0.60231873154E+01 -0.19793325409E+02  0.21625012988E+01  0.20802185656E+02  0.00000000000E+00 0. -1.
</event>
<event>
 7    1  0.3220798E-013  0.5930194E+02  0.7816164E-02  0.1266605E+00
        -11   -1    0    0    0    0  0.00000000000E+00  0.00000000000E+00  0.45593999997E+02  0.45594000000E+02  0.51100000000E-03 0.  1.
         11   -1    0    0    0    0 -0.00000000000E+00 -0.00000000000E+00 -0.45593999997E+02  0.45594000000E+02  0.51100000000E-03 0. -1.
    9900012    2    1    2    0    0 -0.22131994968E+02  0.92936332250E+01  0.20988668595E+02  0.59301936756E+02  0.49999986738E+02 0.  0.
         12    1    1    2    0    0  0.22131994968E+02 -0.92936332250E+01 -0.20988668595E+02  0.31886063244E+02  0.00000000000E+00 0. -1.
         11    1    3    3    0    0 -0.25099709224E+02  0.16512859035E+01 -0.26459139576E+01  0.25292746178E+02  0.51100000000E-03 0. -1.
        -11    1    3    3    0    0 -0.87562725652E+01 -0.13162820210E+01  0.13365282236E+02  0.16032332241E+02  0.51100000000E-03 0.  1.
         12    1    3    3    0    0  0.11723986821E+02  0.89586293426E+01  0.10269300317E+02  0.17976858337E+02  0.00000000000E+00 0. -1.
</event>
<event>
 7    1  0.3220798E-013  0.5930195E+02  0.7816164E-02  0.1266605E+00
        -11   -1    0    0    0    0  0.00000000000E+00  0.00000000000E+00  0.45593999997E+02  0.45594000000E+02  0.51100000000E-03 0.  1.
         11   -1    0    0    0    0 -0.00000000000E+00 -0.00000000000E+00 -0.45593999997E+02  0.45594000000E+02  0.51100000000E-03 0. -1.
    9900012    2    1    2    0    0  0.31147228552E+02 -0.52489692457E+01 -0.43610552961E+01  0.59301947752E+02  0.50000006793E+02 0.  0.
         12    1    1    2    0    0 -0.31147228552E+02  0.52489692457E+01  0.43610552961E+01  0.31886052248E+02  0.00000000000E+00 0. -1.
         11    1    3    3    0    0  0.43232526833E+01  0.33345130618E+00 -0.11361912714E+02  0.12161199131E+02  0.51100000000E-03 0. -1.
        -11    1    3    3    0    0  0.17545482886E+02 -0.20148278010E+02 -0.34746261227E+01  0.26941976605E+02  0.51100000000E-03 0.  1.
         12    1    3    3    0    0  0.92784929835E+01  0.14565857458E+02  0.10475483540E+02  0.20198772016E+02  0.00000000000E+00 0. -1.
</event>
<event>
 7    1  0.3220798E-013  0.5930194E+02  0.7816164E-02  0.1266605E+00
        -11   -1    0    0    0    0  0.00000000000E+00  0.00000000000E+00  0.45593999997E+02  0.45594000000E+02  0.51100000000E-03 0.  1.
         11   -1    0    0    0    0 -0.00000000000E+00 -0.00000000000E+00 -0.45593999997E+02  0.45594000000E+02  0.51100000000E-03 0. -1.
    9900012    2    1    2    0    0 -0.31682169517E+02 -0.30221879303E+01 -0.19563909170E+01  0.59301937989E+02  0.49999988986E+02 0.  0.
         12    1    1    2    0    0  0.31682169517E+02  0.30221879303E+01  0.19563909170E+01  0.31886062011E+02  0.00000000000E+00 0. -1.
         11    1    3    3    0    0 -0.12981627899E+02 -0.13439898546E+02 -0.10874238258E+02  0.21619495687E+02  0.51100000000E-03 0. -1.
        -11    1    3    3    0    0 -0.38700098712E+01 -0.55225204219E+01  0.13808846898E+02  0.15367480637E+02  0.51100000000E-03 0.  1.
         12    1    3    3    0    0 -0.14830531747E+02  0.15940231037E+02 -0.48909995572E+01  0.22314961664E+02  0.00000000000E+00 0. -1.
</event>
<event>
 7    1  0.3220798E-013  0.5930192E+02  0.7816164E-02  0.1266605E+00
        -11   -1    0    0    0    0  0.00000000000E+00  0.00000000000E+00  0.45593999997E+02  0.45594000000E+02  0.51100000000E-03 0.  1.
         11   -1    0    0    0    0 -0.00000000000E+00 -0.00000000000E+00 -0.45593999997E+02  0.45594000000E+02  0.51100000000E-03 0. -1.
    9900012    2    1    2    0    0  0.31491313613E+02  0.44983690023E+01  0.21871770220E+01  0.59301923100E+02  0.49999961833E+02 0.  0.
         12    1    1    2    0    0 -0.31491313613E+02 -0.44983690023E+01 -0.21871770220E+01  0.31886076900E+02  0.00000000000E+00 0. -1.
         11    1    3    3    0    0  0.25821035920E+02 -0.18209471283E+02  0.64116168844E+01  0.32240030579E+02  0.51100000000E-03 0. -1.
        -11    1    3    3    0    0  0.83030140177E+01  0.92472205142E+01 -0.48286311779E+01  0.13332921973E+02  0.51100000000E-03 0.  1.
        -12    1    3    3    0    0 -0.26327363249E+01  0.13460619771E+02  0.60419131550E+00  0.13728970549E+02  0.00000000000E+00 0.  1.
</event>
<event>
 7    1  0.3220798E-013  0.5930194E+02  0.7816164E-02  0.1266605E+00
        -11   -1    0    0    0    0  0.00000000000E+00  0.00000000000E+00  0.45593999997E+02  0.45594000000E+02  0.51100000000E-03 0.  1.
         11   -1    0    0    0    0 -0.00000000000E+00 -0.00000000000E+00 -0.45593999997E+02  0.45594000000E+02  0.51100000000E-03 0. -1.
    9900012    2    1    2    0    0 -0.25526111694E+01  0.31644296185E+02  0.29737638454E+01  0.59301943859E+02  0.49999999692E+02 0.  0.
         12    1    1    2    0    0  0.25526111694E+01 -0.31644296185E+02 -0.29737638454E+01  0.31886056141E+02  0.00000000000E+00 0. -1.
         11    1    3    3    0    0 -0.37060266975E+01  0.31487463553E+01  0.66476439532E+01  0.82365288734E+01  0.51100000000E-03 0. -1.
        -11    1    3    3    0    0  0.18100091766E+02  0.18530962207E+02  0.92869559195E+01  0.27518310864E+02  0.51100000000E-03 0.  1.
         12    1    3    3    0    0 -0.16946676238E+02  0.99645876223E+01 -0.12960836027E+02  0.23547104122E+02  0.00000000000E+00 0. -1.
</event>
<event>
 7    1  0.3220798E-013  0.5930192E+02  0.7816164E-02  0.1266605E+00
        -11   -1    0    0    0    0  0.00000000000E+00  0.00000000000E+00  0.45593999997E+02  0.45594000000E+02  0.51100000000E-03 0.  1.
         11   -1    0    0    0    0 -0.00000000000E+00 -0.00000000000E+00 -0.45593999997E+02  0.45594000000E+02  0.51100000000E-03 0. -1.
    9900012    2    1    2    0    0 -0.72779784388E+00  0.23656165292E+01  0.31789877578E+02  0.59301919217E+02  0.49999954752E+02 0.  0.
         12    1    1    2    0    0  0.72779784388E+00 -0.23656165292E+01 -0.31789877578E+02  0.31886080783E+02  0.00000000000E+00 0. -1.
         11    1    3    3    0    0 -0.53722659005E+01 -0.54333036135E+01  0.63949723426E+00  0.76675280264E+01  0.51100000000E-03 0. -1.
        -11    1    3    3    0    0  0.12241816562E+02 -0.13606783112E+02  0.16191718695E+02  0.24437233353E+02  0.51100000000E-03 0.  1.
         12    1    3    3    0    0 -0.75973485051E+01  0.21405703255E+02  0.14958661649E+02  0.27197157838E+02  0.00000000000E+00 0. -1.
</event>
<event>
 7    1  0.3220798E-013  0.5930193E+02  0.7816164E-02  0.1266605E+00
        -11   -1    0    0    0    0  0.00000000000E+00  0.00000000000E+00  0.45593999997E+02  0.45594000000E+02  0.51100000000E-03 0.  1.
         11   -1    0    0    0    0 -0.00000000000E+00 -0.00000000000E+00 -0.45593999997E+02  0.45594000000E+02  0.51100000000E-03 0. -1.
    9900012    2    1    2    0    0  0.45819767124E+01 -0.10378829537E+01  0.31538065860E+02  0.59301932356E+02  0.49999978714E+02 0.  0.
         12    1    1    2    0    0 -0.45819767124E+01  0.10378829537E+01 -0.31538065860E+02  0.31886067644E+02  0.00000000000E+00 0. -1.
         11    1    3    3    0    0  0.10789512647E+02 -0.91448836804E+01  0.10623642172E+02  0.17689099863E+02  0.51100000000E-03 0.  1.
        -11    1    3    3    0    0 -0.32240053325E+01  0.10474022275E+02 -0.72836850157E+01  0.13158701329E+02  0.51100000000E-03 0. -1.
         12    1    3    3    0    0 -0.29835306021E+01 -0.23670215487E+01  0.28198108703E+02  0.28454131164E+02  0.00000000000E+00 0. -1.
</event>
<event>
 7    1  0.3220798E-013  0.5930196E+02  0.7816164E-02  0.1266605E+00
        -11   -1    0    0    0    0  0.00000000000E+00  0.00000000000E+00  0.45593999997E+02  0.45594000000E+02  0.51100000000E-03 0. -1.
         11   -1    0    0    0    0 -0.00000000000E+00 -0.00000000000E+00 -0.45593999997E+02  0.45594000000E+02  0.51100000000E-03 0.  1.
    9900012    2    1    2    0    0  0.25501894104E+02 -0.14969330230E+02 -0.11928633106E+02  0.59301957000E+02  0.50000023659E+02 0.  0.
         12    1    1    2    0    0 -0.25501894104E+02  0.14969330230E+02  0.11928633106E+02  0.31886043000E+02  0.00000000000E+00 0. -1.
         11    1    3    3    0    0  0.97015023797E+01 -0.58114222461E+01  0.48152292201E+01  0.12291387621E+02  0.51100000000E-03 0. -1.
        -11    1    3    3    0    0  0.25654579930E+02  0.26374047274E+01 -0.22552634012E+01  0.25888213310E+02  0.51100000000E-03 0.  1.
        -12    1    3    3    0    0 -0.98541882062E+01 -0.11795312711E+02 -0.14488598925E+02  0.21122356070E+02  0.00000000000E+00 0.  1.
</event>
<event>
 7    1  0.3220798E-013  0.5930197E+02  0.7816164E-02  0.1266605E+00
        -11   -1    0    0    0    0  0.00000000000E+00  0.00000000000E+00  0.45593999997E+02  0.45594000000E+02  0.51100000000E-03 0.  1.
         11   -1    0    0    0    0 -0.00000000000E+00 -0.00000000000E+00 -0.45593999997E+02  0.45594000000E+02  0.51100000000E-03 0. -1.
    9900012    2    1    2    0    0  0.39531745405E+01  0.13942832985E+02  0.28402270801E+02  0.59301965953E+02  0.50000039987E+02 0.  0.
         12    1    1    2    0    0 -0.39531745405E+01 -0.13942832985E+02 -0.28402270801E+02  0.31886034047E+02  0.00000000000E+00 0. -1.
         11    1    3    3    0    0  0.14139488954E+02  0.96990759436E+00  0.20325060184E+01  0.14317714538E+02  0.51100000000E-03 0. -1.
        -11    1    3    3    0    0  0.13372376111E+01 -0.86272393344E+01  0.16343117302E+02  0.18528759979E+02  0.51100000000E-03 0.  1.
        -12    1    3    3    0    0 -0.11523552025E+02  0.21600164725E+02  0.10026647480E+02  0.26455491435E+02  0.00000000000E+00 0.  1.
</event>
<event>
 7    1  0.3220798E-013  0.5930185E+02  0.7816164E-02  0.1266605E+00
        -11   -1    0    0    0    0  0.00000000000E+00  0.00000000000E+00  0.45593999997E+02  0.45594000000E+02  0.51100000000E-03 0.  1.
         11   -1    0    0    0    0 -0.00000000000E+00 -0.00000000000E+00 -0.45593999997E+02  0.45594000000E+02  0.51100000000E-03 0. -1.
    9900012    2    1    2    0    0 -0.28431820588E+02 -0.56761423830E+01  0.13271757101E+02  0.59301850172E+02  0.49999828829E+02 0.  0.
         12    1    1    2    0    0  0.28431820588E+02  0.56761423830E+01 -0.13271757101E+02  0.31886149828E+02  0.00000000000E+00 0. -1.
         11    1    3    3    0    0 -0.61834240733E+01  0.42736212920E+01  0.16013568459E+02  0.17689910889E+02  0.51100000000E-03 0. -1.
        -11    1    3    3    0    0 -0.29167088298E+02 -0.26939453333E+01 -0.78989202700E+01  0.30337589273E+02  0.51100000000E-03 0.  1.
         12    1    3    3    0    0  0.69186917825E+01 -0.72558183417E+01  0.51571089121E+01  0.11274350009E+02  0.00000000000E+00 0. -1.
</event>
<event>
 7    1  0.3220798E-013  0.5930195E+02  0.7816164E-02  0.1266605E+00
        -11   -1    0    0    0    0  0.00000000000E+00  0.00000000000E+00  0.45593999997E+02  0.45594000000E+02  0.51100000000E-03 0.  1.
         11   -1    0    0    0    0 -0.00000000000E+00 -0.00000000000E+00 -0.45593999997E+02  0.45594000000E+02  0.51100000000E-03 0. -1.
    9900012    2    1    2    0    0 -0.42591941634E+01  0.79863524647E+00  0.31590217933E+02  0.59301946274E+02  0.50000004096E+02 0.  0.
         12    1    1    2    0    0  0.42591941634E+01 -0.79863524647E+00 -0.31590217933E+02  0.31886053726E+02  0.00000000000E+00 0. -1.
         11    1    3    3    0    0 -0.89036421703E+00 -0.14099192538E+02  0.94007526543E+01  0.16969211219E+02  0.51100000000E-03 0. -1.
        -11    1    3    3    0    0 -0.99983256212E+01  0.24881133481E+01  0.25822154425E+02  0.27801814378E+02  0.51100000000E-03 0.  1.
        -12    1    3    3    0    0  0.66294956748E+01  0.12409714436E+02 -0.36326891468E+01  0.14530920677E+02  0.00000000000E+00 0.  1.
</event>
<event>
 7    1  0.3220798E-013  0.5930194E+02  0.7816164E-02  0.1266605E+00
        -11   -1    0    0    0    0  0.00000000000E+00  0.00000000000E+00  0.45593999997E+02  0.45594000000E+02  0.51100000000E-03 0.  1.
         11   -1    0    0    0    0 -0.00000000000E+00 -0.00000000000E+00 -0.45593999997E+02  0.45594000000E+02  0.51100000000E-03 0. -1.
    9900012    2    1    2    0    0 -0.28835023082E+02 -0.97598211854E+01  0.94872577947E+01  0.59301941508E+02  0.49999995404E+02 0.  0.
         12    1    1    2    0    0  0.28835023082E+02  0.97598211854E+01 -0.94872577947E+01  0.31886058492E+02  0.00000000000E+00 0. -1.
         11    1    3    3    0    0 -0.42226824391E+01 -0.52185393419E+01  0.54309450012E+01  0.86347764136E+01  0.51100000000E-03 0. -1.
        -11    1    3    3    0    0 -0.35568756673E+02 -0.94080299802E+01  0.87067389691E+01  0.37808131177E+02  0.51100000000E-03 0.  1.
         12    1    3    3    0    0  0.10956416031E+02  0.48667481368E+01 -0.46504261756E+01  0.12859033917E+02  0.00000000000E+00 0. -1.
</event>
<event>
 7    1  0.3220798E-013  0.5930196E+02  0.7816164E-02  0.1266605E+00
        -11   -1    0    0    0    0  0.00000000000E+00  0.00000000000E+00  0.45593999997E+02  0.45594000000E+02  0.51100000000E-03 0. -1.
         11   -1    0    0    0    0 -0.00000000000E+00 -0.00000000000E+00 -0.45593999997E+02  0.45594000000E+02  0.51100000000E-03 0.  1.
    9900012    2    1    2    0    0  0.48194972109E+01 -0.17991580518E+02 -0.25880399781E+02  0.59301958921E+02  0.50000027161E+02 0.  0.
         12    1    1    2    0    0 -0.48194972109E+01  0.17991580518E+02  0.25880399781E+02  0.31886041079E+02  0.00000000000E+00 0. -1.
         11    1    3    3    0    0  0.20231136175E+02 -0.77761668507E+00 -0.98364169067E+01  0.22509079423E+02  0.51100000000E-03 0. -1.
        -11    1    3    3    0    0  0.74485133001E+00  0.11337379204E+01 -0.11923925574E+02  0.12000840243E+02  0.51100000000E-03 0.  1.
         12    1    3    3    0    0 -0.16156490295E+02 -0.18347701753E+02 -0.41200573001E+01  0.24792039255E+02  0.00000000000E+00 0. -1.
</event>
<event>
 7    1  0.3220798E-013  0.5930191E+02  0.7816164E-02  0.1266605E+00
        -11   -1    0    0    0    0  0.00000000000E+00  0.00000000000E+00  0.45593999997E+02  0.45594000000E+02  0.51100000000E-03 0.  1.
         11   -1    0    0    0    0 -0.00000000000E+00 -0.00000000000E+00 -0.45593999997E+02  0.45594000000E+02  0.51100000000E-03 0. -1.
    9900012    2    1    2    0    0 -0.12322539723E+02 -0.22530533103E+02  0.18901132801E+02  0.59301910113E+02  0.49999938148E+02 0.  0.
         12    1    1    2    0    0  0.12322539723E+02  0.22530533103E+02 -0.18901132801E+02  0.31886089887E+02  0.00000000000E+00 0. -1.
         11    1    3    3    0    0 -0.69085169420E+01 -0.76421637663E+00 -0.78262825464E+01  0.10467202671E+02  0.51100000000E-03 0. -1.
        -11    1    3    3    0    0  0.59510116906E+01  0.68103536677E+01  0.17411172429E+01  0.92101545446E+01  0.51100000000E-03 0.  1.
        -12    1    3    3    0    0 -0.11365034472E+02 -0.28576670394E+02  0.24986298104E+02  0.39624552897E+02  0.00000000000E+00 0.  1.
</event>
<event>
 7    1  0.3220798E-013  0.5930195E+02  0.7816164E-02  0.1266605E+00
        -11   -1    0    0    0    0  0.00000000000E+00  0.00000000000E+00  0.45593999997E+02  0.45594000000E+02  0.51100000000E-03 0.  1.
         11   -1    0    0    0    0 -0.00000000000E+00 -0.00000000000E+00 -0.45593999997E+02  0.45594000000E+02  0.51100000000E-03 0. -1.
    9900012    2    1    2    0    0 -0.15606626237E+02  0.27456081391E+02  0.43951182013E+01  0.59301948945E+02  0.50000008968E+02 0.  0.
         12    1    1    2    0    0  0.15606626237E+02 -0.27456081391E+02 -0.43951182013E+01  0.31886051055E+02  0.00000000000E+00 0. -1.
         11    1    3    3    0    0  0.67209774600E+01 -0.21253893158E+01  0.19051315258E+01  0.73019411223E+01  0.51100000000E-03 0. -1.
        -11    1    3    3    0    0 -0.17236456924E+01 -0.79995882727E+01 -0.31569232319E+01  0.87710051624E+01  0.51100000000E-03 0.  1.
        -12    1    3    3    0    0 -0.20603958005E+02  0.37581058980E+02  0.56469099074E+01  0.43229002660E+02  0.00000000000E+00 0.  1.
</event>
<event>
 7    1  0.3220798E-013  0.5930195E+02  0.7816164E-02  0.1266605E+00
        -11   -1    0    0    0    0  0.00000000000E+00  0.00000000000E+00  0.45593999997E+02  0.45594000000E+02  0.51100000000E-03 0.  1.
         11   -1    0    0    0    0 -0.00000000000E+00 -0.00000000000E+00 -0.45593999997E+02  0.45594000000E+02  0.51100000000E-03 0. -1.
    9900012    2    1    2    0    0  0.51090104650E+01 -0.21275905291E+01  0.31402094541E+02  0.59301950214E+02  0.50000011282E+02 0.  0.
         12    1    1    2    0    0 -0.51090104650E+01  0.21275905291E+01 -0.31402094541E+02  0.31886049786E+02  0.00000000000E+00 0. -1.
         11    1    3    3    0    0 -0.90459644119E+01 -0.88323161280E+01  0.55311053951E+01  0.13799724906E+02  0.51100000000E-03 0. -1.
        -11    1    3    3    0    0 -0.77734403903E+01  0.10336620650E+02  0.23585137602E+01  0.13146660770E+02  0.51100000000E-03 0.  1.
         12    1    3    3    0    0  0.21928415267E+02 -0.36318950515E+01  0.23512475386E+02  0.32355564538E+02  0.00000000000E+00 0. -1.
</event>
<event>
 7    1  0.3220798E-013  0.5930195E+02  0.7816164E-02  0.1266605E+00
        -11   -1    0    0    0    0  0.00000000000E+00  0.00000000000E+00  0.45593999997E+02  0.45594000000E+02  0.51100000000E-03 0.  1.
         11   -1    0    0    0    0 -0.00000000000E+00 -0.00000000000E+00 -0.45593999997E+02  0.45594000000E+02  0.51100000000E-03 0. -1.
    9900012    2    1    2    0    0  0.14391153814E+02 -0.27589027547E+02 -0.69613580530E+01  0.59301948896E+02  0.50000008879E+02 0.  0.
         12    1    1    2    0    0 -0.14391153814E+02  0.27589027547E+02  0.69613580530E+01  0.31886051104E+02  0.00000000000E+00 0. -1.
         11    1    3    3    0    0 -0.89687623893E+00  0.35203295794E+01 -0.69575465070E+01  0.78488573049E+01  0.51100000000E-03 0. -1.
        -11    1    3    3    0    0  0.63247562803E+01 -0.25347556227E+02  0.17155903987E+02  0.31254218764E+02  0.51100000000E-03 0.  1.
         12    1    3    3    0    0  0.89632737725E+01 -0.57618008988E+01 -0.17159715533E+02  0.20198872827E+02  0.00000000000E+00 0. -1.
</event>
<event>
 7    1  0.3220798E-013  0.5930193E+02  0.7816164E-02  0.1266605E+00
        -11   -1    0    0    0    0  0.00000000000E+00  0.00000000000E+00  0.45593999997E+02  0.45594000000E+02  0.51100000000E-03 0. -1.
         11   -1    0    0    0    0 -0.00000000000E+00 -0.00000000000E+00 -0.45593999997E+02  0.45594000000E+02  0.51100000000E-03 0.  1.
    9900012    2    1    2    0    0 -0.17049919106E+02  0.22799943203E+02 -0.14359117668E+02  0.59301930757E+02  0.49999975797E+02 0.  0.
         12    1    1    2    0    0  0.17049919106E+02 -0.22799943203E+02  0.14359117668E+02  0.31886069243E+02  0.00000000000E+00 0. -1.
         11    1    3    3    0    0 -0.38826771073E+01  0.15063206565E+01 -0.19266850637E+02  0.19711816688E+02  0.51100000000E-03 0. -1.
        -11    1    3    3    0    0  0.98337971953E+01  0.47783822974E+01  0.21222873924E+01  0.11137351961E+02  0.51100000000E-03 0.  1.
        -12    1    3    3    0    0 -0.23001039194E+02  0.16515240249E+02  0.27854455765E+01  0.28452762108E+02  0.00000000000E+00 0.  1.
</event>
<event>
 7    1  0.3220798E-013  0.5930197E+02  0.7816164E-02  0.1266605E+00
        -11   -1    0    0    0    0  0.00000000000E+00  0.00000000000E+00  0.45593999997E+02  0.45594000000E+02  0.51100000000E-03 0.  1.
         11   -1    0    0    0    0 -0.00000000000E+00 -0.00000000000E+00 -0.45593999997E+02  0.45594000000E+02  0.51100000000E-03 0. -1.
    9900012    2    1    2    0    0  0.14015108234E+02  0.21678146615E+01  0.28558640300E+02  0.59301974612E+02  0.50000055779E+02 0.  0.
         12    1    1    2    0    0 -0.14015108234E+02 -0.21678146615E+01 -0.28558640300E+02  0.31886025388E+02  0.00000000000E+00 0. -1.
         11    1    3    3    0    0  0.22124550155E+02 -0.12036542233E+01  0.31466753126E+02  0.38485075752E+02  0.51100000000E-03 0. -1.
        -11    1    3    3    0    0 -0.21985219525E+01 -0.68262280949E+01  0.28271642987E+01  0.77086799786E+01  0.51100000000E-03 0.  1.
         12    1    3    3    0    0 -0.59109199690E+01  0.10197696980E+02 -0.57352771243E+01  0.13108218882E+02  0.00000000000E+00 0. -1.
</event>
<event>
 7    1  0.3220798E-013  0.5930191E+02  0.7816164E-02  0.1266605E+00
        -11   -1    0    0    0    0  0.00000000000E+00  0.00000000000E+00  0.45593999997E+02  0.45594000000E+02  0.51100000000E-03 0.  1.
         11   -1    0    0    0    0 -0.00000000000E+00 -0.00000000000E+00 -0.45593999997E+02  0.45594000000E+02  0.51100000000E-03 0. -1.
    9900012    2    1    2    0    0 -0.21386181795E+02 -0.17127782916E+01  0.23588567035E+02  0.59301907796E+02  0.49999933922E+02 0.  0.
         12    1    1    2    0    0  0.21386181795E+02  0.17127782916E+01 -0.23588567035E+02  0.31886092204E+02  0.00000000000E+00 0. -1.
         11    1    3    3    0    0 -0.46161607366E+01  0.17330441731E+02  0.16940661076E+02  0.24670613055E+02  0.51100000000E-03 0. -1.
        -11    1    3    3    0    0 -0.76016138948E+01  0.14896466745E+01  0.91695422715E+01  0.12003503103E+02  0.51100000000E-03 0.  1.
         12    1    3    3    0    0 -0.91684071638E+01 -0.20532866697E+02 -0.25216363125E+01  0.22627791638E+02  0.00000000000E+00 0. -1.
</event>
<event>
 7    1  0.3220798E-013  0.5930173E+02  0.7816164E-02  0.1266606E+00
        -11   -1    0    0    0    0  0.00000000000E+00  0.00000000000E+00  0.45593999997E+02  0.45594000000E+02  0.51100000000E-03 0. -1.
         11   -1    0    0    0    0 -0.00000000000E+00 -0.00000000000E+00 -0.45593999997E+02  0.45594000000E+02  0.51100000000E-03 0.  1.
    9900012    2    1    2    0    0  0.30683871784E+01  0.19761247061E+02 -0.24835707941E+02  0.59301729064E+02  0.49999607956E+02 0.  0.
         12    1    1    2    0    0 -0.30683871784E+01 -0.19761247061E+02  0.24835707941E+02  0.31886270936E+02  0.00000000000E+00 0. -1.
         11    1    3    3    0    0 -0.42062961208E+01 -0.58175932753E+01 -0.92783996499E+01  0.11731411633E+02  0.51100000000E-03 0. -1.
        -11    1    3    3    0    0  0.10954405326E+01 -0.91411531772E+00 -0.19961200451E+02  0.20012124337E+02  0.51100000000E-03 0.  1.
         12    1    3    3    0    0  0.61792427666E+01  0.26492955654E+02  0.44038921597E+01  0.27558193094E+02  0.00000000000E+00 0. -1.
</event>
<event>
 7    1  0.3220798E-013  0.5930194E+02  0.7816164E-02  0.1266605E+00
        -11   -1    0    0    0    0  0.00000000000E+00  0.00000000000E+00  0.45593999997E+02  0.45594000000E+02  0.51100000000E-03 0.  1.
         11   -1    0    0    0    0 -0.00000000000E+00 -0.00000000000E+00 -0.45593999997E+02  0.45594000000E+02  0.51100000000E-03 0. -1.
    9900012    2    1    2    0    0  0.29402510958E+02  0.51373328937E+01  0.11217001488E+02  0.59301937806E+02  0.49999988652E+02 0.  0.
         12    1    1    2    0    0 -0.29402510958E+02 -0.51373328937E+01 -0.11217001488E+02  0.31886062194E+02  0.00000000000E+00 0. -1.
         11    1    3    3    0    0  0.74719668943E+01  0.19130307285E+02  0.59324452670E+01  0.21377391169E+02  0.51100000000E-03 0. -1.
        -11    1    3    3    0    0  0.68962572498E+01  0.69921665689E+01  0.69884851181E+01  0.12053534000E+02  0.51100000000E-03 0.  1.
         12    1    3    3    0    0  0.15034286814E+02 -0.20985140961E+02 -0.17039288969E+01  0.25871012636E+02  0.00000000000E+00 0. -1.
</event>
<event>
 7    1  0.3220798E-013  0.5930186E+02  0.7816164E-02  0.1266605E+00
        -11   -1    0    0    0    0  0.00000000000E+00  0.00000000000E+00  0.45593999997E+02  0.45594000000E+02  0.51100000000E-03 0.  1.
         11   -1    0    0    0    0 -0.00000000000E+00 -0.00000000000E+00 -0.45593999997E+02  0.45594000000E+02  0.51100000000E-03 0. -1.
    9900012    2    1    2    0    0  0.23083240270E+02 -0.20121478202E+02  0.88890819105E+01  0.59301864398E+02  0.49999854775E+02 0.  0.
         12    1    1    2    0    0 -0.23083240270E+02  0.20121478202E+02 -0.88890819105E+01  0.31886135602E+02  0.00000000000E+00 0. -1.
         11    1    3    3    0    0  0.15747653099E+02 -0.28233779481E+02  0.13876070574E+02  0.35180679595E+02  0.51100000000E-03 0. -1.
        -11    1    3    3    0    0  0.94723782318E-01 -0.28724575390E+01  0.62113870071E+01  0.68440714287E+01  0.51100000000E-03 0.  1.
         12    1    3    3    0    0  0.72408633884E+01  0.10984758819E+02 -0.11198375670E+02  0.17277113375E+02  0.00000000000E+00 0. -1.
</event>
<event>
 7    1  0.3220798E-013  0.5930196E+02  0.7816164E-02  0.1266605E+00
        -11   -1    0    0    0    0  0.00000000000E+00  0.00000000000E+00  0.45593999997E+02  0.45594000000E+02  0.51100000000E-03 0. -1.
         11   -1    0    0    0    0 -0.00000000000E+00 -0.00000000000E+00 -0.45593999997E+02  0.45594000000E+02  0.51100000000E-03 0.  1.
    9900012    2    1    2    0    0  0.12545120675E+02  0.37296500021E+01 -0.29076267183E+02  0.59301958302E+02  0.50000026032E+02 0.  0.
         12    1    1    2    0    0 -0.12545120675E+02 -0.37296500021E+01  0.29076267183E+02  0.31886041698E+02  0.00000000000E+00 0. -1.
         11    1    3    3    0    0  0.39365969985E+01  0.11683541822E+01  0.36900534531E+00  0.41228646145E+01  0.51100000000E-03 0. -1.
        -11    1    3    3    0    0  0.11780171268E+02  0.17570027495E+02 -0.33218134304E+02  0.39381756540E+02  0.51100000000E-03 0.  1.
        -12    1    3    3    0    0 -0.31716475908E+01 -0.15008731675E+02  0.37728617762E+01  0.15797337147E+02  0.00000000000E+00 0.  1.
</event>
<event>
 7    1  0.3220798E-013  0.5930193E+02  0.7816164E-02  0.1266605E+00
        -11   -1    0    0    0    0  0.00000000000E+00  0.00000000000E+00  0.45593999997E+02  0.45594000000E+02  0.51100000000E-03 0. -1.
         11   -1    0    0    0    0 -0.00000000000E+00 -0.00000000000E+00 -0.45593999997E+02  0.45594000000E+02  0.51100000000E-03 0.  1.
    9900012    2    1    2    0    0 -0.20474338169E+02  0.28574191151E+01 -0.24276697306E+02  0.59301930948E+02  0.49999976146E+02 0.  0.
         12    1    1    2    0    0  0.20474338169E+02 -0.28574191151E+01  0.24276697306E+02  0.31886069052E+02  0.00000000000E+00 0. -1.
         11    1    3    3    0    0 -0.57570414526E+01  0.14484929079E+01  0.13264939539E+02  0.14532731306E+02  0.51100000000E-03 0. -1.
        -11    1    3    3    0    0 -0.19371871942E+01  0.64622783598E+01 -0.26139779728E+01  0.72350961934E+01  0.51100000000E-03 0.  1.
         12    1    3    3    0    0 -0.12780109523E+02 -0.50533521527E+01 -0.34927658872E+02  0.37534103449E+02  0.00000000000E+00 0. -1.
</event>
<event>
 7    1  0.3220798E-013  0.5930206E+02  0.7816164E-02  0.1266604E+00
        -11   -1    0    0    0    0  0.00000000000E+00  0.00000000000E+00  0.45593999997E+02  0.45594000000E+02  0.51100000000E-03 0. -1.
         11   -1    0    0    0    0 -0.00000000000E+00 -0.00000000000E+00 -0.45593999997E+02  0.45594000000E+02  0.51100000000E-03 0.  1.
    9900012    2    1    2    0    0  0.12671123872E+02  0.29244787353E+02 -0.94782258124E+00  0.59302057405E+02  0.50000206773E+02 0.  0.
         12    1    1    2    0    0 -0.12671123872E+02 -0.29244787353E+02  0.94782258124E+00  0.31885942595E+02  0.00000000000E+00 0. -1.
         11    1    3    3    0    0  0.19640769261E+02  0.78357466377E+00 -0.80449690936E+01  0.21239005024E+02  0.51100000000E-03 0. -1.
        -11    1    3    3    0    0  0.75023889757E+01  0.73872091639E+01  0.67295082519E+01  0.12495718513E+02  0.51100000000E-03 0.  1.
        -12    1    3    3    0    0 -0.14472034365E+02  0.21074003525E+02  0.36763826046E+00  0.25567333869E+02  0.00000000000E+00 0.  1.
</event>
<event>
 7    1  0.3220798E-013  0.5930195E+02  0.7816164E-02  0.1266605E+00
        -11   -1    0    0    0    0  0.00000000000E+00  0.00000000000E+00  0.45593999997E+02  0.45594000000E+02  0.51100000000E-03 0.  1.
         11   -1    0    0    0    0 -0.00000000000E+00 -0.00000000000E+00 -0.45593999997E+02  0.45594000000E+02  0.51100000000E-03 0. -1.
    9900012    2    1    2    0    0 -0.13474409137E+02 -0.27063379682E+02  0.10135780958E+02  0.59301948551E+02  0.50000008250E+02 0.  0.
         12    1    1    2    0    0  0.13474409137E+02  0.27063379682E+02 -0.10135780958E+02  0.31886051449E+02  0.00000000000E+00 0. -1.
         11    1    3    3    0    0 -0.10945884919E+02 -0.93418728906E+01 -0.77031872222E+01  0.16322440976E+02  0.51100000000E-03 0. -1.
        -11    1    3    3    0    0  0.22622455204E+01 -0.15796395271E+02  0.27631990877E+02  0.31908788421E+02  0.51100000000E-03 0.  1.
         12    1    3    3    0    0 -0.47907697380E+01 -0.19251115198E+01 -0.97930226976E+01  0.11070719155E+02  0.00000000000E+00 0. -1.
</event>
<event>
 7    1  0.3220798E-013  0.5930195E+02  0.7816164E-02  0.1266605E+00
        -11   -1    0    0    0    0  0.00000000000E+00  0.00000000000E+00  0.45593999997E+02  0.45594000000E+02  0.51100000000E-03 0.  1.
         11   -1    0    0    0    0 -0.00000000000E+00 -0.00000000000E+00 -0.45593999997E+02  0.45594000000E+02  0.51100000000E-03 0. -1.
    9900012    2    1    2    0    0  0.68268238744E+01  0.31099793310E+02  0.17080955754E+01  0.59301948840E+02  0.50000008776E+02 0.  0.
         12    1    1    2    0    0 -0.68268238744E+01 -0.31099793310E+02 -0.17080955754E+01  0.31886051160E+02  0.00000000000E+00 0. -1.
         11    1    3    3    0    0  0.15660446882E+02  0.33055927058E+01 -0.99877655272E+01  0.18866160187E+02  0.51100000000E-03 0. -1.
        -11    1    3    3    0    0  0.66409311289E+00  0.36732086447E+01 -0.73664066937E+01  0.82581734814E+01  0.51100000000E-03 0.  1.
         12    1    3    3    0    0 -0.94977161210E+01  0.24120991959E+02  0.19062267796E+02  0.32177615172E+02  0.00000000000E+00 0. -1.
</event>
<event>
 7    1  0.3220798E-013  0.5930197E+02  0.7816164E-02  0.1266605E+00
        -11   -1    0    0    0    0  0.00000000000E+00  0.00000000000E+00  0.45593999997E+02  0.45594000000E+02  0.51100000000E-03 0.  1.
         11   -1    0    0    0    0 -0.00000000000E+00 -0.00000000000E+00 -0.45593999997E+02  0.45594000000E+02  0.51100000000E-03 0. -1.
    9900012    2    1    2    0    0 -0.98810502815E+01 -0.19172268922E+02  0.23484203192E+02  0.59301970930E+02  0.50000049063E+02 0.  0.
         12    1    1    2    0    0  0.98810502815E+01  0.19172268922E+02 -0.23484203192E+02  0.31886029070E+02  0.00000000000E+00 0. -1.
         11    1    3    3    0    0  0.74546447262E+01 -0.11069817275E+02 -0.67676339442E+01  0.14963737900E+02  0.51100000000E-03 0. -1.
        -11    1    3    3    0    0 -0.73222577113E+01 -0.13170509752E+02  0.37069412931E+01  0.15518350400E+02  0.51100000000E-03 0.  1.
        -12    1    3    3    0    0 -0.10013437296E+02  0.50680581054E+01  0.26544895843E+02  0.28819882629E+02  0.00000000000E+00 0.  1.
</event>
<event>
 7    1  0.3220798E-013  0.5930192E+02  0.7816164E-02  0.1266605E+00
        -11   -1    0    0    0    0  0.00000000000E+00  0.00000000000E+00  0.45593999997E+02  0.45594000000E+02  0.51100000000E-03 0. -1.
         11   -1    0    0    0    0 -0.00000000000E+00 -0.00000000000E+00 -0.45593999997E+02  0.45594000000E+02  0.51100000000E-03 0.  1.
    9900012    2    1    2    0    0  0.20366968426E+02 -0.22221807200E+02 -0.10397103128E+02  0.59301923547E+02  0.49999962648E+02 0.  0.
         12    1    1    2    0    0 -0.20366968426E+02  0.22221807200E+02  0.10397103128E+02  0.31886076453E+02  0.00000000000E+00 0. -1.
         11    1    3    3    0    0  0.24113683302E+00  0.54064807581E+01 -0.66117718965E+01  0.85442207972E+01  0.51100000000E-03 0. -1.
        -11    1    3    3    0    0  0.49166649949E+01 -0.33514746970E+02  0.56756335939E+00  0.33878222910E+02  0.51100000000E-03 0.  1.
         12    1    3    3    0    0  0.15209166599E+02  0.58864590122E+01 -0.43528945909E+01  0.16879479839E+02  0.00000000000E+00 0. -1.
</event>
<event>
 7    1  0.3220798E-013  0.5930195E+02  0.7816164E-02  0.1266605E+00
        -11   -1    0    0    0    0  0.00000000000E+00  0.00000000000E+00  0.45593999997E+02  0.45594000000E+02  0.51100000000E-03 0.  1.
         11   -1    0    0    0    0 -0.00000000000E+00 -0.00000000000E+00 -0.45593999997E+02  0.45594000000E+02  0.51100000000E-03 0. -1.
    9900012    2    1    2    0    0 -0.32212507372E+01 -0.24800852934E+02  0.19780336153E+02  0.59301945668E+02  0.50000002991E+02 0.  0.
         12    1    1    2    0    0  0.32212507372E+01  0.24800852934E+02 -0.19780336153E+02  0.31886054332E+02  0.00000000000E+00 0. -1.
         11    1    3    3    0    0  0.33635471796E+01  0.39411261003E+01 -0.78096507943E+01  0.93721166423E+01  0.51100000000E-03 0. -1.
        -11    1    3    3    0    0 -0.23438469482E+01  0.59739427140E+01  0.25004469852E+01  0.68872233486E+01  0.51100000000E-03 0.  1.
         12    1    3    3    0    0 -0.42409509686E+01 -0.34715921748E+02  0.25089539962E+02  0.43042605677E+02  0.00000000000E+00 0. -1.
</event>
<event>
 7    1  0.3220798E-013  0.5930195E+02  0.7816164E-02  0.1266605E+00
        -11   -1    0    0    0    0  0.00000000000E+00  0.00000000000E+00  0.45593999997E+02  0.45594000000E+02  0.51100000000E-03 0. -1.
         11   -1    0    0    0    0 -0.00000000000E+00 -0.00000000000E+00 -0.45593999997E+02  0.45594000000E+02  0.51100000000E-03 0.  1.
    9900012    2    1    2    0    0 -0.95205762340E+01  0.27516892733E+02 -0.12996134701E+02  0.59301948587E+02  0.50000008316E+02 0.  0.
         12    1    1    2    0    0  0.95205762340E+01 -0.27516892733E+02  0.12996134701E+02  0.31886051413E+02  0.00000000000E+00 0. -1.
         11    1    3    3    0    0 -0.14433121578E+02 -0.22145973748E+00 -0.92351052889E+01  0.17136254342E+02  0.51100000000E-03 0. -1.
        -11    1    3    3    0    0  0.27143712748E+01 -0.21168029421E+01  0.89905867592E+01  0.96270097460E+01  0.51100000000E-03 0.  1.
        -12    1    3    3    0    0  0.21981740696E+01  0.29855155413E+02 -0.12751616171E+02  0.32538684499E+02  0.00000000000E+00 0.  1.
</event>
<event>
 7    1  0.3220798E-013  0.5930195E+02  0.7816164E-02  0.1266605E+00
        -11   -1    0    0    0    0  0.00000000000E+00  0.00000000000E+00  0.45593999997E+02  0.45594000000E+02  0.51100000000E-03 0.  1.
         11   -1    0    0    0    0 -0.00000000000E+00 -0.00000000000E+00 -0.45593999997E+02  0.45594000000E+02  0.51100000000E-03 0. -1.
    9900012    2    1    2    0    0 -0.18153185269E+02  0.17098605070E+02  0.19870072133E+02  0.59301949801E+02  0.50000010529E+02 0.  0.
         12    1    1    2    0    0  0.18153185269E+02 -0.17098605070E+02 -0.19870072133E+02  0.31886050199E+02  0.00000000000E+00 0. -1.
         11    1    3    3    0    0  0.81408367679E+01  0.16604310852E+02  0.53765757821E+01  0.19258347010E+02  0.51100000000E-03 0. -1.
        -11    1    3    3    0    0 -0.18864658865E+02  0.11750186858E+02  0.32022534018E+01  0.22454324136E+02  0.51100000000E-03 0.  1.
        -12    1    3    3    0    0 -0.74293631719E+01 -0.11255892641E+02  0.11291242949E+02  0.17589278655E+02  0.00000000000E+00 0.  1.
</event>
<event>
 7    1  0.3220798E-013  0.5930191E+02  0.7816164E-02  0.1266605E+00
        -11   -1    0    0    0    0  0.00000000000E+00  0.00000000000E+00  0.45593999997E+02  0.45594000000E+02  0.51100000000E-03 0.  1.
         11   -1    0    0    0    0 -0.00000000000E+00 -0.00000000000E+00 -0.45593999997E+02  0.45594000000E+02  0.51100000000E-03 0. -1.
    9900012    2    1    2    0    0  0.38063748118E+01  0.25548681107E+02  0.18694891532E+02  0.59301912674E+02  0.49999942819E+02 0.  0.
         12    1    1    2    0    0 -0.38063748118E+01 -0.25548681107E+02 -0.18694891532E+02  0.31886087326E+02  0.00000000000E+00 0. -1.
         11    1    3    3    0    0  0.14379717162E+02  0.53559246481E+01  0.20616068318E+02  0.25699892367E+02  0.51100000000E-03 0. -1.
        -11    1    3    3    0    0 -0.19273833244E+01 -0.37161784571E+01  0.56890297859E+01  0.70632746633E+01  0.51100000000E-03 0.  1.
        -12    1    3    3    0    0 -0.86459590261E+01  0.23908934916E+02 -0.76102065714E+01  0.26538745644E+02  0.00000000000E+00 0.  1.
</event>
<event>
 7    1  0.3220798E-013  0.5930195E+02  0.7816164E-02  0.1266605E+00
        -11   -1    0    0    0    0  0.00000000000E+00  0.00000000000E+00  0.45593999997E+02  0.45594000000E+02  0.51100000000E-03 0. -1.
         11   -1    0    0    0    0 -0.00000000000E+00 -0.00000000000E+00 -0.45593999997E+02  0.45594000000E+02  0.51100000000E-03 0.  1.
    9900012    2    1    2    0    0  0.11452958741E+02  0.28606565470E+02 -0.81984322437E+01  0.59301950650E+02  0.50000012077E+02 0.  0.
         12    1    1    2    0    0 -0.11452958741E+02 -0.28606565470E+02  0.81984322437E+01  0.31886049350E+02  0.00000000000E+00 0. -1.
         11    1    3    3    0    0 -0.60586946439E+01  0.74038246152E+01  0.28657226611E+01  0.99868296447E+01  0.51100000000E-03 0.  1.
        -11    1    3    3    0    0 -0.86137501971E+01  0.18699410878E+01 -0.14147317687E+02  0.16668532333E+02  0.51100000000E-03 0. -1.
         12    1    3    3    0    0  0.26125403582E+02  0.19332799767E+02  0.30831627825E+01  0.32646588672E+02  0.00000000000E+00 0. -1.
</event>
<event>
 7    1  0.3220798E-013  0.5930194E+02  0.7816164E-02  0.1266605E+00
        -11   -1    0    0    0    0  0.00000000000E+00  0.00000000000E+00  0.45593999997E+02  0.45594000000E+02  0.51100000000E-03 0.  1.
         11   -1    0    0    0    0 -0.00000000000E+00 -0.00000000000E+00 -0.45593999997E+02  0.45594000000E+02  0.51100000000E-03 0. -1.
    9900012    2    1    2    0    0  0.27708488764E+01 -0.30698029719E+02  0.81654223914E+01  0.59301941057E+02  0.49999994582E+02 0.  0.
         12    1    1    2    0    0 -0.27708488764E+01  0.30698029719E+02 -0.81654223914E+01  0.31886058943E+02  0.00000000000E+00 0. -1.
         11    1    3    3    0    0 -0.44479990543E+01  0.28048950021E+01 -0.54573382334E+01  0.75785666465E+01  0.51100000000E-03 0. -1.
        -11    1    3    3    0    0  0.27814294452E+01  0.10336191171E-01  0.17478510499E+02  0.17698440217E+02  0.51100000000E-03 0.  1.
         12    1    3    3    0    0  0.44374184855E+01 -0.33513260912E+02 -0.38557498740E+01  0.34024934193E+02  0.00000000000E+00 0. -1.
</event>
<event>
 7    1  0.3220798E-013  0.5930194E+02  0.7816164E-02  0.1266605E+00
        -11   -1    0    0    0    0  0.00000000000E+00  0.00000000000E+00  0.45593999997E+02  0.45594000000E+02  0.51100000000E-03 0.  1.
         11   -1    0    0    0    0 -0.00000000000E+00 -0.00000000000E+00 -0.45593999997E+02  0.45594000000E+02  0.51100000000E-03 0. -1.
    9900012    2    1    2    0    0  0.14297397174E+02 -0.62949757123E+01  0.27797096703E+02  0.59301939248E+02  0.49999991283E+02 0.  0.
         12    1    1    2    0    0 -0.14297397174E+02  0.62949757123E+01 -0.27797096703E+02  0.31886060752E+02  0.00000000000E+00 0. -1.
         11    1    3    3    0    0  0.14841476838E+02 -0.13190936656E+02  0.20022072147E+02  0.28198468361E+02  0.51100000000E-03 0. -1.
        -11    1    3    3    0    0  0.13175654084E+02  0.93682084807E+01  0.45465722423E+01  0.16793823570E+02  0.51100000000E-03 0.  1.
        -12    1    3    3    0    0 -0.13719733748E+02 -0.24722475367E+01  0.32284523135E+01  0.14309647317E+02  0.00000000000E+00 0.  1.
</event>
<event>
 7    1  0.3220798E-013  0.5930156E+02  0.7816164E-02  0.1266606E+00
        -11   -1    0    0    0    0  0.00000000000E+00  0.00000000000E+00  0.45593999997E+02  0.45594000000E+02  0.51100000000E-03 0. -1.
         11   -1    0    0    0    0 -0.00000000000E+00 -0.00000000000E+00 -0.45593999997E+02  0.45594000000E+02  0.51100000000E-03 0.  1.
    9900012    2    1    2    0    0  0.20736687522E+02  0.80978806225E+01 -0.22828909804E+02  0.59301560832E+02  0.49999301138E+02 0.  0.
         12    1    1    2    0    0 -0.20736687522E+02 -0.80978806225E+01  0.22828909804E+02  0.31886439168E+02  0.00000000000E+00 0. -1.
         11    1    3    3    0    0  0.12278987997E+02  0.16647176129E+02 -0.98892052321E+01  0.22928113740E+02  0.51100000000E-03 0. -1.
        -11    1    3    3    0    0  0.57322366152E+01  0.67628292918E+01  0.68501125672E+01  0.11203501198E+02  0.51100000000E-03 0.  1.
        -12    1    3    3    0    0  0.27254629094E+01 -0.15312124798E+02 -0.19789817140E+02  0.25169945894E+02  0.00000000000E+00 0.  1.
</event>
<event>
 7    1  0.3220798E-013  0.5930191E+02  0.7816164E-02  0.1266605E+00
        -11   -1    0    0    0    0  0.00000000000E+00  0.00000000000E+00  0.45593999997E+02  0.45594000000E+02  0.51100000000E-03 0.  1.
         11   -1    0    0    0    0 -0.00000000000E+00 -0.00000000000E+00 -0.45593999997E+02  0.45594000000E+02  0.51100000000E-03 0. -1.
    9900012    2    1    2    0    0  0.92144102263E+01  0.26874280421E+02  0.14477238576E+02  0.59301909917E+02  0.49999937791E+02 0.  0.
         12    1    1    2    0    0 -0.92144102263E+01 -0.26874280421E+02 -0.14477238576E+02  0.31886090083E+02  0.00000000000E+00 0. -1.
         11    1    3    3    0    0  0.17068645387E+01  0.24633398937E+01  0.37468696097E+01  0.47979643723E+01  0.51100000000E-03 0. -1.
        -11    1    3    3    0    0  0.24356565913E+02  0.72668343433E+00  0.45687919584E+01  0.24792019525E+02  0.51100000000E-03 0.  1.
         12    1    3    3    0    0 -0.16849020226E+02  0.23684257093E+02  0.61615770083E+01  0.29711926020E+02  0.00000000000E+00 0. -1.
</event>
<event>
 7    1  0.3220798E-013  0.5930194E+02  0.7816164E-02  0.1266605E+00
        -11   -1    0    0    0    0  0.00000000000E+00  0.00000000000E+00  0.45593999997E+02  0.45594000000E+02  0.51100000000E-03 0.  1.
         11   -1    0    0    0    0 -0.00000000000E+00 -0.00000000000E+00 -0.45593999997E+02  0.45594000000E+02  0.51100000000E-03 0. -1.
    9900012    2    1    2    0    0 -0.41303479340E+01  0.30521434077E+02 -0.82524437963E+01  0.59301944415E+02  0.50000000706E+02 0.  0.
         12    1    1    2    0    0  0.41303479340E+01 -0.30521434077E+02  0.82524437963E+01  0.31886055585E+02  0.00000000000E+00 0. -1.
         11    1    3    3    0    0 -0.34644609679E+01  0.21765197793E+02 -0.84495870965E+01  0.23603428716E+02  0.51100000000E-03 0. -1.
        -11    1    3    3    0    0  0.10486977360E+01  0.20040492309E+02  0.82837442154E+01  0.21710401134E+02  0.51100000000E-03 0.  1.
         12    1    3    3    0    0 -0.17145847020E+01 -0.11284256025E+02 -0.80866009151E+01  0.13988114565E+02  0.00000000000E+00 0. -1.
</event>
<event>
 7    1  0.3220798E-013  0.5930195E+02  0.7816164E-02  0.1266605E+00
        -11   -1    0    0    0    0  0.00000000000E+00  0.00000000000E+00  0.45593999997E+02  0.45594000000E+02  0.51100000000E-03 0.  1.
         11   -1    0    0    0    0 -0.00000000000E+00 -0.00000000000E+00 -0.45593999997E+02  0.45594000000E+02  0.51100000000E-03 0. -1.
    9900012    2    1    2    0    0  0.21130730271E+02 -0.23646725622E+02  0.33233912645E+01  0.59301947815E+02  0.50000006907E+02 0.  0.
         12    1    1    2    0    0 -0.21130730271E+02  0.23646725622E+02 -0.33233912645E+01  0.31886052185E+02  0.00000000000E+00 0. -1.
         11    1    3    3    0    0  0.65021237166E+01  0.13286289144E+02  0.92284879423E-02  0.14791997075E+02  0.51100000000E-03 0. -1.
        -11    1    3    3    0    0  0.11076488784E+02 -0.16962932238E+02 -0.74028601521E+01  0.21569237645E+02  0.51100000000E-03 0.  1.
        -12    1    3    3    0    0  0.35521177704E+01 -0.19970082528E+02  0.10717022929E+02  0.22940713094E+02  0.00000000000E+00 0.  1.
</event>
<event>
 7    1  0.3220798E-013  0.5930196E+02  0.7816164E-02  0.1266605E+00
        -11   -1    0    0    0    0  0.00000000000E+00  0.00000000000E+00  0.45593999997E+02  0.45594000000E+02  0.51100000000E-03 0.  1.
         11   -1    0    0    0    0 -0.00000000000E+00 -0.00000000000E+00 -0.45593999997E+02  0.45594000000E+02  0.51100000000E-03 0. -1.
    9900012    2    1    2    0    0  0.65111956855E+01 -0.22977324164E+02  0.21127388092E+02  0.59301958813E+02  0.50000026964E+02 0.  0.
         12    1    1    2    0    0 -0.65111956855E+01  0.22977324164E+02 -0.21127388092E+02  0.31886041187E+02  0.00000000000E+00 0. -1.
         11    1    3    3    0    0 -0.16595041929E+02 -0.12618829062E+02  0.10389234155E+02  0.23293055834E+02  0.51100000000E-03 0. -1.
        -11    1    3    3    0    0 -0.30521700919E+01 -0.56051738872E+01 -0.17751531738E+01  0.66245668256E+01  0.51100000000E-03 0.  1.
        -12    1    3    3    0    0  0.26158407706E+02 -0.47533212150E+01  0.12513307111E+02  0.29384336153E+02  0.00000000000E+00 0.  1.
</event>
<event>
 7    1  0.3220798E-013  0.5930194E+02  0.7816164E-02  0.1266605E+00
        -11   -1    0    0    0    0  0.00000000000E+00  0.00000000000E+00  0.45593999997E+02  0.45594000000E+02  0.51100000000E-03 0. -1.
         11   -1    0    0    0    0 -0.00000000000E+00 -0.00000000000E+00 -0.45593999997E+02  0.45594000000E+02  0.51100000000E-03 0.  1.
    9900012    2    1    2    0    0  0.17311972178E+02  0.14137555693E+02 -0.22740840313E+02  0.59301942235E+02  0.49999996731E+02 0.  0.
         12    1    1    2    0    0 -0.17311972178E+02 -0.14137555693E+02  0.22740840313E+02  0.31886057765E+02  0.00000000000E+00 0. -1.
         11    1    3    3    0    0 -0.94414352114E+01 -0.20852493591E+01  0.53473167209E+01  0.11049106757E+02  0.51100000000E-03 0. -1.
        -11    1    3    3    0    0 -0.79242446582E+00  0.10760735397E+02 -0.10850999741E+02  0.15302469031E+02  0.51100000000E-03 0.  1.
         12    1    3    3    0    0  0.27545831855E+02  0.54620696551E+01 -0.17237157293E+02  0.32950366448E+02  0.00000000000E+00 0. -1.
</event>
<event>
 7    1  0.3220798E-013  0.5930198E+02  0.7816164E-02  0.1266605E+00
        -11   -1    0    0    0    0  0.00000000000E+00  0.00000000000E+00  0.45593999997E+02  0.45594000000E+02  0.51100000000E-03 0.  1.
         11   -1    0    0    0    0 -0.00000000000E+00 -0.00000000000E+00 -0.45593999997E+02  0.45594000000E+02  0.51100000000E-03 0. -1.
    9900012    2    1    2    0    0 -0.29617795772E+02 -0.11538937531E+02 -0.25214206488E+01  0.59301976921E+02  0.50000059989E+02 0.  0.
         12    1    1    2    0    0  0.29617795772E+02  0.11538937531E+02  0.25214206488E+01  0.31886023079E+02  0.00000000000E+00 0. -1.
         11    1    3    3    0    0 -0.95515836106E+01  0.33107243612E+01 -0.13622571922E+02  0.16963729286E+02  0.51100000000E-03 0. -1.
        -11    1    3    3    0    0 -0.22248082373E+02 -0.13217931484E+01  0.16374480901E+02  0.27655884210E+02  0.51100000000E-03 0.  1.
         12    1    3    3    0    0  0.21818702120E+01 -0.13527868744E+02 -0.52733296277E+01  0.14682363425E+02  0.00000000000E+00 0. -1.
</event>
<event>
 7    1  0.3220798E-013  0.5930209E+02  0.7816164E-02  0.1266604E+00
        -11   -1    0    0    0    0  0.00000000000E+00  0.00000000000E+00  0.45593999997E+02  0.45594000000E+02  0.51100000000E-03 0. -1.
         11   -1    0    0    0    0 -0.00000000000E+00 -0.00000000000E+00 -0.45593999997E+02  0.45594000000E+02  0.51100000000E-03 0.  1.
    9900012    2    1    2    0    0  0.18528615213E+00 -0.30749910782E+02  0.84332609580E+01  0.59302090346E+02  0.50000266849E+02 0.  0.
         12    1    1    2    0    0 -0.18528615213E+00  0.30749910782E+02 -0.84332609580E+01  0.31885909654E+02  0.00000000000E+00 0. -1.
         11    1    3    3    0    0  0.98798447016E+01  0.75722204373E+01 -0.15759118092E+01  0.12547244796E+02  0.51100000000E-03 0. -1.
        -11    1    3    3    0    0  0.48659143100E+01 -0.17481188163E+02 -0.26766607690E+01  0.18342125689E+02  0.51100000000E-03 0.  1.
        -12    1    3    3    0    0 -0.14560472859E+02 -0.20840943057E+02  0.12685833536E+02  0.28412719861E+02  0.00000000000E+00 0.  1.
</event>
<event>
 7    1  0.3220798E-013  0.5930189E+02  0.7816164E-02  0.1266605E+00
        -11   -1    0    0    0    0  0.00000000000E+00  0.00000000000E+00  0.45593999997E+02  0.45594000000E+02  0.51100000000E-03 0. -1.
         11   -1    0    0    0    0 -0.00000000000E+00 -0.00000000000E+00 -0.45593999997E+02  0.45594000000E+02  0.51100000000E-03 0.  1.
    9900012    2    1    2    0    0 -0.15644735100E+02  0.27198168295E+02 -0.56767984103E+01  0.59301888052E+02  0.49999897914E+02 0.  0.
         12    1    1    2    0    0  0.15644735100E+02 -0.27198168295E+02  0.56767984103E+01  0.31886111948E+02  0.00000000000E+00 0. -1.
         11    1    3    3    0    0 -0.12342305800E+02  0.32225660028E+02 -0.20240033422E+01  0.34567647685E+02  0.51100000000E-03 0. -1.
        -11    1    3    3    0    0 -0.99615967168E+01  0.55522863379E+01 -0.43690395628E+01  0.12212690109E+02  0.51100000000E-03 0.  1.
         12    1    3    3    0    0  0.66591674173E+01 -0.10579778070E+02  0.71624449473E+00  0.12521550259E+02  0.00000000000E+00 0. -1.
</event>
<event>
 7    1  0.3320652E-013  0.5930191E+02  0.7816164E-02  0.1266605E+00
        -11   -1    0    0    0    0  0.00000000000E+00  0.00000000000E+00  0.45593999997E+02  0.45594000000E+02  0.51100000000E-03 0. -1.
         11   -1    0    0    0    0 -0.00000000000E+00 -0.00000000000E+00 -0.45593999997E+02  0.45594000000E+02  0.51100000000E-03 0.  1.
    9900012    2    1    2    0    0  0.14425934325E+02  0.54278419538E+01 -0.27913329276E+02  0.59301905842E+02  0.49999930358E+02 0.  0.
         12    1    1    2    0    0 -0.14425934325E+02 -0.54278419538E+01  0.27913329276E+02  0.31886094158E+02  0.00000000000E+00 0. -1.
         11    1    3    3    0    0 -0.77843846157E+01 -0.44912606574E+01 -0.36659392487E+01  0.97060381709E+01  0.51100000000E-03 0. -1.
        -11    1    3    3    0    0 -0.61509351615E+01  0.44258970283E+01 -0.18703646438E+02  0.20180410258E+02  0.51100000000E-03 0.  1.
         12    1    3    3    0    0  0.28361254102E+02  0.54932055828E+01 -0.55437435897E+01  0.29415457413E+02  0.00000000000E+00 0. -1.
</event>
<event>
 7    1  0.3220798E-013  0.5930200E+02  0.7816164E-02  0.1266605E+00
        -11   -1    0    0    0    0  0.00000000000E+00  0.00000000000E+00  0.45593999997E+02  0.45594000000E+02  0.51100000000E-03 0. -1.
         11   -1    0    0    0    0 -0.00000000000E+00 -0.00000000000E+00 -0.45593999997E+02  0.45594000000E+02  0.51100000000E-03 0.  1.
    9900012    2    1    2    0    0 -0.26994328328E+02 -0.22465614960E+01 -0.16821890779E+02  0.59302002919E+02  0.50000107404E+02 0.  0.
         12    1    1    2    0    0  0.26994328328E+02  0.22465614960E+01  0.16821890779E+02  0.31885997081E+02  0.00000000000E+00 0. -1.
         11    1    3    3    0    0 -0.10633406096E+02 -0.46079970746E+01  0.13040508067E+02  0.17445853753E+02  0.51100000000E-03 0. -1.
        -11    1    3    3    0    0 -0.53270272292E+01 -0.67993008353E+01  0.10039380038E+00  0.86381589546E+01  0.51100000000E-03 0.  1.
        -12    1    3    3    0    0 -0.11033895003E+02  0.91607364138E+01 -0.29962792646E+02  0.33217990212E+02  0.00000000000E+00 0.  1.
</event>
<event>
 7    1  0.3220798E-013  0.5930193E+02  0.7816164E-02  0.1266605E+00
        -11   -1    0    0    0    0  0.00000000000E+00  0.00000000000E+00  0.45593999997E+02  0.45594000000E+02  0.51100000000E-03 0.  1.
         11   -1    0    0    0    0 -0.00000000000E+00 -0.00000000000E+00 -0.45593999997E+02  0.45594000000E+02  0.51100000000E-03 0. -1.
    9900012    2    1    2    0    0  0.96022134689E+01 -0.40662136066E+01  0.30132785327E+02  0.59301931754E+02  0.49999977616E+02 0.  0.
         12    1    1    2    0    0 -0.96022134689E+01  0.40662136066E+01 -0.30132785327E+02  0.31886068246E+02  0.00000000000E+00 0. -1.
         11    1    3    3    0    0  0.14901030826E+02  0.82943042813E+01  0.97069645073E+01  0.19622980492E+02  0.51100000000E-03 0. -1.
        -11    1    3    3    0    0  0.19572101899E+01  0.39354697829E+01  0.21368297471E+02  0.21815653353E+02  0.51100000000E-03 0.  1.
         12    1    3    3    0    0 -0.72560275474E+01 -0.16295987671E+02 -0.94247665088E+00  0.17863297909E+02  0.00000000000E+00 0. -1.
</event>
<event>
 7    1  0.3220798E-013  0.5930180E+02  0.7816164E-02  0.1266605E+00
        -11   -1    0    0    0    0  0.00000000000E+00  0.00000000000E+00  0.45593999997E+02  0.45594000000E+02  0.51100000000E-03 0.  1.
         11   -1    0    0    0    0 -0.00000000000E+00 -0.00000000000E+00 -0.45593999997E+02  0.45594000000E+02  0.51100000000E-03 0. -1.
    9900012    2    1    2    0    0  0.10314747119E+02 -0.29777690842E+02  0.48605223809E+01  0.59301803020E+02  0.49999742835E+02 0.  0.
         12    1    1    2    0    0 -0.10314747119E+02  0.29777690842E+02 -0.48605223809E+01  0.31886196980E+02  0.00000000000E+00 0. -1.
         11    1    3    3    0    0  0.16922791386E+02 -0.25010629754E+02  0.31729896308E+01  0.30364129042E+02  0.51100000000E-03 0. -1.
        -11    1    3    3    0    0  0.84046405122E+01 -0.48205252566E+01 -0.66628993257E+01  0.11758812592E+02  0.51100000000E-03 0.  1.
         12    1    3    3    0    0 -0.15012684779E+02  0.53464168653E-01  0.83504320758E+01  0.17178861386E+02  0.00000000000E+00 0. -1.
</event>
<event>
 7    1  0.3220798E-013  0.5930195E+02  0.7816164E-02  0.1266605E+00
        -11   -1    0    0    0    0  0.00000000000E+00  0.00000000000E+00  0.45593999997E+02  0.45594000000E+02  0.51100000000E-03 0. -1.
         11   -1    0    0    0    0 -0.00000000000E+00 -0.00000000000E+00 -0.45593999997E+02  0.45594000000E+02  0.51100000000E-03 0.  1.
    9900012    2    1    2    0    0  0.20537951836E+02 -0.23821072421E+02 -0.52410951102E+01  0.59301952348E+02  0.50000015174E+02 0.  0.
         12    1    1    2    0    0 -0.20537951836E+02  0.23821072421E+02  0.52410951102E+01  0.31886047652E+02  0.00000000000E+00 0. -1.
         11    1    3    3    0    0 -0.48985149540E+01  0.12072431849E+01  0.49776684300E+01  0.70873174137E+01  0.51100000000E-03 0. -1.
        -11    1    3    3    0    0 -0.16298532099E+01 -0.17153801238E+02 -0.15915056745E+02  0.23456307251E+02  0.51100000000E-03 0.  1.
         12    1    3    3    0    0  0.27066320000E+02 -0.78745143678E+01  0.56962932048E+01  0.28758327683E+02  0.00000000000E+00 0. -1.
</event>
<event>
 7    1  0.3220798E-013  0.5930194E+02  0.7816164E-02  0.1266605E+00
        -11   -1    0    0    0    0  0.00000000000E+00  0.00000000000E+00  0.45593999997E+02  0.45594000000E+02  0.51100000000E-03 0. -1.
         11   -1    0    0    0    0 -0.00000000000E+00 -0.00000000000E+00 -0.45593999997E+02  0.45594000000E+02  0.51100000000E-03 0.  1.
    9900012    2    1    2    0    0  0.37076548227E+01 -0.25776646298E+02 -0.18399410545E+02  0.59301944944E+02  0.50000001671E+02 0.  0.
         12    1    1    2    0    0 -0.37076548227E+01  0.25776646298E+02  0.18399410545E+02  0.31886055056E+02  0.00000000000E+00 0. -1.
         11    1    3    3    0    0  0.63479385686E+00 -0.35348103733E+01 -0.15851082690E+02  0.16252835762E+02  0.51100000000E-03 0. -1.
        -11    1    3    3    0    0  0.16090873286E+02 -0.31367360693E+01 -0.94497565750E+01  0.18922294149E+02  0.51100000000E-03 0.  1.
         12    1    3    3    0    0 -0.13018012320E+02 -0.19105099855E+02  0.69014287198E+01  0.24126815033E+02  0.00000000000E+00 0. -1.
</event>
<event>
 7    1  0.3220798E-013  0.5930196E+02  0.7816164E-02  0.1266605E+00
        -11   -1    0    0    0    0  0.00000000000E+00  0.00000000000E+00  0.45593999997E+02  0.45594000000E+02  0.51100000000E-03 0.  1.
         11   -1    0    0    0    0 -0.00000000000E+00 -0.00000000000E+00 -0.45593999997E+02  0.45594000000E+02  0.51100000000E-03 0. -1.
    9900012    2    1    2    0    0  0.24587823908E+02  0.14779028438E+02  0.13919015061E+02  0.59301956872E+02  0.50000023426E+02 0.  0.
         12    1    1    2    0    0 -0.24587823908E+02 -0.14779028438E+02 -0.13919015061E+02  0.31886043128E+02  0.00000000000E+00 0. -1.
         11    1    3    3    0    0  0.17525021466E+01 -0.76755402922E+00 -0.53289325866E+01  0.56619718946E+01  0.51100000000E-03 0. -1.
        -11    1    3    3    0    0  0.21753379996E+01  0.18866769875E+02 -0.68497857449E+01  0.20189271060E+02  0.51100000000E-03 0.  1.
        -12    1    3    3    0    0  0.20659983761E+02 -0.33201874075E+01  0.26097733392E+02  0.33450713918E+02  0.00000000000E+00 0.  1.
</event>
<event>
 7    1  0.3220798E-013  0.5930195E+02  0.7816164E-02  0.1266605E+00
        -11   -1    0    0    0    0  0.00000000000E+00  0.00000000000E+00  0.45593999997E+02  0.45594000000E+02  0.51100000000E-03 0. -1.
         11   -1    0    0    0    0 -0.00000000000E+00 -0.00000000000E+00 -0.45593999997E+02  0.45594000000E+02  0.51100000000E-03 0.  1.
    9900012    2    1    2    0    0 -0.73648106435E+01 -0.13577054662E+02 -0.27895219394E+02  0.59301951105E+02  0.50000012907E+02 0.  0.
         12    1    1    2    0    0  0.73648106435E+01  0.13577054662E+02  0.27895219394E+02  0.31886048895E+02  0.00000000000E+00 0. -1.
         11    1    3    3    0    0  0.39340178527E+01  0.50764610422E+01  0.97875431872E+01  0.11706534717E+02  0.51100000000E-03 0. -1.
        -11    1    3    3    0    0 -0.13638630873E+02 -0.48864803768E+01 -0.14275528079E+02  0.20339140708E+02  0.51100000000E-03 0.  1.
        -12    1    3    3    0    0  0.23398023769E+01 -0.13767035327E+02 -0.23407234502E+02  0.27256275679E+02  0.00000000000E+00 0.  1.
</event>
<event>
 7    1  0.3220798E-013  0.5930194E+02  0.7816164E-02  0.1266605E+00
        -11   -1    0    0    0    0  0.00000000000E+00  0.00000000000E+00  0.45593999997E+02  0.45594000000E+02  0.51100000000E-03 0.  1.
         11   -1    0    0    0    0 -0.00000000000E+00 -0.00000000000E+00 -0.45593999997E+02  0.45594000000E+02  0.51100000000E-03 0. -1.
    9900012    2    1    2    0    0 -0.23748934989E+02  0.13680462418E+02  0.16295813613E+02  0.59301944955E+02  0.50000001690E+02 0.  0.
         12    1    1    2    0    0  0.23748934989E+02 -0.13680462418E+02 -0.16295813613E+02  0.31886055045E+02  0.00000000000E+00 0. -1.
         11    1    3    3    0    0 -0.11699725001E+02  0.69986034624E+01 -0.55724081901E+01  0.14728059914E+02  0.51100000000E-03 0. -1.
        -11    1    3    3    0    0  0.13989551569E+00 -0.91797247387E+01 -0.54788556730E+01  0.10691341206E+02  0.51100000000E-03 0.  1.
        -12    1    3    3    0    0 -0.12189105503E+02  0.15861583694E+02  0.27347077476E+02  0.33882543835E+02  0.00000000000E+00 0.  1.
</event>
<event>
 7    1  0.3220798E-013  0.5930194E+02  0.7816164E-02  0.1266605E+00
        -11   -1    0    0    0    0  0.00000000000E+00  0.00000000000E+00  0.45593999997E+02  0.45594000000E+02  0.51100000000E-03 0. -1.
         11   -1    0    0    0    0 -0.00000000000E+00 -0.00000000000E+00 -0.45593999997E+02  0.45594000000E+02  0.51100000000E-03 0.  1.
    9900012    2    1    2    0    0 -0.24643713902E+02 -0.13615009519E+01  0.20187986930E+02  0.59301935081E+02  0.49999983684E+02 0.  0.
         12    1    1    2    0    0  0.24643713902E+02  0.13615009519E+01 -0.20187986930E+02  0.31886064919E+02  0.00000000000E+00 0. -1.
         11    1    3    3    0    0  0.45804448669E+01 -0.14482705471E+02  0.44033334391E+01  0.15815137640E+02  0.51100000000E-03 0. -1.
        -11    1    3    3    0    0 -0.97504238586E+01 -0.91023016213E+00  0.16819066313E+02  0.19462278291E+02  0.51100000000E-03 0.  1.
        -12    1    3    3    0    0 -0.19473734910E+02  0.14031434681E+02 -0.10344128215E+01  0.24024519151E+02  0.00000000000E+00 0.  1.
</event>
<event>
 7    1  0.3220798E-013  0.5930194E+02  0.7816164E-02  0.1266605E+00
        -11   -1    0    0    0    0  0.00000000000E+00  0.00000000000E+00  0.45593999997E+02  0.45594000000E+02  0.51100000000E-03 0.  1.
         11   -1    0    0    0    0 -0.00000000000E+00 -0.00000000000E+00 -0.45593999997E+02  0.45594000000E+02  0.51100000000E-03 0. -1.
    9900012    2    1    2    0    0  0.29059212575E+02 -0.62363915783E+01  0.11549481802E+02  0.59301938072E+02  0.49999989138E+02 0.  0.
         12    1    1    2    0    0 -0.29059212575E+02  0.62363915783E+01 -0.11549481802E+02  0.31886061928E+02  0.00000000000E+00 0. -1.
         11    1    3    3    0    0  0.14144367130E+02 -0.84336128550E+01  0.40788891126E+01  0.16965443819E+02  0.51100000000E-03 0. -1.
        -11    1    3    3    0    0  0.16000346096E+02 -0.10240521914E+02  0.17875085663E+02  0.26084440802E+02  0.51100000000E-03 0.  1.
         12    1    3    3    0    0 -0.10855006512E+01  0.12437743190E+02 -0.10404492974E+02  0.16252053451E+02  0.00000000000E+00 0. -1.
</event>
<event>
 7    1  0.3220798E-013  0.5930195E+02  0.7816164E-02  0.1266605E+00
        -11   -1    0    0    0    0  0.00000000000E+00  0.00000000000E+00  0.45593999997E+02  0.45594000000E+02  0.51100000000E-03 0.  1.
         11   -1    0    0    0    0 -0.00000000000E+00 -0.00000000000E+00 -0.45593999997E+02  0.45594000000E+02  0.51100000000E-03 0. -1.
    9900012    2    1    2    0    0  0.17781221607E+02  0.26052962080E+02  0.46681694236E+01  0.59301945356E+02  0.50000002422E+02 0.  0.
         12    1    1    2    0    0 -0.17781221607E+02 -0.26052962080E+02 -0.46681694236E+01  0.31886054644E+02  0.00000000000E+00 0. -1.
         11    1    3    3    0    0  0.21174466681E+01 -0.12242971085E+02 -0.72414351733E+01  0.14380970239E+02  0.51100000000E-03 0. -1.
        -11    1    3    3    0    0  0.21475046105E+01  0.91555534591E+01  0.83964444721E+01  0.12606990729E+02  0.51100000000E-03 0.  1.
        -12    1    3    3    0    0  0.13516270328E+02  0.29140379706E+02  0.35131601248E+01  0.32313984389E+02  0.00000000000E+00 0.  1.
</event>
<event>
 7    1  0.3220798E-013  0.5930194E+02  0.7816164E-02  0.1266605E+00
        -11   -1    0    0    0    0  0.00000000000E+00  0.00000000000E+00  0.45593999997E+02  0.45594000000E+02  0.51100000000E-03 0.  1.
         11   -1    0    0    0    0 -0.00000000000E+00 -0.00000000000E+00 -0.45593999997E+02  0.45594000000E+02  0.51100000000E-03 0. -1.
    9900012    2    1    2    0    0  0.26535024165E+01 -0.31558678645E+02  0.37053492079E+01  0.59301939007E+02  0.49999990843E+02 0.  0.
         12    1    1    2    0    0 -0.26535024165E+01  0.31558678645E+02 -0.37053492079E+01  0.31886060993E+02  0.00000000000E+00 0. -1.
         11    1    3    3    0    0  0.46747437274E+01 -0.24959148182E+02 -0.20546343727E+01  0.25476142360E+02  0.51100000000E-03 0. -1.
        -11    1    3    3    0    0 -0.33154489953E+01 -0.14775175632E+02  0.15073150906E+02  0.21365811370E+02  0.51100000000E-03 0.  1.
         12    1    3    3    0    0  0.12942076845E+01  0.81756451690E+01 -0.93131673252E+01  0.12459985276E+02  0.00000000000E+00 0. -1.
</event>
<event>
 7    1  0.3220798E-013  0.5930197E+02  0.7816164E-02  0.1266605E+00
        -11   -1    0    0    0    0  0.00000000000E+00  0.00000000000E+00  0.45593999997E+02  0.45594000000E+02  0.51100000000E-03 0.  1.
         11   -1    0    0    0    0 -0.00000000000E+00 -0.00000000000E+00 -0.45593999997E+02  0.45594000000E+02  0.51100000000E-03 0. -1.
    9900012    2    1    2    0    0  0.13967030627E+01 -0.16837361011E+01  0.31810900121E+02  0.59301966800E+02  0.50000041532E+02 0.  0.
         12    1    1    2    0    0 -0.13967030627E+01  0.16837361011E+01 -0.31810900121E+02  0.31886033200E+02  0.00000000000E+00 0. -1.
         11    1    3    3    0    0 -0.46124985754E+01 -0.16770156419E+02  0.17819385832E+01  0.17483952493E+02  0.51100000000E-03 0. -1.
        -11    1    3    3    0    0 -0.74982369709E+01  0.12585120140E+02  0.20083257889E+02  0.24858520759E+02  0.51100000000E-03 0.  1.
        -12    1    3    3    0    0  0.13507438609E+02  0.25013001776E+01  0.99457036487E+01  0.16959493549E+02  0.00000000000E+00 0.  1.
</event>
<event>
 7    1  0.3220798E-013  0.5930230E+02  0.7816164E-02  0.1266604E+00
        -11   -1    0    0    0    0  0.00000000000E+00  0.00000000000E+00  0.45593999997E+02  0.45594000000E+02  0.51100000000E-03 0. -1.
         11   -1    0    0    0    0 -0.00000000000E+00 -0.00000000000E+00 -0.45593999997E+02  0.45594000000E+02  0.51100000000E-03 0.  1.
    9900012    2    1    2    0    0 -0.83262751427E+01 -0.28126901972E+02  0.12499928536E+02  0.59302302803E+02  0.50000654317E+02 0.  0.
         12    1    1    2    0    0  0.83262751427E+01  0.28126901972E+02 -0.12499928536E+02  0.31885697197E+02  0.00000000000E+00 0. -1.
         11    1    3    3    0    0 -0.36550962839E+01  0.91563620308E+01  0.39709001813E+01  0.10628581420E+02  0.51100000000E-03 0. -1.
        -11    1    3    3    0    0 -0.11927642040E+02 -0.76459557076E+01  0.11177583037E+02  0.18046264049E+02  0.51100000000E-03 0.  1.
         12    1    3    3    0    0  0.72564631810E+01 -0.29637308295E+02 -0.26485546823E+01  0.30627457335E+02  0.00000000000E+00 0. -1.
</event>
<event>
 7    1  0.3220798E-013  0.5930193E+02  0.7816164E-02  0.1266605E+00
        -11   -1    0    0    0    0  0.00000000000E+00  0.00000000000E+00  0.45593999997E+02  0.45594000000E+02  0.51100000000E-03 0.  1.
         11   -1    0    0    0    0 -0.00000000000E+00 -0.00000000000E+00 -0.45593999997E+02  0.45594000000E+02  0.51100000000E-03 0. -1.
    9900012    2    1    2    0    0  0.22466261471E+02  0.22547056549E+02  0.19023455383E+01  0.59301928086E+02  0.49999970927E+02 0.  0.
         12    1    1    2    0    0 -0.22466261471E+02 -0.22547056549E+02 -0.19023455383E+01  0.31886071914E+02  0.00000000000E+00 0. -1.
         11    1    3    3    0    0 -0.32467392499E+01  0.86565640381E+01 -0.85312227130E+01  0.12580110411E+02  0.51100000000E-03 0. -1.
        -11    1    3    3    0    0 -0.77209283897E+01 -0.10458055247E+01  0.60038199715E+01  0.98362746457E+01  0.51100000000E-03 0.  1.
        -12    1    3    3    0    0  0.33433929111E+02  0.14936298036E+02  0.44297482798E+01  0.36885543030E+02  0.00000000000E+00 0.  1.
</event>
<event>
 7    1  0.3220798E-013  0.5930194E+02  0.7816164E-02  0.1266605E+00
        -11   -1    0    0    0    0  0.00000000000E+00  0.00000000000E+00  0.45593999997E+02  0.45594000000E+02  0.51100000000E-03 0. -1.
         11   -1    0    0    0    0 -0.00000000000E+00 -0.00000000000E+00 -0.45593999997E+02  0.45594000000E+02  0.51100000000E-03 0.  1.
    9900012    2    1    2    0    0 -0.18207627441E+02 -0.10321443271E+01 -0.26156033000E+02  0.59301935940E+02  0.49999985250E+02 0.  0.
         12    1    1    2    0    0  0.18207627441E+02  0.10321443271E+01  0.26156033000E+02  0.31886064060E+02  0.00000000000E+00 0. -1.
         11    1    3    3    0    0 -0.75808797817E+01  0.79640181831E+01  0.49694868613E+01  0.12066114694E+02  0.51100000000E-03 0. -1.
        -11    1    3    3    0    0 -0.14530296000E+02  0.77998922788E+01 -0.78386908985E+01  0.18259597385E+02  0.51100000000E-03 0.  1.
        -12    1    3    3    0    0  0.39035483405E+01 -0.16796054789E+02 -0.23286828962E+02  0.28976223861E+02  0.00000000000E+00 0.  1.
</event>
<event>
 7    1  0.3220798E-013  0.5930197E+02  0.7816164E-02  0.1266605E+00
        -11   -1    0    0    0    0  0.00000000000E+00  0.00000000000E+00  0.45593999997E+02  0.45594000000E+02  0.51100000000E-03 0. -1.
         11   -1    0    0    0    0 -0.00000000000E+00 -0.00000000000E+00 -0.45593999997E+02  0.45594000000E+02  0.51100000000E-03 0.  1.
    9900012    2    1    2    0    0  0.26435174483E+01  0.21756167422E+02 -0.23160312223E+02  0.59301967514E+02  0.50000042834E+02 0.  0.
         12    1    1    2    0    0 -0.26435174483E+01 -0.21756167422E+02  0.23160312223E+02  0.31886032486E+02  0.00000000000E+00 0. -1.
         11    1    3    3    0    0 -0.22775780114E+01 -0.37289630878E+01  0.49481965132E+01  0.66013011068E+01  0.51100000000E-03 0. -1.
        -11    1    3    3    0    0 -0.75951228984E+01  0.12307704338E+02  0.46895224452E+01  0.15203851451E+02  0.51100000000E-03 0.  1.
        -12    1    3    3    0    0  0.12516218358E+02  0.13177426171E+02 -0.32798031182E+02  0.37496814957E+02  0.00000000000E+00 0.  1.
</event>
<event>
 7    1  0.3220798E-013  0.5930194E+02  0.7816164E-02  0.1266605E+00
        -11   -1    0    0    0    0  0.00000000000E+00  0.00000000000E+00  0.45593999997E+02  0.45594000000E+02  0.51100000000E-03 0.  1.
         11   -1    0    0    0    0 -0.00000000000E+00 -0.00000000000E+00 -0.45593999997E+02  0.45594000000E+02  0.51100000000E-03 0. -1.
    9900012    2    1    2    0    0  0.25473457570E+02 -0.25048930802E+01  0.19014452884E+02  0.59301938023E+02  0.49999989049E+02 0.  0.
         12    1    1    2    0    0 -0.25473457570E+02  0.25048930802E+01 -0.19014452884E+02  0.31886061977E+02  0.00000000000E+00 0. -1.
         11    1    3    3    0    0  0.12437209402E+02 -0.48616552958E+01 -0.83559455006E+01  0.15752513939E+02  0.51100000000E-03 0. -1.
        -11    1    3    3    0    0  0.86068058128E+01  0.16740330076E+02  0.15253100334E+02  0.24227522106E+02  0.51100000000E-03 0.  1.
         12    1    3    3    0    0  0.44294423554E+01 -0.14383567861E+02  0.12117298051E+02  0.19321901978E+02  0.00000000000E+00 0. -1.
</event>
<event>
 7    1  0.3220798E-013  0.5930194E+02  0.7816164E-02  0.1266605E+00
        -11   -1    0    0    0    0  0.00000000000E+00  0.00000000000E+00  0.45593999997E+02  0.45594000000E+02  0.51100000000E-03 0.  1.
         11   -1    0    0    0    0 -0.00000000000E+00 -0.00000000000E+00 -0.45593999997E+02  0.45594000000E+02  0.51100000000E-03 0. -1.
    9900012    2    1    2    0    0 -0.12188332120E+02  0.81974821915E+01  0.28301348955E+02  0.59301944947E+02  0.50000001676E+02 0.  0.
         12    1    1    2    0    0  0.12188332120E+02 -0.81974821915E+01 -0.28301348955E+02  0.31886055053E+02  0.00000000000E+00 0. -1.
         11    1    3    3    0    0 -0.12828768340E+01 -0.15288729698E+02  0.75276882864E+01  0.17089678755E+02  0.51100000000E-03 0. -1.
        -11    1    3    3    0    0 -0.87173269152E+01 -0.33534516868E+00 -0.22515367364E+01  0.90096427713E+01  0.51100000000E-03 0.  1.
        -12    1    3    3    0    0 -0.21881283712E+01  0.23821557058E+02  0.23025197405E+02  0.33202623421E+02  0.00000000000E+00 0.  1.
</event>
<event>
 7    1  0.3220798E-013  0.5930199E+02  0.7816164E-02  0.1266605E+00
        -11   -1    0    0    0    0  0.00000000000E+00  0.00000000000E+00  0.45593999997E+02  0.45594000000E+02  0.51100000000E-03 0.  1.
         11   -1    0    0    0    0 -0.00000000000E+00 -0.00000000000E+00 -0.45593999997E+02  0.45594000000E+02  0.51100000000E-03 0. -1.
    9900012    2    1    2    0    0 -0.30055165278E+01 -0.85392995060E+01  0.30573927751E+02  0.59301987020E+02  0.50000078407E+02 0.  0.
         12    1    1    2    0    0  0.30055165278E+01  0.85392995060E+01 -0.30573927751E+02  0.31886012980E+02  0.00000000000E+00 0. -1.
         11    1    3    3    0    0  0.76449941753E+01 -0.14659879753E+02 -0.69715290287E+01  0.17943250195E+02  0.51100000000E-03 0. -1.
        -11    1    3    3    0    0 -0.21449994617E+01 -0.36259555906E+01  0.67522743601E+01  0.79587553003E+01  0.51100000000E-03 0.  1.
        -12    1    3    3    0    0 -0.85055112414E+01  0.97465358372E+01  0.30793182420E+02  0.33399981524E+02  0.00000000000E+00 0.  1.
</event>
<event>
 7    1  0.3220798E-013  0.5930195E+02  0.7816164E-02  0.1266605E+00
        -11   -1    0    0    0    0  0.00000000000E+00  0.00000000000E+00  0.45593999997E+02  0.45594000000E+02  0.51100000000E-03 0. -1.
         11   -1    0    0    0    0 -0.00000000000E+00 -0.00000000000E+00 -0.45593999997E+02  0.45594000000E+02  0.51100000000E-03 0.  1.
    9900012    2    1    2    0    0 -0.10718164676E+02  0.29243739895E+02 -0.68297132484E+01  0.59301947247E+02  0.50000005872E+02 0.  0.
         12    1    1    2    0    0  0.10718164676E+02 -0.29243739895E+02  0.68297132484E+01  0.31886052753E+02  0.00000000000E+00 0. -1.
         11    1    3    3    0    0  0.52914313382E+01  0.10713981459E+01  0.12726014525E+02  0.13823841201E+02  0.51100000000E-03 0. -1.
        -11    1    3    3    0    0 -0.63214943938E+01  0.20870044535E+02  0.75551271139E+00  0.21819506181E+02  0.51100000000E-03 0.  1.
        -12    1    3    3    0    0 -0.96881016202E+01  0.73022972148E+01 -0.20311240484E+02  0.23658599866E+02  0.00000000000E+00 0.  1.
</event>
<event>
 7    1  0.3220798E-013  0.5930195E+02  0.7816164E-02  0.1266605E+00
        -11   -1    0    0    0    0  0.00000000000E+00  0.00000000000E+00  0.45593999997E+02  0.45594000000E+02  0.51100000000E-03 0.  1.
         11   -1    0    0    0    0 -0.00000000000E+00 -0.00000000000E+00 -0.45593999997E+02  0.45594000000E+02  0.51100000000E-03 0. -1.
    9900012    2    1    2    0    0  0.25519425591E+02 -0.19114712903E+02 -0.32703389523E+00  0.59301948457E+02  0.50000008078E+02 0.  0.
         12    1    1    2    0    0 -0.25519425591E+02  0.19114712903E+02  0.32703389523E+00  0.31886051543E+02  0.00000000000E+00 0. -1.
         11    1    3    3    0    0  0.68172850001E+00 -0.68335057507E+01  0.11754541754E+01  0.69672984271E+01  0.51100000000E-03 0. -1.
        -11    1    3    3    0    0  0.16459311038E+02 -0.14167886856E+02  0.19786091443E+02  0.29379029131E+02  0.51100000000E-03 0.  1.
         12    1    3    3    0    0  0.83783860527E+01  0.18866797038E+01 -0.21288579514E+02  0.22955620899E+02  0.00000000000E+00 0. -1.
</event>
<event>
 7    1  0.3220798E-013  0.5930193E+02  0.7816164E-02  0.1266605E+00
        -11   -1    0    0    0    0  0.00000000000E+00  0.00000000000E+00  0.45593999997E+02  0.45594000000E+02  0.51100000000E-03 0.  1.
         11   -1    0    0    0    0 -0.00000000000E+00 -0.00000000000E+00 -0.45593999997E+02  0.45594000000E+02  0.51100000000E-03 0. -1.
    9900012    2    1    2    0    0  0.24756104473E+02  0.16369022986E+02  0.11658126821E+02  0.59301928697E+02  0.49999972040E+02 0.  0.
         12    1    1    2    0    0 -0.24756104473E+02 -0.16369022986E+02 -0.11658126821E+02  0.31886071303E+02  0.00000000000E+00 0. -1.
         11    1    3    3    0    0 -0.78689172273E+00 -0.10119061643E+02 -0.67200583661E+01  0.12172665765E+02  0.51100000000E-03 0. -1.
        -11    1    3    3    0    0 -0.22654195456E+01  0.10466609924E+02  0.13373540975E+01  0.10792152949E+02  0.51100000000E-03 0.  1.
        -12    1    3    3    0    0  0.27808415741E+02  0.16021474704E+02  0.17040831089E+02  0.36337109983E+02  0.00000000000E+00 0.  1.
</event>
<event>
 7    1  0.3220798E-013  0.5930211E+02  0.7816164E-02  0.1266604E+00
        -11   -1    0    0    0    0  0.00000000000E+00  0.00000000000E+00  0.45593999997E+02  0.45594000000E+02  0.51100000000E-03 0.  1.
         11   -1    0    0    0    0 -0.00000000000E+00 -0.00000000000E+00 -0.45593999997E+02  0.45594000000E+02  0.51100000000E-03 0. -1.
    9900012    2    1    2    0    0  0.37985895804E+01 -0.31620912664E+02  0.15487063069E+01  0.59302111401E+02  0.50000305249E+02 0.  0.
         12    1    1    2    0    0 -0.37985895804E+01  0.31620912664E+02 -0.15487063069E+01  0.31885888599E+02  0.00000000000E+00 0. -1.
         11    1    3    3    0    0  0.11737468054E+02 -0.78331785483E+01 -0.80605472861E+01  0.16251131201E+02  0.51100000000E-03 0. -1.
        -11    1    3    3    0    0 -0.18936620991E+01  0.72133762193E+01  0.86916077769E+01  0.11452632826E+02  0.51100000000E-03 0.  1.
        -12    1    3    3    0    0 -0.60452163744E+01 -0.31001110335E+02  0.91764581610E+00  0.31598347375E+02  0.00000000000E+00 0.  1.
</event>
<event>
 7    1  0.3220798E-013  0.5930193E+02  0.7816164E-02  0.1266605E+00
        -11   -1    0    0    0    0  0.00000000000E+00  0.00000000000E+00  0.45593999997E+02  0.45594000000E+02  0.51100000000E-03 0.  1.
         11   -1    0    0    0    0 -0.00000000000E+00 -0.00000000000E+00 -0.45593999997E+02  0.45594000000E+02  0.51100000000E-03 0. -1.
    9900012    2    1    2    0    0  0.13507381967E+02 -0.16525371787E+02  0.23689330811E+02  0.59301926636E+02  0.49999968282E+02 0.  0.
         12    1    1    2    0    0 -0.13507381967E+02  0.16525371787E+02 -0.23689330811E+02  0.31886073364E+02  0.00000000000E+00 0. -1.
         11    1    3    3    0    0  0.34893268394E+01  0.35773242300E+01  0.97863896088E+01  0.10988451769E+02  0.51100000000E-03 0. -1.
        -11    1    3    3    0    0 -0.15762002598E+02 -0.73616373700E+01  0.69118939520E+01  0.18719206952E+02  0.51100000000E-03 0.  1.
         12    1    3    3    0    0  0.25780057726E+02 -0.12741058647E+02  0.69910472499E+01  0.29594267915E+02  0.00000000000E+00 0. -1.
</event>
<event>
 7    1  0.3220798E-013  0.5930192E+02  0.7816164E-02  0.1266605E+00
        -11   -1    0    0    0    0  0.00000000000E+00  0.00000000000E+00  0.45593999997E+02  0.45594000000E+02  0.51100000000E-03 0. -1.
         11   -1    0    0    0    0 -0.00000000000E+00 -0.00000000000E+00 -0.45593999997E+02  0.45594000000E+02  0.51100000000E-03 0.  1.
    9900012    2    1    2    0    0  0.27201988040E+02 -0.16464131490E+02 -0.23888319165E+01  0.59301916876E+02  0.49999950482E+02 0.  0.
         12    1    1    2    0    0 -0.27201988040E+02  0.16464131490E+02  0.23888319165E+01  0.31886083124E+02  0.00000000000E+00 0. -1.
         11    1    3    3    0    0 -0.62434092104E+01 -0.11985840000E+02 -0.57030524019E+01  0.14668514786E+02  0.51100000000E-03 0. -1.
        -11    1    3    3    0    0  0.57299254802E+01 -0.11077351891E+02 -0.70383170214E+01  0.14320533429E+02  0.51100000000E-03 0.  1.
        -12    1    3    3    0    0  0.27715471770E+02  0.65990604019E+01  0.10352537507E+02  0.30312868661E+02  0.00000000000E+00 0.  1.
</event>
<event>
 7    1  0.3220798E-013  0.5930195E+02  0.7816164E-02  0.1266605E+00
        -11   -1    0    0    0    0  0.00000000000E+00  0.00000000000E+00  0.45593999997E+02  0.45594000000E+02  0.51100000000E-03 0.  1.
         11   -1    0    0    0    0 -0.00000000000E+00 -0.00000000000E+00 -0.45593999997E+02  0.45594000000E+02  0.51100000000E-03 0. -1.
    9900012    2    1    2    0    0  0.14696900635E+02  0.23891923919E+02  0.15162367520E+02  0.59301948102E+02  0.50000007430E+02 0.  0.
         12    1    1    2    0    0 -0.14696900635E+02 -0.23891923919E+02 -0.15162367520E+02  0.31886051898E+02  0.00000000000E+00 0. -1.
         11    1    3    3    0    0  0.69887963978E+01 -0.65793139331E+01 -0.50240734900E+01  0.10833834114E+02  0.51100000000E-03 0. -1.
        -11    1    3    3    0    0  0.17261712636E+02  0.19979380983E+02  0.36121838934E+01  0.26649395121E+02  0.51100000000E-03 0.  1.
        -12    1    3    3    0    0 -0.95536083989E+01  0.10491856869E+02  0.16574257117E+02  0.21818718866E+02  0.00000000000E+00 0.  1.
</event>
<event>
 7    1  0.3220798E-013  0.5930193E+02  0.7816164E-02  0.1266605E+00
        -11   -1    0    0    0    0  0.00000000000E+00  0.00000000000E+00  0.45593999997E+02  0.45594000000E+02  0.51100000000E-03 0.  1.
         11   -1    0    0    0    0 -0.00000000000E+00 -0.00000000000E+00 -0.45593999997E+02  0.45594000000E+02  0.51100000000E-03 0. -1.
    9900012    2    1    2    0    0 -0.88453919972E+01 -0.66569398279E+01  0.29902601004E+02  0.59301931659E+02  0.49999977442E+02 0.  0.
         12    1    1    2    0    0  0.88453919972E+01  0.66569398279E+01 -0.29902601004E+02  0.31886068341E+02  0.00000000000E+00 0. -1.
         11    1    3    3    0    0 -0.96162852939E+01  0.13233472483E+02  0.17533515935E+02  0.23979614636E+02  0.51100000000E-03 0. -1.
        -11    1    3    3    0    0  0.64934093551E+01  0.44880477189E+01  0.15512948990E+01  0.80444672604E+01  0.51100000000E-03 0.  1.
        -12    1    3    3    0    0 -0.57225160584E+01 -0.24378460030E+02  0.10817790170E+02  0.27277849762E+02  0.00000000000E+00 0.  1.
</event>
<event>
 7    1  0.3220798E-013  0.5930196E+02  0.7816164E-02  0.1266605E+00
        -11   -1    0    0    0    0  0.00000000000E+00  0.00000000000E+00  0.45593999997E+02  0.45594000000E+02  0.51100000000E-03 0. -1.
         11   -1    0    0    0    0 -0.00000000000E+00 -0.00000000000E+00 -0.45593999997E+02  0.45594000000E+02  0.51100000000E-03 0.  1.
    9900012    2    1    2    0    0 -0.28477052902E+02 -0.13886344927E+02 -0.35980933395E+01  0.59301962412E+02  0.50000033528E+02 0.  0.
         12    1    1    2    0    0  0.28477052902E+02  0.13886344927E+02  0.35980933395E+01  0.31886037588E+02  0.00000000000E+00 0. -1.
         11    1    3    3    0    0 -0.20996783888E+02 -0.23726873124E+02  0.50201687559E+01  0.32078521420E+02  0.51100000000E-03 0. -1.
        -11    1    3    3    0    0 -0.45685410576E+01 -0.71746043456E+01 -0.20147542975E+01  0.87410382708E+01  0.51100000000E-03 0.  1.
         12    1    3    3    0    0 -0.29117279557E+01  0.17015132542E+02 -0.66035077979E+01  0.18482402721E+02  0.00000000000E+00 0. -1.
</event>
<event>
 7    1  0.3220798E-013  0.5930195E+02  0.7816164E-02  0.1266605E+00
        -11   -1    0    0    0    0  0.00000000000E+00  0.00000000000E+00  0.45593999997E+02  0.45594000000E+02  0.51100000000E-03 0.  1.
         11   -1    0    0    0    0 -0.00000000000E+00 -0.00000000000E+00 -0.45593999997E+02  0.45594000000E+02  0.51100000000E-03 0. -1.
    9900012    2    1    2    0    0 -0.12061146137E+02  0.24447971402E+02 -0.16539213386E+02  0.59301950837E+02  0.50000012418E+02 0.  0.
         12    1    1    2    0    0  0.12061146137E+02 -0.24447971402E+02  0.16539213386E+02  0.31886049163E+02  0.00000000000E+00 0. -1.
         11    1    3    3    0    0  0.54507383577E+01  0.94823247868E+00  0.15660328338E+01  0.57499697891E+01  0.51100000000E-03 0. -1.
        -11    1    3    3    0    0  0.10657077691E+02  0.19084694184E+02 -0.87281542887E+01  0.23536769842E+02  0.51100000000E-03 0.  1.
        -12    1    3    3    0    0 -0.28168962186E+02  0.44150447394E+01 -0.93770919309E+01  0.30015211206E+02  0.00000000000E+00 0.  1.
</event>
<event>
 7    1  0.3220798E-013  0.5930195E+02  0.7816164E-02  0.1266605E+00
        -11   -1    0    0    0    0  0.00000000000E+00  0.00000000000E+00  0.45593999997E+02  0.45594000000E+02  0.51100000000E-03 0.  1.
         11   -1    0    0    0    0 -0.00000000000E+00 -0.00000000000E+00 -0.45593999997E+02  0.45594000000E+02  0.51100000000E-03 0. -1.
    9900012    2    1    2    0    0  0.15666458960E+02  0.27428285351E+02 -0.43556068196E+01  0.59301951571E+02  0.50000013758E+02 0.  0.
         12    1    1    2    0    0 -0.15666458960E+02 -0.27428285351E+02  0.43556068196E+01  0.31886048429E+02  0.00000000000E+00 0. -1.
         11    1    3    3    0    0 -0.83395460998E+01  0.17879204826E+02 -0.36810440601E+01  0.20068983034E+02  0.51100000000E-03 0. -1.
        -11    1    3    3    0    0  0.46643051394E+01 -0.30404197564E+01  0.11764891146E+02  0.13015857968E+02  0.51100000000E-03 0.  1.
         12    1    3    3    0    0  0.19341699920E+02  0.12589500281E+02 -0.12439453905E+02  0.26217110569E+02  0.00000000000E+00 0. -1.
</event>
<event>
 7    1  0.3220798E-013  0.5930194E+02  0.7816164E-02  0.1266605E+00
        -11   -1    0    0    0    0  0.00000000000E+00  0.00000000000E+00  0.45593999997E+02  0.45594000000E+02  0.51100000000E-03 0.  1.
         11   -1    0    0    0    0 -0.00000000000E+00 -0.00000000000E+00 -0.45593999997E+02  0.45594000000E+02  0.51100000000E-03 0. -1.
    9900012    2    1    2    0    0 -0.27085594661E+02  0.16543653445E+02  0.30657431812E+01  0.59301942095E+02  0.49999996475E+02 0.  0.
         12    1    1    2    0    0  0.27085594661E+02 -0.16543653445E+02 -0.30657431812E+01  0.31886057905E+02  0.00000000000E+00 0. -1.
         11    1    3    3    0    0  0.48190479842E+01  0.18780103946E+02 -0.69815902340E+01  0.20607234898E+02  0.51100000000E-03 0. -1.
        -11    1    3    3    0    0  0.13480933467E+01 -0.37127743962E+01  0.21004986961E+01  0.44737170700E+01  0.51100000000E-03 0.  1.
        -12    1    3    3    0    0 -0.33252735992E+02  0.14763238956E+01  0.79468347192E+01  0.34220990127E+02  0.00000000000E+00 0.  1.
</event>
<event>
 7    1  0.3220798E-013  0.5930197E+02  0.7816164E-02  0.1266605E+00
        -11   -1    0    0    0    0  0.00000000000E+00  0.00000000000E+00  0.45593999997E+02  0.45594000000E+02  0.51100000000E-03 0.  1.
         11   -1    0    0    0    0 -0.00000000000E+00 -0.00000000000E+00 -0.45593999997E+02  0.45594000000E+02  0.51100000000E-03 0. -1.
    9900012    2    1    2    0    0  0.20164538812E+02 -0.12401526143E+02  0.21361475944E+02  0.59301966526E+02  0.50000041031E+02 0.  0.
         12    1    1    2    0    0 -0.20164538812E+02  0.12401526143E+02 -0.21361475944E+02  0.31886033474E+02  0.00000000000E+00 0. -1.
         11    1    3    3    0    0  0.15881739185E+02 -0.13690136910E+02  0.15426022889E+02  0.26030975214E+02  0.51100000000E-03 0.  1.
        -11    1    3    3    0    0 -0.13278476263E+02 -0.27880262593E+01 -0.17356227495E+01  0.13678574812E+02  0.51100000000E-03 0. -1.
         12    1    3    3    0    0  0.17561275890E+02  0.40766370255E+01  0.76710758052E+01  0.19592416501E+02  0.00000000000E+00 0. -1.
</event>
<event>
 7    1  0.3220798E-013  0.5930193E+02  0.7816164E-02  0.1266605E+00
        -11   -1    0    0    0    0  0.00000000000E+00  0.00000000000E+00  0.45593999997E+02  0.45594000000E+02  0.51100000000E-03 0.  1.
         11   -1    0    0    0    0 -0.00000000000E+00 -0.00000000000E+00 -0.45593999997E+02  0.45594000000E+02  0.51100000000E-03 0. -1.
    9900012    2    1    2    0    0  0.13229819310E+02  0.40760718894E+00  0.29009089088E+02  0.59301929180E+02  0.49999972921E+02 0.  0.
         12    1    1    2    0    0 -0.13229819310E+02 -0.40760718894E+00 -0.29009089088E+02  0.31886070820E+02  0.00000000000E+00 0. -1.
         11    1    3    3    0    0 -0.82383032857E+01 -0.45007798592E+01  0.20531534062E+02  0.22575884292E+02  0.51100000000E-03 0.  1.
        -11    1    3    3    0    0 -0.39465736918E+01 -0.48641962737E+01 -0.32759129326E+01  0.70687661651E+01  0.51100000000E-03 0. -1.
        -12    1    3    3    0    0  0.25414696287E+02  0.97725833219E+01  0.11753467959E+02  0.29657278722E+02  0.00000000000E+00 0.  1.
</event>
<event>
 7    1  0.3220798E-013  0.5930196E+02  0.7816164E-02  0.1266605E+00
        -11   -1    0    0    0    0  0.00000000000E+00  0.00000000000E+00  0.45593999997E+02  0.45594000000E+02  0.51100000000E-03 0.  1.
         11   -1    0    0    0    0 -0.00000000000E+00 -0.00000000000E+00 -0.45593999997E+02  0.45594000000E+02  0.51100000000E-03 0. -1.
    9900012    2    1    2    0    0 -0.44148771992E+01  0.51026407438E+01  0.31163948178E+02  0.59301956826E+02  0.50000023341E+02 0.  0.
         12    1    1    2    0    0  0.44148771992E+01 -0.51026407438E+01 -0.31163948178E+02  0.31886043174E+02  0.00000000000E+00 0. -1.
         11    1    3    3    0    0  0.62288829048E+00 -0.14360014436E+02  0.18695786369E+02  0.23582417871E+02  0.51100000000E-03 0. -1.
        -11    1    3    3    0    0  0.30110404911E+01 -0.57196441438E+01 -0.59833053498E-01  0.64640756668E+01  0.51100000000E-03 0.  1.
        -12    1    3    3    0    0 -0.80488059808E+01  0.25182299323E+02  0.12527994863E+02  0.29255463288E+02  0.00000000000E+00 0.  1.
</event>
<event>
 7    1  0.3728167E-013  0.5930193E+02  0.7816164E-02  0.1266605E+00
        -11   -1    0    0    0    0  0.00000000000E+00  0.00000000000E+00  0.45593999997E+02  0.45594000000E+02  0.51100000000E-03 0. -1.
         11   -1    0    0    0    0 -0.00000000000E+00 -0.00000000000E+00 -0.45593999997E+02  0.45594000000E+02  0.51100000000E-03 0.  1.
    9900012    2    1    2    0    0  0.31684354218E+02 -0.23575802704E+01  0.26953122536E+01  0.59301934155E+02  0.49999981995E+02 0.  0.
         12    1    1    2    0    0 -0.31684354218E+02  0.23575802704E+01 -0.26953122536E+01  0.31886065845E+02  0.00000000000E+00 0. -1.
         11    1    3    3    0    0 -0.21653894111E+00 -0.79695192136E+00  0.12786420673E+02  0.12813062685E+02  0.51100000000E-03 0. -1.
        -11    1    3    3    0    0  0.21086520106E+02 -0.11580585736E+02  0.58677384164E+01  0.24762504933E+02  0.51100000000E-03 0.  1.
         12    1    3    3    0    0  0.10814373053E+02  0.10019957387E+02 -0.15958846836E+02  0.21726366537E+02  0.00000000000E+00 0. -1.
</event>
<event>
 7    1  0.3220798E-013  0.5930194E+02  0.7816164E-02  0.1266605E+00
        -11   -1    0    0    0    0  0.00000000000E+00  0.00000000000E+00  0.45593999997E+02  0.45594000000E+02  0.51100000000E-03 0.  1.
         11   -1    0    0    0    0 -0.00000000000E+00 -0.00000000000E+00 -0.45593999997E+02  0.45594000000E+02  0.51100000000E-03 0. -1.
    9900012    2    1    2    0    0 -0.30039610852E+02 -0.23354724098E+01 -0.10434939752E+02  0.59301943186E+02  0.49999998466E+02 0.  0.
         12    1    1    2    0    0  0.30039610852E+02  0.23354724098E+01  0.10434939752E+02  0.31886056814E+02  0.00000000000E+00 0. -1.
         11    1    3    3    0    0 -0.14457528088E+02 -0.37071650075E+01 -0.11471390205E+02  0.18824345521E+02  0.51100000000E-03 0. -1.
        -11    1    3    3    0    0  0.11010654142E+02 -0.63368346537E+01  0.14549661992E+01  0.12786981855E+02  0.51100000000E-03 0.  1.
         12    1    3    3    0    0 -0.26592736906E+02  0.77085272514E+01 -0.41851574597E+00  0.27690615810E+02  0.00000000000E+00 0. -1.
</event>
<event>
 7    1  0.3220798E-013  0.5930194E+02  0.7816164E-02  0.1266605E+00
        -11   -1    0    0    0    0  0.00000000000E+00  0.00000000000E+00  0.45593999997E+02  0.45594000000E+02  0.51100000000E-03 0. -1.
         11   -1    0    0    0    0 -0.00000000000E+00 -0.00000000000E+00 -0.45593999997E+02  0.45594000000E+02  0.51100000000E-03 0.  1.
    9900012    2    1    2    0    0 -0.17426816311E+02 -0.87836159401E+01 -0.25216564943E+02  0.59301937477E+02  0.49999988053E+02 0.  0.
         12    1    1    2    0    0  0.17426816311E+02  0.87836159401E+01  0.25216564943E+02  0.31886062523E+02  0.00000000000E+00 0. -1.
         11    1    3    3    0    0 -0.11245361133E+02 -0.12906643668E+02 -0.35319064209E+01  0.17478957663E+02  0.51100000000E-03 0. -1.
        -11    1    3    3    0    0  0.62422418700E+00 -0.13555574936E+02 -0.75118054110E+00  0.13590715219E+02  0.51100000000E-03 0.  1.
         12    1    3    3    0    0 -0.68056793657E+01  0.17678602664E+02 -0.20933477981E+02  0.28232264595E+02  0.00000000000E+00 0. -1.
</event>
<event>
 7    1  0.3220798E-013  0.5930192E+02  0.7816164E-02  0.1266605E+00
        -11   -1    0    0    0    0  0.00000000000E+00  0.00000000000E+00  0.45593999997E+02  0.45594000000E+02  0.51100000000E-03 0.  1.
         11   -1    0    0    0    0 -0.00000000000E+00 -0.00000000000E+00 -0.45593999997E+02  0.45594000000E+02  0.51100000000E-03 0. -1.
    9900012    2    1    2    0    0  0.29555943171E+02  0.18760405525E+01  0.11817299118E+02  0.59301923676E+02  0.49999962884E+02 0.  0.
         12    1    1    2    0    0 -0.29555943171E+02 -0.18760405525E+01 -0.11817299118E+02  0.31886076324E+02  0.00000000000E+00 0. -1.
         11    1    3    3    0    0 -0.36252163302E+01 -0.39762209190E+01 -0.12114349077E+02  0.13255564117E+02  0.51100000000E-03 0. -1.
        -11    1    3    3    0    0  0.30928650936E+00  0.63824897332E+01  0.49587717309E+01  0.80883404156E+01  0.51100000000E-03 0.  1.
        -12    1    3    3    0    0  0.32871872992E+02 -0.53022826166E+00  0.18972876464E+02  0.37958019144E+02  0.00000000000E+00 0.  1.
</event>
<event>
 7    1  0.3220798E-013  0.5930194E+02  0.7816164E-02  0.1266605E+00
        -11   -1    0    0    0    0  0.00000000000E+00  0.00000000000E+00  0.45593999997E+02  0.45594000000E+02  0.51100000000E-03 0. -1.
         11   -1    0    0    0    0 -0.00000000000E+00 -0.00000000000E+00 -0.45593999997E+02  0.45594000000E+02  0.51100000000E-03 0.  1.
    9900012    2    1    2    0    0 -0.28900113096E+02 -0.12645932402E+02 -0.46459170527E+01  0.59301942098E+02  0.49999996481E+02 0.  0.
         12    1    1    2    0    0  0.28900113096E+02  0.12645932402E+02  0.46459170527E+01  0.31886057902E+02  0.00000000000E+00 0. -1.
         11    1    3    3    0    0 -0.22307566310E+01  0.64163457158E+01 -0.14139115493E+02  0.15686311060E+02  0.51100000000E-03 0. -1.
        -11    1    3    3    0    0 -0.15079285016E+02 -0.96498601647E+01 -0.88445952203E+01  0.19968262385E+02  0.51100000000E-03 0.  1.
         12    1    3    3    0    0 -0.11590071449E+02 -0.94124179532E+01  0.18337793660E+02  0.23647368654E+02  0.00000000000E+00 0. -1.
</event>
<event>
 7    1  0.3220798E-013  0.5930197E+02  0.7816164E-02  0.1266605E+00
        -11   -1    0    0    0    0  0.00000000000E+00  0.00000000000E+00  0.45593999997E+02  0.45594000000E+02  0.51100000000E-03 0.  1.
         11   -1    0    0    0    0 -0.00000000000E+00 -0.00000000000E+00 -0.45593999997E+02  0.45594000000E+02  0.51100000000E-03 0. -1.
    9900012    2    1    2    0    0  0.15958184753E+02  0.28406318205E+00  0.27603888477E+02  0.59301968394E+02  0.50000044439E+02 0.  0.
         12    1    1    2    0    0 -0.15958184753E+02 -0.28406318205E+00 -0.27603888477E+02  0.31886031606E+02  0.00000000000E+00 0. -1.
         11    1    3    3    0    0  0.20611600867E+02 -0.10161266669E+01 -0.43996402501E+00  0.20641321961E+02  0.51100000000E-03 0. -1.
        -11    1    3    3    0    0  0.10737236587E+02  0.19673626329E+01  0.88738401472E+01  0.14067828705E+02  0.51100000000E-03 0.  1.
        -12    1    3    3    0    0 -0.15390652701E+02 -0.66717278390E+00  0.19170012355E+02  0.24592817728E+02  0.00000000000E+00 0.  1.
</event>
<event>
 7    1  0.3220798E-013  0.5930196E+02  0.7816164E-02  0.1266605E+00
        -11   -1    0    0    0    0  0.00000000000E+00  0.00000000000E+00  0.45593999997E+02  0.45594000000E+02  0.51100000000E-03 0.  1.
         11   -1    0    0    0    0 -0.00000000000E+00 -0.00000000000E+00 -0.45593999997E+02  0.45594000000E+02  0.51100000000E-03 0. -1.
    9900012    2    1    2    0    0  0.28731184720E+01  0.23042983864E+01  0.31672619536E+02  0.59301961847E+02  0.50000032499E+02 0.  0.
         12    1    1    2    0    0 -0.28731184720E+01 -0.23042983864E+01 -0.31672619536E+02  0.31886038153E+02  0.00000000000E+00 0. -1.
         11    1    3    3    0    0 -0.73998794731E+01  0.45736764967E+01 -0.79129426938E+00  0.87351519617E+01  0.51100000000E-03 0. -1.
        -11    1    3    3    0    0 -0.96748138726E+01  0.65928838726E+01  0.24814016333E+02  0.27437265681E+02  0.51100000000E-03 0.  1.
         12    1    3    3    0    0  0.19947811818E+02 -0.88622619829E+01  0.76498974724E+01  0.23129544204E+02  0.00000000000E+00 0. -1.
</event>
<event>
 7    1  0.3220798E-013  0.5930202E+02  0.7816164E-02  0.1266604E+00
        -11   -1    0    0    0    0  0.00000000000E+00  0.00000000000E+00  0.45593999997E+02  0.45594000000E+02  0.51100000000E-03 0. -1.
         11   -1    0    0    0    0 -0.00000000000E+00 -0.00000000000E+00 -0.45593999997E+02  0.45594000000E+02  0.51100000000E-03 0.  1.
    9900012    2    1    2    0    0  0.10210376791E+02  0.27376742542E+02  0.12766274923E+02  0.59302021862E+02  0.50000141950E+02 0.  0.
         12    1    1    2    0    0 -0.10210376791E+02 -0.27376742542E+02 -0.12766274923E+02  0.31885978138E+02  0.00000000000E+00 0. -1.
         11    1    3    3    0    0  0.11716961887E+01  0.16461073210E+01 -0.12117602836E+02  0.12284902931E+02  0.51100000000E-03 0. -1.
        -11    1    3    3    0    0  0.13694001724E+02  0.28980967680E+02  0.14496149777E+02  0.35178978517E+02  0.51100000000E-03 0.  1.
         12    1    3    3    0    0 -0.46553211217E+01 -0.32503324587E+01  0.10387727982E+02  0.11838140414E+02  0.00000000000E+00 0. -1.
</event>
<event>
 7    1  0.3220798E-013  0.5930193E+02  0.7816164E-02  0.1266605E+00
        -11   -1    0    0    0    0  0.00000000000E+00  0.00000000000E+00  0.45593999997E+02  0.45594000000E+02  0.51100000000E-03 0.  1.
         11   -1    0    0    0    0 -0.00000000000E+00 -0.00000000000E+00 -0.45593999997E+02  0.45594000000E+02  0.51100000000E-03 0. -1.
    9900012    2    1    2    0    0 -0.21712535500E+02 -0.13541007162E+02  0.19024414398E+02  0.59301930691E+02  0.49999975677E+02 0.  0.
         12    1    1    2    0    0  0.21712535500E+02  0.13541007162E+02 -0.19024414398E+02  0.31886069309E+02  0.00000000000E+00 0. -1.
         11    1    3    3    0    0 -0.66548924010E+01 -0.16013290776E+02  0.10141442635E+02  0.20088850971E+02  0.51100000000E-03 0. -1.
        -11    1    3    3    0    0  0.72838824431E+01 -0.89573669949E+01 -0.22445400233E+01  0.11761263840E+02  0.51100000000E-03 0.  1.
         12    1    3    3    0    0 -0.22341525542E+02  0.11429650609E+02  0.11127511786E+02  0.27451815880E+02  0.00000000000E+00 0. -1.
</event>
<event>
 7    1  0.3220798E-013  0.5930193E+02  0.7816164E-02  0.1266605E+00
        -11   -1    0    0    0    0  0.00000000000E+00  0.00000000000E+00  0.45593999997E+02  0.45594000000E+02  0.51100000000E-03 0. -1.
         11   -1    0    0    0    0 -0.00000000000E+00 -0.00000000000E+00 -0.45593999997E+02  0.45594000000E+02  0.51100000000E-03 0.  1.
    9900012    2    1    2    0    0 -0.19142492770E+02 -0.21627008264E+02 -0.13511447711E+02  0.59301925687E+02  0.49999966550E+02 0.  0.
         12    1    1    2    0    0  0.19142492770E+02  0.21627008264E+02  0.13511447711E+02  0.31886074313E+02  0.00000000000E+00 0. -1.
         11    1    3    3    0    0  0.40868043926E+01 -0.14480716390E+01  0.13258614376E+02  0.13949542539E+02  0.51100000000E-03 0. -1.
        -11    1    3    3    0    0 -0.22181058742E+01 -0.75022916993E+01  0.14486878776E+01  0.79563227209E+01  0.51100000000E-03 0.  1.
         12    1    3    3    0    0 -0.21011191288E+02 -0.12676644925E+02 -0.28218749965E+02  0.37396060427E+02  0.00000000000E+00 0. -1.
</event>
<event>
 7    1  0.3220798E-013  0.5930196E+02  0.7816164E-02  0.1266605E+00
        -11   -1    0    0    0    0  0.00000000000E+00  0.00000000000E+00  0.45593999997E+02  0.45594000000E+02  0.51100000000E-03 0. -1.
         11   -1    0    0    0    0 -0.00000000000E+00 -0.00000000000E+00 -0.45593999997E+02  0.45594000000E+02  0.51100000000E-03 0.  1.
    9900012    2    1    2    0    0  0.34738364139E+01  0.27134814077E+02 -0.16381505649E+02  0.59301962276E+02  0.50000033280E+02 0.  0.
         12    1    1    2    0    0 -0.34738364139E+01 -0.27134814077E+02  0.16381505649E+02  0.31886037724E+02  0.00000000000E+00 0. -1.
         11    1    3    3    0    0 -0.10892206341E+01  0.11645677869E+01 -0.90296102788E+01  0.91693228631E+01  0.51100000000E-03 0. -1.
        -11    1    3    3    0    0  0.10636821112E+02 -0.87712222482E+01  0.12101280101E+01  0.13839823451E+02  0.51100000000E-03 0.  1.
        -12    1    3    3    0    0 -0.60737640638E+01  0.34741468538E+02 -0.85620233803E+01  0.36292815962E+02  0.00000000000E+00 0.  1.
</event>
<event>
 7    1  0.3220798E-013  0.5930194E+02  0.7816164E-02  0.1266605E+00
        -11   -1    0    0    0    0  0.00000000000E+00  0.00000000000E+00  0.45593999997E+02  0.45594000000E+02  0.51100000000E-03 0.  1.
         11   -1    0    0    0    0 -0.00000000000E+00 -0.00000000000E+00 -0.45593999997E+02  0.45594000000E+02  0.51100000000E-03 0. -1.
    9900012    2    1    2    0    0 -0.25439719796E+02 -0.88988036402E+00  0.19202861203E+02  0.59301935508E+02  0.49999984463E+02 0.  0.
         12    1    1    2    0    0  0.25439719796E+02  0.88988036402E+00 -0.19202861203E+02  0.31886064492E+02  0.00000000000E+00 0. -1.
         11    1    3    3    0    0 -0.14099076461E+02 -0.14032807696E+02  0.20897165266E+01  0.20001764030E+02  0.51100000000E-03 0. -1.
        -11    1    3    3    0    0 -0.16359349401E+02  0.14060668664E+02  0.22984588810E+02  0.31521770875E+02  0.51100000000E-03 0.  1.
         12    1    3    3    0    0  0.50187060657E+01 -0.91774133151E+00 -0.58714441331E+01  0.77784006026E+01  0.00000000000E+00 0. -1.
</event>
<event>
 7    1  0.3220798E-013  0.5930192E+02  0.7816164E-02  0.1266605E+00
        -11   -1    0    0    0    0  0.00000000000E+00  0.00000000000E+00  0.45593999997E+02  0.45594000000E+02  0.51100000000E-03 0.  1.
         11   -1    0    0    0    0 -0.00000000000E+00 -0.00000000000E+00 -0.45593999997E+02  0.45594000000E+02  0.51100000000E-03 0. -1.
    9900012    2    1    2    0    0  0.22585507565E+02 -0.18186117803E+02  0.13262060332E+02  0.59301917190E+02  0.49999951055E+02 0.  0.
         12    1    1    2    0    0 -0.22585507565E+02  0.18186117803E+02 -0.13262060332E+02  0.31886082810E+02  0.00000000000E+00 0. -1.
         11    1    3    3    0    0 -0.20239576877E+01 -0.13636737535E+02 -0.32271789437E+01  0.14158802898E+02  0.51100000000E-03 0. -1.
        -11    1    3    3    0    0 -0.85135929325E+01 -0.18500205604E+01  0.23214792995E+01  0.90162690229E+01  0.51100000000E-03 0.  1.
         12    1    3    3    0    0  0.33123058185E+02 -0.26993597073E+01  0.14167759976E+02  0.36126845269E+02  0.00000000000E+00 0. -1.
</event>
<event>
 7    1  0.3220798E-013  0.5930195E+02  0.7816164E-02  0.1266605E+00
        -11   -1    0    0    0    0  0.00000000000E+00  0.00000000000E+00  0.45593999997E+02  0.45594000000E+02  0.51100000000E-03 0. -1.
         11   -1    0    0    0    0 -0.00000000000E+00 -0.00000000000E+00 -0.45593999997E+02  0.45594000000E+02  0.51100000000E-03 0.  1.
    9900012    2    1    2    0    0 -0.89735809351E+01 -0.23143945466E+02  0.20013817390E+02  0.59301948927E+02  0.50000008934E+02 0.  0.
         12    1    1    2    0    0  0.89735809351E+01  0.23143945466E+02 -0.20013817390E+02  0.31886051073E+02  0.00000000000E+00 0. -1.
         11    1    3    3    0    0 -0.13700076047E+02 -0.79298240537E+01 -0.35925148096E+01  0.16232077998E+02  0.51100000000E-03 0. -1.
        -11    1    3    3    0    0 -0.17624949895E+01 -0.81727734154E+00 -0.77348275493E+01  0.79750792046E+01  0.51100000000E-03 0.  1.
         12    1    3    3    0    0  0.64889901013E+01 -0.14396844071E+02  0.31341159749E+02  0.35094791724E+02  0.00000000000E+00 0. -1.
</event>
<event>
 7    1  0.3220798E-013  0.5930195E+02  0.7816164E-02  0.1266605E+00
        -11   -1    0    0    0    0  0.00000000000E+00  0.00000000000E+00  0.45593999997E+02  0.45594000000E+02  0.51100000000E-03 0.  1.
         11   -1    0    0    0    0 -0.00000000000E+00 -0.00000000000E+00 -0.45593999997E+02  0.45594000000E+02  0.51100000000E-03 0. -1.
    9900012    2    1    2    0    0 -0.91225903400E+01 -0.19285754362E+01  0.30492275820E+02  0.59301953798E+02  0.50000017818E+02 0.  0.
         12    1    1    2    0    0  0.91225903400E+01  0.19285754362E+01 -0.30492275820E+02  0.31886046202E+02  0.00000000000E+00 0. -1.
         11    1    3    3    0    0 -0.27235656240E+01 -0.80181885465E+00 -0.22963837035E+01  0.36515889088E+01  0.51100000000E-03 0. -1.
        -11    1    3    3    0    0 -0.23451293165E+02 -0.51218403135E+01  0.29151807387E+02  0.37762736573E+02  0.51100000000E-03 0.  1.
         12    1    3    3    0    0  0.17052268449E+02  0.39950837319E+01  0.36368521371E+01  0.17887628316E+02  0.00000000000E+00 0. -1.
</event>
<event>
 7    1  0.3220798E-013  0.5930197E+02  0.7816164E-02  0.1266605E+00
        -11   -1    0    0    0    0  0.00000000000E+00  0.00000000000E+00  0.45593999997E+02  0.45594000000E+02  0.51100000000E-03 0.  1.
         11   -1    0    0    0    0 -0.00000000000E+00 -0.00000000000E+00 -0.45593999997E+02  0.45594000000E+02  0.51100000000E-03 0. -1.
    9900012    2    1    2    0    0  0.18053442972E+02  0.85932337494E+01  0.24838444866E+02  0.59301971511E+02  0.50000050123E+02 0.  0.
         12    1    1    2    0    0 -0.18053442972E+02 -0.85932337494E+01 -0.24838444866E+02  0.31886028489E+02  0.00000000000E+00 0. -1.
         11    1    3    3    0    0  0.17141574553E+01 -0.83828975579E+00 -0.11057952709E+02  0.11221380658E+02  0.51100000000E-03 0. -1.
        -11    1    3    3    0    0  0.57636108738E+01 -0.80268674077E+01  0.50637290130E+01  0.11103655365E+02  0.51100000000E-03 0.  1.
         12    1    3    3    0    0  0.10575674643E+02  0.17458390913E+02  0.30832668562E+02  0.36976935488E+02  0.00000000000E+00 0. -1.
</event>
<event>
 7    1  0.3220798E-013  0.5930195E+02  0.7816164E-02  0.1266605E+00
        -11   -1    0    0    0    0  0.00000000000E+00  0.00000000000E+00  0.45593999997E+02  0.45594000000E+02  0.51100000000E-03 0.  1.
         11   -1    0    0    0    0 -0.00000000000E+00 -0.00000000000E+00 -0.45593999997E+02  0.45594000000E+02  0.51100000000E-03 0. -1.
    9900012    2    1    2    0    0 -0.24283603300E+02 -0.28385701053E+01  0.20468739587E+02  0.59301950233E+02  0.50000011317E+02 0.  0.
         12    1    1    2    0    0  0.24283603300E+02  0.28385701053E+01 -0.20468739587E+02  0.31886049767E+02  0.00000000000E+00 0. -1.
         11    1    3    3    0    0 -0.63280492131E+01 -0.37640702880E+01 -0.10143396613E+02  0.12533990868E+02  0.51100000000E-03 0. -1.
        -11    1    3    3    0    0 -0.21038425622E+02 -0.72343690848E+01  0.10010825052E+02  0.24396066634E+02  0.51100000000E-03 0.  1.
        -12    1    3    3    0    0  0.30828715353E+01  0.81598692675E+01  0.20601311148E+02  0.22371892731E+02  0.00000000000E+00 0.  1.
</event>
<event>
 7    1  0.3220798E-013  0.5930195E+02  0.7816164E-02  0.1266605E+00
        -11   -1    0    0    0    0  0.00000000000E+00  0.00000000000E+00  0.45593999997E+02  0.45594000000E+02  0.51100000000E-03 0.  1.
         11   -1    0    0    0    0 -0.00000000000E+00 -0.00000000000E+00 -0.45593999997E+02  0.45594000000E+02  0.51100000000E-03 0. -1.
    9900012    2    1    2    0    0 -0.20728256584E+02  0.49729805003E+01  0.23713477628E+02  0.59301950115E+02  0.50000011101E+02 0.  0.
         12    1    1    2    0    0  0.20728256584E+02 -0.49729805003E+01 -0.23713477628E+02  0.31886049885E+02  0.00000000000E+00 0. -1.
         11    1    3    3    0    0  0.55228911640E+01  0.11764396344E+02  0.12139685826E+02  0.17784131139E+02  0.51100000000E-03 0. -1.
        -11    1    3    3    0    0 -0.10262288185E+02  0.70924172910E+01  0.15588098561E+02  0.19965113544E+02  0.51100000000E-03 0.  1.
        -12    1    3    3    0    0 -0.15988859563E+02 -0.13883833135E+02 -0.40143067597E+01  0.21552705431E+02  0.00000000000E+00 0.  1.
</event>
<event>
 7    1  0.3220798E-013  0.5930194E+02  0.7816164E-02  0.1266605E+00
        -11   -1    0    0    0    0  0.00000000000E+00  0.00000000000E+00  0.45593999997E+02  0.45594000000E+02  0.51100000000E-03 0. -1.
         11   -1    0    0    0    0 -0.00000000000E+00 -0.00000000000E+00 -0.45593999997E+02  0.45594000000E+02  0.51100000000E-03 0.  1.
    9900012    2    1    2    0    0  0.21248626480E+02 -0.15007329890E+02 -0.18438992660E+02  0.59301944614E+02  0.50000001070E+02 0.  0.
         12    1    1    2    0    0 -0.21248626480E+02  0.15007329890E+02  0.18438992660E+02  0.31886055386E+02  0.00000000000E+00 0. -1.
         11    1    3    3    0    0 -0.32625049173E+01  0.14838816984E+01 -0.65072122146E+01  0.74289739734E+01  0.51100000000E-03 0. -1.
        -11    1    3    3    0    0  0.10634832585E+02  0.65748568565E+01 -0.20162391402E+02  0.23724469101E+02  0.51100000000E-03 0.  1.
        -12    1    3    3    0    0  0.13876298813E+02 -0.23066068445E+02  0.82306109566E+01  0.28148501540E+02  0.00000000000E+00 0.  1.
</event>
<event>
 7    1  0.3220798E-013  0.5930196E+02  0.7816164E-02  0.1266605E+00
        -11   -1    0    0    0    0  0.00000000000E+00  0.00000000000E+00  0.45593999997E+02  0.45594000000E+02  0.51100000000E-03 0.  1.
         11   -1    0    0    0    0 -0.00000000000E+00 -0.00000000000E+00 -0.45593999997E+02  0.45594000000E+02  0.51100000000E-03 0. -1.
    9900012    2    1    2    0    0  0.11926521322E+01 -0.17172999815E+02  0.26839996800E+02  0.59301956502E+02  0.50000022750E+02 0.  0.
         12    1    1    2    0    0 -0.11926521322E+01  0.17172999815E+02 -0.26839996800E+02  0.31886043498E+02  0.00000000000E+00 0. -1.
         11    1    3    3    0    0 -0.17679166670E+02 -0.22095070257E+02  0.22176107174E+02  0.35951700843E+02  0.51100000000E-03 0. -1.
        -11    1    3    3    0    0  0.97378798336E+01 -0.27893055057E+01 -0.89138057724E+00  0.10168632575E+02  0.51100000000E-03 0.  1.
        -12    1    3    3    0    0  0.91339389688E+01  0.77113759480E+01  0.55552702031E+01  0.13181623084E+02  0.00000000000E+00 0.  1.
</event>
<event>
 7    1  0.3220798E-013  0.5930205E+02  0.7816164E-02  0.1266604E+00
        -11   -1    0    0    0    0  0.00000000000E+00  0.00000000000E+00  0.45593999997E+02  0.45594000000E+02  0.51100000000E-03 0. -1.
         11   -1    0    0    0    0 -0.00000000000E+00 -0.00000000000E+00 -0.45593999997E+02  0.45594000000E+02  0.51100000000E-03 0.  1.
    9900012    2    1    2    0    0 -0.25309024259E+02 -0.10543882409E+02 -0.16278619960E+02  0.59302052735E+02  0.50000198255E+02 0.  0.
         12    1    1    2    0    0  0.25309024259E+02  0.10543882409E+02  0.16278619960E+02  0.31885947265E+02  0.00000000000E+00 0. -1.
         11    1    3    3    0    0 -0.10292395681E+02  0.13891999307E+02  0.19504274597E+01  0.17399000579E+02  0.51100000000E-03 0. -1.
        -11    1    3    3    0    0  0.39307575764E+00  0.57896993164E+00 -0.11808718418E+02  0.11829435560E+02  0.51100000000E-03 0.  1.
        -12    1    3    3    0    0 -0.15409704336E+02 -0.25014851648E+02 -0.64203290012E+01  0.30073616596E+02  0.00000000000E+00 0.  1.
</event>
<event>
 7    1  0.3220798E-013  0.5930195E+02  0.7816164E-02  0.1266605E+00
        -11   -1    0    0    0    0  0.00000000000E+00  0.00000000000E+00  0.45593999997E+02  0.45594000000E+02  0.51100000000E-03 0. -1.
         11   -1    0    0    0    0 -0.00000000000E+00 -0.00000000000E+00 -0.45593999997E+02  0.45594000000E+02  0.51100000000E-03 0.  1.
    9900012    2    1    2    0    0 -0.10392091166E+01  0.26662810625E+02 -0.17456646738E+02  0.59301953814E+02  0.50000017848E+02 0.  0.
         12    1    1    2    0    0  0.10392091166E+01 -0.26662810625E+02  0.17456646738E+02  0.31886046186E+02  0.00000000000E+00 0. -1.
         11    1    3    3    0    0  0.25790268378E+01 -0.64616905616E+01 -0.60521484384E+00  0.69836315489E+01  0.51100000000E-03 0. -1.
        -11    1    3    3    0    0 -0.55683519878E+01 -0.28037180113E+01 -0.15052257948E+02  0.16292263444E+02  0.51100000000E-03 0.  1.
         12    1    3    3    0    0  0.19501160334E+01  0.35928219198E+02 -0.17991739469E+01  0.36026058821E+02  0.00000000000E+00 0. -1.
</event>
<event>
 7    1  0.3220798E-013  0.5930197E+02  0.7816164E-02  0.1266605E+00
        -11   -1    0    0    0    0  0.00000000000E+00  0.00000000000E+00  0.45593999997E+02  0.45594000000E+02  0.51100000000E-03 0.  1.
         11   -1    0    0    0    0 -0.00000000000E+00 -0.00000000000E+00 -0.45593999997E+02  0.45594000000E+02  0.51100000000E-03 0. -1.
    9900012    2    1    2    0    0 -0.22971819360E+02 -0.12628513192E+02  0.18153094101E+02  0.59301973976E+02  0.50000054619E+02 0.  0.
         12    1    1    2    0    0  0.22971819360E+02  0.12628513192E+02 -0.18153094101E+02  0.31886026024E+02  0.00000000000E+00 0. -1.
         11    1    3    3    0    0 -0.12571933929E+02 -0.18593141799E+02 -0.48923245660E+01  0.22971575579E+02  0.51100000000E-03 0. -1.
        -11    1    3    3    0    0 -0.60469024610E+01 -0.98935176467E+01  0.85143533072E+01  0.14385441714E+02  0.51100000000E-03 0.  1.
        -12    1    3    3    0    0 -0.43529829700E+01  0.15858146253E+02  0.14531065360E+02  0.21944956683E+02  0.00000000000E+00 0.  1.
</event>
<event>
 7    1  0.3220798E-013  0.5930190E+02  0.7816164E-02  0.1266605E+00
        -11   -1    0    0    0    0  0.00000000000E+00  0.00000000000E+00  0.45593999997E+02  0.45594000000E+02  0.51100000000E-03 0. -1.
         11   -1    0    0    0    0 -0.00000000000E+00 -0.00000000000E+00 -0.45593999997E+02  0.45594000000E+02  0.51100000000E-03 0.  1.
    9900012    2    1    2    0    0 -0.83026340421E+01  0.28961856351E+02  0.10440335625E+02  0.59301898587E+02  0.49999917127E+02 0.  0.
         12    1    1    2    0    0  0.83026340421E+01 -0.28961856351E+02 -0.10440335625E+02  0.31886101413E+02  0.00000000000E+00 0. -1.
         11    1    3    3    0    0  0.58117884989E+01  0.20802201860E+01 -0.30005625130E+01  0.68634959921E+01  0.51100000000E-03 0. -1.
        -11    1    3    3    0    0 -0.61142473902E+01 -0.21135494519E+01 -0.11612278841E+02  0.13292709753E+02  0.51100000000E-03 0.  1.
         12    1    3    3    0    0 -0.80001751508E+01  0.28995185617E+02  0.25053176978E+02  0.39145692843E+02  0.00000000000E+00 0. -1.
</event>
<event>
 7    1  0.3220798E-013  0.5930190E+02  0.7816164E-02  0.1266605E+00
        -11   -1    0    0    0    0  0.00000000000E+00  0.00000000000E+00  0.45593999997E+02  0.45594000000E+02  0.51100000000E-03 0. -1.
         11   -1    0    0    0    0 -0.00000000000E+00 -0.00000000000E+00 -0.45593999997E+02  0.45594000000E+02  0.51100000000E-03 0.  1.
    9900012    2    1    2    0    0  0.16715166471E+02  0.24112263295E+02 -0.12486998650E+02  0.59301903239E+02  0.49999925611E+02 0.  0.
         12    1    1    2    0    0 -0.16715166471E+02 -0.24112263295E+02  0.12486998650E+02  0.31886096761E+02  0.00000000000E+00 0. -1.
         11    1    3    3    0    0  0.45333662042E+01 -0.65856032440E+01 -0.24301557138E+01  0.83562692802E+01  0.51100000000E-03 0. -1.
        -11    1    3    3    0    0  0.13527349628E+02  0.35147133838E+01  0.99588188556E+01  0.17161598742E+02  0.51100000000E-03 0.  1.
        -12    1    3    3    0    0 -0.13455493610E+01  0.27183153156E+02 -0.20015661791E+02  0.33784035217E+02  0.00000000000E+00 0.  1.
</event>
<event>
 7    1  0.3220798E-013  0.5930194E+02  0.7816164E-02  0.1266605E+00
        -11   -1    0    0    0    0  0.00000000000E+00  0.00000000000E+00  0.45593999997E+02  0.45594000000E+02  0.51100000000E-03 0.  1.
         11   -1    0    0    0    0 -0.00000000000E+00 -0.00000000000E+00 -0.45593999997E+02  0.45594000000E+02  0.51100000000E-03 0. -1.
    9900012    2    1    2    0    0 -0.63768732276E+01 -0.29259134668E+02  0.10952581712E+02  0.59301944743E+02  0.50000001305E+02 0.  0.
         12    1    1    2    0    0  0.63768732276E+01  0.29259134668E+02 -0.10952581712E+02  0.31886055257E+02  0.00000000000E+00 0. -1.
         11    1    3    3    0    0  0.79384256530E+01 -0.14530476216E+02  0.59711008349E+01  0.17601346152E+02  0.51100000000E-03 0. -1.
        -11    1    3    3    0    0 -0.38559852504E+01 -0.16507053818E+02  0.18120191813E+02  0.24813157792E+02  0.51100000000E-03 0.  1.
         12    1    3    3    0    0 -0.10459313630E+02  0.17783953664E+01 -0.13138710936E+02  0.16887440799E+02  0.00000000000E+00 0. -1.
</event>
<event>
 7    1  0.3220798E-013  0.5930188E+02  0.7816164E-02  0.1266605E+00
        -11   -1    0    0    0    0  0.00000000000E+00  0.00000000000E+00  0.45593999997E+02  0.45594000000E+02  0.51100000000E-03 0.  1.
         11   -1    0    0    0    0 -0.00000000000E+00 -0.00000000000E+00 -0.45593999997E+02  0.45594000000E+02  0.51100000000E-03 0. -1.
    9900012    2    1    2    0    0  0.73795274364E+01 -0.26927376919E+02  0.15400772469E+02  0.59301876913E+02  0.49999877598E+02 0.  0.
         12    1    1    2    0    0 -0.73795274364E+01  0.26927376919E+02 -0.15400772469E+02  0.31886123087E+02  0.00000000000E+00 0. -1.
         11    1    3    3    0    0  0.18174966742E+02 -0.14375726189E+02 -0.48101553443E+00  0.23178056340E+02  0.51100000000E-03 0. -1.
        -11    1    3    3    0    0  0.56733952258E+01 -0.32440796866E+01  0.15917336549E+02  0.17206773941E+02  0.51100000000E-03 0.  1.
        -12    1    3    3    0    0 -0.16468834531E+02 -0.93075710434E+01 -0.35548545351E-01  0.18917046631E+02  0.00000000000E+00 0.  1.
</event>
<event>
 7    1  0.3220798E-013  0.5930194E+02  0.7816164E-02  0.1266605E+00
        -11   -1    0    0    0    0  0.00000000000E+00  0.00000000000E+00  0.45593999997E+02  0.45594000000E+02  0.51100000000E-03 0.  1.
         11   -1    0    0    0    0 -0.00000000000E+00 -0.00000000000E+00 -0.45593999997E+02  0.45594000000E+02  0.51100000000E-03 0. -1.
    9900012    2    1    2    0    0  0.30617903679E+02 -0.66200956158E+01 -0.59530713135E+01  0.59301941139E+02  0.49999994731E+02 0.  0.
         12    1    1    2    0    0 -0.30617903679E+02  0.66200956158E+01  0.59530713135E+01  0.31886058861E+02  0.00000000000E+00 0. -1.
         11    1    3    3    0    0  0.47119670787E+01 -0.20274108941E+02 -0.72510583930E+01  0.22041324261E+02  0.51100000000E-03 0.  1.
        -11    1    3    3    0    0  0.50534484141E+01 -0.60968703832E+01  0.30494683455E+01  0.84857779133E+01  0.51100000000E-03 0. -1.
         12    1    3    3    0    0  0.20852488186E+02  0.19750883708E+02 -0.17514812660E+01  0.28774838964E+02  0.00000000000E+00 0. -1.
</event>
<event>
 7    1  0.3220798E-013  0.5930192E+02  0.7816164E-02  0.1266605E+00
        -11   -1    0    0    0    0  0.00000000000E+00  0.00000000000E+00  0.45593999997E+02  0.45594000000E+02  0.51100000000E-03 0.  1.
         11   -1    0    0    0    0 -0.00000000000E+00 -0.00000000000E+00 -0.45593999997E+02  0.45594000000E+02  0.51100000000E-03 0. -1.
    9900012    2    1    2    0    0 -0.12758982798E+02  0.23773697129E+02  0.16992398523E+02  0.59301922712E+02  0.49999961126E+02 0.  0.
         12    1    1    2    0    0  0.12758982798E+02 -0.23773697129E+02 -0.16992398523E+02  0.31886077288E+02  0.00000000000E+00 0. -1.
         11    1    3    3    0    0 -0.78105064256E+01 -0.66964078180E+01 -0.92635916918E+01  0.13844133038E+02  0.51100000000E-03 0. -1.
        -11    1    3    3    0    0  0.21708366064E+01  0.19098332305E+02  0.42517544662E+01  0.19685940280E+02  0.51100000000E-03 0.  1.
        -12    1    3    3    0    0 -0.71193129791E+01  0.11371772642E+02  0.22004235749E+02  0.25771849394E+02  0.00000000000E+00 0.  1.
</event>
<event>
 7    1  0.3220798E-013  0.5930204E+02  0.7816164E-02  0.1266604E+00
        -11   -1    0    0    0    0  0.00000000000E+00  0.00000000000E+00  0.45593999997E+02  0.45594000000E+02  0.51100000000E-03 0.  1.
         11   -1    0    0    0    0 -0.00000000000E+00 -0.00000000000E+00 -0.45593999997E+02  0.45594000000E+02  0.51100000000E-03 0. -1.
    9900012    2    1    2    0    0  0.17133683627E+02  0.79526850887E+01  0.25688638263E+02  0.59302039915E+02  0.50000174875E+02 0.  0.
         12    1    1    2    0    0 -0.17133683627E+02 -0.79526850887E+01 -0.25688638263E+02  0.31885960085E+02  0.00000000000E+00 0. -1.
         11    1    3    3    0    0 -0.12126043968E+02  0.11146299004E+02  0.54449874076E+01  0.17347299845E+02  0.51100000000E-03 0. -1.
        -11    1    3    3    0    0  0.14747066145E+02  0.78232147893E+01  0.16260050404E+02  0.23303817046E+02  0.51100000000E-03 0.  1.
         12    1    3    3    0    0  0.14512661450E+02 -0.11016828705E+02  0.39836004511E+01  0.18650923023E+02  0.00000000000E+00 0. -1.
</event>
<event>
 7    1  0.3220798E-013  0.5930192E+02  0.7816164E-02  0.1266605E+00
        -11   -1    0    0    0    0  0.00000000000E+00  0.00000000000E+00  0.45593999997E+02  0.45594000000E+02  0.51100000000E-03 0. -1.
         11   -1    0    0    0    0 -0.00000000000E+00 -0.00000000000E+00 -0.45593999997E+02  0.45594000000E+02  0.51100000000E-03 0.  1.
    9900012    2    1    2    0    0 -0.15747982634E+02 -0.27221315409E+02 -0.52652643151E+01  0.59301921879E+02  0.49999959606E+02 0.  0.
         12    1    1    2    0    0  0.15747982634E+02  0.27221315409E+02  0.52652643151E+01  0.31886078121E+02  0.00000000000E+00 0. -1.
         11    1    3    3    0    0  0.29009765643E+01  0.73708134038E+01  0.67317926419E+00  0.79496997329E+01  0.51100000000E-03 0. -1.
        -11    1    3    3    0    0 -0.35844646504E+01 -0.66684369914E+00 -0.13056768486E+02  0.13556263162E+02  0.51100000000E-03 0.  1.
        -12    1    3    3    0    0 -0.15064494548E+02 -0.33925285114E+02  0.71183249069E+01  0.37795958984E+02  0.00000000000E+00 0.  1.
</event>
<event>
 7    1  0.3220798E-013  0.5930194E+02  0.7816164E-02  0.1266605E+00
        -11   -1    0    0    0    0  0.00000000000E+00  0.00000000000E+00  0.45593999997E+02  0.45594000000E+02  0.51100000000E-03 0.  1.
         11   -1    0    0    0    0 -0.00000000000E+00 -0.00000000000E+00 -0.45593999997E+02  0.45594000000E+02  0.51100000000E-03 0. -1.
    9900012    2    1    2    0    0  0.21340272025E+02 -0.75557740594E+01  0.22454935135E+02  0.59301936530E+02  0.49999986325E+02 0.  0.
         12    1    1    2    0    0 -0.21340272025E+02  0.75557740594E+01 -0.22454935135E+02  0.31886063470E+02  0.00000000000E+00 0. -1.
         11    1    3    3    0    0 -0.34786612547E+01  0.22752941158E+01  0.19157250682E+02  0.19603017660E+02  0.51100000000E-03 0. -1.
        -11    1    3    3    0    0  0.24105805658E+02 -0.96429911832E+00  0.12268572943E+02  0.27065432225E+02  0.51100000000E-03 0.  1.
         12    1    3    3    0    0  0.71312762130E+00 -0.88667690570E+01 -0.89708884893E+01  0.12633486645E+02  0.00000000000E+00 0. -1.
</event>
<event>
 7    1  0.3220798E-013  0.5930192E+02  0.7816164E-02  0.1266605E+00
        -11   -1    0    0    0    0  0.00000000000E+00  0.00000000000E+00  0.45593999997E+02  0.45594000000E+02  0.51100000000E-03 0. -1.
         11   -1    0    0    0    0 -0.00000000000E+00 -0.00000000000E+00 -0.45593999997E+02  0.45594000000E+02  0.51100000000E-03 0.  1.
    9900012    2    1    2    0    0 -0.26282159170E+02  0.40565131137E+01 -0.17593030482E+02  0.59301922931E+02  0.49999961525E+02 0.  0.
         12    1    1    2    0    0  0.26282159170E+02 -0.40565131137E+01  0.17593030482E+02  0.31886077069E+02  0.00000000000E+00 0. -1.
         11    1    3    3    0    0  0.52082178081E+01 -0.10805974227E+02 -0.52412560389E+01  0.13090659910E+02  0.51100000000E-03 0. -1.
        -11    1    3    3    0    0  0.24022402420E+01  0.86688306261E+01 -0.68814570547E+01  0.11325803904E+02  0.51100000000E-03 0.  1.
         12    1    3    3    0    0 -0.33892617220E+02  0.61936567150E+01 -0.54703173885E+01  0.34885459118E+02  0.00000000000E+00 0. -1.
</event>
<event>
 7    1  0.3220798E-013  0.5930193E+02  0.7816164E-02  0.1266605E+00
        -11   -1    0    0    0    0  0.00000000000E+00  0.00000000000E+00  0.45593999997E+02  0.45594000000E+02  0.51100000000E-03 0.  1.
         11   -1    0    0    0    0 -0.00000000000E+00 -0.00000000000E+00 -0.45593999997E+02  0.45594000000E+02  0.51100000000E-03 0. -1.
    9900012    2    1    2    0    0 -0.90527273417E+00 -0.30777532464E+02  0.82852710195E+01  0.59301925623E+02  0.49999966434E+02 0.  0.
         12    1    1    2    0    0  0.90527273417E+00  0.30777532464E+02 -0.82852710195E+01  0.31886074377E+02  0.00000000000E+00 0. -1.
         11    1    3    3    0    0  0.35158858082E+01  0.31815173644E+01  0.48357403609E+01  0.67725837651E+01  0.51100000000E-03 0. -1.
        -11    1    3    3    0    0 -0.37538395285E+01 -0.17445376455E+01  0.17057258405E+02  0.17552344213E+02  0.51100000000E-03 0.  1.
         12    1    3    3    0    0 -0.66731901386E+00 -0.32214512183E+02 -0.13607727746E+02  0.34976997645E+02  0.00000000000E+00 0. -1.
</event>
<event>
 7    1  0.3220798E-013  0.5930196E+02  0.7816164E-02  0.1266605E+00
        -11   -1    0    0    0    0  0.00000000000E+00  0.00000000000E+00  0.45593999997E+02  0.45594000000E+02  0.51100000000E-03 0.  1.
         11   -1    0    0    0    0 -0.00000000000E+00 -0.00000000000E+00 -0.45593999997E+02  0.45594000000E+02  0.51100000000E-03 0. -1.
    9900012    2    1    2    0    0  0.70689961111E+01 -0.29965618297E+02  0.82952255437E+01  0.59301956772E+02  0.50000023242E+02 0.  0.
         12    1    1    2    0    0 -0.70689961111E+01  0.29965618297E+02 -0.82952255437E+01  0.31886043228E+02  0.00000000000E+00 0. -1.
         11    1    3    3    0    0 -0.12123124037E+02  0.94207394685E+00  0.71383190509E+01  0.14100114853E+02  0.51100000000E-03 0. -1.
        -11    1    3    3    0    0  0.10729905724E+02 -0.25749714264E+01  0.94102045888E+01  0.14502182779E+02  0.51100000000E-03 0.  1.
        -12    1    3    3    0    0  0.84622144238E+01 -0.28332720817E+02 -0.82532980961E+01  0.30699659140E+02  0.00000000000E+00 0.  1.
</event>
<event>
 7    1  0.3220798E-013  0.5930153E+02  0.7816164E-02  0.1266606E+00
        -11   -1    0    0    0    0  0.00000000000E+00  0.00000000000E+00  0.45593999997E+02  0.45594000000E+02  0.51100000000E-03 0.  1.
         11   -1    0    0    0    0 -0.00000000000E+00 -0.00000000000E+00 -0.45593999997E+02  0.45594000000E+02  0.51100000000E-03 0. -1.
    9900012    2    1    2    0    0  0.31220431287E+02 -0.31048924107E+01  0.56913159694E+01  0.59301533214E+02  0.49999250769E+02 0.  0.
         12    1    1    2    0    0 -0.31220431287E+02  0.31048924107E+01 -0.56913159694E+01  0.31886466786E+02  0.00000000000E+00 0. -1.
         11    1    3    3    0    0 -0.85094941632E+01  0.13635561832E+01 -0.17697120683E+01  0.87978780080E+01  0.51100000000E-03 0. -1.
        -11    1    3    3    0    0  0.25257618218E+02  0.44359070498E+01 -0.86738812861E+01  0.27071401261E+02  0.51100000000E-03 0.  1.
        -12    1    3    3    0    0  0.14472307232E+02 -0.89043556437E+01  0.16134909324E+02  0.23432253945E+02  0.00000000000E+00 0.  1.
</event>
<event>
 7    1  0.3220798E-013  0.5930195E+02  0.7816164E-02  0.1266605E+00
        -11   -1    0    0    0    0  0.00000000000E+00  0.00000000000E+00  0.45593999997E+02  0.45594000000E+02  0.51100000000E-03 0.  1.
         11   -1    0    0    0    0 -0.00000000000E+00 -0.00000000000E+00 -0.45593999997E+02  0.45594000000E+02  0.51100000000E-03 0. -1.
    9900012    2    1    2    0    0 -0.33820269499E+01 -0.31400801603E+02 -0.43899321871E+01  0.59301953644E+02  0.50000017538E+02 0.  0.
         12    1    1    2    0    0  0.33820269499E+01  0.31400801603E+02  0.43899321871E+01  0.31886046356E+02  0.00000000000E+00 0. -1.
         11    1    3    3    0    0  0.59470045453E+01 -0.14207449435E+00 -0.14517038393E+02  0.15688577124E+02  0.51100000000E-03 0. -1.
        -11    1    3    3    0    0  0.76431316081E+01 -0.64312535469E+01 -0.35154765666E+01  0.10589478680E+02  0.51100000000E-03 0.  1.
        -12    1    3    3    0    0 -0.16972163103E+02 -0.24827473562E+02  0.13642582772E+02  0.33023897840E+02  0.00000000000E+00 0.  1.
</event>
<event>
 7    1  0.3220798E-013  0.5930194E+02  0.7816164E-02  0.1266605E+00
        -11   -1    0    0    0    0  0.00000000000E+00  0.00000000000E+00  0.45593999997E+02  0.45594000000E+02  0.51100000000E-03 0.  1.
         11   -1    0    0    0    0 -0.00000000000E+00 -0.00000000000E+00 -0.45593999997E+02  0.45594000000E+02  0.51100000000E-03 0. -1.
    9900012    2    1    2    0    0  0.50553913262E+01  0.22977121719E+02  0.21522448148E+02  0.59301939124E+02  0.49999991056E+02 0.  0.
         12    1    1    2    0    0 -0.50553913262E+01 -0.22977121719E+02 -0.21522448148E+02  0.31886060876E+02  0.00000000000E+00 0. -1.
         11    1    3    3    0    0 -0.15575999249E+02 -0.23372407380E+01  0.69486077762E+01  0.17215039854E+02  0.51100000000E-03 0. -1.
        -11    1    3    3    0    0  0.35774039337E+01  0.21755262643E+02  0.75801037387E+01  0.23314099693E+02  0.51100000000E-03 0.  1.
         12    1    3    3    0    0  0.17053986642E+02  0.35590998140E+01  0.69937366329E+01  0.18772799577E+02  0.00000000000E+00 0. -1.
</event>
<event>
 7    1  0.3220798E-013  0.5930194E+02  0.7816164E-02  0.1266605E+00
        -11   -1    0    0    0    0  0.00000000000E+00  0.00000000000E+00  0.45593999997E+02  0.45594000000E+02  0.51100000000E-03 0.  1.
         11   -1    0    0    0    0 -0.00000000000E+00 -0.00000000000E+00 -0.45593999997E+02  0.45594000000E+02  0.51100000000E-03 0. -1.
    9900012    2    1    2    0    0  0.97417995148E+01 -0.30227088928E+02 -0.28532664467E+01  0.59301942040E+02  0.49999996375E+02 0.  0.
         12    1    1    2    0    0 -0.97417995148E+01  0.30227088928E+02  0.28532664467E+01  0.31886057960E+02  0.00000000000E+00 0. -1.
         11    1    3    3    0    0  0.11300087340E+02 -0.98923269230E+01 -0.51465784144E+01  0.15875685040E+02  0.51100000000E-03 0. -1.
        -11    1    3    3    0    0  0.12060220756E+02 -0.25958607662E+02  0.11125875298E+01  0.28645001095E+02  0.51100000000E-03 0.  1.
        -12    1    3    3    0    0 -0.13618508581E+02  0.56238456576E+01  0.11807244379E+01  0.14781255906E+02  0.00000000000E+00 0.  1.
</event>
<event>
 7    1  0.3220798E-013  0.5930185E+02  0.7816164E-02  0.1266605E+00
        -11   -1    0    0    0    0  0.00000000000E+00  0.00000000000E+00  0.45593999997E+02  0.45594000000E+02  0.51100000000E-03 0. -1.
         11   -1    0    0    0    0 -0.00000000000E+00 -0.00000000000E+00 -0.45593999997E+02  0.45594000000E+02  0.51100000000E-03 0.  1.
    9900012    2    1    2    0    0 -0.27314122232E+02  0.13564799659E+02 -0.93092117696E+01  0.59301851175E+02  0.49999830659E+02 0.  0.
         12    1    1    2    0    0  0.27314122232E+02 -0.13564799659E+02  0.93092117696E+01  0.31886148825E+02  0.00000000000E+00 0. -1.
         11    1    3    3    0    0 -0.16914601128E+02  0.30803086002E+01 -0.12927760722E+02  0.21510904908E+02  0.51100000000E-03 0. -1.
        -11    1    3    3    0    0  0.95162112651E+01  0.11941601911E+02 -0.49633352204E+01  0.16055990465E+02  0.51100000000E-03 0.  1.
         12    1    3    3    0    0 -0.19915732368E+02 -0.14571108513E+01  0.85818841727E+01  0.21734955803E+02  0.00000000000E+00 0. -1.
</event>
<event>
 7    1  0.3220798E-013  0.5930195E+02  0.7816164E-02  0.1266605E+00
        -11   -1    0    0    0    0  0.00000000000E+00  0.00000000000E+00  0.45593999997E+02  0.45594000000E+02  0.51100000000E-03 0.  1.
         11   -1    0    0    0    0 -0.00000000000E+00 -0.00000000000E+00 -0.45593999997E+02  0.45594000000E+02  0.51100000000E-03 0. -1.
    9900012    2    1    2    0    0  0.29970744390E+02 -0.96628150898E+01  0.50104570175E+01  0.59301949849E+02  0.50000010616E+02 0.  0.
         12    1    1    2    0    0 -0.29970744390E+02  0.96628150898E+01 -0.50104570175E+01  0.31886050151E+02  0.00000000000E+00 0. -1.
         11    1    3    3    0    0 -0.25745463994E+01  0.13107324154E+02 -0.31986890760E+01  0.13735423099E+02  0.51100000000E-03 0. -1.
        -11    1    3    3    0    0  0.78581699025E+00 -0.63045008519E+01  0.74409162252E+01  0.97842462083E+01  0.51100000000E-03 0.  1.
        -12    1    3    3    0    0  0.31759473799E+02 -0.16465638392E+02  0.76822986830E+00  0.35782280542E+02  0.00000000000E+00 0.  1.
</event>
<event>
 7    1  0.3220798E-013  0.5930194E+02  0.7816164E-02  0.1266605E+00
        -11   -1    0    0    0    0  0.00000000000E+00  0.00000000000E+00  0.45593999997E+02  0.45594000000E+02  0.51100000000E-03 0.  1.
         11   -1    0    0    0    0 -0.00000000000E+00 -0.00000000000E+00 -0.45593999997E+02  0.45594000000E+02  0.51100000000E-03 0. -1.
    9900012    2    1    2    0    0  0.20675596359E+01  0.31600257391E+02  0.37242210244E+01  0.59301938903E+02  0.49999990654E+02 0.  0.
         12    1    1    2    0    0 -0.20675596359E+01 -0.31600257391E+02 -0.37242210244E+01  0.31886061097E+02  0.00000000000E+00 0. -1.
         11    1    3    3    0    0 -0.49396694023E+01  0.33041943114E+02  0.38225304659E+01  0.33627103324E+02  0.51100000000E-03 0. -1.
        -11    1    3    3    0    0  0.12193734816E+02  0.11513679981E+01  0.87805638766E+01  0.15070206345E+02  0.51100000000E-03 0.  1.
        -12    1    3    3    0    0 -0.51865057781E+01 -0.25930537212E+01 -0.88788733180E+01  0.10604629234E+02  0.00000000000E+00 0.  1.
</event>
<event>
 7    1  0.3220798E-013  0.5930197E+02  0.7816164E-02  0.1266605E+00
        -11   -1    0    0    0    0  0.00000000000E+00  0.00000000000E+00  0.45593999997E+02  0.45594000000E+02  0.51100000000E-03 0.  1.
         11   -1    0    0    0    0 -0.00000000000E+00 -0.00000000000E+00 -0.45593999997E+02  0.45594000000E+02  0.51100000000E-03 0. -1.
    9900012    2    1    2    0    0  0.23511372038E+02  0.12142462277E+01  0.21504873560E+02  0.59301974913E+02  0.50000056328E+02 0.  0.
         12    1    1    2    0    0 -0.23511372038E+02 -0.12142462277E+01 -0.21504873560E+02  0.31886025087E+02  0.00000000000E+00 0. -1.
         11    1    3    3    0    0  0.16070370374E+02  0.13757096267E+02  0.36325452930E+01  0.21464153541E+02  0.51100000000E-03 0. -1.
        -11    1    3    3    0    0 -0.69120380618E+00  0.36251630226E+00 -0.78736838942E+01  0.79122739524E+01  0.51100000000E-03 0.  1.
        -12    1    3    3    0    0  0.81322054702E+01 -0.12905366341E+02  0.25746012161E+02  0.29925547420E+02  0.00000000000E+00 0.  1.
</event>
<event>
 7    1  0.3220798E-013  0.5930195E+02  0.7816164E-02  0.1266605E+00
        -11   -1    0    0    0    0  0.00000000000E+00  0.00000000000E+00  0.45593999997E+02  0.45594000000E+02  0.51100000000E-03 0.  1.
         11   -1    0    0    0    0 -0.00000000000E+00 -0.00000000000E+00 -0.45593999997E+02  0.45594000000E+02  0.51100000000E-03 0. -1.
    9900012    2    1    2    0    0 -0.54187588776E+01  0.24014226326E+00  0.31421327545E+02  0.59301945983E+02  0.50000003567E+02 0.  0.
         12    1    1    2    0    0  0.54187588776E+01 -0.24014226326E+00 -0.31421327545E+02  0.31886054017E+02  0.00000000000E+00 0. -1.
         11    1    3    3    0    0 -0.51077321367E+01  0.46355278410E+01  0.14602859511E+02  0.16149939694E+02  0.51100000000E-03 0. -1.
        -11    1    3    3    0    0  0.88192977602E+01  0.65538170668E+01  0.24576780509E+02  0.26921193725E+02  0.51100000000E-03 0.  1.
         12    1    3    3    0    0 -0.91303245011E+01 -0.10949202645E+02 -0.77583124755E+01  0.16230812565E+02  0.00000000000E+00 0. -1.
</event>
<event>
 7    1  0.3220798E-013  0.5930193E+02  0.7816164E-02  0.1266605E+00
        -11   -1    0    0    0    0  0.00000000000E+00  0.00000000000E+00  0.45593999997E+02  0.45594000000E+02  0.51100000000E-03 0.  1.
         11   -1    0    0    0    0 -0.00000000000E+00 -0.00000000000E+00 -0.45593999997E+02  0.45594000000E+02  0.51100000000E-03 0. -1.
    9900012    2    1    2    0    0 -0.71002874208E+00  0.27674250688E+02  0.15822543843E+02  0.59301934303E+02  0.49999982265E+02 0.  0.
         12    1    1    2    0    0  0.71002874208E+00 -0.27674250688E+02 -0.15822543843E+02  0.31886065697E+02  0.00000000000E+00 0. -1.
         11    1    3    3    0    0 -0.19213861794E+01 -0.34889006512E+01  0.30309541032E+01  0.50050809825E+01  0.51100000000E-03 0. -1.
        -11    1    3    3    0    0 -0.85110533913E+01  0.18629873318E+02  0.26388575597E+02  0.33404597467E+02  0.51100000000E-03 0.  1.
         12    1    3    3    0    0  0.97224108287E+01  0.12533278021E+02 -0.13596985856E+02  0.20892255853E+02  0.00000000000E+00 0. -1.
</event>
<event>
 7    1  0.3220798E-013  0.5930191E+02  0.7816164E-02  0.1266605E+00
        -11   -1    0    0    0    0  0.00000000000E+00  0.00000000000E+00  0.45593999997E+02  0.45594000000E+02  0.51100000000E-03 0. -1.
         11   -1    0    0    0    0 -0.00000000000E+00 -0.00000000000E+00 -0.45593999997E+02  0.45594000000E+02  0.51100000000E-03 0.  1.
    9900012    2    1    2    0    0 -0.27541796207E+01  0.26310752911E+02 -0.17801174871E+02  0.59301905054E+02  0.49999928921E+02 0.  0.
         12    1    1    2    0    0  0.27541796207E+01 -0.26310752911E+02  0.17801174871E+02  0.31886094946E+02  0.00000000000E+00 0. -1.
         11    1    3    3    0    0 -0.20151811639E+02  0.25198719953E+02 -0.80805622722E+01  0.33262087825E+02  0.51100000000E-03 0. -1.
        -11    1    3    3    0    0  0.19789471849E+01  0.71846030425E+01 -0.17683053514E+01  0.76590898230E+01  0.51100000000E-03 0.  1.
         12    1    3    3    0    0  0.15418684833E+02 -0.60725700840E+01 -0.79523072470E+01  0.18380727406E+02  0.00000000000E+00 0. -1.
</event>
<event>
 7    1  0.3220798E-013  0.5930195E+02  0.7816164E-02  0.1266605E+00
        -11   -1    0    0    0    0  0.00000000000E+00  0.00000000000E+00  0.45593999997E+02  0.45594000000E+02  0.51100000000E-03 0.  1.
         11   -1    0    0    0    0 -0.00000000000E+00 -0.00000000000E+00 -0.45593999997E+02  0.45594000000E+02  0.51100000000E-03 0. -1.
    9900012    2    1    2    0    0  0.12963693638E+02  0.27085319375E+02  0.10726049382E+02  0.59301952679E+02  0.50000015779E+02 0.  0.
         12    1    1    2    0    0 -0.12963693638E+02 -0.27085319375E+02 -0.10726049382E+02  0.31886047321E+02  0.00000000000E+00 0. -1.
         11    1    3    3    0    0 -0.58527174300E+01  0.97647571179E+01  0.93443881148E+01  0.14728284774E+02  0.51100000000E-03 0. -1.
        -11    1    3    3    0    0  0.13940742714E+02  0.10375781181E+02  0.18552629964E+02  0.25420488220E+02  0.51100000000E-03 0.  1.
        -12    1    3    3    0    0  0.48756683545E+01  0.69447810761E+01 -0.17170968696E+02  0.19153179685E+02  0.00000000000E+00 0.  1.
</event>
<event>
 7    1  0.3220798E-013  0.5930194E+02  0.7816164E-02  0.1266605E+00
        -11   -1    0    0    0    0  0.00000000000E+00  0.00000000000E+00  0.45593999997E+02  0.45594000000E+02  0.51100000000E-03 0.  1.
         11   -1    0    0    0    0 -0.00000000000E+00 -0.00000000000E+00 -0.45593999997E+02  0.45594000000E+02  0.51100000000E-03 0. -1.
    9900012    2    1    2    0    0 -0.22941506227E+02 -0.22136059749E+02  0.63469953893E+00  0.59301942033E+02  0.49999996362E+02 0.  0.
         12    1    1    2    0    0  0.22941506227E+02  0.22136059749E+02 -0.63469953893E+00  0.31886057967E+02  0.00000000000E+00 0. -1.
         11    1    3    3    0    0  0.24477930026E+01 -0.13865201814E+02  0.68096349999E+01  0.15639905403E+02  0.51100000000E-03 0. -1.
        -11    1    3    3    0    0 -0.92936862186E+01 -0.14480024705E+02  0.10094761456E+02  0.19948632236E+02  0.51100000000E-03 0.  1.
         12    1    3    3    0    0 -0.16095613011E+02  0.62091667700E+01 -0.16269696917E+02  0.23713404394E+02  0.00000000000E+00 0. -1.
</event>
<event>
 7    1  0.3220798E-013  0.5930202E+02  0.7816164E-02  0.1266605E+00
        -11   -1    0    0    0    0  0.00000000000E+00  0.00000000000E+00  0.45593999997E+02  0.45594000000E+02  0.51100000000E-03 0. -1.
         11   -1    0    0    0    0 -0.00000000000E+00 -0.00000000000E+00 -0.45593999997E+02  0.45594000000E+02  0.51100000000E-03 0.  1.
    9900012    2    1    2    0    0 -0.19549739036E+02 -0.25119851207E+02 -0.18752926005E+01  0.59302016506E+02  0.50000132183E+02 0.  0.
         12    1    1    2    0    0  0.19549739036E+02  0.25119851207E+02  0.18752926005E+01  0.31885983494E+02  0.00000000000E+00 0. -1.
         11    1    3    3    0    0  0.26305546605E+01  0.12154792584E+02 -0.85531106258E+01  0.15093525176E+02  0.51100000000E-03 0. -1.
        -11    1    3    3    0    0 -0.38900313181E+00 -0.30098310369E+01 -0.11548020773E+00  0.30370614493E+01  0.51100000000E-03 0.  1.
         12    1    3    3    0    0 -0.21791290565E+02 -0.34264812754E+02  0.67932982331E+01  0.41171429881E+02  0.00000000000E+00 0. -1.
</event>
<event>
 7    1  0.3220798E-013  0.5930195E+02  0.7816164E-02  0.1266605E+00
        -11   -1    0    0    0    0  0.00000000000E+00  0.00000000000E+00  0.45593999997E+02  0.45594000000E+02  0.51100000000E-03 0. -1.
         11   -1    0    0    0    0 -0.00000000000E+00 -0.00000000000E+00 -0.45593999997E+02  0.45594000000E+02  0.51100000000E-03 0.  1.
    9900012    2    1    2    0    0  0.92530117514E+01  0.24746479970E+02 -0.17852562634E+02  0.59301945211E+02  0.50000002159E+02 0.  0.
         12    1    1    2    0    0 -0.92530117514E+01 -0.24746479970E+02  0.17852562634E+02  0.31886054789E+02  0.00000000000E+00 0. -1.
         11    1    3    3    0    0  0.29717490429E+01  0.17973402826E+02  0.27627103190E+01  0.18425717628E+02  0.51100000000E-03 0. -1.
        -11    1    3    3    0    0  0.17034121387E+02  0.61763161848E+01 -0.23550288020E+02  0.29714041111E+02  0.51100000000E-03 0.  1.
         12    1    3    3    0    0 -0.10752858679E+02  0.59676095906E+00  0.29350150672E+01  0.11162186473E+02  0.00000000000E+00 0. -1.
</event>
<event>
 7    1  0.3220798E-013  0.5930196E+02  0.7816164E-02  0.1266605E+00
        -11   -1    0    0    0    0  0.00000000000E+00  0.00000000000E+00  0.45593999997E+02  0.45594000000E+02  0.51100000000E-03 0.  1.
         11   -1    0    0    0    0 -0.00000000000E+00 -0.00000000000E+00 -0.45593999997E+02  0.45594000000E+02  0.51100000000E-03 0. -1.
    9900012    2    1    2    0    0  0.29109647589E+02 -0.61797125815E+01  0.11452482607E+02  0.59301956216E+02  0.50000022229E+02 0.  0.
         12    1    1    2    0    0 -0.29109647589E+02  0.61797125815E+01 -0.11452482607E+02  0.31886043784E+02  0.00000000000E+00 0. -1.
         11    1    3    3    0    0 -0.83812168788E+01  0.27459663905E+01 -0.49724166947E+01  0.10124724976E+02  0.51100000000E-03 0. -1.
        -11    1    3    3    0    0  0.12108075221E+02 -0.11385985091E+02 -0.32903813976E+01  0.16943221418E+02  0.51100000000E-03 0.  1.
         12    1    3    3    0    0  0.25382789247E+02  0.24603061185E+01  0.19715280699E+02  0.32234009822E+02  0.00000000000E+00 0. -1.
</event>
<event>
 7    1  0.3220798E-013  0.5930195E+02  0.7816164E-02  0.1266605E+00
        -11   -1    0    0    0    0  0.00000000000E+00  0.00000000000E+00  0.45593999997E+02  0.45594000000E+02  0.51100000000E-03 0.  1.
         11   -1    0    0    0    0 -0.00000000000E+00 -0.00000000000E+00 -0.45593999997E+02  0.45594000000E+02  0.51100000000E-03 0. -1.
    9900012    2    1    2    0    0 -0.11052443426E+02  0.25951514344E+02  0.14868849036E+02  0.59301948597E+02  0.50000008333E+02 0.  0.
         12    1    1    2    0    0  0.11052443426E+02 -0.25951514344E+02 -0.14868849036E+02  0.31886051403E+02  0.00000000000E+00 0. -1.
         11    1    3    3    0    0  0.44016843535E+01  0.34992195194E+01  0.58015577653E+01  0.80794452259E+01  0.51100000000E-03 0.  1.
        -11    1    3    3    0    0 -0.27166069136E+02  0.24012653366E+02  0.13375822977E+02  0.38646027927E+02  0.51100000000E-03 0. -1.
         12    1    3    3    0    0  0.11711941357E+02 -0.15603585409E+01 -0.43085317064E+01  0.12576475444E+02  0.00000000000E+00 0. -1.
</event>
<event>
 7    1  0.3220798E-013  0.5930193E+02  0.7816164E-02  0.1266605E+00
        -11   -1    0    0    0    0  0.00000000000E+00  0.00000000000E+00  0.45593999997E+02  0.45594000000E+02  0.51100000000E-03 0. -1.
         11   -1    0    0    0    0 -0.00000000000E+00 -0.00000000000E+00 -0.45593999997E+02  0.45594000000E+02  0.51100000000E-03 0.  1.
    9900012    2    1    2    0    0  0.50717951589E+01 -0.24055938006E+02 -0.20305423725E+02  0.59301929497E+02  0.49999973500E+02 0.  0.
         12    1    1    2    0    0 -0.50717951589E+01  0.24055938006E+02  0.20305423725E+02  0.31886070503E+02  0.00000000000E+00 0. -1.
         11    1    3    3    0    0  0.52737706744E+01 -0.60609723288E+01  0.96196193215E+01  0.12533360238E+02  0.51100000000E-03 0. -1.
        -11    1    3    3    0    0 -0.75776178642E+01 -0.44185613270E+01  0.38864356718E+01  0.95941836124E+01  0.51100000000E-03 0.  1.
        -12    1    3    3    0    0  0.73756423486E+01 -0.13576404350E+02 -0.33811478718E+02  0.37174385647E+02  0.00000000000E+00 0.  1.
</event>
<event>
 7    1  0.3220798E-013  0.5930192E+02  0.7816164E-02  0.1266605E+00
        -11   -1    0    0    0    0  0.00000000000E+00  0.00000000000E+00  0.45593999997E+02  0.45594000000E+02  0.51100000000E-03 0. -1.
         11   -1    0    0    0    0 -0.00000000000E+00 -0.00000000000E+00 -0.45593999997E+02  0.45594000000E+02  0.51100000000E-03 0.  1.
    9900012    2    1    2    0    0 -0.37293214607E+01 -0.21381302778E+02 -0.23359240575E+02  0.59301920478E+02  0.49999957051E+02 0.  0.
         12    1    1    2    0    0  0.37293214607E+01  0.21381302778E+02  0.23359240575E+02  0.31886079522E+02  0.00000000000E+00 0. -1.
         11    1    3    3    0    0  0.62768436324E+01  0.52358166948E+01  0.92868240970E+01  0.12371646799E+02  0.51100000000E-03 0. -1.
        -11    1    3    3    0    0 -0.41757114115E+01 -0.85155547865E+01 -0.24444129339E+02  0.26219586162E+02  0.51100000000E-03 0.  1.
        -12    1    3    3    0    0 -0.58304536816E+01 -0.18101564686E+02 -0.82019353325E+01  0.20710687517E+02  0.00000000000E+00 0.  1.
</event>
<event>
 7    1  0.3220798E-013  0.5930183E+02  0.7816164E-02  0.1266605E+00
        -11   -1    0    0    0    0  0.00000000000E+00  0.00000000000E+00  0.45593999997E+02  0.45594000000E+02  0.51100000000E-03 0.  1.
         11   -1    0    0    0    0 -0.00000000000E+00 -0.00000000000E+00 -0.45593999997E+02  0.45594000000E+02  0.51100000000E-03 0. -1.
    9900012    2    1    2    0    0  0.98706640058E+01  0.27859648893E+02 -0.11964026257E+02  0.59301827940E+02  0.49999788283E+02 0.  0.
         12    1    1    2    0    0 -0.98706640058E+01 -0.27859648893E+02  0.11964026257E+02  0.31886172060E+02  0.00000000000E+00 0. -1.
         11    1    3    3    0    0  0.10605021719E+02  0.10819434725E+02 -0.15819761256E+02  0.21904143442E+02  0.51100000000E-03 0. -1.
        -11    1    3    3    0    0  0.12342778305E+02  0.19837703207E+02 -0.38865708486E+00  0.23367278391E+02  0.51100000000E-03 0.  1.
         12    1    3    3    0    0 -0.13077136018E+02 -0.27974890391E+01  0.42443920841E+01  0.14030406107E+02  0.00000000000E+00 0. -1.
</event>
<event>
 7    1  0.3220798E-013  0.5930195E+02  0.7816164E-02  0.1266605E+00
        -11   -1    0    0    0    0  0.00000000000E+00  0.00000000000E+00  0.45593999997E+02  0.45594000000E+02  0.51100000000E-03 0.  1.
         11   -1    0    0    0    0 -0.00000000000E+00 -0.00000000000E+00 -0.45593999997E+02  0.45594000000E+02  0.51100000000E-03 0. -1.
    9900012    2    1    2    0    0 -0.29306487224E+02 -0.12500488528E+02 -0.12599445727E+01  0.59301954977E+02  0.50000019970E+02 0.  0.
         12    1    1    2    0    0  0.29306487224E+02  0.12500488528E+02  0.12599445727E+01  0.31886045023E+02  0.00000000000E+00 0. -1.
         11    1    3    3    0    0 -0.18100919461E+02  0.44197814988E+01 -0.89966539459E+01  0.20691001337E+02  0.51100000000E-03 0.  1.
        -11    1    3    3    0    0  0.21937107023E+01  0.16150819817E+01  0.14505425553E+02  0.14759004953E+02  0.51100000000E-03 0. -1.
         12    1    3    3    0    0 -0.13399278465E+02 -0.18535352009E+02 -0.67687161802E+01  0.23851948688E+02  0.00000000000E+00 0. -1.
</event>
<event>
 7    1  0.3220798E-013  0.5930194E+02  0.7816164E-02  0.1266605E+00
        -11   -1    0    0    0    0  0.00000000000E+00  0.00000000000E+00  0.45593999997E+02  0.45594000000E+02  0.51100000000E-03 0.  1.
         11   -1    0    0    0    0 -0.00000000000E+00 -0.00000000000E+00 -0.45593999997E+02  0.45594000000E+02  0.51100000000E-03 0. -1.
    9900012    2    1    2    0    0 -0.16116132069E+02  0.65911708383E+01  0.26712307025E+02  0.59301943604E+02  0.49999999227E+02 0.  0.
         12    1    1    2    0    0  0.16116132069E+02 -0.65911708383E+01 -0.26712307025E+02  0.31886056396E+02  0.00000000000E+00 0. -1.
         11    1    3    3    0    0 -0.44052739924E+00 -0.13234523270E+02 -0.27563523996E+01  0.13525684803E+02  0.51100000000E-03 0. -1.
        -11    1    3    3    0    0 -0.86372706270E+01  0.12538770571E+02  0.66210283321E+00  0.15240130962E+02  0.51100000000E-03 0.  1.
        -12    1    3    3    0    0 -0.70383340427E+01  0.72869235375E+01  0.28806556591E+02  0.30536127839E+02  0.00000000000E+00 0.  1.
</event>
<event>
 7    1  0.3220798E-013  0.5930195E+02  0.7816164E-02  0.1266605E+00
        -11   -1    0    0    0    0  0.00000000000E+00  0.00000000000E+00  0.45593999997E+02  0.45594000000E+02  0.51100000000E-03 0.  1.
         11   -1    0    0    0    0 -0.00000000000E+00 -0.00000000000E+00 -0.45593999997E+02  0.45594000000E+02  0.51100000000E-03 0. -1.
    9900012    2    1    2    0    0 -0.31274783116E+02 -0.15186119608E+01  0.60251048647E+01  0.59301950858E+02  0.50000012457E+02 0.  0.
         12    1    1    2    0    0  0.31274783116E+02  0.15186119608E+01 -0.60251048647E+01  0.31886049142E+02  0.00000000000E+00 0. -1.
         11    1    3    3    0    0 -0.44096798394E+01 -0.73211291972E+01  0.88442758685E+01  0.12299000972E+02  0.51100000000E-03 0. -1.
        -11    1    3    3    0    0 -0.24869947428E+02 -0.23387328588E+00  0.14336465703E+02  0.28707198242E+02  0.51100000000E-03 0.  1.
        -12    1    3    3    0    0 -0.19951558486E+01  0.60363905223E+01 -0.17155636707E+02  0.18295751644E+02  0.00000000000E+00 0.  1.
</event>
<event>
 7    1  0.3220798E-013  0.5930199E+02  0.7816164E-02  0.1266605E+00
        -11   -1    0    0    0    0  0.00000000000E+00  0.00000000000E+00  0.45593999997E+02  0.45594000000E+02  0.51100000000E-03 0.  1.
         11   -1    0    0    0    0 -0.00000000000E+00 -0.00000000000E+00 -0.45593999997E+02  0.45594000000E+02  0.51100000000E-03 0. -1.
    9900012    2    1    2    0    0 -0.15074047648E+02  0.75166796955E+01  0.27073790863E+02  0.59301991503E+02  0.50000086584E+02 0.  0.
         12    1    1    2    0    0  0.15074047648E+02 -0.75166796955E+01 -0.27073790863E+02  0.31886008497E+02  0.00000000000E+00 0. -1.
         11    1    3    3    0    0  0.67275939587E+01  0.65113709253E+01 -0.37708841755E+01  0.10093465189E+02  0.51100000000E-03 0. -1.
        -11    1    3    3    0    0 -0.11380863694E+02 -0.78149463052E+01  0.32638961426E+02  0.35438668815E+02  0.51100000000E-03 0.  1.
         12    1    3    3    0    0 -0.10420777912E+02  0.88202550754E+01 -0.17942863871E+01  0.13769857499E+02  0.00000000000E+00 0. -1.
</event>
<event>
 7    1  0.3220798E-013  0.5930196E+02  0.7816164E-02  0.1266605E+00
        -11   -1    0    0    0    0  0.00000000000E+00  0.00000000000E+00  0.45593999997E+02  0.45594000000E+02  0.51100000000E-03 0.  1.
         11   -1    0    0    0    0 -0.00000000000E+00 -0.00000000000E+00 -0.45593999997E+02  0.45594000000E+02  0.51100000000E-03 0. -1.
    9900012    2    1    2    0    0  0.12614834719E+02 -0.23315834648E+02  0.17718842416E+02  0.59301959529E+02  0.50000028272E+02 0.  0.
         12    1    1    2    0    0 -0.12614834719E+02  0.23315834648E+02 -0.17718842416E+02  0.31886040471E+02  0.00000000000E+00 0. -1.
         11    1    3    3    0    0  0.95509863774E+01 -0.32010143053E+01  0.22778287479E+02  0.24906188269E+02  0.51100000000E-03 0.  1.
        -11    1    3    3    0    0  0.87532344483E+01 -0.14231848727E+02  0.83558777510E+01  0.18681148914E+02  0.51100000000E-03 0. -1.
         12    1    3    3    0    0 -0.56893861069E+01 -0.58829716161E+01 -0.13415322814E+02  0.15714622347E+02  0.00000000000E+00 0. -1.
</event>
<event>
 7    1  0.3220798E-013  0.5930193E+02  0.7816164E-02  0.1266605E+00
        -11   -1    0    0    0    0  0.00000000000E+00  0.00000000000E+00  0.45593999997E+02  0.45594000000E+02  0.51100000000E-03 0.  1.
         11   -1    0    0    0    0 -0.00000000000E+00 -0.00000000000E+00 -0.45593999997E+02  0.45594000000E+02  0.51100000000E-03 0. -1.
    9900012    2    1    2    0    0 -0.25574583971E+02  0.17129625233E+02 -0.83209252452E+01  0.59301934033E+02  0.49999981772E+02 0.  0.
         12    1    1    2    0    0  0.25574583971E+02 -0.17129625233E+02  0.83209252452E+01  0.31886065967E+02  0.00000000000E+00 0. -1.
         11    1    3    3    0    0  0.10616075659E+01  0.38979784284E+01  0.62684978083E+01  0.74575673973E+01  0.51100000000E-03 0. -1.
        -11    1    3    3    0    0  0.38805819489E+01 -0.76520538931E+01  0.50689818877E+01  0.99653109677E+01  0.51100000000E-03 0.  1.
         12    1    3    3    0    0 -0.30516773486E+02  0.20883700698E+02 -0.19658404941E+02  0.41879055668E+02  0.00000000000E+00 0. -1.
</event>
<event>
 7    1  0.3220798E-013  0.5930194E+02  0.7816164E-02  0.1266605E+00
        -11   -1    0    0    0    0  0.00000000000E+00  0.00000000000E+00  0.45593999997E+02  0.45594000000E+02  0.51100000000E-03 0.  1.
         11   -1    0    0    0    0 -0.00000000000E+00 -0.00000000000E+00 -0.45593999997E+02  0.45594000000E+02  0.51100000000E-03 0. -1.
    9900012    2    1    2    0    0  0.13258249798E+00  0.31840314732E+02  0.17021822239E+01  0.59301942785E+02  0.49999997734E+02 0.  0.
         12    1    1    2    0    0 -0.13258249798E+00 -0.31840314732E+02 -0.17021822239E+01  0.31886057215E+02  0.00000000000E+00 0. -1.
         11    1    3    3    0    0 -0.18617753913E+01  0.60622380307E+01  0.12188034402E+02  0.13739181941E+02  0.51100000000E-03 0. -1.
        -11    1    3    3    0    0  0.82417598808E+01  0.42426771123E+01  0.11083847039E+02  0.14449172311E+02  0.51100000000E-03 0.  1.
         12    1    3    3    0    0 -0.62474019915E+01  0.21535399589E+02 -0.21569699218E+02  0.31113588534E+02  0.00000000000E+00 0. -1.
</event>
<event>
 7    1  0.3220798E-013  0.5930190E+02  0.7816164E-02  0.1266605E+00
        -11   -1    0    0    0    0  0.00000000000E+00  0.00000000000E+00  0.45593999997E+02  0.45594000000E+02  0.51100000000E-03 0.  1.
         11   -1    0    0    0    0 -0.00000000000E+00 -0.00000000000E+00 -0.45593999997E+02  0.45594000000E+02  0.51100000000E-03 0. -1.
    9900012    2    1    2    0    0  0.13623694092E+02 -0.76461428197E+01  0.27796670087E+02  0.59301899445E+02  0.49999918691E+02 0.  0.
         12    1    1    2    0    0 -0.13623694092E+02  0.76461428197E+01 -0.27796670087E+02  0.31886100555E+02  0.00000000000E+00 0. -1.
         11    1    3    3    0    0  0.10922903632E+02 -0.10410148969E+02  0.64392892411E+01  0.16405653645E+02  0.51100000000E-03 0. -1.
        -11    1    3    3    0    0  0.14791468202E+02  0.77037326633E+01 -0.13169203128E+01  0.16729294901E+02  0.51100000000E-03 0.  1.
        -12    1    3    3    0    0 -0.12090677743E+02 -0.49397265139E+01  0.22674301159E+02  0.26166950899E+02  0.00000000000E+00 0.  1.
</event>
<event>
 7    1  0.3220798E-013  0.5930195E+02  0.7816164E-02  0.1266605E+00
        -11   -1    0    0    0    0  0.00000000000E+00  0.00000000000E+00  0.45593999997E+02  0.45594000000E+02  0.51100000000E-03 0.  1.
         11   -1    0    0    0    0 -0.00000000000E+00 -0.00000000000E+00 -0.45593999997E+02  0.45594000000E+02  0.51100000000E-03 0. -1.
    9900012    2    1    2    0    0  0.55710760988E+01  0.15296903013E+01  0.31358308582E+02  0.59301947274E+02  0.50000005920E+02 0.  0.
         12    1    1    2    0    0 -0.55710760988E+01 -0.15296903013E+01 -0.31358308582E+02  0.31886052726E+02  0.00000000000E+00 0. -1.
         11    1    3    3    0    0  0.87927583660E+01  0.24149109227E+01  0.11975432547E+02  0.15051756688E+02  0.51100000000E-03 0.  1.
        -11    1    3    3    0    0 -0.93630645744E+00 -0.13927608384E+02  0.25952863752E+02  0.29468730585E+02  0.51100000000E-03 0. -1.
        -12    1    3    3    0    0 -0.22853758097E+01  0.13042387763E+02 -0.65699877172E+01  0.14781460000E+02  0.00000000000E+00 0.  1.
</event>
<event>
 7    1  0.3220798E-013  0.5930194E+02  0.7816164E-02  0.1266605E+00
        -11   -1    0    0    0    0  0.00000000000E+00  0.00000000000E+00  0.45593999997E+02  0.45594000000E+02  0.51100000000E-03 0.  1.
         11   -1    0    0    0    0 -0.00000000000E+00 -0.00000000000E+00 -0.45593999997E+02  0.45594000000E+02  0.51100000000E-03 0. -1.
    9900012    2    1    2    0    0  0.23506632507E+02 -0.20618050408E+02 -0.62494055055E+01  0.59301939666E+02  0.49999992045E+02 0.  0.
         12    1    1    2    0    0 -0.23506632507E+02  0.20618050408E+02  0.62494055055E+01  0.31886060334E+02  0.00000000000E+00 0. -1.
         11    1    3    3    0    0 -0.75869825261E+01 -0.15666847554E+02 -0.49945716578E-01  0.17407323486E+02  0.51100000000E-03 0. -1.
        -11    1    3    3    0    0 -0.21719922648E+01 -0.57663517204E+01  0.36878908608E+01  0.71811490602E+01  0.51100000000E-03 0.  1.
        -12    1    3    3    0    0  0.33265607298E+02  0.81514886598E+00 -0.98873506497E+01  0.34713467120E+02  0.00000000000E+00 0.  1.
</event>
<event>
 7    1  0.3220798E-013  0.5930193E+02  0.7816164E-02  0.1266605E+00
        -11   -1    0    0    0    0  0.00000000000E+00  0.00000000000E+00  0.45593999997E+02  0.45594000000E+02  0.51100000000E-03 0.  1.
         11   -1    0    0    0    0 -0.00000000000E+00 -0.00000000000E+00 -0.45593999997E+02  0.45594000000E+02  0.51100000000E-03 0. -1.
    9900012    2    1    2    0    0 -0.87380196154E+01  0.30605629702E+02 -0.19140822615E+01  0.59301933024E+02  0.49999979933E+02 0.  0.
         12    1    1    2    0    0  0.87380196154E+01 -0.30605629702E+02  0.19140822615E+01  0.31886066976E+02  0.00000000000E+00 0. -1.
         11    1    3    3    0    0 -0.21532128685E+02  0.23140267963E+02  0.14456012250E+01  0.31641654986E+02  0.51100000000E-03 0. -1.
        -11    1    3    3    0    0  0.15131749104E+01  0.13245674016E+02 -0.61487401120E+01  0.14681436703E+02  0.51100000000E-03 0.  1.
         12    1    3    3    0    0  0.11280934159E+02 -0.57803122768E+01  0.27890566255E+01  0.12978841335E+02  0.00000000000E+00 0. -1.
</event>
<event>
 7    1  0.3220798E-013  0.5930189E+02  0.7816164E-02  0.1266605E+00
        -11   -1    0    0    0    0  0.00000000000E+00  0.00000000000E+00  0.45593999997E+02  0.45594000000E+02  0.51100000000E-03 0.  1.
         11   -1    0    0    0    0 -0.00000000000E+00 -0.00000000000E+00 -0.45593999997E+02  0.45594000000E+02  0.51100000000E-03 0. -1.
    9900012    2    1    2    0    0  0.11697330608E+02 -0.26540928921E+02  0.13246719436E+02  0.59301889745E+02  0.49999901002E+02 0.  0.
         12    1    1    2    0    0 -0.11697330608E+02  0.26540928921E+02 -0.13246719436E+02  0.31886110255E+02  0.00000000000E+00 0. -1.
         11    1    3    3    0    0 -0.46230119895E+00 -0.24597694806E+02 -0.10269350509E+02  0.26659329930E+02  0.51100000000E-03 0. -1.
        -11    1    3    3    0    0 -0.36623618970E+01 -0.52708030759E+01  0.77110725853E+01  0.10032691583E+02  0.51100000000E-03 0.  1.
         12    1    3    3    0    0  0.15821993704E+02  0.33275689604E+01  0.15804997360E+02  0.22609868232E+02  0.00000000000E+00 0. -1.
</event>
<event>
 7    1  0.3220798E-013  0.5930168E+02  0.7816164E-02  0.1266606E+00
        -11   -1    0    0    0    0  0.00000000000E+00  0.00000000000E+00  0.45593999997E+02  0.45594000000E+02  0.51100000000E-03 0.  1.
         11   -1    0    0    0    0 -0.00000000000E+00 -0.00000000000E+00 -0.45593999997E+02  0.45594000000E+02  0.51100000000E-03 0. -1.
    9900012    2    1    2    0    0 -0.25461103547E+02  0.13726687458E+02  0.13418176848E+02  0.59301682992E+02  0.49999523931E+02 0.  0.
         12    1    1    2    0    0  0.25461103547E+02 -0.13726687458E+02 -0.13418176848E+02  0.31886317008E+02  0.00000000000E+00 0. -1.
         11    1    3    3    0    0 -0.11299023332E+01 -0.66490633901E+01  0.48158949190E+01  0.82873136408E+01  0.51100000000E-03 0.  1.
        -11    1    3    3    0    0 -0.25522335090E+02  0.21248596411E+02 -0.81515233941E+01  0.34195610417E+02  0.51100000000E-03 0. -1.
         12    1    3    3    0    0  0.11911338763E+01 -0.87284556330E+00  0.16753805323E+02  0.16818758934E+02  0.00000000000E+00 0. -1.
</event>
<event>
 7    1  0.3220798E-013  0.5930214E+02  0.7816164E-02  0.1266604E+00
        -11   -1    0    0    0    0  0.00000000000E+00  0.00000000000E+00  0.45593999997E+02  0.45594000000E+02  0.51100000000E-03 0. -1.
         11   -1    0    0    0    0 -0.00000000000E+00 -0.00000000000E+00 -0.45593999997E+02  0.45594000000E+02  0.51100000000E-03 0.  1.
    9900012    2    1    2    0    0 -0.24076339244E+01 -0.71416267960E+01 -0.30982391631E+02  0.59302139096E+02  0.50000355756E+02 0.  0.
         12    1    1    2    0    0  0.24076339244E+01  0.71416267960E+01  0.30982391631E+02  0.31885860904E+02  0.00000000000E+00 0. -1.
         11    1    3    3    0    0  0.79278203538E+01  0.79146104124E+00 -0.19528992469E+02  0.21091664070E+02  0.51100000000E-03 0. -1.
        -11    1    3    3    0    0 -0.73664606692E+01  0.12079881967E+02 -0.11086831648E+02  0.17975153056E+02  0.51100000000E-03 0.  1.
         12    1    3    3    0    0 -0.29689936089E+01 -0.20012969805E+02 -0.36656751387E+00  0.20235321969E+02  0.00000000000E+00 0. -1.
</event>
<event>
 7    1  0.3220798E-013  0.5930196E+02  0.7816164E-02  0.1266605E+00
        -11   -1    0    0    0    0  0.00000000000E+00  0.00000000000E+00  0.45593999997E+02  0.45594000000E+02  0.51100000000E-03 0. -1.
         11   -1    0    0    0    0 -0.00000000000E+00 -0.00000000000E+00 -0.45593999997E+02  0.45594000000E+02  0.51100000000E-03 0.  1.
    9900012    2    1    2    0    0 -0.10160596452E+02 -0.22838526837E+02 -0.19796046046E+02  0.59301961246E+02  0.50000031402E+02 0.  0.
         12    1    1    2    0    0  0.10160596452E+02  0.22838526837E+02  0.19796046046E+02  0.31886038754E+02  0.00000000000E+00 0. -1.
         11    1    3    3    0    0 -0.90718305853E+01 -0.58827297176E+01  0.89236484940E+01  0.14019134132E+02  0.51100000000E-03 0.  1.
        -11    1    3    3    0    0  0.10387917192E+02 -0.18562040931E+01 -0.23267555873E+02  0.25548649158E+02  0.51100000000E-03 0. -1.
         12    1    3    3    0    0 -0.11476683059E+02 -0.15099593026E+02 -0.54521386671E+01  0.19734177957E+02  0.00000000000E+00 0. -1.
</event>
<event>
 7    1  0.3220798E-013  0.5930194E+02  0.7816164E-02  0.1266605E+00
        -11   -1    0    0    0    0  0.00000000000E+00  0.00000000000E+00  0.45593999997E+02  0.45594000000E+02  0.51100000000E-03 0.  1.
         11   -1    0    0    0    0 -0.00000000000E+00 -0.00000000000E+00 -0.45593999997E+02  0.45594000000E+02  0.51100000000E-03 0. -1.
    9900012    2    1    2    0    0 -0.26309319792E+02  0.15039764902E+02  0.99169517119E+01  0.59301940860E+02  0.49999994223E+02 0.  0.
         12    1    1    2    0    0  0.26309319792E+02 -0.15039764902E+02 -0.99169517119E+01  0.31886059140E+02  0.00000000000E+00 0. -1.
         11    1    3    3    0    0  0.11700532424E+02  0.80792322126E+01  0.60078223595E+01  0.15436009261E+02  0.51100000000E-03 0. -1.
        -11    1    3    3    0    0 -0.20052154206E+02  0.12030995228E+02 -0.37725259403E+01  0.23686825171E+02  0.51100000000E-03 0.  1.
        -12    1    3    3    0    0 -0.17957698010E+02 -0.50704625395E+01  0.76816552927E+01  0.20179106428E+02  0.00000000000E+00 0.  1.
</event>
<event>
 7    1  0.3220798E-013  0.5930191E+02  0.7816164E-02  0.1266605E+00
        -11   -1    0    0    0    0  0.00000000000E+00  0.00000000000E+00  0.45593999997E+02  0.45594000000E+02  0.51100000000E-03 0. -1.
         11   -1    0    0    0    0 -0.00000000000E+00 -0.00000000000E+00 -0.45593999997E+02  0.45594000000E+02  0.51100000000E-03 0.  1.
    9900012    2    1    2    0    0  0.23846694125E+02  0.19315405628E+02 -0.86586991187E+01  0.59301909212E+02  0.49999936505E+02 0.  0.
         12    1    1    2    0    0 -0.23846694125E+02 -0.19315405628E+02  0.86586991187E+01  0.31886090788E+02  0.00000000000E+00 0. -1.
         11    1    3    3    0    0  0.11625414665E+02 -0.43911504069E+01 -0.12022520515E+02  0.17290849251E+02  0.51100000000E-03 0. -1.
        -11    1    3    3    0    0 -0.44930670186E+01  0.67464285732E+01 -0.11404129313E+02  0.13991287124E+02  0.51100000000E-03 0.  1.
        -12    1    3    3    0    0  0.16714346479E+02  0.16960127462E+02  0.14767950709E+02  0.28019772838E+02  0.00000000000E+00 0.  1.
</event>
<event>
 7    1  0.3220798E-013  0.5930191E+02  0.7816164E-02  0.1266605E+00
        -11   -1    0    0    0    0  0.00000000000E+00  0.00000000000E+00  0.45593999997E+02  0.45594000000E+02  0.51100000000E-03 0. -1.
         11   -1    0    0    0    0 -0.00000000000E+00 -0.00000000000E+00 -0.45593999997E+02  0.45594000000E+02  0.51100000000E-03 0.  1.
    9900012    2    1    2    0    0 -0.27243347419E+00  0.28288132792E+02 -0.14711554713E+02  0.59301913395E+02  0.49999944134E+02 0.  0.
         12    1    1    2    0    0  0.27243347419E+00 -0.28288132792E+02  0.14711554713E+02  0.31886086605E+02  0.00000000000E+00 0. -1.
         11    1    3    3    0    0 -0.11074099474E-01  0.27626474234E+01  0.95931312580E+01  0.99830111197E+01  0.51100000000E-03 0. -1.
        -11    1    3    3    0    0 -0.64476941974E+01 -0.55296927109E+01 -0.13328723465E+02  0.15805224813E+02  0.51100000000E-03 0.  1.
         12    1    3    3    0    0  0.61863348227E+01  0.31055178080E+02 -0.10975962506E+02  0.33513677463E+02  0.00000000000E+00 0. -1.
</event>
<event>
 7    1  0.3220798E-013  0.5930193E+02  0.7816164E-02  0.1266605E+00
        -11   -1    0    0    0    0  0.00000000000E+00  0.00000000000E+00  0.45593999997E+02  0.45594000000E+02  0.51100000000E-03 0.  1.
         11   -1    0    0    0    0 -0.00000000000E+00 -0.00000000000E+00 -0.45593999997E+02  0.45594000000E+02  0.51100000000E-03 0. -1.
    9900012    2    1    2    0    0  0.14392390710E+02  0.26292301160E+02  0.10876383121E+02  0.59301925917E+02  0.49999966970E+02 0.  0.
         12    1    1    2    0    0 -0.14392390710E+02 -0.26292301160E+02 -0.10876383121E+02  0.31886074083E+02  0.00000000000E+00 0. -1.
         11    1    3    3    0    0  0.16308614134E+02 -0.43074508953E+01  0.49472391071E+01  0.17578401612E+02  0.51100000000E-03 0.  1.
        -11    1    3    3    0    0  0.21215600005E+00 -0.77994170012E+00  0.99793432641E+01  0.10012023345E+02  0.51100000000E-03 0. -1.
         12    1    3    3    0    0 -0.21283794239E+01  0.31379693755E+02 -0.40501992504E+01  0.31711500960E+02  0.00000000000E+00 0. -1.
</event>
<event>
 7    1  0.3220798E-013  0.5930221E+02  0.7816164E-02  0.1266604E+00
        -11   -1    0    0    0    0  0.00000000000E+00  0.00000000000E+00  0.45593999997E+02  0.45594000000E+02  0.51100000000E-03 0.  1.
         11   -1    0    0    0    0 -0.00000000000E+00 -0.00000000000E+00 -0.45593999997E+02  0.45594000000E+02  0.51100000000E-03 0. -1.
    9900012    2    1    2    0    0 -0.69477537617E+01  0.29389791394E+02  0.10230966014E+02  0.59302207143E+02  0.50000479857E+02 0.  0.
         12    1    1    2    0    0  0.69477537617E+01 -0.29389791394E+02 -0.10230966014E+02  0.31885792857E+02  0.00000000000E+00 0. -1.
         11    1    3    3    0    0 -0.99862307383E+01 -0.19290571340E+01 -0.25462536961E+01  0.10484725744E+02  0.51100000000E-03 0. -1.
        -11    1    3    3    0    0 -0.17550698152E+01 -0.73058912204E+01  0.52735861649E+01  0.91797073963E+01  0.51100000000E-03 0.  1.
        -12    1    3    3    0    0  0.47935467918E+01  0.38624739749E+02  0.75036335455E+01  0.39637774003E+02  0.00000000000E+00 0.  1.
</event>
<event>
 7    1  0.3220798E-013  0.5930194E+02  0.7816164E-02  0.1266605E+00
        -11   -1    0    0    0    0  0.00000000000E+00  0.00000000000E+00  0.45593999997E+02  0.45594000000E+02  0.51100000000E-03 0.  1.
         11   -1    0    0    0    0 -0.00000000000E+00 -0.00000000000E+00 -0.45593999997E+02  0.45594000000E+02  0.51100000000E-03 0. -1.
    9900012    2    1    2    0    0 -0.15339535895E+02  0.16949384868E+02  0.22229209535E+02  0.59301940892E+02  0.49999994281E+02 0.  0.
         12    1    1    2    0    0  0.15339535895E+02 -0.16949384868E+02 -0.22229209535E+02  0.31886059108E+02  0.00000000000E+00 0. -1.
         11    1    3    3    0    0 -0.99370544630E+01  0.30830705686E+01  0.21344838133E+00  0.10406533333E+02  0.51100000000E-03 0. -1.
        -11    1    3    3    0    0 -0.22177619442E+02  0.13245972152E+02  0.18422868136E+02  0.31728609377E+02  0.51100000000E-03 0.  1.
        -12    1    3    3    0    0  0.16775138009E+02  0.62034214692E+00  0.35928930173E+01  0.17166798183E+02  0.00000000000E+00 0.  1.
</event>
<event>
 7    1  0.3220798E-013  0.5930192E+02  0.7816164E-02  0.1266605E+00
        -11   -1    0    0    0    0  0.00000000000E+00  0.00000000000E+00  0.45593999997E+02  0.45594000000E+02  0.51100000000E-03 0.  1.
         11   -1    0    0    0    0 -0.00000000000E+00 -0.00000000000E+00 -0.45593999997E+02  0.45594000000E+02  0.51100000000E-03 0. -1.
    9900012    2    1    2    0    0 -0.10631701275E+02  0.89312923886E+00  0.30048148374E+02  0.59301921963E+02  0.49999959760E+02 0.  0.
         12    1    1    2    0    0  0.10631701275E+02 -0.89312923886E+00 -0.30048148374E+02  0.31886078037E+02  0.00000000000E+00 0. -1.
         11    1    3    3    0    0 -0.25335527747E+02 -0.41015718021E+01  0.15897407082E+02  0.30190054814E+02  0.51100000000E-03 0. -1.
        -11    1    3    3    0    0  0.84554630836E+00  0.89280819308E+01  0.70991109479E-01  0.89683128582E+01  0.51100000000E-03 0.  1.
        -12    1    3    3    0    0  0.13858280163E+02 -0.39333808898E+01  0.14079750182E+02  0.20143554291E+02  0.00000000000E+00 0.  1.
</event>
<event>
 7    1  0.3220798E-013  0.5930193E+02  0.7816164E-02  0.1266605E+00
        -11   -1    0    0    0    0  0.00000000000E+00  0.00000000000E+00  0.45593999997E+02  0.45594000000E+02  0.51100000000E-03 0. -1.
         11   -1    0    0    0    0 -0.00000000000E+00 -0.00000000000E+00 -0.45593999997E+02  0.45594000000E+02  0.51100000000E-03 0.  1.
    9900012    2    1    2    0    0  0.25576784061E+02 -0.79137992513E+01  0.17318246774E+02  0.59301925096E+02  0.49999965472E+02 0.  0.
         12    1    1    2    0    0 -0.25576784061E+02  0.79137992513E+01 -0.17318246774E+02  0.31886074904E+02  0.00000000000E+00 0. -1.
         11    1    3    3    0    0  0.64153208181E+01 -0.18334481478E+02  0.47187563086E+01  0.19989402533E+02  0.51100000000E-03 0. -1.
        -11    1    3    3    0    0  0.78181649987E+00 -0.64739469675E+01 -0.54562870081E+01  0.85026051627E+01  0.51100000000E-03 0.  1.
         12    1    3    3    0    0  0.18379646743E+02  0.16894629194E+02  0.18055777474E+02  0.30809917400E+02  0.00000000000E+00 0. -1.
</event>
<event>
 7    1  0.3220798E-013  0.5930195E+02  0.7816164E-02  0.1266605E+00
        -11   -1    0    0    0    0  0.00000000000E+00  0.00000000000E+00  0.45593999997E+02  0.45594000000E+02  0.51100000000E-03 0.  1.
         11   -1    0    0    0    0 -0.00000000000E+00 -0.00000000000E+00 -0.45593999997E+02  0.45594000000E+02  0.51100000000E-03 0. -1.
    9900012    2    1    2    0    0  0.31383267414E+02  0.20452424496E+01  0.52562264567E+01  0.59301946516E+02  0.50000004537E+02 0.  0.
         12    1    1    2    0    0 -0.31383267414E+02 -0.20452424496E+01 -0.52562264567E+01  0.31886053484E+02  0.00000000000E+00 0. -1.
         11    1    3    3    0    0 -0.46780837958E+01  0.21706023313E+01 -0.42744720960E+00  0.51748134130E+01  0.51100000000E-03 0. -1.
        -11    1    3    3    0    0 -0.78380179939E+01  0.45072759018E+01  0.41731286478E+01  0.99581657498E+01  0.51100000000E-03 0.  1.
        -12    1    3    3    0    0  0.43899369204E+02 -0.46326357835E+01  0.15105450185E+01  0.44168967353E+02  0.00000000000E+00 0.  1.
</event>
<event>
 7    1  0.3220798E-013  0.5930198E+02  0.7816164E-02  0.1266605E+00
        -11   -1    0    0    0    0  0.00000000000E+00  0.00000000000E+00  0.45593999997E+02  0.45594000000E+02  0.51100000000E-03 0.  1.
         11   -1    0    0    0    0 -0.00000000000E+00 -0.00000000000E+00 -0.45593999997E+02  0.45594000000E+02  0.51100000000E-03 0. -1.
    9900012    2    1    2    0    0 -0.13765080556E+02 -0.62295638354E+01  0.28079060269E+02  0.59301975885E+02  0.50000058099E+02 0.  0.
         12    1    1    2    0    0  0.13765080556E+02  0.62295638354E+01 -0.28079060269E+02  0.31886024115E+02  0.00000000000E+00 0. -1.
         11    1    3    3    0    0 -0.16631303378E+02 -0.57076976220E+01 -0.38908349877E+01  0.18008794001E+02  0.51100000000E-03 0. -1.
        -11    1    3    3    0    0 -0.11504022585E+02 -0.20454878304E+01  0.14263554132E+02  0.18438425443E+02  0.51100000000E-03 0.  1.
         12    1    3    3    0    0  0.14370245408E+02  0.15236216170E+01  0.17706341125E+02  0.22854756440E+02  0.00000000000E+00 0. -1.
</event>
<event>
 7    1  0.3220798E-013  0.5930196E+02  0.7816164E-02  0.1266605E+00
        -11   -1    0    0    0    0  0.00000000000E+00  0.00000000000E+00  0.45593999997E+02  0.45594000000E+02  0.51100000000E-03 0.  1.
         11   -1    0    0    0    0 -0.00000000000E+00 -0.00000000000E+00 -0.45593999997E+02  0.45594000000E+02  0.51100000000E-03 0. -1.
    9900012    2    1    2    0    0 -0.28645645870E+02  0.13415667818E+01 -0.13940826877E+02  0.59301961005E+02  0.50000030963E+02 0.  0.
         12    1    1    2    0    0  0.28645645870E+02 -0.13415667818E+01  0.13940826877E+02  0.31886038995E+02  0.00000000000E+00 0. -1.
         11    1    3    3    0    0  0.52740975464E+01  0.58649842587E+01 -0.39160292637E+01  0.88062154606E+01  0.51100000000E-03 0. -1.
        -11    1    3    3    0    0 -0.47807271759E+01  0.67413917592E+01  0.10314857191E+02  0.13217336885E+02  0.51100000000E-03 0.  1.
        -12    1    3    3    0    0 -0.29139016241E+02 -0.11264809236E+02 -0.20339654805E+02  0.37278408660E+02  0.00000000000E+00 0.  1.
</event>
<event>
 7    1  0.3220798E-013  0.5930194E+02  0.7816164E-02  0.1266605E+00
        -11   -1    0    0    0    0  0.00000000000E+00  0.00000000000E+00  0.45593999997E+02  0.45594000000E+02  0.51100000000E-03 0.  1.
         11   -1    0    0    0    0 -0.00000000000E+00 -0.00000000000E+00 -0.45593999997E+02  0.45594000000E+02  0.51100000000E-03 0. -1.
    9900012    2    1    2    0    0 -0.14751161725E+02  0.17552299424E+02  0.22159446164E+02  0.59301936561E+02  0.49999986383E+02 0.  0.
         12    1    1    2    0    0  0.14751161725E+02 -0.17552299424E+02 -0.22159446164E+02  0.31886063439E+02  0.00000000000E+00 0. -1.
         11    1    3    3    0    0 -0.18656549920E+01  0.60618760896E+01 -0.12000280043E+02  0.13573272694E+02  0.51100000000E-03 0. -1.
        -11    1    3    3    0    0  0.59657397166E+01  0.16201236437E+01  0.90360897636E+00  0.62475083378E+01  0.51100000000E-03 0.  1.
        -12    1    3    3    0    0 -0.18851246450E+02  0.98702996906E+01  0.33256117230E+02  0.39481155529E+02  0.00000000000E+00 0.  1.
</event>
<event>
 7    1  0.3220798E-013  0.5930195E+02  0.7816164E-02  0.1266605E+00
        -11   -1    0    0    0    0  0.00000000000E+00  0.00000000000E+00  0.45593999997E+02  0.45594000000E+02  0.51100000000E-03 0.  1.
         11   -1    0    0    0    0 -0.00000000000E+00 -0.00000000000E+00 -0.45593999997E+02  0.45594000000E+02  0.51100000000E-03 0. -1.
    9900012    2    1    2    0    0 -0.79050397360E+01  0.40203865335E+01  0.30627882010E+02  0.59301947916E+02  0.50000007091E+02 0.  0.
         12    1    1    2    0    0  0.79050397360E+01 -0.40203865335E+01 -0.30627882010E+02  0.31886052084E+02  0.00000000000E+00 0. -1.
         11    1    3    3    0    0 -0.31488401516E+01  0.20238009665E+02  0.11964410301E+02  0.23720019890E+02  0.51100000000E-03 0. -1.
        -11    1    3    3    0    0  0.81089944590E+00 -0.94449679831E+01  0.23661801262E+02  0.25490112149E+02  0.51100000000E-03 0.  1.
        -12    1    3    3    0    0 -0.55670990303E+01 -0.67726551483E+01 -0.49983295532E+01  0.10091815877E+02  0.00000000000E+00 0.  1.
</event>
<event>
 7    1  0.3220798E-013  0.5930198E+02  0.7816164E-02  0.1266605E+00
        -11   -1    0    0    0    0  0.00000000000E+00  0.00000000000E+00  0.45593999997E+02  0.45594000000E+02  0.51100000000E-03 0.  1.
         11   -1    0    0    0    0 -0.00000000000E+00 -0.00000000000E+00 -0.45593999997E+02  0.45594000000E+02  0.51100000000E-03 0. -1.
    9900012    2    1    2    0    0 -0.27369163095E+02  0.14252899355E+01  0.16297718687E+02  0.59301981523E+02  0.50000068383E+02 0.  0.
         12    1    1    2    0    0  0.27369163095E+02 -0.14252899355E+01 -0.16297718687E+02  0.31886018477E+02  0.00000000000E+00 0. -1.
         11    1    3    3    0    0 -0.30331074507E+01  0.22213337846E+01 -0.21631016426E+01  0.43374040124E+01  0.51100000000E-03 0. -1.
        -11    1    3    3    0    0  0.28814455041E+01 -0.97250684102E+01 -0.10241441978E+02  0.14414118698E+02  0.51100000000E-03 0.  1.
        -12    1    3    3    0    0 -0.27217501148E+02  0.89290245611E+01  0.28702262308E+02  0.40550458813E+02  0.00000000000E+00 0.  1.
</event>
<event>
 7    1  0.3220798E-013  0.5930195E+02  0.7816164E-02  0.1266605E+00
        -11   -1    0    0    0    0  0.00000000000E+00  0.00000000000E+00  0.45593999997E+02  0.45594000000E+02  0.51100000000E-03 0. -1.
         11   -1    0    0    0    0 -0.00000000000E+00 -0.00000000000E+00 -0.45593999997E+02  0.45594000000E+02  0.51100000000E-03 0.  1.
    9900012    2    1    2    0    0  0.98408660080E+01 -0.21558904935E+02 -0.21332864531E+02  0.59301950779E+02  0.50000012313E+02 0.  0.
         12    1    1    2    0    0 -0.98408660080E+01  0.21558904935E+02  0.21332864531E+02  0.31886049221E+02  0.00000000000E+00 0. -1.
         11    1    3    3    0    0 -0.25873201938E+01  0.28624918488E+01  0.50484703825E+01  0.63541434382E+01  0.51100000000E-03 0. -1.
        -11    1    3    3    0    0  0.51457396453E+00  0.33591707141E+01  0.70810418821E+01  0.78542961905E+01  0.51100000000E-03 0.  1.
        -12    1    3    3    0    0  0.11913612237E+02 -0.27780567498E+02 -0.33462376796E+02  0.45093511151E+02  0.00000000000E+00 0.  1.
</event>
<event>
 7    1  0.3220798E-013  0.5930170E+02  0.7816164E-02  0.1266606E+00
        -11   -1    0    0    0    0  0.00000000000E+00  0.00000000000E+00  0.45593999997E+02  0.45594000000E+02  0.51100000000E-03 0. -1.
         11   -1    0    0    0    0 -0.00000000000E+00 -0.00000000000E+00 -0.45593999997E+02  0.45594000000E+02  0.51100000000E-03 0.  1.
    9900012    2    1    2    0    0 -0.18451097697E+01 -0.31306568263E+02  0.57645626493E+01  0.59301704683E+02  0.49999563492E+02 0.  0.
         12    1    1    2    0    0  0.18451097697E+01  0.31306568263E+02 -0.57645626493E+01  0.31886295317E+02  0.00000000000E+00 0. -1.
         11    1    3    3    0    0 -0.17462605145E+02 -0.29256728192E+02  0.93821223397E+01  0.35340103888E+02  0.51100000000E-03 0.  1.
        -11    1    3    3    0    0 -0.16527588059E+01  0.36362101029E+01  0.25767157605E+01  0.47532199565E+01  0.51100000000E-03 0. -1.
        -12    1    3    3    0    0  0.17270254182E+02 -0.56860501736E+01 -0.61942754510E+01  0.19208380839E+02  0.00000000000E+00 0.  1.
</event>
<event>
 7    1  0.3220798E-013  0.5930193E+02  0.7816164E-02  0.1266605E+00
        -11   -1    0    0    0    0  0.00000000000E+00  0.00000000000E+00  0.45593999997E+02  0.45594000000E+02  0.51100000000E-03 0. -1.
         11   -1    0    0    0    0 -0.00000000000E+00 -0.00000000000E+00 -0.45593999997E+02  0.45594000000E+02  0.51100000000E-03 0.  1.
    9900012    2    1    2    0    0 -0.23944882170E+02  0.81717440891E+01 -0.19405836937E+02  0.59301932654E+02  0.49999979256E+02 0.  0.
         12    1    1    2    0    0  0.23944882170E+02 -0.81717440891E+01  0.19405836937E+02  0.31886067346E+02  0.00000000000E+00 0. -1.
         11    1    3    3    0    0 -0.30243650789E+01 -0.72237746118E+01 -0.16621843341E+02  0.18374313051E+02  0.51100000000E-03 0. -1.
        -11    1    3    3    0    0 -0.13132096045E+02  0.55796199410E+01 -0.16856778920E+02  0.22084725515E+02  0.51100000000E-03 0.  1.
        -12    1    3    3    0    0 -0.77884210457E+01  0.98158987599E+01  0.14072785324E+02  0.18842894088E+02  0.00000000000E+00 0.  1.
</event>
<event>
 7    1  0.3220798E-013  0.5930194E+02  0.7816164E-02  0.1266605E+00
        -11   -1    0    0    0    0  0.00000000000E+00  0.00000000000E+00  0.45593999997E+02  0.45594000000E+02  0.51100000000E-03 0. -1.
         11   -1    0    0    0    0 -0.00000000000E+00 -0.00000000000E+00 -0.45593999997E+02  0.45594000000E+02  0.51100000000E-03 0.  1.
    9900012    2    1    2    0    0 -0.15735521480E+02  0.10675159232E+02 -0.25596003300E+02  0.59301936496E+02  0.49999986264E+02 0.  0.
         12    1    1    2    0    0  0.15735521480E+02 -0.10675159232E+02  0.25596003300E+02  0.31886063504E+02  0.00000000000E+00 0. -1.
         11    1    3    3    0    0 -0.81572856465E+01 -0.11494688754E+02 -0.79216379855E+01  0.16168535101E+02  0.51100000000E-03 0. -1.
        -11    1    3    3    0    0 -0.15947360864E+02  0.54748563653E+01 -0.17717401765E+02  0.24458100832E+02  0.51100000000E-03 0.  1.
        -12    1    3    3    0    0  0.83691250303E+01  0.16694991621E+02  0.43036450943E-01  0.18675300563E+02  0.00000000000E+00 0.  1.
</event>
<event>
 7    1  0.3220798E-013  0.5930194E+02  0.7816164E-02  0.1266605E+00
        -11   -1    0    0    0    0  0.00000000000E+00  0.00000000000E+00  0.45593999997E+02  0.45594000000E+02  0.51100000000E-03 0.  1.
         11   -1    0    0    0    0 -0.00000000000E+00 -0.00000000000E+00 -0.45593999997E+02  0.45594000000E+02  0.51100000000E-03 0. -1.
    9900012    2    1    2    0    0  0.26179460244E+01  0.15681283658E+01  0.31739695797E+02  0.59301937884E+02  0.49999988796E+02 0.  0.
         12    1    1    2    0    0 -0.26179460244E+01 -0.15681283658E+01 -0.31739695797E+02  0.31886062116E+02  0.00000000000E+00 0. -1.
         11    1    3    3    0    0 -0.85773597545E+01 -0.70585986589E+01 -0.43528465983E+01  0.11930724586E+02  0.51100000000E-03 0. -1.
        -11    1    3    3    0    0 -0.40108661443E+01  0.67685915773E+01  0.29780916651E+02  0.30802660210E+02  0.51100000000E-03 0.  1.
        -12    1    3    3    0    0  0.15206171923E+02  0.18581354474E+01  0.63116257446E+01  0.16568553088E+02  0.00000000000E+00 0.  1.
</event>
<event>
 7    1  0.3220798E-013  0.5930196E+02  0.7816164E-02  0.1266605E+00
        -11   -1    0    0    0    0  0.00000000000E+00  0.00000000000E+00  0.45593999997E+02  0.45594000000E+02  0.51100000000E-03 0.  1.
         11   -1    0    0    0    0 -0.00000000000E+00 -0.00000000000E+00 -0.45593999997E+02  0.45594000000E+02  0.51100000000E-03 0. -1.
    9900012    2    1    2    0    0  0.11829463765E+02  0.68143700575E+01  0.28815757479E+02  0.59301957108E+02  0.50000023855E+02 0.  0.
         12    1    1    2    0    0 -0.11829463765E+02 -0.68143700575E+01 -0.28815757479E+02  0.31886042892E+02  0.00000000000E+00 0. -1.
         11    1    3    3    0    0  0.94442637217E+01  0.99162688525E+01  0.20433736023E+02  0.24598050194E+02  0.51100000000E-03 0. -1.
        -11    1    3    3    0    0  0.11949742367E+02  0.11205631449E+02  0.28592620270E+01  0.16629428685E+02  0.51100000000E-03 0.  1.
         12    1    3    3    0    0 -0.95645423230E+01 -0.14307530244E+02  0.55227594284E+01  0.18074478229E+02  0.00000000000E+00 0. -1.
</event>
<event>
 7    1  0.3220798E-013  0.5930195E+02  0.7816164E-02  0.1266605E+00
        -11   -1    0    0    0    0  0.00000000000E+00  0.00000000000E+00  0.45593999997E+02  0.45594000000E+02  0.51100000000E-03 0. -1.
         11   -1    0    0    0    0 -0.00000000000E+00 -0.00000000000E+00 -0.45593999997E+02  0.45594000000E+02  0.51100000000E-03 0.  1.
    9900012    2    1    2    0    0 -0.55544940893E+01  0.24786639164E+02 -0.19274090501E+02  0.59301945834E+02  0.50000003295E+02 0.  0.
         12    1    1    2    0    0  0.55544940893E+01 -0.24786639164E+02  0.19274090501E+02  0.31886054166E+02  0.00000000000E+00 0. -1.
         11    1    3    3    0    0  0.33544901121E+01  0.30815126177E+01  0.69859382108E+01  0.83397635980E+01  0.51100000000E-03 0. -1.
        -11    1    3    3    0    0  0.60866020290E+01  0.17742441331E+02  0.18587718402E+01  0.18849296583E+02  0.51100000000E-03 0.  1.
        -12    1    3    3    0    0 -0.14995586230E+02  0.39626852147E+01 -0.28118800552E+02  0.32112885653E+02  0.00000000000E+00 0.  1.
</event>
<event>
 7    1  0.3220798E-013  0.5930194E+02  0.7816164E-02  0.1266605E+00
        -11   -1    0    0    0    0  0.00000000000E+00  0.00000000000E+00  0.45593999997E+02  0.45594000000E+02  0.51100000000E-03 0.  1.
         11   -1    0    0    0    0 -0.00000000000E+00 -0.00000000000E+00 -0.45593999997E+02  0.45594000000E+02  0.51100000000E-03 0. -1.
    9900012    2    1    2    0    0 -0.17810501876E+02  0.14158224918E+02  0.22339456628E+02  0.59301942979E+02  0.49999998087E+02 0.  0.
         12    1    1    2    0    0  0.17810501876E+02 -0.14158224918E+02 -0.22339456628E+02  0.31886057021E+02  0.00000000000E+00 0. -1.
         11    1    3    3    0    0 -0.11446722685E+02  0.24303660566E+02  0.37138978891E+01  0.27119889656E+02  0.51100000000E-03 0. -1.
        -11    1    3    3    0    0 -0.10596921146E+02  0.40142765064E+01  0.97043508060E+01  0.14919235184E+02  0.51100000000E-03 0.  1.
         12    1    3    3    0    0  0.42331419552E+01 -0.14159712155E+02  0.89212079330E+01  0.17262818139E+02  0.00000000000E+00 0. -1.
</event>
<event>
 7    1  0.3220798E-013  0.5930195E+02  0.7816164E-02  0.1266605E+00
        -11   -1    0    0    0    0  0.00000000000E+00  0.00000000000E+00  0.45593999997E+02  0.45594000000E+02  0.51100000000E-03 0. -1.
         11   -1    0    0    0    0 -0.00000000000E+00 -0.00000000000E+00 -0.45593999997E+02  0.45594000000E+02  0.51100000000E-03 0.  1.
    9900012    2    1    2    0    0 -0.16224517211E+02 -0.55114758834E+01 -0.26890688013E+02  0.59301946200E+02  0.50000003962E+02 0.  0.
         12    1    1    2    0    0  0.16224517211E+02  0.55114758834E+01  0.26890688013E+02  0.31886053800E+02  0.00000000000E+00 0. -1.
         11    1    3    3    0    0  0.63609416530E+01 -0.33347113172E+01 -0.72371548323E+00  0.72184238338E+01  0.51100000000E-03 0. -1.
        -11    1    3    3    0    0  0.56327188204E+01  0.11501942363E+02 -0.31629502143E+01  0.13191908647E+02  0.51100000000E-03 0.  1.
        -12    1    3    3    0    0 -0.28218177684E+02 -0.13678706929E+02 -0.23004022315E+02  0.38891613720E+02  0.00000000000E+00 0.  1.
</event>
<event>
 7    1  0.3220798E-013  0.5930196E+02  0.7816164E-02  0.1266605E+00
        -11   -1    0    0    0    0  0.00000000000E+00  0.00000000000E+00  0.45593999997E+02  0.45594000000E+02  0.51100000000E-03 0.  1.
         11   -1    0    0    0    0 -0.00000000000E+00 -0.00000000000E+00 -0.45593999997E+02  0.45594000000E+02  0.51100000000E-03 0. -1.
    9900012    2    1    2    0    0 -0.27742401632E+02 -0.14927613341E+02  0.49239161796E+01  0.59301961693E+02  0.50000032217E+02 0.  0.
         12    1    1    2    0    0  0.27742401632E+02  0.14927613341E+02 -0.49239161796E+01  0.31886038307E+02  0.00000000000E+00 0. -1.
         11    1    3    3    0    0  0.13928237316E+01  0.80015084454E+01 -0.17173253756E+01  0.83014036196E+01  0.51100000000E-03 0. -1.
        -11    1    3    3    0    0 -0.16532592588E+02 -0.69932633162E+01  0.19853414697E+02  0.26765470758E+02  0.51100000000E-03 0.  1.
        -12    1    3    3    0    0 -0.12602632776E+02 -0.15935858470E+02 -0.13212173142E+02  0.24235087316E+02  0.00000000000E+00 0.  1.
</event>
<event>
 7    1  0.3220798E-013  0.5930195E+02  0.7816164E-02  0.1266605E+00
        -11   -1    0    0    0    0  0.00000000000E+00  0.00000000000E+00  0.45593999997E+02  0.45594000000E+02  0.51100000000E-03 0.  1.
         11   -1    0    0    0    0 -0.00000000000E+00 -0.00000000000E+00 -0.45593999997E+02  0.45594000000E+02  0.51100000000E-03 0. -1.
    9900012    2    1    2    0    0 -0.23208141722E+02  0.21864590319E+02 -0.20550524360E+00  0.59301946867E+02  0.50000005178E+02 0.  0.
         12    1    1    2    0    0  0.23208141722E+02 -0.21864590319E+02  0.20550524360E+00  0.31886053133E+02  0.00000000000E+00 0. -1.
         11    1    3    3    0    0 -0.20639073211E+02 -0.64288879049E+01 -0.69565159502E+00  0.21628358100E+02  0.51100000000E-03 0. -1.
        -11    1    3    3    0    0 -0.40967907259E+01  0.34258289182E+01  0.97313485046E+01  0.11100411795E+02  0.51100000000E-03 0.  1.
         12    1    3    3    0    0  0.15277222152E+01  0.24867649306E+02 -0.92412021532E+01  0.26573176972E+02  0.00000000000E+00 0. -1.
</event>
<event>
 7    1  0.3220798E-013  0.5930193E+02  0.7816164E-02  0.1266605E+00
        -11   -1    0    0    0    0  0.00000000000E+00  0.00000000000E+00  0.45593999997E+02  0.45594000000E+02  0.51100000000E-03 0. -1.
         11   -1    0    0    0    0 -0.00000000000E+00 -0.00000000000E+00 -0.45593999997E+02  0.45594000000E+02  0.51100000000E-03 0.  1.
    9900012    2    1    2    0    0 -0.25942688041E+02 -0.15462071176E+02 -0.10228538143E+02  0.59301926231E+02  0.49999967542E+02 0.  0.
         12    1    1    2    0    0  0.25942688041E+02  0.15462071176E+02  0.10228538143E+02  0.31886073769E+02  0.00000000000E+00 0. -1.
         11    1    3    3    0    0 -0.31018829102E+01 -0.15172486187E+02 -0.75047650303E+01  0.17208937012E+02  0.51100000000E-03 0. -1.
        -11    1    3    3    0    0  0.90250598811E+01 -0.28739446911E+01 -0.35414894067E+01  0.10112042891E+02  0.51100000000E-03 0.  1.
         12    1    3    3    0    0 -0.31865865012E+02  0.25843597015E+01  0.81771629359E+00  0.31980946327E+02  0.00000000000E+00 0. -1.
</event>
<event>
 7    1  0.3220798E-013  0.5930196E+02  0.7816164E-02  0.1266605E+00
        -11   -1    0    0    0    0  0.00000000000E+00  0.00000000000E+00  0.45593999997E+02  0.45594000000E+02  0.51100000000E-03 0.  1.
         11   -1    0    0    0    0 -0.00000000000E+00 -0.00000000000E+00 -0.45593999997E+02  0.45594000000E+02  0.51100000000E-03 0. -1.
    9900012    2    1    2    0    0  0.17487028074E+02  0.19951769369E+02  0.17687573840E+02  0.59301960419E+02  0.50000029894E+02 0.  0.
         12    1    1    2    0    0 -0.17487028074E+02 -0.19951769369E+02 -0.17687573840E+02  0.31886039581E+02  0.00000000000E+00 0. -1.
         11    1    3    3    0    0  0.97245792807E+01  0.84702786253E+01 -0.56764699267E+01  0.14090258098E+02  0.51100000000E-03 0. -1.
        -11    1    3    3    0    0  0.14779983808E+02 -0.48830159514E+01 -0.33464601095E+00  0.15569320935E+02  0.51100000000E-03 0.  1.
        -12    1    3    3    0    0 -0.70175350156E+01  0.16364506695E+02  0.23698689778E+02  0.29642381386E+02  0.00000000000E+00 0.  1.
</event>
<event>
 7    1  0.3220798E-013  0.5930194E+02  0.7816164E-02  0.1266605E+00
        -11   -1    0    0    0    0  0.00000000000E+00  0.00000000000E+00  0.45593999997E+02  0.45594000000E+02  0.51100000000E-03 0.  1.
         11   -1    0    0    0    0 -0.00000000000E+00 -0.00000000000E+00 -0.45593999997E+02  0.45594000000E+02  0.51100000000E-03 0. -1.
    9900012    2    1    2    0    0 -0.24187709564E+02  0.20228077845E+02  0.47434580719E+01  0.59301940009E+02  0.49999992671E+02 0.  0.
         12    1    1    2    0    0  0.24187709564E+02 -0.20228077845E+02 -0.47434580719E+01  0.31886059991E+02  0.00000000000E+00 0. -1.
         11    1    3    3    0    0 -0.22965587315E+02  0.22225337557E+02  0.14904150897E+01  0.31993830150E+02  0.51100000000E-03 0. -1.
        -11    1    3    3    0    0  0.13652568757E+01  0.10299416565E+02 -0.57268442786E+01  0.11863332313E+02  0.51100000000E-03 0.  1.
         12    1    3    3    0    0 -0.25873791247E+01 -0.12296676278E+02  0.89798872608E+01  0.15444777546E+02  0.00000000000E+00 0. -1.
</event>
<event>
 7    1  0.3220798E-013  0.5930192E+02  0.7816164E-02  0.1266605E+00
        -11   -1    0    0    0    0  0.00000000000E+00  0.00000000000E+00  0.45593999997E+02  0.45594000000E+02  0.51100000000E-03 0. -1.
         11   -1    0    0    0    0 -0.00000000000E+00 -0.00000000000E+00 -0.45593999997E+02  0.45594000000E+02  0.51100000000E-03 0.  1.
    9900012    2    1    2    0    0  0.18711036356E+01  0.26868956578E+02 -0.17066937905E+02  0.59301917992E+02  0.49999952517E+02 0.  0.
         12    1    1    2    0    0 -0.18711036356E+01 -0.26868956578E+02  0.17066937905E+02  0.31886082008E+02  0.00000000000E+00 0. -1.
         11    1    3    3    0    0  0.25807982124E+01  0.26592409712E+00  0.23200085815E+00  0.26048147146E+01  0.51100000000E-03 0. -1.
        -11    1    3    3    0    0  0.40150316683E+01  0.34776466962E+02  0.21546652247E+01  0.35073718311E+02  0.51100000000E-03 0.  1.
         12    1    3    3    0    0 -0.47247262450E+01 -0.81734344815E+01 -0.19453603987E+02  0.21623384967E+02  0.00000000000E+00 0. -1.
</event>
<event>
 7    1  0.3220798E-013  0.5930194E+02  0.7816164E-02  0.1266605E+00
        -11   -1    0    0    0    0  0.00000000000E+00  0.00000000000E+00  0.45593999997E+02  0.45594000000E+02  0.51100000000E-03 0. -1.
         11   -1    0    0    0    0 -0.00000000000E+00 -0.00000000000E+00 -0.45593999997E+02  0.45594000000E+02  0.51100000000E-03 0.  1.
    9900012    2    1    2    0    0 -0.18121515962E+02 -0.25867615119E+02 -0.43815231426E+01  0.59301943521E+02  0.49999999076E+02 0.  0.
         12    1    1    2    0    0  0.18121515962E+02  0.25867615119E+02  0.43815231426E+01  0.31886056479E+02  0.00000000000E+00 0. -1.
         11    1    3    3    0    0 -0.73580430549E+01 -0.10279919403E+01 -0.16902077234E+02  0.18462875727E+02  0.51100000000E-03 0.  1.
        -11    1    3    3    0    0 -0.14681721822E+02 -0.10297859375E+02 -0.41147361693E+01  0.18399182519E+02  0.51100000000E-03 0. -1.
        -12    1    3    3    0    0  0.39182489146E+01 -0.14541763804E+02  0.16635290261E+02  0.22439885275E+02  0.00000000000E+00 0.  1.
</event>
<event>
 7    1  0.3220798E-013  0.5930195E+02  0.7816164E-02  0.1266605E+00
        -11   -1    0    0    0    0  0.00000000000E+00  0.00000000000E+00  0.45593999997E+02  0.45594000000E+02  0.51100000000E-03 0. -1.
         11   -1    0    0    0    0 -0.00000000000E+00 -0.00000000000E+00 -0.45593999997E+02  0.45594000000E+02  0.51100000000E-03 0.  1.
    9900012    2    1    2    0    0  0.25473745600E+02  0.17003835304E+02 -0.88700804671E+01  0.59301945722E+02  0.50000003090E+02 0.  0.
         12    1    1    2    0    0 -0.25473745600E+02 -0.17003835304E+02  0.88700804671E+01  0.31886054278E+02  0.00000000000E+00 0. -1.
         11    1    3    3    0    0  0.13339656866E+02 -0.10196082592E+01  0.17074201158E+02  0.21691343706E+02  0.51100000000E-03 0. -1.
        -11    1    3    3    0    0 -0.47863070941E+00 -0.75165943741E+00  0.16837112563E+01  0.19049837589E+01  0.51100000000E-03 0.  1.
        -12    1    3    3    0    0  0.12612719444E+02  0.18775103001E+02 -0.27627992882E+02  0.35705618257E+02  0.00000000000E+00 0.  1.
</event>
<event>
 7    1  0.3220798E-013  0.5930193E+02  0.7816164E-02  0.1266605E+00
        -11   -1    0    0    0    0  0.00000000000E+00  0.00000000000E+00  0.45593999997E+02  0.45594000000E+02  0.51100000000E-03 0.  1.
         11   -1    0    0    0    0 -0.00000000000E+00 -0.00000000000E+00 -0.45593999997E+02  0.45594000000E+02  0.51100000000E-03 0. -1.
    9900012    2    1    2    0    0  0.77909721445E+01 -0.17480250433E+02  0.25504176684E+02  0.59301930464E+02  0.49999975262E+02 0.  0.
         12    1    1    2    0    0 -0.77909721445E+01  0.17480250433E+02 -0.25504176684E+02  0.31886069536E+02  0.00000000000E+00 0. -1.
         11    1    3    3    0    0 -0.17108423199E+02 -0.12000299199E+02  0.10249465916E+02  0.23275671355E+02  0.51100000000E-03 0. -1.
        -11    1    3    3    0    0  0.99786910927E+01 -0.55309391818E+01 -0.36169566920E+01  0.11968623151E+02  0.51100000000E-03 0.  1.
        -12    1    3    3    0    0  0.14920704251E+02  0.50987947783E-01  0.18871667460E+02  0.24057635957E+02  0.00000000000E+00 0.  1.
</event>
<event>
 7    1  0.3220798E-013  0.5930193E+02  0.7816164E-02  0.1266605E+00
        -11   -1    0    0    0    0  0.00000000000E+00  0.00000000000E+00  0.45593999997E+02  0.45594000000E+02  0.51100000000E-03 0.  1.
         11   -1    0    0    0    0 -0.00000000000E+00 -0.00000000000E+00 -0.45593999997E+02  0.45594000000E+02  0.51100000000E-03 0. -1.
    9900012    2    1    2    0    0 -0.21350778277E+02 -0.91273290099E+01  0.21853091288E+02  0.59301929895E+02  0.49999974225E+02 0.  0.
         12    1    1    2    0    0  0.21350778277E+02  0.91273290099E+01 -0.21853091288E+02  0.31886070105E+02  0.00000000000E+00 0. -1.
         11    1    3    3    0    0  0.14680348910E+01  0.78816803517E+01 -0.63094968340E+01  0.10202242997E+02  0.51100000000E-03 0. -1.
        -11    1    3    3    0    0 -0.20140857667E+02  0.26975715974E+01  0.14821999369E+02  0.25151992081E+02  0.51100000000E-03 0.  1.
        -12    1    3    3    0    0 -0.26779555009E+01 -0.19706580959E+02  0.13340588754E+02  0.23947694817E+02  0.00000000000E+00 0.  1.
</event>
<event>
 7    1  0.3220798E-013  0.5930195E+02  0.7816164E-02  0.1266605E+00
        -11   -1    0    0    0    0  0.00000000000E+00  0.00000000000E+00  0.45593999997E+02  0.45594000000E+02  0.51100000000E-03 0. -1.
         11   -1    0    0    0    0 -0.00000000000E+00 -0.00000000000E+00 -0.45593999997E+02  0.45594000000E+02  0.51100000000E-03 0.  1.
    9900012    2    1    2    0    0  0.21520126595E+02 -0.16015057585E+02 -0.17237243358E+02  0.59301945420E+02  0.50000002539E+02 0.  0.
         12    1    1    2    0    0 -0.21520126595E+02  0.16015057585E+02  0.17237243358E+02  0.31886054580E+02  0.00000000000E+00 0. -1.
         11    1    3    3    0    0  0.31150836428E+02  0.53547461969E+01 -0.33630446731E+01  0.31786128841E+02  0.51100000000E-03 0. -1.
        -11    1    3    3    0    0 -0.33660628887E+01 -0.79953331900E+01 -0.30138812241E+01  0.91836383031E+01  0.51100000000E-03 0.  1.
        -12    1    3    3    0    0 -0.62646469447E+01 -0.13374470592E+02 -0.10860317461E+02  0.18332178275E+02  0.00000000000E+00 0.  1.
</event>
<event>
 7    1  0.3220798E-013  0.5930187E+02  0.7816164E-02  0.1266605E+00
        -11   -1    0    0    0    0  0.00000000000E+00  0.00000000000E+00  0.45593999997E+02  0.45594000000E+02  0.51100000000E-03 0.  1.
         11   -1    0    0    0    0 -0.00000000000E+00 -0.00000000000E+00 -0.45593999997E+02  0.45594000000E+02  0.51100000000E-03 0. -1.
    9900012    2    1    2    0    0 -0.13973736789E+02  0.64446241617E+01  0.27927163986E+02  0.59301874667E+02  0.49999873503E+02 0.  0.
         12    1    1    2    0    0  0.13973736789E+02 -0.64446241617E+01 -0.27927163986E+02  0.31886125333E+02  0.00000000000E+00 0. -1.
         11    1    3    3    0    0 -0.67890446690E+01  0.11954957457E+02  0.98930176425E+01  0.16937648410E+02  0.51100000000E-03 0. -1.
        -11    1    3    3    0    0 -0.24576627339E+01  0.44716251146E+01  0.27407380833E+02  0.27878308085E+02  0.51100000000E-03 0.  1.
         12    1    3    3    0    0 -0.47270293860E+01 -0.99819584100E+01 -0.93732344892E+01  0.14485918173E+02  0.00000000000E+00 0. -1.
</event>
<event>
 7    1  0.3220798E-013  0.5930194E+02  0.7816164E-02  0.1266605E+00
        -11   -1    0    0    0    0  0.00000000000E+00  0.00000000000E+00  0.45593999997E+02  0.45594000000E+02  0.51100000000E-03 0.  1.
         11   -1    0    0    0    0 -0.00000000000E+00 -0.00000000000E+00 -0.45593999997E+02  0.45594000000E+02  0.51100000000E-03 0. -1.
    9900012    2    1    2    0    0  0.10558576077E+02 -0.27888925545E+02  0.11289159582E+02  0.59301940022E+02  0.49999992695E+02 0.  0.
         12    1    1    2    0    0 -0.10558576077E+02  0.27888925545E+02 -0.11289159582E+02  0.31886059978E+02  0.00000000000E+00 0. -1.
         11    1    3    3    0    0 -0.39100562736E+01  0.67775790754E+01  0.42996147579E+01  0.89280908101E+01  0.51100000000E-03 0. -1.
        -11    1    3    3    0    0  0.15077308693E+02 -0.53869217303E+01  0.12822811055E+02  0.20512646021E+02  0.51100000000E-03 0.  1.
         12    1    3    3    0    0 -0.60867634281E+00 -0.29279582890E+02 -0.58332662310E+01  0.29861203191E+02  0.00000000000E+00 0. -1.
</event>
<event>
 7    1  0.3220798E-013  0.5930194E+02  0.7816164E-02  0.1266605E+00
        -11   -1    0    0    0    0  0.00000000000E+00  0.00000000000E+00  0.45593999997E+02  0.45594000000E+02  0.51100000000E-03 0.  1.
         11   -1    0    0    0    0 -0.00000000000E+00 -0.00000000000E+00 -0.45593999997E+02  0.45594000000E+02  0.51100000000E-03 0. -1.
    9900012    2    1    2    0    0  0.23087772039E+02  0.11691651466E+02  0.18627420496E+02  0.59301941509E+02  0.49999995407E+02 0.  0.
         12    1    1    2    0    0 -0.23087772039E+02 -0.11691651466E+02 -0.18627420496E+02  0.31886058491E+02  0.00000000000E+00 0. -1.
         11    1    3    3    0    0 -0.53516297331E+01  0.95617261030E+01  0.31501414900E+01  0.11401313018E+02  0.51100000000E-03 0. -1.
        -11    1    3    3    0    0  0.13689868175E+02  0.11401513020E+02  0.22857289655E+02  0.28980384407E+02  0.51100000000E-03 0.  1.
         12    1    3    3    0    0  0.14749533597E+02 -0.92715876568E+01 -0.73800106487E+01  0.18920244084E+02  0.00000000000E+00 0. -1.
</event>
<event>
 7    1  0.3220798E-013  0.5930200E+02  0.7816164E-02  0.1266605E+00
        -11   -1    0    0    0    0  0.00000000000E+00  0.00000000000E+00  0.45593999997E+02  0.45594000000E+02  0.51100000000E-03 0.  1.
         11   -1    0    0    0    0 -0.00000000000E+00 -0.00000000000E+00 -0.45593999997E+02  0.45594000000E+02  0.51100000000E-03 0. -1.
    9900012    2    1    2    0    0 -0.60285041375E+00 -0.20939429380E+02  0.24039423637E+02  0.59301999621E+02  0.50000101388E+02 0.  0.
         12    1    1    2    0    0  0.60285041375E+00  0.20939429380E+02 -0.24039423637E+02  0.31886000379E+02  0.00000000000E+00 0. -1.
         11    1    3    3    0    0  0.66406024180E+00  0.14900055531E+00 -0.56452637748E+01  0.56861393334E+01  0.51100000000E-03 0. -1.
        -11    1    3    3    0    0 -0.14608963573E+02 -0.26420360593E+02  0.18500313290E+02  0.35407892660E+02  0.51100000000E-03 0.  1.
         12    1    3    3    0    0  0.13342052918E+02  0.53319306583E+01  0.11184374122E+02  0.18207967627E+02  0.00000000000E+00 0. -1.
</event>
<event>
 7    1  0.3220798E-013  0.5930194E+02  0.7816164E-02  0.1266605E+00
        -11   -1    0    0    0    0  0.00000000000E+00  0.00000000000E+00  0.45593999997E+02  0.45594000000E+02  0.51100000000E-03 0. -1.
         11   -1    0    0    0    0 -0.00000000000E+00 -0.00000000000E+00 -0.45593999997E+02  0.45594000000E+02  0.51100000000E-03 0.  1.
    9900012    2    1    2    0    0 -0.21825057879E+02  0.89170613559E+00 -0.23229130717E+02  0.59301940270E+02  0.49999993146E+02 0.  0.
         12    1    1    2    0    0  0.21825057879E+02 -0.89170613559E+00  0.23229130717E+02  0.31886059730E+02  0.00000000000E+00 0. -1.
         11    1    3    3    0    0 -0.38600821129E+01 -0.19818394068E+01  0.20905752181E+01  0.48164744738E+01  0.51100000000E-03 0. -1.
        -11    1    3    3    0    0 -0.26075126055E+02 -0.13786467124E+02 -0.18057284192E+02  0.34583874670E+02  0.51100000000E-03 0.  1.
         12    1    3    3    0    0  0.81101502890E+01  0.16660012666E+02 -0.72624217436E+01  0.19901591126E+02  0.00000000000E+00 0. -1.
</event>
<event>
 7    1  0.3220798E-013  0.5930198E+02  0.7816164E-02  0.1266605E+00
        -11   -1    0    0    0    0  0.00000000000E+00  0.00000000000E+00  0.45593999997E+02  0.45594000000E+02  0.51100000000E-03 0. -1.
         11   -1    0    0    0    0 -0.00000000000E+00 -0.00000000000E+00 -0.45593999997E+02  0.45594000000E+02  0.51100000000E-03 0.  1.
    9900012    2    1    2    0    0 -0.27038498951E+02  0.63126313126E+01 -0.15677645383E+02  0.59301979484E+02  0.50000064663E+02 0.  0.
         12    1    1    2    0    0  0.27038498951E+02 -0.63126313126E+01  0.15677645383E+02  0.31886020516E+02  0.00000000000E+00 0. -1.
         11    1    3    3    0    0  0.12223551502E+01  0.22345781145E+01 -0.16654937819E+02  0.16848573989E+02  0.51100000000E-03 0. -1.
        -11    1    3    3    0    0 -0.30037383756E+02  0.12078207553E+02 -0.43695680667E+01  0.32668343178E+02  0.51100000000E-03 0.  1.
         12    1    3    3    0    0  0.17765296554E+01 -0.80001543544E+01  0.53468605027E+01  0.97850623170E+01  0.00000000000E+00 0. -1.
</event>
<event>
 7    1  0.3220798E-013  0.5930197E+02  0.7816164E-02  0.1266605E+00
        -11   -1    0    0    0    0  0.00000000000E+00  0.00000000000E+00  0.45593999997E+02  0.45594000000E+02  0.51100000000E-03 0.  1.
         11   -1    0    0    0    0 -0.00000000000E+00 -0.00000000000E+00 -0.45593999997E+02  0.45594000000E+02  0.51100000000E-03 0. -1.
    9900012    2    1    2    0    0 -0.55013681029E+01  0.18117444851E+02  0.25655637686E+02  0.59301974785E+02  0.50000056093E+02 0.  0.
         12    1    1    2    0    0  0.55013681029E+01 -0.18117444851E+02 -0.25655637686E+02  0.31886025215E+02  0.00000000000E+00 0. -1.
         11    1    3    3    0    0 -0.23991204338E+02  0.47486054495E+00  0.11291744514E+02  0.26519933494E+02  0.51100000000E-03 0. -1.
        -11    1    3    3    0    0  0.14405797481E+00  0.14602822143E+01 -0.26189348680E+01  0.30019988257E+01  0.51100000000E-03 0.  1.
        -12    1    3    3    0    0  0.18345778260E+02  0.16182302092E+02  0.16982828040E+02  0.29780042465E+02  0.00000000000E+00 0.  1.
</event>
<event>
 7    1  0.3220798E-013  0.5930191E+02  0.7816164E-02  0.1266605E+00
        -11   -1    0    0    0    0  0.00000000000E+00  0.00000000000E+00  0.45593999997E+02  0.45594000000E+02  0.51100000000E-03 0.  1.
         11   -1    0    0    0    0 -0.00000000000E+00 -0.00000000000E+00 -0.45593999997E+02  0.45594000000E+02  0.51100000000E-03 0. -1.
    9900012    2    1    2    0    0 -0.18247037129E+02 -0.24945718287E+02  0.78408796456E+01  0.59301911835E+02  0.49999941288E+02 0.  0.
         12    1    1    2    0    0  0.18247037129E+02  0.24945718287E+02 -0.78408796456E+01  0.31886088165E+02  0.00000000000E+00 0. -1.
         11    1    3    3    0    0 -0.63190002576E+01 -0.12933222245E+02 -0.64376051778E+00  0.14408762256E+02  0.51100000000E-03 0. -1.
        -11    1    3    3    0    0 -0.32774207258E+01 -0.23520488162E+02  0.16017595749E+02  0.28644689278E+02  0.51100000000E-03 0.  1.
        -12    1    3    3    0    0 -0.86506161454E+01  0.11507992119E+02 -0.75329555854E+01  0.16248460301E+02  0.00000000000E+00 0.  1.
</event>
<event>
 7    1  0.3220798E-013  0.5930211E+02  0.7816164E-02  0.1266604E+00
        -11   -1    0    0    0    0  0.00000000000E+00  0.00000000000E+00  0.45593999997E+02  0.45594000000E+02  0.51100000000E-03 0.  1.
         11   -1    0    0    0    0 -0.00000000000E+00 -0.00000000000E+00 -0.45593999997E+02  0.45594000000E+02  0.51100000000E-03 0. -1.
    9900012    2    1    2    0    0  0.70634271195E+01 -0.11477341210E+02  0.28897901173E+02  0.59302108823E+02  0.50000300547E+02 0.  0.
         12    1    1    2    0    0 -0.70634271195E+01  0.11477341210E+02 -0.28897901173E+02  0.31885891177E+02  0.00000000000E+00 0. -1.
         11    1    3    3    0    0  0.14684337667E+02  0.60261354429E+01 -0.78441712076E+01  0.17705228134E+02  0.51100000000E-03 0. -1.
        -11    1    3    3    0    0  0.31544570597E+00 -0.72389941715E+00  0.28198531695E+01  0.29283286220E+01  0.51100000000E-03 0.  1.
        -12    1    3    3    0    0 -0.79363562530E+01 -0.16779577236E+02  0.33922219211E+02  0.38668552067E+02  0.00000000000E+00 0.  1.
</event>
<event>
 7    1  0.3220798E-013  0.5930197E+02  0.7816164E-02  0.1266605E+00
        -11   -1    0    0    0    0  0.00000000000E+00  0.00000000000E+00  0.45593999997E+02  0.45594000000E+02  0.51100000000E-03 0.  1.
         11   -1    0    0    0    0 -0.00000000000E+00 -0.00000000000E+00 -0.45593999997E+02  0.45594000000E+02  0.51100000000E-03 0. -1.
    9900012    2    1    2    0    0  0.13081208193E+01  0.79744769732E+01  0.30845024630E+02  0.59301968458E+02  0.50000044555E+02 0.  0.
         12    1    1    2    0    0 -0.13081208193E+01 -0.79744769732E+01 -0.30845024630E+02  0.31886031542E+02  0.00000000000E+00 0. -1.
         11    1    3    3    0    0 -0.67545912468E+01 -0.10229845500E+02 -0.52442189389E+00  0.12269851688E+02  0.51100000000E-03 0. -1.
        -11    1    3    3    0    0 -0.98833189390E+01  0.13029109222E+02  0.15250132207E+02  0.22360773980E+02  0.51100000000E-03 0.  1.
        -12    1    3    3    0    0  0.17946031005E+02  0.51752132512E+01  0.16119314317E+02  0.24671342790E+02  0.00000000000E+00 0.  1.
</event>
<event>
 7    1  0.3220798E-013  0.5930193E+02  0.7816164E-02  0.1266605E+00
        -11   -1    0    0    0    0  0.00000000000E+00  0.00000000000E+00  0.45593999997E+02  0.45594000000E+02  0.51100000000E-03 0. -1.
         11   -1    0    0    0    0 -0.00000000000E+00 -0.00000000000E+00 -0.45593999997E+02  0.45594000000E+02  0.51100000000E-03 0.  1.
    9900012    2    1    2    0    0 -0.81829714813E+01  0.29889005808E+02 -0.75105031073E+01  0.59301931767E+02  0.49999977640E+02 0.  0.
         12    1    1    2    0    0  0.81829714813E+01 -0.29889005808E+02  0.75105031073E+01  0.31886068233E+02  0.00000000000E+00 0. -1.
         11    1    3    3    0    0  0.18660102585E+02  0.75280359498E+01 -0.49082390009E+01  0.20711387305E+02  0.51100000000E-03 0. -1.
        -11    1    3    3    0    0 -0.77502971274E+01 -0.16025906031E+00  0.33942957646E+01  0.84625074611E+01  0.51100000000E-03 0.  1.
        -12    1    3    3    0    0 -0.19092776939E+02  0.22521228918E+02 -0.59965598710E+01  0.30128037001E+02  0.00000000000E+00 0.  1.
</event>
<event>
 7    1  0.3220798E-013  0.5930195E+02  0.7816164E-02  0.1266605E+00
        -11   -1    0    0    0    0  0.00000000000E+00  0.00000000000E+00  0.45593999997E+02  0.45594000000E+02  0.51100000000E-03 0.  1.
         11   -1    0    0    0    0 -0.00000000000E+00 -0.00000000000E+00 -0.45593999997E+02  0.45594000000E+02  0.51100000000E-03 0. -1.
    9900012    2    1    2    0    0  0.51735298400E+01 -0.31646849851E+01  0.31303988712E+02  0.59301947385E+02  0.50000006123E+02 0.  0.
         12    1    1    2    0    0 -0.51735298400E+01  0.31646849851E+01 -0.31303988712E+02  0.31886052615E+02  0.00000000000E+00 0. -1.
         11    1    3    3    0    0  0.69815200580E+01  0.10968923528E+02  0.35585702019E+01  0.13480442420E+02  0.51100000000E-03 0. -1.
        -11    1    3    3    0    0 -0.10671593060E+02 -0.33383899024E+01 -0.34002671266E+01  0.11687153733E+02  0.51100000000E-03 0.  1.
        -12    1    3    3    0    0  0.88636028425E+01 -0.10795218611E+02  0.31145685637E+02  0.34134351232E+02  0.00000000000E+00 0.  1.
</event>
<event>
 7    1  0.3220798E-013  0.5930196E+02  0.7816164E-02  0.1266605E+00
        -11   -1    0    0    0    0  0.00000000000E+00  0.00000000000E+00  0.45593999997E+02  0.45594000000E+02  0.51100000000E-03 0.  1.
         11   -1    0    0    0    0 -0.00000000000E+00 -0.00000000000E+00 -0.45593999997E+02  0.45594000000E+02  0.51100000000E-03 0. -1.
    9900012    2    1    2    0    0 -0.21750279370E+02  0.46398221723E+01  0.22849878896E+02  0.59301959668E+02  0.50000028525E+02 0.  0.
         12    1    1    2    0    0  0.21750279370E+02 -0.46398221723E+01 -0.22849878896E+02  0.31886040332E+02  0.00000000000E+00 0. -1.
         11    1    3    3    0    0 -0.69510985019E+01 -0.82114350621E+01  0.18389346539E+01  0.10914536961E+02  0.51100000000E-03 0. -1.
        -11    1    3    3    0    0 -0.17511496115E+02 -0.86976572389E+01  0.22390101511E+01  0.19680317689E+02  0.51100000000E-03 0.  1.
         12    1    3    3    0    0  0.27123152468E+01  0.21548914473E+02  0.18771934091E+02  0.28707105018E+02  0.00000000000E+00 0. -1.
</event>
<event>
 7    1  0.3220798E-013  0.5930192E+02  0.7816164E-02  0.1266605E+00
        -11   -1    0    0    0    0  0.00000000000E+00  0.00000000000E+00  0.45593999997E+02  0.45594000000E+02  0.51100000000E-03 0.  1.
         11   -1    0    0    0    0 -0.00000000000E+00 -0.00000000000E+00 -0.45593999997E+02  0.45594000000E+02  0.51100000000E-03 0. -1.
    9900012    2    1    2    0    0  0.16880232408E+02 -0.20100932004E+02  0.18103383140E+02  0.59301918480E+02  0.49999953407E+02 0.  0.
         12    1    1    2    0    0 -0.16880232408E+02  0.20100932004E+02 -0.18103383140E+02  0.31886081520E+02  0.00000000000E+00 0. -1.
         11    1    3    3    0    0  0.64682628768E+01 -0.17236835366E+01 -0.22458173499E+01  0.70606802369E+01  0.51100000000E-03 0. -1.
        -11    1    3    3    0    0 -0.22441877223E+01  0.12511537891E+02  0.12754734493E+02  0.18007171104E+02  0.51100000000E-03 0.  1.
         12    1    3    3    0    0  0.12656157253E+02 -0.30888786358E+02  0.75944659969E+01  0.34234067139E+02  0.00000000000E+00 0. -1.
</event>
<event>
 7    1  0.3220798E-013  0.5930192E+02  0.7816164E-02  0.1266605E+00
        -11   -1    0    0    0    0  0.00000000000E+00  0.00000000000E+00  0.45593999997E+02  0.45594000000E+02  0.51100000000E-03 0. -1.
         11   -1    0    0    0    0 -0.00000000000E+00 -0.00000000000E+00 -0.45593999997E+02  0.45594000000E+02  0.51100000000E-03 0.  1.
    9900012    2    1    2    0    0 -0.10194594546E+02 -0.11912171329E+02 -0.27764946751E+02  0.59301923857E+02  0.49999963213E+02 0.  0.
         12    1    1    2    0    0  0.10194594546E+02  0.11912171329E+02  0.27764946751E+02  0.31886076143E+02  0.00000000000E+00 0. -1.
         11    1    3    3    0    0  0.16899125954E+01  0.91480465989E+01 -0.86205340336E+01  0.12682908517E+02  0.51100000000E-03 0. -1.
        -11    1    3    3    0    0 -0.17347990351E+02 -0.16878206253E+02  0.20936827607E+01  0.24294240538E+02  0.51100000000E-03 0.  1.
         12    1    3    3    0    0  0.54634832093E+01 -0.41820116749E+01 -0.21238095478E+02  0.22324774802E+02  0.00000000000E+00 0. -1.
</event>
<event>
 7    1  0.3220798E-013  0.5930211E+02  0.7816164E-02  0.1266604E+00
        -11   -1    0    0    0    0  0.00000000000E+00  0.00000000000E+00  0.45593999997E+02  0.45594000000E+02  0.51100000000E-03 0. -1.
         11   -1    0    0    0    0 -0.00000000000E+00 -0.00000000000E+00 -0.45593999997E+02  0.45594000000E+02  0.51100000000E-03 0.  1.
    9900012    2    1    2    0    0 -0.23787370246E+02  0.18587242132E+02 -0.10265728972E+02  0.59302113708E+02  0.50000309455E+02 0.  0.
         12    1    1    2    0    0  0.23787370246E+02 -0.18587242132E+02  0.10265728972E+02  0.31885886292E+02  0.00000000000E+00 0. -1.
         11    1    3    3    0    0 -0.51721381301E+01  0.21480894709E+02 -0.14815734941E+02  0.26602365543E+02  0.51100000000E-03 0. -1.
        -11    1    3    3    0    0  0.93819566916E+00  0.92390295467E+01  0.23753455290E+01  0.95855174467E+01  0.51100000000E-03 0.  1.
        -12    1    3    3    0    0 -0.19553427785E+02 -0.12132682124E+02  0.21746604405E+01  0.23114230718E+02  0.00000000000E+00 0.  1.
</event>
<event>
 7    1  0.3220798E-013  0.5930182E+02  0.7816164E-02  0.1266605E+00
        -11   -1    0    0    0    0  0.00000000000E+00  0.00000000000E+00  0.45593999997E+02  0.45594000000E+02  0.51100000000E-03 0.  1.
         11   -1    0    0    0    0 -0.00000000000E+00 -0.00000000000E+00 -0.45593999997E+02  0.45594000000E+02  0.51100000000E-03 0. -1.
    9900012    2    1    2    0    0  0.27714931226E+02 -0.11818646857E+02  0.10436992604E+02  0.59301817397E+02  0.49999769055E+02 0.  0.
         12    1    1    2    0    0 -0.27714931226E+02  0.11818646857E+02 -0.10436992604E+02  0.31886182603E+02  0.00000000000E+00 0. -1.
         11    1    3    3    0    0 -0.26183172275E+00 -0.10471695672E+02  0.66354585351E+01  0.12399769204E+02  0.51100000000E-03 0. -1.
        -11    1    3    3    0    0  0.13031052236E+01 -0.15115402983E+02  0.70115613009E+01  0.16713332483E+02  0.51100000000E-03 0.  1.
         12    1    3    3    0    0  0.26673657725E+02  0.13768451798E+02 -0.32100272315E+01  0.30188715709E+02  0.00000000000E+00 0. -1.
</event>
<event>
 7    1  0.3220798E-013  0.5930193E+02  0.7816164E-02  0.1266605E+00
        -11   -1    0    0    0    0  0.00000000000E+00  0.00000000000E+00  0.45593999997E+02  0.45594000000E+02  0.51100000000E-03 0.  1.
         11   -1    0    0    0    0 -0.00000000000E+00 -0.00000000000E+00 -0.45593999997E+02  0.45594000000E+02  0.51100000000E-03 0. -1.
    9900012    2    1    2    0    0 -0.28834556434E+02  0.50775384713E+01  0.12629655163E+02  0.59301933588E+02  0.49999980960E+02 0.  0.
         12    1    1    2    0    0  0.28834556434E+02 -0.50775384713E+01 -0.12629655163E+02  0.31886066412E+02  0.00000000000E+00 0. -1.
         11    1    3    3    0    0 -0.48262573006E+00 -0.13607851301E+02  0.12848022956E+02  0.18721064039E+02  0.51100000000E-03 0. -1.
        -11    1    3    3    0    0  0.26665427718E+01  0.47014787636E+01 -0.34350839801E+01  0.64042294720E+01  0.51100000000E-03 0.  1.
        -12    1    3    3    0    0 -0.31018473476E+02  0.13983911009E+02  0.32167161879E+01  0.34176640077E+02  0.00000000000E+00 0.  1.
</event>
<event>
 7    1  0.3220798E-013  0.5930168E+02  0.7816164E-02  0.1266606E+00
        -11   -1    0    0    0    0  0.00000000000E+00  0.00000000000E+00  0.45593999997E+02  0.45594000000E+02  0.51100000000E-03 0. -1.
         11   -1    0    0    0    0 -0.00000000000E+00 -0.00000000000E+00 -0.45593999997E+02  0.45594000000E+02  0.51100000000E-03 0.  1.
    9900012    2    1    2    0    0 -0.22174427439E+01 -0.18709784077E+02  0.25724774391E+02  0.59301684910E+02  0.49999527429E+02 0.  0.
         12    1    1    2    0    0  0.22174427439E+01  0.18709784077E+02 -0.25724774391E+02  0.31886315090E+02  0.00000000000E+00 0. -1.
         11    1    3    3    0    0  0.17724947272E+02 -0.16414324523E+01  0.13637716636E+02  0.22424436930E+02  0.51100000000E-03 0. -1.
        -11    1    3    3    0    0  0.10587514541E+01 -0.26843860364E+00  0.98280753556E+01  0.98885832849E+01  0.51100000000E-03 0.  1.
        -12    1    3    3    0    0 -0.21001141470E+02 -0.16799913021E+02  0.22589823991E+01  0.26988664696E+02  0.00000000000E+00 0.  1.
</event>
<event>
 7    1  0.3220798E-013  0.5930193E+02  0.7816164E-02  0.1266605E+00
        -11   -1    0    0    0    0  0.00000000000E+00  0.00000000000E+00  0.45593999997E+02  0.45594000000E+02  0.51100000000E-03 0. -1.
         11   -1    0    0    0    0 -0.00000000000E+00 -0.00000000000E+00 -0.45593999997E+02  0.45594000000E+02  0.51100000000E-03 0.  1.
    9900012    2    1    2    0    0  0.28596452625E+01 -0.31700146365E+02 -0.19091654318E+01  0.59301925246E+02  0.49999965746E+02 0.  0.
         12    1    1    2    0    0 -0.28596452625E+01  0.31700146365E+02  0.19091654318E+01  0.31886074754E+02  0.00000000000E+00 0. -1.
         11    1    3    3    0    0 -0.86197472091E+01 -0.21112834451E+01  0.78071413934E+01  0.11819856883E+02  0.51100000000E-03 0. -1.
        -11    1    3    3    0    0 -0.39381978228E+01 -0.30156752244E+02 -0.26966316657E+01  0.30532129481E+02  0.51100000000E-03 0.  1.
        -12    1    3    3    0    0  0.15417590294E+02  0.56788932466E+00 -0.70196751594E+01  0.16949938882E+02  0.00000000000E+00 0.  1.
</event>
<event>
 7    1  0.3220798E-013  0.5930195E+02  0.7816164E-02  0.1266605E+00
        -11   -1    0    0    0    0  0.00000000000E+00  0.00000000000E+00  0.45593999997E+02  0.45594000000E+02  0.51100000000E-03 0. -1.
         11   -1    0    0    0    0 -0.00000000000E+00 -0.00000000000E+00 -0.45593999997E+02  0.45594000000E+02  0.51100000000E-03 0.  1.
    9900012    2    1    2    0    0 -0.60558195961E+01 -0.26998891691E+02 -0.15846362396E+02  0.59301948117E+02  0.50000007457E+02 0.  0.
         12    1    1    2    0    0  0.60558195961E+01  0.26998891691E+02  0.15846362396E+02  0.31886051883E+02  0.00000000000E+00 0. -1.
         11    1    3    3    0    0  0.82993382562E+01 -0.12553258972E+02  0.24306283457E+01  0.15243729227E+02  0.51100000000E-03 0. -1.
        -11    1    3    3    0    0 -0.18246031131E+02 -0.22094610245E+02 -0.63250002341E+01  0.29344421653E+02  0.51100000000E-03 0.  1.
        -12    1    3    3    0    0  0.38908732788E+01  0.76489775259E+01 -0.11951990507E+02  0.14713797238E+02  0.00000000000E+00 0.  1.
</event>
<event>
 7    1  0.3220798E-013  0.5930194E+02  0.7816164E-02  0.1266605E+00
        -11   -1    0    0    0    0  0.00000000000E+00  0.00000000000E+00  0.45593999997E+02  0.45594000000E+02  0.51100000000E-03 0.  1.
         11   -1    0    0    0    0 -0.00000000000E+00 -0.00000000000E+00 -0.45593999997E+02  0.45594000000E+02  0.51100000000E-03 0. -1.
    9900012    2    1    2    0    0 -0.15901878380E+01 -0.31531172096E+02  0.44695892727E+01  0.59301941300E+02  0.49999995026E+02 0.  0.
         12    1    1    2    0    0  0.15901878380E+01  0.31531172096E+02 -0.44695892727E+01  0.31886058700E+02  0.00000000000E+00 0. -1.
         11    1    3    3    0    0 -0.38641921099E+01 -0.84494181136E+00 -0.29295829543E+01  0.49222315949E+01  0.51100000000E-03 0. -1.
        -11    1    3    3    0    0 -0.18059377927E+01 -0.24821276466E+02 -0.16218432978E+02  0.29705129949E+02  0.51100000000E-03 0.  1.
         12    1    3    3    0    0  0.40799420645E+01 -0.58649538185E+01  0.23617605205E+02  0.24674579757E+02  0.00000000000E+00 0. -1.
</event>
<event>
 7    1  0.3220798E-013  0.5930195E+02  0.7816164E-02  0.1266605E+00
        -11   -1    0    0    0    0  0.00000000000E+00  0.00000000000E+00  0.45593999997E+02  0.45594000000E+02  0.51100000000E-03 0. -1.
         11   -1    0    0    0    0 -0.00000000000E+00 -0.00000000000E+00 -0.45593999997E+02  0.45594000000E+02  0.51100000000E-03 0.  1.
    9900012    2    1    2    0    0 -0.62456843125E+00 -0.13503954284E+02 -0.28878601625E+02  0.59301945073E+02  0.50000001906E+02 0.  0.
         12    1    1    2    0    0  0.62456843125E+00  0.13503954284E+02  0.28878601625E+02  0.31886054927E+02  0.00000000000E+00 0. -1.
         11    1    3    3    0    0  0.12377880673E+02 -0.11611973723E+02  0.17831537586E+01  0.17065447585E+02  0.51100000000E-03 0. -1.
        -11    1    3    3    0    0  0.40150010486E+01  0.55693910258E+01 -0.19233131678E+02  0.20421843801E+02  0.51100000000E-03 0.  1.
         12    1    3    3    0    0 -0.17017450153E+02 -0.74613715868E+01 -0.11428623705E+02  0.21814653686E+02  0.00000000000E+00 0. -1.
</event>
<event>
 7    1  0.3220798E-013  0.5930194E+02  0.7816164E-02  0.1266605E+00
        -11   -1    0    0    0    0  0.00000000000E+00  0.00000000000E+00  0.45593999997E+02  0.45594000000E+02  0.51100000000E-03 0. -1.
         11   -1    0    0    0    0 -0.00000000000E+00 -0.00000000000E+00 -0.45593999997E+02  0.45594000000E+02  0.51100000000E-03 0.  1.
    9900012    2    1    2    0    0  0.17909723088E+01  0.30065320903E+02 -0.10468500052E+02  0.59301943546E+02  0.49999999122E+02 0.  0.
         12    1    1    2    0    0 -0.17909723088E+01 -0.30065320903E+02  0.10468500052E+02  0.31886056454E+02  0.00000000000E+00 0. -1.
         11    1    3    3    0    0  0.41264313104E+01  0.14390423465E+02  0.61344179538E+01  0.16178467379E+02  0.51100000000E-03 0. -1.
        -11    1    3    3    0    0 -0.58736580990E-01  0.22243213329E+02  0.28879587177E+01  0.22429986513E+02  0.51100000000E-03 0.  1.
         12    1    3    3    0    0 -0.22767224205E+01 -0.65683158901E+01 -0.19490876723E+02  0.20693489654E+02  0.00000000000E+00 0. -1.
</event>
<event>
 7    1  0.3220798E-013  0.5930195E+02  0.7816164E-02  0.1266605E+00
        -11   -1    0    0    0    0  0.00000000000E+00  0.00000000000E+00  0.45593999997E+02  0.45594000000E+02  0.51100000000E-03 0.  1.
         11   -1    0    0    0    0 -0.00000000000E+00 -0.00000000000E+00 -0.45593999997E+02  0.45594000000E+02  0.51100000000E-03 0. -1.
    9900012    2    1    2    0    0  0.29799650814E+02  0.21242796857E+01  0.11143987895E+02  0.59301949460E+02  0.50000009907E+02 0.  0.
         12    1    1    2    0    0 -0.29799650814E+02 -0.21242796857E+01 -0.11143987895E+02  0.31886050540E+02  0.00000000000E+00 0. -1.
         11    1    3    3    0    0  0.34472496027E+02 -0.68220319437E+01 -0.10848061586E+01  0.35157785863E+02  0.51100000000E-03 0. -1.
        -11    1    3    3    0    0  0.60161103144E+01  0.53168949714E+01  0.96714044777E+01  0.12569766119E+02  0.51100000000E-03 0.  1.
         12    1    3    3    0    0 -0.10688955526E+02  0.36294166581E+01  0.25573895761E+01  0.11574397478E+02  0.00000000000E+00 0. -1.
</event>
<event>
 7    1  0.3220798E-013  0.5930195E+02  0.7816164E-02  0.1266605E+00
        -11   -1    0    0    0    0  0.00000000000E+00  0.00000000000E+00  0.45593999997E+02  0.45594000000E+02  0.51100000000E-03 0.  1.
         11   -1    0    0    0    0 -0.00000000000E+00 -0.00000000000E+00 -0.45593999997E+02  0.45594000000E+02  0.51100000000E-03 0. -1.
    9900012    2    1    2    0    0  0.15755757854E+02  0.10404502357E+02  0.25694802922E+02  0.59301945493E+02  0.50000002672E+02 0.  0.
         12    1    1    2    0    0 -0.15755757854E+02 -0.10404502357E+02 -0.25694802922E+02  0.31886054507E+02  0.00000000000E+00 0. -1.
         11    1    3    3    0    0 -0.23783841647E+01 -0.66429316136E+01  0.15177374451E+02  0.16737321982E+02  0.51100000000E-03 0.  1.
        -11    1    3    3    0    0  0.84374717262E+00 -0.84020519443E+00 -0.10151251564E+02  0.10220849408E+02  0.51100000000E-03 0. -1.
        -12    1    3    3    0    0  0.17290394846E+02  0.17887639165E+02  0.20668680035E+02  0.32343774102E+02  0.00000000000E+00 0.  1.
</event>
<event>
 7    1  0.3220798E-013  0.5930194E+02  0.7816164E-02  0.1266605E+00
        -11   -1    0    0    0    0  0.00000000000E+00  0.00000000000E+00  0.45593999997E+02  0.45594000000E+02  0.51100000000E-03 0. -1.
         11   -1    0    0    0    0 -0.00000000000E+00 -0.00000000000E+00 -0.45593999997E+02  0.45594000000E+02  0.51100000000E-03 0.  1.
    9900012    2    1    2    0    0  0.11290914068E+02  0.21311628527E+02 -0.20857871310E+02  0.59301936484E+02  0.49999986242E+02 0.  0.
         12    1    1    2    0    0 -0.11290914068E+02 -0.21311628527E+02  0.20857871310E+02  0.31886063516E+02  0.00000000000E+00 0. -1.
         11    1    3    3    0    0 -0.28697350319E+01 -0.77677309050E+01 -0.15006904928E+01  0.84157646582E+01  0.51100000000E-03 0. -1.
        -11    1    3    3    0    0 -0.35785999376E+01 -0.25437288135E+01 -0.13451080134E+02  0.14149504967E+02  0.51100000000E-03 0.  1.
         12    1    3    3    0    0  0.17739249037E+02  0.31623088246E+02 -0.59061006833E+01  0.36736666859E+02  0.00000000000E+00 0. -1.
</event>
<event>
 7    1  0.3220798E-013  0.5930197E+02  0.7816164E-02  0.1266605E+00
        -11   -1    0    0    0    0  0.00000000000E+00  0.00000000000E+00  0.45593999997E+02  0.45594000000E+02  0.51100000000E-03 0. -1.
         11   -1    0    0    0    0 -0.00000000000E+00 -0.00000000000E+00 -0.45593999997E+02  0.45594000000E+02  0.51100000000E-03 0.  1.
    9900012    2    1    2    0    0 -0.43223647944E+01  0.78156410774E+01 -0.30609669366E+02  0.59301969492E+02  0.50000046441E+02 0.  0.
         12    1    1    2    0    0  0.43223647944E+01 -0.78156410774E+01  0.30609669366E+02  0.31886030508E+02  0.00000000000E+00 0. -1.
         11    1    3    3    0    0  0.16182537987E+02  0.17156596325E+01 -0.10180017175E+02  0.19195071598E+02  0.51100000000E-03 0. -1.
        -11    1    3    3    0    0 -0.10982369077E+02 -0.51830856394E+01 -0.22131876392E+02  0.25244737277E+02  0.51100000000E-03 0.  1.
        -12    1    3    3    0    0 -0.95225337048E+01  0.11283067084E+02  0.17022242018E+01  0.14862160618E+02  0.00000000000E+00 0.  1.
</event>
<event>
 7    1  0.3220798E-013  0.5930193E+02  0.7816164E-02  0.1266605E+00
        -11   -1    0    0    0    0  0.00000000000E+00  0.00000000000E+00  0.45593999997E+02  0.45594000000E+02  0.51100000000E-03 0. -1.
         11   -1    0    0    0    0 -0.00000000000E+00 -0.00000000000E+00 -0.45593999997E+02  0.45594000000E+02  0.51100000000E-03 0.  1.
    9900012    2    1    2    0    0  0.27552993376E+02 -0.15290598748E+02 -0.48735615755E+01  0.59301930056E+02  0.49999974518E+02 0.  0.
         12    1    1    2    0    0 -0.27552993376E+02  0.15290598748E+02  0.48735615755E+01  0.31886069944E+02  0.00000000000E+00 0. -1.
         11    1    3    3    0    0  0.17548729698E+02  0.33951427462E+01  0.91852194063E+01  0.20096098230E+02  0.51100000000E-03 0. -1.
        -11    1    3    3    0    0  0.12572696116E+02  0.23106494364E+01  0.16065628759E+01  0.12883820590E+02  0.51100000000E-03 0.  1.
        -12    1    3    3    0    0 -0.25684324381E+01 -0.20996390931E+02 -0.15665343858E+02  0.26322011236E+02  0.00000000000E+00 0.  1.
</event>
<event>
 7    1  0.3694696E-013  0.5930193E+02  0.7816164E-02  0.1266605E+00
        -11   -1    0    0    0    0  0.00000000000E+00  0.00000000000E+00  0.45593999997E+02  0.45594000000E+02  0.51100000000E-03 0.  1.
         11   -1    0    0    0    0 -0.00000000000E+00 -0.00000000000E+00 -0.45593999997E+02  0.45594000000E+02  0.51100000000E-03 0. -1.
    9900012    2    1    2    0    0 -0.25647229302E+02  0.10462311873E+02 -0.15794975320E+02  0.59301928026E+02  0.49999970816E+02 0.  0.
         12    1    1    2    0    0  0.25647229302E+02 -0.10462311873E+02  0.15794975320E+02  0.31886071974E+02  0.00000000000E+00 0. -1.
         11    1    3    3    0    0 -0.13312585662E+02  0.12012443500E+02 -0.35854510294E+01  0.18286038259E+02  0.51100000000E-03 0. -1.
        -11    1    3    3    0    0 -0.23478680980E+02 -0.87235173037E+01 -0.38357455818E+01  0.25338925769E+02  0.51100000000E-03 0.  1.
         12    1    3    3    0    0  0.11144037341E+02  0.71733856763E+01 -0.83737787091E+01  0.15676963998E+02  0.00000000000E+00 0. -1.
</event>
<event>
 7    1  0.3220798E-013  0.5930194E+02  0.7816164E-02  0.1266605E+00
        -11   -1    0    0    0    0  0.00000000000E+00  0.00000000000E+00  0.45593999997E+02  0.45594000000E+02  0.51100000000E-03 0.  1.
         11   -1    0    0    0    0 -0.00000000000E+00 -0.00000000000E+00 -0.45593999997E+02  0.45594000000E+02  0.51100000000E-03 0. -1.
    9900012    2    1    2    0    0 -0.11549990351E+02 -0.82314402142E+01  0.28558041658E+02  0.59301943040E+02  0.49999998199E+02 0.  0.
         12    1    1    2    0    0  0.11549990351E+02  0.82314402142E+01 -0.28558041658E+02  0.31886056960E+02  0.00000000000E+00 0. -1.
         11    1    3    3    0    0 -0.48041792685E+01  0.12933927091E+02  0.50273367721E+01  0.14684710543E+02  0.51100000000E-03 0. -1.
        -11    1    3    3    0    0 -0.18100596470E+02 -0.63070458402E+01  0.10891205816E+02  0.22046060514E+02  0.51100000000E-03 0.  1.
        -12    1    3    3    0    0  0.11354785388E+02 -0.14858321465E+02  0.12639499070E+02  0.22571171983E+02  0.00000000000E+00 0.  1.
</event>
<event>
 7    1  0.3220798E-013  0.5930195E+02  0.7816164E-02  0.1266605E+00
        -11   -1    0    0    0    0  0.00000000000E+00  0.00000000000E+00  0.45593999997E+02  0.45594000000E+02  0.51100000000E-03 0.  1.
         11   -1    0    0    0    0 -0.00000000000E+00 -0.00000000000E+00 -0.45593999997E+02  0.45594000000E+02  0.51100000000E-03 0. -1.
    9900012    2    1    2    0    0  0.19853666706E+02  0.11371222660E+02  0.22209179683E+02  0.59301945860E+02  0.50000003341E+02 0.  0.
         12    1    1    2    0    0 -0.19853666706E+02 -0.11371222660E+02 -0.22209179683E+02  0.31886054140E+02  0.00000000000E+00 0. -1.
         11    1    3    3    0    0  0.20941731535E+01 -0.99883958547E+01  0.25077092565E+01  0.10509149296E+02  0.51100000000E-03 0. -1.
        -11    1    3    3    0    0 -0.11316646335E+01  0.12101148877E+02 -0.75934969585E+01  0.14331073418E+02  0.51100000000E-03 0.  1.
         12    1    3    3    0    0  0.18891158186E+02  0.92584696372E+01  0.27294967385E+02  0.34461723146E+02  0.00000000000E+00 0. -1.
</event>
<event>
 7    1  0.3220798E-013  0.5930190E+02  0.7816164E-02  0.1266605E+00
        -11   -1    0    0    0    0  0.00000000000E+00  0.00000000000E+00  0.45593999997E+02  0.45594000000E+02  0.51100000000E-03 0.  1.
         11   -1    0    0    0    0 -0.00000000000E+00 -0.00000000000E+00 -0.45593999997E+02  0.45594000000E+02  0.51100000000E-03 0. -1.
    9900012    2    1    2    0    0  0.16406506816E+02  0.27264918857E+02  0.20430929006E+01  0.59301898094E+02  0.49999916228E+02 0.  0.
         12    1    1    2    0    0 -0.16406506816E+02 -0.27264918857E+02 -0.20430929006E+01  0.31886101906E+02  0.00000000000E+00 0. -1.
         11    1    3    3    0    0 -0.77662539552E+01 -0.84047092913E+01 -0.64637772265E+01  0.13142840449E+02  0.51100000000E-03 0. -1.
        -11    1    3    3    0    0  0.87814226094E+01  0.11986499918E+02  0.99408020077E+01  0.17877614722E+02  0.51100000000E-03 0.  1.
        -12    1    3    3    0    0  0.15391338162E+02  0.23683128230E+02 -0.14339318806E+01  0.28281442923E+02  0.00000000000E+00 0.  1.
</event>
<event>
 7    1  0.3220798E-013  0.5930195E+02  0.7816164E-02  0.1266605E+00
        -11   -1    0    0    0    0  0.00000000000E+00  0.00000000000E+00  0.45593999997E+02  0.45594000000E+02  0.51100000000E-03 0.  1.
         11   -1    0    0    0    0 -0.00000000000E+00 -0.00000000000E+00 -0.45593999997E+02  0.45594000000E+02  0.51100000000E-03 0. -1.
    9900012    2    1    2    0    0 -0.15089010142E+02 -0.18107337463E+02  0.21474783828E+02  0.59301949170E+02  0.50000009379E+02 0.  0.
         12    1    1    2    0    0  0.15089010142E+02  0.18107337463E+02 -0.21474783828E+02  0.31886050830E+02  0.00000000000E+00 0. -1.
         11    1    3    3    0    0 -0.17825890675E+02  0.53565183484E+01 -0.32056761845E+01  0.18887324513E+02  0.51100000000E-03 0. -1.
        -11    1    3    3    0    0 -0.94847396987E+01 -0.11359232340E+02  0.11713553122E+02  0.18873255509E+02  0.51100000000E-03 0.  1.
         12    1    3    3    0    0  0.12221620232E+02 -0.12104623472E+02  0.12966906891E+02  0.21541369149E+02  0.00000000000E+00 0. -1.
</event>
<event>
 7    1  0.3220798E-013  0.5930195E+02  0.7816164E-02  0.1266605E+00
        -11   -1    0    0    0    0  0.00000000000E+00  0.00000000000E+00  0.45593999997E+02  0.45594000000E+02  0.51100000000E-03 0.  1.
         11   -1    0    0    0    0 -0.00000000000E+00 -0.00000000000E+00 -0.45593999997E+02  0.45594000000E+02  0.51100000000E-03 0. -1.
    9900012    2    1    2    0    0  0.19015135963E+02 -0.11365741415E-02  0.25595800152E+02  0.59301946899E+02  0.50000005236E+02 0.  0.
         12    1    1    2    0    0 -0.19015135963E+02  0.11365741415E-02 -0.25595800152E+02  0.31886053101E+02  0.00000000000E+00 0. -1.
         11    1    3    3    0    0  0.23144131630E+02  0.91108253169E+01 -0.18736974993E+01  0.24943309913E+02  0.51100000000E-03 0. -1.
        -11    1    3    3    0    0  0.48498176584E+01  0.16454767440E+01  0.14060819161E+02  0.14964456581E+02  0.51100000000E-03 0.  1.
        -12    1    3    3    0    0 -0.89788133248E+01 -0.10757438635E+02  0.13408678490E+02  0.19394180405E+02  0.00000000000E+00 0.  1.
</event>
<event>
 7    1  0.3220798E-013  0.5930165E+02  0.7816164E-02  0.1266606E+00
        -11   -1    0    0    0    0  0.00000000000E+00  0.00000000000E+00  0.45593999997E+02  0.45594000000E+02  0.51100000000E-03 0.  1.
         11   -1    0    0    0    0 -0.00000000000E+00 -0.00000000000E+00 -0.45593999997E+02  0.45594000000E+02  0.51100000000E-03 0. -1.
    9900012    2    1    2    0    0  0.29349293995E+02  0.11293084140E+02  0.52748902044E+01  0.59301650662E+02  0.49999464969E+02 0.  0.
         12    1    1    2    0    0 -0.29349293995E+02 -0.11293084140E+02 -0.52748902044E+01  0.31886349338E+02  0.00000000000E+00 0. -1.
         11    1    3    3    0    0  0.21977823024E+02  0.24357331173E+02  0.14949911675E+01  0.32841121869E+02  0.51100000000E-03 0. -1.
        -11    1    3    3    0    0  0.12188366020E+02 -0.49035612941E+00 -0.83476229417E+00  0.12226755240E+02  0.51100000000E-03 0.  1.
         12    1    3    3    0    0 -0.48168950478E+01 -0.12573890904E+02  0.46146613311E+01  0.14233773553E+02  0.00000000000E+00 0. -1.
</event>
<event>
 7    1  0.3220798E-013  0.5930196E+02  0.7816164E-02  0.1266605E+00
        -11   -1    0    0    0    0  0.00000000000E+00  0.00000000000E+00  0.45593999997E+02  0.45594000000E+02  0.51100000000E-03 0. -1.
         11   -1    0    0    0    0 -0.00000000000E+00 -0.00000000000E+00 -0.45593999997E+02  0.45594000000E+02  0.51100000000E-03 0.  1.
    9900012    2    1    2    0    0  0.17162643718E+02 -0.25171501751E+02 -0.94105478796E+01  0.59301964637E+02  0.50000037586E+02 0.  0.
         12    1    1    2    0    0 -0.17162643718E+02  0.25171501751E+02  0.94105478796E+01  0.31886035363E+02  0.00000000000E+00 0. -1.
         11    1    3    3    0    0 -0.39018058914E+01 -0.65303504155E+01  0.13612644273E+02  0.15594026104E+02  0.51100000000E-03 0. -1.
        -11    1    3    3    0    0  0.10659693623E+02  0.40974955840E+01 -0.33817583577E+01  0.11910282451E+02  0.51100000000E-03 0.  1.
        -12    1    3    3    0    0  0.10404755986E+02 -0.22738646919E+02 -0.19641433795E+02  0.31797656083E+02  0.00000000000E+00 0.  1.
</event>
<event>
 7    1  0.3220798E-013  0.5930195E+02  0.7816164E-02  0.1266605E+00
        -11   -1    0    0    0    0  0.00000000000E+00  0.00000000000E+00  0.45593999997E+02  0.45594000000E+02  0.51100000000E-03 0.  1.
         11   -1    0    0    0    0 -0.00000000000E+00 -0.00000000000E+00 -0.45593999997E+02  0.45594000000E+02  0.51100000000E-03 0. -1.
    9900012    2    1    2    0    0  0.25519330646E+02  0.61645088299E+01  0.18096483197E+02  0.59301951172E+02  0.50000013030E+02 0.  0.
         12    1    1    2    0    0 -0.25519330646E+02 -0.61645088299E+01 -0.18096483197E+02  0.31886048828E+02  0.00000000000E+00 0. -1.
         11    1    3    3    0    0  0.27688641373E+02  0.10660876579E+02  0.10619961681E+02  0.31513469134E+02  0.51100000000E-03 0. -1.
        -11    1    3    3    0    0 -0.70677440342E+00  0.19150340543E+01  0.16498444135E+02  0.16624245686E+02  0.51100000000E-03 0.  1.
         12    1    3    3    0    0 -0.14625363229E+01 -0.64114018034E+01 -0.90219226195E+01  0.11164236352E+02  0.00000000000E+00 0. -1.
</event>
<event>
 7    1  0.3220798E-013  0.5930195E+02  0.7816164E-02  0.1266605E+00
        -11   -1    0    0    0    0  0.00000000000E+00  0.00000000000E+00  0.45593999997E+02  0.45594000000E+02  0.51100000000E-03 0.  1.
         11   -1    0    0    0    0 -0.00000000000E+00 -0.00000000000E+00 -0.45593999997E+02  0.45594000000E+02  0.51100000000E-03 0. -1.
    9900012    2    1    2    0    0 -0.15394325979E+02 -0.13498564202E+02  0.24444295567E+02  0.59301951427E+02  0.50000013494E+02 0.  0.
         12    1    1    2    0    0  0.15394325979E+02  0.13498564202E+02 -0.24444295567E+02  0.31886048573E+02  0.00000000000E+00 0. -1.
         11    1    3    3    0    0  0.11433451553E+02 -0.76682683776E+01  0.91687270692E+01  0.16540607929E+02  0.51100000000E-03 0. -1.
        -11    1    3    3    0    0 -0.28915218765E+01 -0.10583444076E+01  0.17946148145E+02  0.18208383375E+02  0.51100000000E-03 0.  1.
         12    1    3    3    0    0 -0.23936255656E+02 -0.47719514163E+01 -0.26705796470E+01  0.24552960123E+02  0.00000000000E+00 0. -1.
</event>
<event>
 7    1  0.3220798E-013  0.5930218E+02  0.7816164E-02  0.1266604E+00
        -11   -1    0    0    0    0  0.00000000000E+00  0.00000000000E+00  0.45593999997E+02  0.45594000000E+02  0.51100000000E-03 0. -1.
         11   -1    0    0    0    0 -0.00000000000E+00 -0.00000000000E+00 -0.45593999997E+02  0.45594000000E+02  0.51100000000E-03 0.  1.
    9900012    2    1    2    0    0 -0.24137596984E+02 -0.14083955751E+02 -0.15353308303E+02  0.59302180681E+02  0.50000431597E+02 0.  0.
         12    1    1    2    0    0  0.24137596984E+02  0.14083955751E+02  0.15353308303E+02  0.31885819319E+02  0.00000000000E+00 0. -1.
         11    1    3    3    0    0  0.67802595687E+01 -0.10660682718E+01  0.23583923340E+00  0.68676081560E+01  0.51100000000E-03 0. -1.
        -11    1    3    3    0    0 -0.35743795456E+01  0.82584682105E+01 -0.15343465087E+02  0.17787647609E+02  0.51100000000E-03 0.  1.
        -12    1    3    3    0    0 -0.27343477007E+02 -0.21276355690E+02 -0.24568244962E+00  0.34646924916E+02  0.00000000000E+00 0.  1.
</event>
<event>
 7    1  0.3220798E-013  0.5930195E+02  0.7816164E-02  0.1266605E+00
        -11   -1    0    0    0    0  0.00000000000E+00  0.00000000000E+00  0.45593999997E+02  0.45594000000E+02  0.51100000000E-03 0. -1.
         11   -1    0    0    0    0 -0.00000000000E+00 -0.00000000000E+00 -0.45593999997E+02  0.45594000000E+02  0.51100000000E-03 0.  1.
    9900012    2    1    2    0    0  0.21206129246E+02 -0.18523342902E+02 -0.14963498170E+02  0.59301946193E+02  0.50000003949E+02 0.  0.
         12    1    1    2    0    0 -0.21206129246E+02  0.18523342902E+02  0.14963498170E+02  0.31886053807E+02  0.00000000000E+00 0. -1.
         11    1    3    3    0    0 -0.39647108349E+01  0.93490006032E+00  0.18384871560E+01  0.44691168491E+01  0.51100000000E-03 0. -1.
        -11    1    3    3    0    0  0.10369761785E+02 -0.35126003957E+01  0.13592923618E+02  0.17453879047E+02  0.51100000000E-03 0.  1.
        -12    1    3    3    0    0  0.14801078296E+02 -0.15945642567E+02 -0.30394908945E+02  0.37378950297E+02  0.00000000000E+00 0.  1.
</event>
<event>
 7    1  0.3220798E-013  0.5930187E+02  0.7816164E-02  0.1266605E+00
        -11   -1    0    0    0    0  0.00000000000E+00  0.00000000000E+00  0.45593999997E+02  0.45594000000E+02  0.51100000000E-03 0. -1.
         11   -1    0    0    0    0 -0.00000000000E+00 -0.00000000000E+00 -0.45593999997E+02  0.45594000000E+02  0.51100000000E-03 0.  1.
    9900012    2    1    2    0    0 -0.28164378301E+02 -0.12746452601E+02 -0.78115797545E+01  0.59301873906E+02  0.49999872115E+02 0.  0.
         12    1    1    2    0    0  0.28164378301E+02  0.12746452601E+02  0.78115797545E+01  0.31886126094E+02  0.00000000000E+00 0. -1.
         11    1    3    3    0    0 -0.57430192980E+01  0.10703104645E+01  0.57722265260E+01  0.82125778216E+01  0.51100000000E-03 0. -1.
        -11    1    3    3    0    0 -0.34477360858E+02 -0.73575592254E+01 -0.71373200154E+01  0.35968923069E+02  0.51100000000E-03 0.  1.
         12    1    3    3    0    0  0.12056001855E+02 -0.64592038400E+01 -0.64464862651E+01  0.15120373016E+02  0.00000000000E+00 0. -1.
</event>
<event>
 7    1  0.3220798E-013  0.5930193E+02  0.7816164E-02  0.1266605E+00
        -11   -1    0    0    0    0  0.00000000000E+00  0.00000000000E+00  0.45593999997E+02  0.45594000000E+02  0.51100000000E-03 0. -1.
         11   -1    0    0    0    0 -0.00000000000E+00 -0.00000000000E+00 -0.45593999997E+02  0.45594000000E+02  0.51100000000E-03 0.  1.
    9900012    2    1    2    0    0  0.28962640787E+02 -0.13305806229E+02 -0.91775236114E+00  0.59301932351E+02  0.49999978704E+02 0.  0.
         12    1    1    2    0    0 -0.28962640787E+02  0.13305806229E+02  0.91775236114E+00  0.31886067649E+02  0.00000000000E+00 0. -1.
         11    1    3    3    0    0  0.26253815576E+02 -0.15028843419E+02  0.95470688658E+01  0.31721845643E+02  0.51100000000E-03 0. -1.
        -11    1    3    3    0    0  0.10204968730E+01 -0.99913110075E+01 -0.11996984358E+02  0.15645936964E+02  0.51100000000E-03 0.  1.
        -12    1    3    3    0    0  0.16883283374E+01  0.11714348197E+02  0.15321631313E+01  0.11934149744E+02  0.00000000000E+00 0.  1.
</event>
<event>
 7    1  0.3220798E-013  0.5930191E+02  0.7816164E-02  0.1266605E+00
        -11   -1    0    0    0    0  0.00000000000E+00  0.00000000000E+00  0.45593999997E+02  0.45594000000E+02  0.51100000000E-03 0.  1.
         11   -1    0    0    0    0 -0.00000000000E+00 -0.00000000000E+00 -0.45593999997E+02  0.45594000000E+02  0.51100000000E-03 0. -1.
    9900012    2    1    2    0    0 -0.26795794766E+02 -0.16724084331E+02 -0.43604310353E+01  0.59301906281E+02  0.49999931159E+02 0.  0.
         12    1    1    2    0    0  0.26795794766E+02  0.16724084331E+02  0.43604310353E+01  0.31886093719E+02  0.00000000000E+00 0. -1.
         11    1    3    3    0    0 -0.60405405109E+01 -0.16843574589E+02 -0.15428607320E+02  0.23627019674E+02  0.51100000000E-03 0. -1.
        -11    1    3    3    0    0 -0.12315068416E+02  0.93255013803E+01 -0.41427985541E+01  0.15993394456E+02  0.51100000000E-03 0.  1.
        -12    1    3    3    0    0 -0.84401858389E+01 -0.92060111223E+01  0.15210974838E+02  0.19681492152E+02  0.00000000000E+00 0.  1.
</event>
<event>
 7    1  0.3220798E-013  0.5930198E+02  0.7816164E-02  0.1266605E+00
        -11   -1    0    0    0    0  0.00000000000E+00  0.00000000000E+00  0.45593999997E+02  0.45594000000E+02  0.51100000000E-03 0.  1.
         11   -1    0    0    0    0 -0.00000000000E+00 -0.00000000000E+00 -0.45593999997E+02  0.45594000000E+02  0.51100000000E-03 0. -1.
    9900012    2    1    2    0    0  0.52932383112E+01  0.24961097030E+02  0.19121815500E+02  0.59301975401E+02  0.50000057217E+02 0.  0.
         12    1    1    2    0    0 -0.52932383112E+01 -0.24961097030E+02 -0.19121815500E+02  0.31886024599E+02  0.00000000000E+00 0. -1.
         11    1    3    3    0    0  0.94158110522E+01  0.46501122275E+01 -0.68125412928E+01  0.12517657953E+02  0.51100000000E-03 0. -1.
        -11    1    3    3    0    0 -0.37417940388E+00  0.15770729053E+02 -0.40016739120E+01  0.16274805665E+02  0.51100000000E-03 0.  1.
        -12    1    3    3    0    0 -0.37483933371E+01  0.45402557495E+01  0.29936030704E+02  0.30509511783E+02  0.00000000000E+00 0.  1.
</event>
<event>
 7    1  0.3220798E-013  0.5930190E+02  0.7816164E-02  0.1266605E+00
        -11   -1    0    0    0    0  0.00000000000E+00  0.00000000000E+00  0.45593999997E+02  0.45594000000E+02  0.51100000000E-03 0.  1.
         11   -1    0    0    0    0 -0.00000000000E+00 -0.00000000000E+00 -0.45593999997E+02  0.45594000000E+02  0.51100000000E-03 0. -1.
    9900012    2    1    2    0    0 -0.16710787412E+01 -0.27389771988E+02 -0.16239800112E+02  0.59301902381E+02  0.49999924046E+02 0.  0.
         12    1    1    2    0    0  0.16710787412E+01  0.27389771988E+02  0.16239800112E+02  0.31886097619E+02  0.00000000000E+00 0. -1.
         11    1    3    3    0    0  0.60438114824E+01  0.79806890925E+01 -0.14825483309E+02  0.17888935442E+02  0.51100000000E-03 0. -1.
        -11    1    3    3    0    0 -0.38745657340E+01 -0.14563864232E+01 -0.56675627182E+01  0.70181613309E+01  0.51100000000E-03 0.  1.
        -12    1    3    3    0    0 -0.38403244896E+01 -0.33914074657E+02  0.42532459156E+01  0.34394805608E+02  0.00000000000E+00 0.  1.
</event>
<event>
 7    1  0.3220798E-013  0.5930194E+02  0.7816164E-02  0.1266605E+00
        -11   -1    0    0    0    0  0.00000000000E+00  0.00000000000E+00  0.45593999997E+02  0.45594000000E+02  0.51100000000E-03 0.  1.
         11   -1    0    0    0    0 -0.00000000000E+00 -0.00000000000E+00 -0.45593999997E+02  0.45594000000E+02  0.51100000000E-03 0. -1.
    9900012    2    1    2    0    0 -0.17346890282E+02 -0.95614760196E+01 -0.24987687069E+02  0.59301938292E+02  0.49999989540E+02 0.  0.
         12    1    1    2    0    0  0.17346890282E+02  0.95614760196E+01  0.24987687069E+02  0.31886061708E+02  0.00000000000E+00 0. -1.
         11    1    3    3    0    0 -0.23069467188E+02  0.10997420241E+01 -0.30635849361E+02  0.38366196256E+02  0.51100000000E-03 0. -1.
        -11    1    3    3    0    0 -0.44116373942E+01 -0.36448998276E+01 -0.24100664511E+01  0.62093687127E+01  0.51100000000E-03 0.  1.
         12    1    3    3    0    0  0.10134214300E+02 -0.70163182161E+01  0.80582287424E+01  0.14726373323E+02  0.00000000000E+00 0. -1.
</event>
<event>
 7    1  0.3220798E-013  0.5930195E+02  0.7816164E-02  0.1266605E+00
        -11   -1    0    0    0    0  0.00000000000E+00  0.00000000000E+00  0.45593999997E+02  0.45594000000E+02  0.51100000000E-03 0. -1.
         11   -1    0    0    0    0 -0.00000000000E+00 -0.00000000000E+00 -0.45593999997E+02  0.45594000000E+02  0.51100000000E-03 0.  1.
    9900012    2    1    2    0    0 -0.26384701537E+02 -0.21738578453E+01  0.17771942835E+02  0.59301951558E+02  0.50000013733E+02 0.  0.
         12    1    1    2    0    0  0.26384701537E+02  0.21738578453E+01 -0.17771942835E+02  0.31886048442E+02  0.00000000000E+00 0. -1.
         11    1    3    3    0    0  0.53637810641E+01  0.10215763069E+02 -0.55796138548E+01  0.12816553882E+02  0.51100000000E-03 0.  1.
        -11    1    3    3    0    0 -0.13003413923E+02 -0.11683939165E+02  0.12929439780E+01  0.17529258753E+02  0.51100000000E-03 0. -1.
        -12    1    3    3    0    0 -0.18745068679E+02 -0.70568174960E+00  0.22058612712E+02  0.28956138922E+02  0.00000000000E+00 0.  1.
</event>
<event>
 7    1  0.3220798E-013  0.5930180E+02  0.7816164E-02  0.1266605E+00
        -11   -1    0    0    0    0  0.00000000000E+00  0.00000000000E+00  0.45593999997E+02  0.45594000000E+02  0.51100000000E-03 0.  1.
         11   -1    0    0    0    0 -0.00000000000E+00 -0.00000000000E+00 -0.45593999997E+02  0.45594000000E+02  0.51100000000E-03 0. -1.
    9900012    2    1    2    0    0 -0.11412548975E+02  0.26739949588E+02  0.13094224427E+02  0.59301797789E+02  0.49999733295E+02 0.  0.
         12    1    1    2    0    0  0.11412548975E+02 -0.26739949588E+02 -0.13094224427E+02  0.31886202211E+02  0.00000000000E+00 0. -1.
         11    1    3    3    0    0 -0.33950342404E+01  0.31030617105E+02  0.51646936634E+01  0.31640156705E+02  0.51100000000E-03 0. -1.
        -11    1    3    3    0    0 -0.11319114294E+02  0.75884252625E+01  0.69394936644E+01  0.15292583789E+02  0.51100000000E-03 0.  1.
        -12    1    3    3    0    0  0.33015995588E+01 -0.11879092780E+02  0.99003709884E+00  0.12369057295E+02  0.00000000000E+00 0.  1.
</event>
<event>
 7    1  0.3220798E-013  0.5930195E+02  0.7816164E-02  0.1266605E+00
        -11   -1    0    0    0    0  0.00000000000E+00  0.00000000000E+00  0.45593999997E+02  0.45594000000E+02  0.51100000000E-03 0. -1.
         11   -1    0    0    0    0 -0.00000000000E+00 -0.00000000000E+00 -0.45593999997E+02  0.45594000000E+02  0.51100000000E-03 0.  1.
    9900012    2    1    2    0    0 -0.46288808221E-01 -0.31871902633E+02  0.94876586182E+00  0.59301945418E+02  0.50000002536E+02 0.  0.
         12    1    1    2    0    0  0.46288808221E-01  0.31871902633E+02 -0.94876586182E+00  0.31886054582E+02  0.00000000000E+00 0. -1.
         11    1    3    3    0    0 -0.67255227062E+01 -0.11940729349E+02  0.57176195570E+01  0.14849405601E+02  0.51100000000E-03 0. -1.
        -11    1    3    3    0    0 -0.99451695994E+01 -0.82004489674E+01 -0.16521947380E+02  0.20955393271E+02  0.51100000000E-03 0.  1.
        -12    1    3    3    0    0  0.16624403497E+02 -0.11730724317E+02  0.11753093685E+02  0.23497146546E+02  0.00000000000E+00 0.  1.
</event>
<event>
 7    1  0.3220798E-013  0.5930195E+02  0.7816164E-02  0.1266605E+00
        -11   -1    0    0    0    0  0.00000000000E+00  0.00000000000E+00  0.45593999997E+02  0.45594000000E+02  0.51100000000E-03 0.  1.
         11   -1    0    0    0    0 -0.00000000000E+00 -0.00000000000E+00 -0.45593999997E+02  0.45594000000E+02  0.51100000000E-03 0. -1.
    9900012    2    1    2    0    0 -0.54556332645E+01 -0.29900381760E+01  0.31273249962E+02  0.59301946217E+02  0.50000003994E+02 0.  0.
         12    1    1    2    0    0  0.54556332645E+01  0.29900381760E+01 -0.31273249962E+02  0.31886053783E+02  0.00000000000E+00 0. -1.
         11    1    3    3    0    0  0.41249534092E+01  0.22505938323E+01 -0.18042570129E+01  0.50334637036E+01  0.51100000000E-03 0. -1.
        -11    1    3    3    0    0  0.10557830621E+02 -0.13382785635E+02  0.32234996307E+01  0.17348132145E+02  0.51100000000E-03 0.  1.
        -12    1    3    3    0    0 -0.20138417295E+02  0.81421536270E+01  0.29854007345E+02  0.36920350369E+02  0.00000000000E+00 0.  1.
</event>
<event>
 7    1  0.3220798E-013  0.5930196E+02  0.7816164E-02  0.1266605E+00
        -11   -1    0    0    0    0  0.00000000000E+00  0.00000000000E+00  0.45593999997E+02  0.45594000000E+02  0.51100000000E-03 0.  1.
         11   -1    0    0    0    0 -0.00000000000E+00 -0.00000000000E+00 -0.45593999997E+02  0.45594000000E+02  0.51100000000E-03 0. -1.
    9900012    2    1    2    0    0  0.21689521832E+00 -0.24871674944E+02  0.19951756198E+02  0.59301955506E+02  0.50000020934E+02 0.  0.
         12    1    1    2    0    0 -0.21689521832E+00  0.24871674944E+02 -0.19951756198E+02  0.31886044494E+02  0.00000000000E+00 0. -1.
         11    1    3    3    0    0 -0.17104346420E+02 -0.82373239904E+01  0.47611740415E+00  0.18990493964E+02  0.51100000000E-03 0. -1.
        -11    1    3    3    0    0  0.56938221822E+01  0.50263901877E+01  0.12721621483E+02  0.14816337698E+02  0.51100000000E-03 0.  1.
        -12    1    3    3    0    0  0.11627419456E+02 -0.21660741142E+02  0.67540173115E+01  0.25495123844E+02  0.00000000000E+00 0.  1.
</event>
<event>
 7    1  0.3220798E-013  0.5930196E+02  0.7816164E-02  0.1266605E+00
        -11   -1    0    0    0    0  0.00000000000E+00  0.00000000000E+00  0.45593999997E+02  0.45594000000E+02  0.51100000000E-03 0. -1.
         11   -1    0    0    0    0 -0.00000000000E+00 -0.00000000000E+00 -0.45593999997E+02  0.45594000000E+02  0.51100000000E-03 0.  1.
    9900012    2    1    2    0    0 -0.18649416280E+02 -0.10038097089E+02 -0.23836008429E+02  0.59301962012E+02  0.50000032799E+02 0.  0.
         12    1    1    2    0    0  0.18649416280E+02  0.10038097089E+02  0.23836008429E+02  0.31886037988E+02  0.00000000000E+00 0. -1.
         11    1    3    3    0    0  0.10985314703E+02 -0.33391987648E+01 -0.76494299872E+01  0.13796418626E+02  0.51100000000E-03 0. -1.
        -11    1    3    3    0    0 -0.11008646366E+00 -0.36026434513E+00 -0.15290203409E+02  0.15294843248E+02  0.51100000000E-03 0.  1.
        -12    1    3    3    0    0 -0.29524644519E+02 -0.63386339791E+01 -0.89637503283E+00  0.30210700139E+02  0.00000000000E+00 0.  1.
</event>
<event>
 7    1  0.3220798E-013  0.5930196E+02  0.7816164E-02  0.1266605E+00
        -11   -1    0    0    0    0  0.00000000000E+00  0.00000000000E+00  0.45593999997E+02  0.45594000000E+02  0.51100000000E-03 0.  1.
         11   -1    0    0    0    0 -0.00000000000E+00 -0.00000000000E+00 -0.45593999997E+02  0.45594000000E+02  0.51100000000E-03 0. -1.
    9900012    2    1    2    0    0  0.29493866989E+02 -0.46973427190E+01  0.11169884437E+02  0.59301960156E+02  0.50000029415E+02 0.  0.
         12    1    1    2    0    0 -0.29493866989E+02  0.46973427190E+01 -0.11169884437E+02  0.31886039844E+02  0.00000000000E+00 0. -1.
         11    1    3    3    0    0  0.53889066706E+01  0.98110612231E+01 -0.52192670422E+01  0.12350626954E+02  0.51100000000E-03 0. -1.
        -11    1    3    3    0    0 -0.39758597519E+01  0.50170909716E+01  0.10424518632E+02  0.12233121088E+02  0.51100000000E-03 0.  1.
        -12    1    3    3    0    0  0.28080820070E+02 -0.19525494914E+02  0.59646328475E+01  0.34718212115E+02  0.00000000000E+00 0.  1.
</event>
<event>
 7    1  0.3220798E-013  0.5930194E+02  0.7816164E-02  0.1266605E+00
        -11   -1    0    0    0    0  0.00000000000E+00  0.00000000000E+00  0.45593999997E+02  0.45594000000E+02  0.51100000000E-03 0.  1.
         11   -1    0    0    0    0 -0.00000000000E+00 -0.00000000000E+00 -0.45593999997E+02  0.45594000000E+02  0.51100000000E-03 0. -1.
    9900012    2    1    2    0    0  0.72392570989E+01  0.15586026727E+02  0.26858699348E+02  0.59301940301E+02  0.49999993203E+02 0.  0.
         12    1    1    2    0    0 -0.72392570989E+01 -0.15586026727E+02 -0.26858699348E+02  0.31886059699E+02  0.00000000000E+00 0. -1.
         11    1    3    3    0    0 -0.49541838819E+01  0.92913505861E+01 -0.64367049363E+01  0.12341163006E+02  0.51100000000E-03 0. -1.
        -11    1    3    3    0    0  0.33548287532E+01  0.11116611798E+02 -0.57455069872E+00  0.11626007164E+02  0.51100000000E-03 0.  1.
         12    1    3    3    0    0  0.88386122276E+01 -0.48219356564E+01  0.33869954983E+02  0.35334770130E+02  0.00000000000E+00 0. -1.
</event>
<event>
 7    1  0.3220798E-013  0.5930196E+02  0.7816164E-02  0.1266605E+00
        -11   -1    0    0    0    0  0.00000000000E+00  0.00000000000E+00  0.45593999997E+02  0.45594000000E+02  0.51100000000E-03 0.  1.
         11   -1    0    0    0    0 -0.00000000000E+00 -0.00000000000E+00 -0.45593999997E+02  0.45594000000E+02  0.51100000000E-03 0. -1.
    9900012    2    1    2    0    0  0.11160544941E+02 -0.66412815443E+01  0.29121388874E+02  0.59301958009E+02  0.50000025498E+02 0.  0.
         12    1    1    2    0    0 -0.11160544941E+02  0.66412815443E+01 -0.29121388874E+02  0.31886041991E+02  0.00000000000E+00 0. -1.
         11    1    3    3    0    0  0.71840362347E+01 -0.41856397296E+01  0.70447872295E+01  0.10897659562E+02  0.51100000000E-03 0. -1.
        -11    1    3    3    0    0  0.31390233471E+01  0.14078847509E+02  0.27440988153E+02  0.31001213618E+02  0.51100000000E-03 0.  1.
         12    1    3    3    0    0  0.83748535906E+00 -0.16534489324E+02 -0.53643865085E+01  0.17403084828E+02  0.00000000000E+00 0. -1.
</event>
<event>
 7    1  0.3220798E-013  0.5930191E+02  0.7816164E-02  0.1266605E+00
        -11   -1    0    0    0    0  0.00000000000E+00  0.00000000000E+00  0.45593999997E+02  0.45594000000E+02  0.51100000000E-03 0.  1.
         11   -1    0    0    0    0 -0.00000000000E+00 -0.00000000000E+00 -0.45593999997E+02  0.45594000000E+02  0.51100000000E-03 0. -1.
    9900012    2    1    2    0    0  0.26742761593E+02 -0.17341734426E+02  0.90107440400E+00  0.59301906078E+02  0.49999930789E+02 0.  0.
         12    1    1    2    0    0 -0.26742761593E+02  0.17341734426E+02 -0.90107440400E+00  0.31886093922E+02  0.00000000000E+00 0. -1.
         11    1    3    3    0    0 -0.76319140577E+01 -0.93154821642E+01 -0.67425001589E+01  0.13801653118E+02  0.51100000000E-03 0. -1.
        -11    1    3    3    0    0  0.12486256498E+02 -0.10382123805E+02  0.15182165470E+02  0.22230457590E+02  0.51100000000E-03 0.  1.
        -12    1    3    3    0    0  0.21888419152E+02  0.23558715435E+01 -0.75385909067E+01  0.23269795370E+02  0.00000000000E+00 0.  1.
</event>
<event>
 7    1  0.3220798E-013  0.5930193E+02  0.7816164E-02  0.1266605E+00
        -11   -1    0    0    0    0  0.00000000000E+00  0.00000000000E+00  0.45593999997E+02  0.45594000000E+02  0.51100000000E-03 0.  1.
         11   -1    0    0    0    0 -0.00000000000E+00 -0.00000000000E+00 -0.45593999997E+02  0.45594000000E+02  0.51100000000E-03 0. -1.
    9900012    2    1    2    0    0 -0.27729953266E+02  0.12255039574E+01  0.15692976091E+02  0.59301926760E+02  0.49999968508E+02 0.  0.
         12    1    1    2    0    0  0.27729953266E+02 -0.12255039574E+01 -0.15692976091E+02  0.31886073240E+02  0.00000000000E+00 0. -1.
         11    1    3    3    0    0 -0.16613474693E+01 -0.29788540405E+01  0.32283120445E+01  0.46963438679E+01  0.51100000000E-03 0. -1.
        -11    1    3    3    0    0 -0.36708472148E+00  0.11027677836E+02  0.23386099135E+02  0.25858346093E+02  0.51100000000E-03 0.  1.
         12    1    3    3    0    0 -0.25701521075E+02 -0.68233198381E+01 -0.10921435088E+02  0.28747236799E+02  0.00000000000E+00 0. -1.
</event>
<event>
 7    1  0.3220798E-013  0.5930195E+02  0.7816164E-02  0.1266605E+00
        -11   -1    0    0    0    0  0.00000000000E+00  0.00000000000E+00  0.45593999997E+02  0.45594000000E+02  0.51100000000E-03 0.  1.
         11   -1    0    0    0    0 -0.00000000000E+00 -0.00000000000E+00 -0.45593999997E+02  0.45594000000E+02  0.51100000000E-03 0. -1.
    9900012    2    1    2    0    0 -0.13265934566E+02  0.27648055312E+02  0.87361597310E+01  0.59301945536E+02  0.50000002750E+02 0.  0.
         12    1    1    2    0    0  0.13265934566E+02 -0.27648055312E+02 -0.87361597310E+01  0.31886054464E+02  0.00000000000E+00 0. -1.
         11    1    3    3    0    0 -0.32514285579E+01 -0.56589080420E+01  0.73002632673E+01  0.97922863484E+01  0.51100000000E-03 0. -1.
        -11    1    3    3    0    0 -0.67210420745E+01  0.61539469577E+01  0.16081078062E+02  0.18483629016E+02  0.51100000000E-03 0.  1.
         12    1    3    3    0    0 -0.32934639333E+01  0.27153016397E+02 -0.14645181598E+02  0.31026030171E+02  0.00000000000E+00 0. -1.
</event>
<event>
 7    1  0.3220798E-013  0.5930193E+02  0.7816164E-02  0.1266605E+00
        -11   -1    0    0    0    0  0.00000000000E+00  0.00000000000E+00  0.45593999997E+02  0.45594000000E+02  0.51100000000E-03 0. -1.
         11   -1    0    0    0    0 -0.00000000000E+00 -0.00000000000E+00 -0.45593999997E+02  0.45594000000E+02  0.51100000000E-03 0.  1.
    9900012    2    1    2    0    0 -0.29680270559E+02  0.85563747173E+01 -0.79114739508E+01  0.59301930489E+02  0.49999975309E+02 0.  0.
         12    1    1    2    0    0  0.29680270559E+02 -0.85563747173E+01  0.79114739508E+01  0.31886069511E+02  0.00000000000E+00 0. -1.
         11    1    3    3    0    0 -0.16184371111E+02  0.70679341112E+01 -0.13026099903E+02  0.21944676798E+02  0.51100000000E-03 0. -1.
        -11    1    3    3    0    0 -0.43815213527E+01  0.31762875491E+00 -0.14792780404E+02  0.15431298381E+02  0.51100000000E-03 0.  1.
         12    1    3    3    0    0 -0.91143780958E+01  0.11708118513E+01  0.19907406356E+02  0.21925955310E+02  0.00000000000E+00 0. -1.
</event>
<event>
 7    1  0.3220798E-013  0.5930188E+02  0.7816164E-02  0.1266605E+00
        -11   -1    0    0    0    0  0.00000000000E+00  0.00000000000E+00  0.45593999997E+02  0.45594000000E+02  0.51100000000E-03 0.  1.
         11   -1    0    0    0    0 -0.00000000000E+00 -0.00000000000E+00 -0.45593999997E+02  0.45594000000E+02  0.51100000000E-03 0. -1.
    9900012    2    1    2    0    0  0.15900577347E+02  0.27585436632E+02 -0.17147084838E+01  0.59301876070E+02  0.49999876060E+02 0.  0.
         12    1    1    2    0    0 -0.15900577347E+02 -0.27585436632E+02  0.17147084838E+01  0.31886123930E+02  0.00000000000E+00 0. -1.
         11    1    3    3    0    0  0.91419723133E+01  0.97891571759E+01 -0.12977054983E+02  0.18649590137E+02  0.51100000000E-03 0. -1.
        -11    1    3    3    0    0  0.18707216207E+02  0.18409312065E+02  0.11571806822E+02  0.28683957577E+02  0.51100000000E-03 0.  1.
         12    1    3    3    0    0 -0.11948611173E+02 -0.61303260907E+00 -0.30946032354E+00  0.11968328356E+02  0.00000000000E+00 0. -1.
</event>
<event>
 7    1  0.3220798E-013  0.5930195E+02  0.7816164E-02  0.1266605E+00
        -11   -1    0    0    0    0  0.00000000000E+00  0.00000000000E+00  0.45593999997E+02  0.45594000000E+02  0.51100000000E-03 0.  1.
         11   -1    0    0    0    0 -0.00000000000E+00 -0.00000000000E+00 -0.45593999997E+02  0.45594000000E+02  0.51100000000E-03 0. -1.
    9900012    2    1    2    0    0 -0.21402229966E+02 -0.18180780483E+02  0.15103782170E+02  0.59301945645E+02  0.50000002949E+02 0.  0.
         12    1    1    2    0    0  0.21402229966E+02  0.18180780483E+02 -0.15103782170E+02  0.31886054355E+02  0.00000000000E+00 0. -1.
         11    1    3    3    0    0 -0.14660030576E+02  0.77809036233E+01  0.20086878001E+02  0.26056508319E+02  0.51100000000E-03 0. -1.
        -11    1    3    3    0    0 -0.93018160600E+01 -0.30465097265E+01 -0.90328874155E+00  0.98295948207E+01  0.51100000000E-03 0.  1.
        -12    1    3    3    0    0  0.25596166699E+01 -0.22915174380E+02 -0.40798070892E+01  0.23415842506E+02  0.00000000000E+00 0.  1.
</event>
<event>
 7    1  0.3220798E-013  0.5930193E+02  0.7816164E-02  0.1266605E+00
        -11   -1    0    0    0    0  0.00000000000E+00  0.00000000000E+00  0.45593999997E+02  0.45594000000E+02  0.51100000000E-03 0.  1.
         11   -1    0    0    0    0 -0.00000000000E+00 -0.00000000000E+00 -0.45593999997E+02  0.45594000000E+02  0.51100000000E-03 0. -1.
    9900012    2    1    2    0    0 -0.28654157275E+02 -0.42819122828E+01 -0.13316387442E+02  0.59301926606E+02  0.49999968228E+02 0.  0.
         12    1    1    2    0    0  0.28654157275E+02  0.42819122828E+01  0.13316387442E+02  0.31886073394E+02  0.00000000000E+00 0. -1.
         11    1    3    3    0    0 -0.14006398071E+02 -0.19407555147E+02  0.75853730650E+01  0.25107175638E+02  0.51100000000E-03 0. -1.
        -11    1    3    3    0    0 -0.14591279366E+02  0.10743361799E+02 -0.66780931495E+01  0.19311193248E+02  0.51100000000E-03 0.  1.
        -12    1    3    3    0    0 -0.56479838253E-01  0.43822810653E+01 -0.14223667358E+02  0.14883557720E+02  0.00000000000E+00 0.  1.
</event>
<event>
 7    1  0.3220798E-013  0.5930195E+02  0.7816164E-02  0.1266605E+00
        -11   -1    0    0    0    0  0.00000000000E+00  0.00000000000E+00  0.45593999997E+02  0.45594000000E+02  0.51100000000E-03 0.  1.
         11   -1    0    0    0    0 -0.00000000000E+00 -0.00000000000E+00 -0.45593999997E+02  0.45594000000E+02  0.51100000000E-03 0. -1.
    9900012    2    1    2    0    0  0.21601018507E+02  0.13884234491E+02  0.18903548951E+02  0.59301950842E+02  0.50000012428E+02 0.  0.
         12    1    1    2    0    0 -0.21601018507E+02 -0.13884234491E+02 -0.18903548951E+02  0.31886049158E+02  0.00000000000E+00 0. -1.
         11    1    3    3    0    0  0.12224693668E+02 -0.51776541075E+01  0.40470157676E+01  0.13879105671E+02  0.51100000000E-03 0. -1.
        -11    1    3    3    0    0 -0.12769288441E+02 -0.61938582270E+00  0.77680275242E+01  0.14959298713E+02  0.51100000000E-03 0.  1.
         12    1    3    3    0    0  0.22145613280E+02  0.19681274421E+02  0.70885056596E+01  0.30463546459E+02  0.00000000000E+00 0. -1.
</event>
<event>
 7    1  0.3220798E-013  0.5930195E+02  0.7816164E-02  0.1266605E+00
        -11   -1    0    0    0    0  0.00000000000E+00  0.00000000000E+00  0.45593999997E+02  0.45594000000E+02  0.51100000000E-03 0. -1.
         11   -1    0    0    0    0 -0.00000000000E+00 -0.00000000000E+00 -0.45593999997E+02  0.45594000000E+02  0.51100000000E-03 0.  1.
    9900012    2    1    2    0    0 -0.62598227230E+01 -0.30478389697E+02  0.69715687827E+01  0.59301946774E+02  0.50000005008E+02 0.  0.
         12    1    1    2    0    0  0.62598227230E+01  0.30478389697E+02 -0.69715687827E+01  0.31886053226E+02  0.00000000000E+00 0. -1.
         11    1    3    3    0    0 -0.16889524353E+02 -0.18723012071E+02  0.27273823060E+01  0.25362291465E+02  0.51100000000E-03 0. -1.
        -11    1    3    3    0    0 -0.59612180491E+01  0.58147380481E+01 -0.27712485714E+01  0.87765094487E+01  0.51100000000E-03 0.  1.
        -12    1    3    3    0    0  0.16590919679E+02 -0.17570115675E+02  0.70154350482E+01  0.25163145860E+02  0.00000000000E+00 0.  1.
</event>
<event>
 7    1  0.3220798E-013  0.5930193E+02  0.7816164E-02  0.1266605E+00
        -11   -1    0    0    0    0  0.00000000000E+00  0.00000000000E+00  0.45593999997E+02  0.45594000000E+02  0.51100000000E-03 0. -1.
         11   -1    0    0    0    0 -0.00000000000E+00 -0.00000000000E+00 -0.45593999997E+02  0.45594000000E+02  0.51100000000E-03 0.  1.
    9900012    2    1    2    0    0 -0.27367097321E+02  0.58673330263E+01  0.15275390870E+02  0.59301934409E+02  0.49999982458E+02 0.  0.
         12    1    1    2    0    0  0.27367097321E+02 -0.58673330263E+01 -0.15275390870E+02  0.31886065591E+02  0.00000000000E+00 0. -1.
         11    1    3    3    0    0 -0.20598924279E+02  0.15266252827E+02 -0.41017832954E+01  0.25965338112E+02  0.51100000000E-03 0.  1.
        -11    1    3    3    0    0 -0.13167146899E+02 -0.50513967600E+01  0.19082942383E+01  0.14231372170E+02  0.51100000000E-03 0. -1.
         12    1    3    3    0    0  0.63989738570E+01 -0.43475230407E+01  0.17468879927E+02  0.19105224127E+02  0.00000000000E+00 0. -1.
</event>
<event>
 7    1  0.3220798E-013  0.5930184E+02  0.7816164E-02  0.1266605E+00
        -11   -1    0    0    0    0  0.00000000000E+00  0.00000000000E+00  0.45593999997E+02  0.45594000000E+02  0.51100000000E-03 0. -1.
         11   -1    0    0    0    0 -0.00000000000E+00 -0.00000000000E+00 -0.45593999997E+02  0.45594000000E+02  0.51100000000E-03 0.  1.
    9900012    2    1    2    0    0  0.21264523360E+02 -0.21572038258E+02 -0.99596358439E+01  0.59301841020E+02  0.49999812138E+02 0.  0.
         12    1    1    2    0    0 -0.21264523360E+02  0.21572038258E+02  0.99596358439E+01  0.31886158980E+02  0.00000000000E+00 0. -1.
         11    1    3    3    0    0 -0.66460141440E+01 -0.10645882458E+01  0.10505942649E+02  0.12477086332E+02  0.51100000000E-03 0. -1.
        -11    1    3    3    0    0  0.32168974072E+01 -0.13721859306E+02 -0.82414947451E-01  0.14094135100E+02  0.51100000000E-03 0.  1.
        -12    1    3    3    0    0  0.24693640097E+02 -0.67855907069E+01 -0.20383163546E+02  0.32730619588E+02  0.00000000000E+00 0.  1.
</event>
<event>
 7    1  0.3220798E-013  0.5930222E+02  0.7816164E-02  0.1266604E+00
        -11   -1    0    0    0    0  0.00000000000E+00  0.00000000000E+00  0.45593999997E+02  0.45594000000E+02  0.51100000000E-03 0.  1.
         11   -1    0    0    0    0 -0.00000000000E+00 -0.00000000000E+00 -0.45593999997E+02  0.45594000000E+02  0.51100000000E-03 0. -1.
    9900012    2    1    2    0    0  0.14995574285E+02  0.20357479253E+02  0.19427005394E+02  0.59302223418E+02  0.50000509538E+02 0.  0.
         12    1    1    2    0    0 -0.14995574285E+02 -0.20357479253E+02 -0.19427005394E+02  0.31885776582E+02  0.00000000000E+00 0. -1.
         11    1    3    3    0    0  0.22785029266E+02  0.46117008402E+01  0.12709624574E+02  0.26494525856E+02  0.51100000000E-03 0. -1.
        -11    1    3    3    0    0  0.12632664114E+00  0.54769082045E+01 -0.10149283606E+02  0.11533448742E+02  0.51100000000E-03 0.  1.
        -12    1    3    3    0    0 -0.79157816213E+01  0.10268870208E+02  0.16866664426E+02  0.21274248820E+02  0.00000000000E+00 0.  1.
</event>
<event>
 7    1  0.3220798E-013  0.5930196E+02  0.7816164E-02  0.1266605E+00
        -11   -1    0    0    0    0  0.00000000000E+00  0.00000000000E+00  0.45593999997E+02  0.45594000000E+02  0.51100000000E-03 0.  1.
         11   -1    0    0    0    0 -0.00000000000E+00 -0.00000000000E+00 -0.45593999997E+02  0.45594000000E+02  0.51100000000E-03 0. -1.
    9900012    2    1    2    0    0  0.10149450917E+02 -0.27859270547E+02  0.11728988304E+02  0.59301961112E+02  0.50000031157E+02 0.  0.
         12    1    1    2    0    0 -0.10149450917E+02  0.27859270547E+02 -0.11728988304E+02  0.31886038888E+02  0.00000000000E+00 0. -1.
         11    1    3    3    0    0 -0.71849368708E+01  0.10512050923E+02 -0.19171616155E+01  0.12876414150E+02  0.51100000000E-03 0. -1.
        -11    1    3    3    0    0  0.11487691818E+02 -0.12249178628E+02  0.96274919349E+01  0.19357118628E+02  0.51100000000E-03 0.  1.
        -12    1    3    3    0    0  0.58466959692E+01 -0.26122142843E+02  0.40186579848E+01  0.27068428333E+02  0.00000000000E+00 0.  1.
</event>
<event>
 7    1  0.3220798E-013  0.5930198E+02  0.7816164E-02  0.1266605E+00
        -11   -1    0    0    0    0  0.00000000000E+00  0.00000000000E+00  0.45593999997E+02  0.45594000000E+02  0.51100000000E-03 0.  1.
         11   -1    0    0    0    0 -0.00000000000E+00 -0.00000000000E+00 -0.45593999997E+02  0.45594000000E+02  0.51100000000E-03 0. -1.
    9900012    2    1    2    0    0  0.17245349456E+02 -0.24911492578E+02  0.99364884927E+01  0.59301978864E+02  0.50000063533E+02 0.  0.
         12    1    1    2    0    0 -0.17245349456E+02  0.24911492578E+02 -0.99364884927E+01  0.31886021136E+02  0.00000000000E+00 0. -1.
         11    1    3    3    0    0  0.21355815294E+01  0.16643564741E+01 -0.83274711758E+01  0.87565728105E+01  0.51100000000E-03 0. -1.
        -11    1    3    3    0    0 -0.11427235734E+02 -0.58551429741E+01  0.88204659360E+01  0.15577709567E+02  0.51100000000E-03 0.  1.
         12    1    3    3    0    0  0.26537003661E+02 -0.20720706078E+02  0.94434937325E+01  0.34967696486E+02  0.00000000000E+00 0. -1.
</event>
<event>
 7    1  0.3220798E-013  0.5930194E+02  0.7816164E-02  0.1266605E+00
        -11   -1    0    0    0    0  0.00000000000E+00  0.00000000000E+00  0.45593999997E+02  0.45594000000E+02  0.51100000000E-03 0. -1.
         11   -1    0    0    0    0 -0.00000000000E+00 -0.00000000000E+00 -0.45593999997E+02  0.45594000000E+02  0.51100000000E-03 0.  1.
    9900012    2    1    2    0    0 -0.27343038820E+02  0.11947020949E+02 -0.11240445478E+02  0.59301941980E+02  0.49999996266E+02 0.  0.
         12    1    1    2    0    0  0.27343038820E+02 -0.11947020949E+02  0.11240445478E+02  0.31886058020E+02  0.00000000000E+00 0. -1.
         11    1    3    3    0    0 -0.80076046966E+01  0.20506387592E+02 -0.91275058418E+00  0.22033310667E+02  0.51100000000E-03 0. -1.
        -11    1    3    3    0    0 -0.17355883452E+01  0.89159932799E+01 -0.84327220815E+01  0.12394273074E+02  0.51100000000E-03 0.  1.
        -12    1    3    3    0    0 -0.17599845779E+02 -0.17475359923E+02 -0.18949728120E+01  0.24874358239E+02  0.00000000000E+00 0.  1.
</event>
<event>
 7    1  0.3220798E-013  0.5930191E+02  0.7816164E-02  0.1266605E+00
        -11   -1    0    0    0    0  0.00000000000E+00  0.00000000000E+00  0.45593999997E+02  0.45594000000E+02  0.51100000000E-03 0.  1.
         11   -1    0    0    0    0 -0.00000000000E+00 -0.00000000000E+00 -0.45593999997E+02  0.45594000000E+02  0.51100000000E-03 0. -1.
    9900012    2    1    2    0    0 -0.28495736573E+02  0.14284612152E+02 -0.81575244812E+00  0.59301912137E+02  0.49999941838E+02 0.  0.
         12    1    1    2    0    0  0.28495736573E+02 -0.14284612152E+02  0.81575244812E+00  0.31886087863E+02  0.00000000000E+00 0. -1.
         11    1    3    3    0    0  0.82057892575E+01 -0.11233973909E+01 -0.65076613984E+01  0.10533121863E+02  0.51100000000E-03 0. -1.
        -11    1    3    3    0    0 -0.60983320123E+01  0.19549581253E+01  0.13052077702E+02  0.14538509112E+02  0.51100000000E-03 0.  1.
         12    1    3    3    0    0 -0.30603193818E+02  0.13453051418E+02 -0.73601687521E+01  0.34230281161E+02  0.00000000000E+00 0. -1.
</event>
<event>
 7    1  0.3220798E-013  0.5930198E+02  0.7816164E-02  0.1266605E+00
        -11   -1    0    0    0    0  0.00000000000E+00  0.00000000000E+00  0.45593999997E+02  0.45594000000E+02  0.51100000000E-03 0.  1.
         11   -1    0    0    0    0 -0.00000000000E+00 -0.00000000000E+00 -0.45593999997E+02  0.45594000000E+02  0.51100000000E-03 0. -1.
    9900012    2    1    2    0    0 -0.13303305034E+02  0.27045964583E+02  0.10404626210E+02  0.59301978429E+02  0.50000062740E+02 0.  0.
         12    1    1    2    0    0  0.13303305034E+02 -0.27045964583E+02 -0.10404626210E+02  0.31886021571E+02  0.00000000000E+00 0. -1.
         11    1    3    3    0    0  0.15566947823E+01  0.59778334173E+00  0.47180295583E-01  0.16681935770E+01  0.51100000000E-03 0. -1.
        -11    1    3    3    0    0  0.12500042001E+02  0.18447998539E+02 -0.80589101416E+01  0.23696534199E+02  0.51100000000E-03 0.  1.
         12    1    3    3    0    0 -0.27360041817E+02  0.80001827027E+01  0.18416356057E+02  0.33937250653E+02  0.00000000000E+00 0. -1.
</event>
<event>
 7    1  0.3220798E-013  0.5930200E+02  0.7816164E-02  0.1266605E+00
        -11   -1    0    0    0    0  0.00000000000E+00  0.00000000000E+00  0.45593999997E+02  0.45594000000E+02  0.51100000000E-03 0.  1.
         11   -1    0    0    0    0 -0.00000000000E+00 -0.00000000000E+00 -0.45593999997E+02  0.45594000000E+02  0.51100000000E-03 0. -1.
    9900012    2    1    2    0    0  0.11537315596E+02 -0.53359909171E+01  0.29242680221E+02  0.59302003124E+02  0.50000107778E+02 0.  0.
         12    1    1    2    0    0 -0.11537315596E+02  0.53359909171E+01 -0.29242680221E+02  0.31885996876E+02  0.00000000000E+00 0. -1.
         11    1    3    3    0    0 -0.62071429870E+01 -0.16134285343E+01  0.12013176929E+02  0.13617936550E+02  0.51100000000E-03 0. -1.
        -11    1    3    3    0    0  0.17899896320E+02 -0.16763623297E+02  0.20805791006E+02  0.32160632673E+02  0.51100000000E-03 0.  1.
         12    1    3    3    0    0 -0.15543773648E+00  0.13041060915E+02 -0.35762877134E+01  0.13523433901E+02  0.00000000000E+00 0. -1.
</event>
<event>
 7    1  0.3220798E-013  0.5930194E+02  0.7816164E-02  0.1266605E+00
        -11   -1    0    0    0    0  0.00000000000E+00  0.00000000000E+00  0.45593999997E+02  0.45594000000E+02  0.51100000000E-03 0. -1.
         11   -1    0    0    0    0 -0.00000000000E+00 -0.00000000000E+00 -0.45593999997E+02  0.45594000000E+02  0.51100000000E-03 0.  1.
    9900012    2    1    2    0    0  0.13000477138E+02 -0.23253470245E+02 -0.17520980292E+02  0.59301936670E+02  0.49999986582E+02 0.  0.
         12    1    1    2    0    0 -0.13000477138E+02  0.23253470245E+02  0.17520980292E+02  0.31886063330E+02  0.00000000000E+00 0. -1.
         11    1    3    3    0    0  0.48041022645E+01 -0.26339215009E+02  0.21166311004E+01  0.26857285293E+02  0.51100000000E-03 0. -1.
        -11    1    3    3    0    0 -0.88849445844E-03  0.46555113076E+01  0.47604584212E+01  0.66585096655E+01  0.51100000000E-03 0.  1.
        -12    1    3    3    0    0  0.81972633679E+01 -0.15697665441E+01 -0.24398069814E+02  0.25786141712E+02  0.00000000000E+00 0.  1.
</event>
<event>
 7    1  0.3220798E-013  0.5930193E+02  0.7816164E-02  0.1266605E+00
        -11   -1    0    0    0    0  0.00000000000E+00  0.00000000000E+00  0.45593999997E+02  0.45594000000E+02  0.51100000000E-03 0. -1.
         11   -1    0    0    0    0 -0.00000000000E+00 -0.00000000000E+00 -0.45593999997E+02  0.45594000000E+02  0.51100000000E-03 0.  1.
    9900012    2    1    2    0    0  0.81155005757E+01 -0.26326075665E+02  0.16056077215E+02  0.59301933685E+02  0.49999981138E+02 0.  0.
         12    1    1    2    0    0 -0.81155005757E+01  0.26326075665E+02 -0.16056077215E+02  0.31886066315E+02  0.00000000000E+00 0. -1.
         11    1    3    3    0    0 -0.13083567045E+02 -0.15969117945E+02 -0.14424602837E+01  0.20694761330E+02  0.51100000000E-03 0. -1.
        -11    1    3    3    0    0  0.71279264785E+00 -0.12778052176E+02  0.23456652913E+01  0.13011104361E+02  0.51100000000E-03 0.  1.
         12    1    3    3    0    0  0.20486274973E+02  0.24210944568E+01  0.15152872208E+02  0.25596067994E+02  0.00000000000E+00 0. -1.
</event>
<event>
 7    1  0.3220798E-013  0.5930192E+02  0.7816164E-02  0.1266605E+00
        -11   -1    0    0    0    0  0.00000000000E+00  0.00000000000E+00  0.45593999997E+02  0.45594000000E+02  0.51100000000E-03 0. -1.
         11   -1    0    0    0    0 -0.00000000000E+00 -0.00000000000E+00 -0.45593999997E+02  0.45594000000E+02  0.51100000000E-03 0.  1.
    9900012    2    1    2    0    0  0.59514465445E+01  0.10472256784E+02 -0.29523446686E+02  0.59301924946E+02  0.49999965200E+02 0.  0.
         12    1    1    2    0    0 -0.59514465445E+01 -0.10472256784E+02  0.29523446686E+02  0.31886075054E+02  0.00000000000E+00 0. -1.
         11    1    3    3    0    0 -0.12959301110E+01  0.10827372818E+02 -0.62968962710E+01  0.12592153902E+02  0.51100000000E-03 0. -1.
        -11    1    3    3    0    0  0.15638642564E+02 -0.44174492381E+01 -0.30716869763E+02  0.34750641538E+02  0.51100000000E-03 0.  1.
         12    1    3    3    0    0 -0.83912659087E+01  0.40623332044E+01  0.74903193479E+01  0.11959129506E+02  0.00000000000E+00 0. -1.
</event>
<event>
 7    1  0.3220798E-013  0.5930192E+02  0.7816164E-02  0.1266605E+00
        -11   -1    0    0    0    0  0.00000000000E+00  0.00000000000E+00  0.45593999997E+02  0.45594000000E+02  0.51100000000E-03 0. -1.
         11   -1    0    0    0    0 -0.00000000000E+00 -0.00000000000E+00 -0.45593999997E+02  0.45594000000E+02  0.51100000000E-03 0.  1.
    9900012    2    1    2    0    0  0.51488570483E+01  0.20607408203E+02 -0.23781206666E+02  0.59301924791E+02  0.49999964917E+02 0.  0.
         12    1    1    2    0    0 -0.51488570483E+01 -0.20607408203E+02  0.23781206666E+02  0.31886075209E+02  0.00000000000E+00 0. -1.
         11    1    3    3    0    0  0.19123056899E+02  0.13046196339E+01 -0.30028952128E+01  0.19401307107E+02  0.51100000000E-03 0. -1.
        -11    1    3    3    0    0 -0.81508222918E+01  0.88013586616E+01  0.37687315409E+01  0.12573907746E+02  0.51100000000E-03 0.  1.
        -12    1    3    3    0    0 -0.58233775584E+01  0.10501429907E+02 -0.24547042994E+02  0.27326709938E+02  0.00000000000E+00 0.  1.
</event>
<event>
 7    1  0.3220798E-013  0.5930197E+02  0.7816164E-02  0.1266605E+00
        -11   -1    0    0    0    0  0.00000000000E+00  0.00000000000E+00  0.45593999997E+02  0.45594000000E+02  0.51100000000E-03 0.  1.
         11   -1    0    0    0    0 -0.00000000000E+00 -0.00000000000E+00 -0.45593999997E+02  0.45594000000E+02  0.51100000000E-03 0. -1.
    9900012    2    1    2    0    0  0.25712314675E+02 -0.75367692948E+01  0.17285627006E+02  0.59301969856E+02  0.50000047104E+02 0.  0.
         12    1    1    2    0    0 -0.25712314675E+02  0.75367692948E+01 -0.17285627006E+02  0.31886030144E+02  0.00000000000E+00 0. -1.
         11    1    3    3    0    0  0.88426584291E+01  0.11140727748E+02  0.10053119249E+02  0.17417624114E+02  0.51100000000E-03 0. -1.
        -11    1    3    3    0    0  0.19168706901E+02 -0.13580605131E+02  0.18104487427E+02  0.29658803504E+02  0.51100000000E-03 0.  1.
        -12    1    3    3    0    0 -0.22990506553E+01 -0.50968919118E+01 -0.10871979670E+02  0.12225542239E+02  0.00000000000E+00 0.  1.
</event>
<event>
 7    1  0.3220798E-013  0.5930197E+02  0.7816164E-02  0.1266605E+00
        -11   -1    0    0    0    0  0.00000000000E+00  0.00000000000E+00  0.45593999997E+02  0.45594000000E+02  0.51100000000E-03 0.  1.
         11   -1    0    0    0    0 -0.00000000000E+00 -0.00000000000E+00 -0.45593999997E+02  0.45594000000E+02  0.51100000000E-03 0. -1.
    9900012    2    1    2    0    0  0.11185906092E+02 -0.64196807255E+01  0.29161311579E+02  0.59301970321E+02  0.50000047952E+02 0.  0.
         12    1    1    2    0    0 -0.11185906092E+02  0.64196807255E+01 -0.29161311579E+02  0.31886029679E+02  0.00000000000E+00 0. -1.
         11    1    3    3    0    0 -0.53438746857E+01  0.77406578518E+00 -0.21288873704E+01  0.58041654175E+01  0.51100000000E-03 0. -1.
        -11    1    3    3    0    0  0.70014877912E+00 -0.12265622465E+02 -0.52455092308E+01  0.13358557936E+02  0.51100000000E-03 0.  1.
        -12    1    3    3    0    0  0.15829631999E+02  0.50718759544E+01  0.36535708180E+02  0.40139246968E+02  0.00000000000E+00 0.  1.
</event>
<event>
 7    1  0.3220798E-013  0.5930194E+02  0.7816164E-02  0.1266605E+00
        -11   -1    0    0    0    0  0.00000000000E+00  0.00000000000E+00  0.45593999997E+02  0.45594000000E+02  0.51100000000E-03 0.  1.
         11   -1    0    0    0    0 -0.00000000000E+00 -0.00000000000E+00 -0.45593999997E+02  0.45594000000E+02  0.51100000000E-03 0. -1.
    9900012    2    1    2    0    0  0.35984201514E+01 -0.31555754304E+02  0.28295571304E+01  0.59301942689E+02  0.49999997559E+02 0.  0.
         12    1    1    2    0    0 -0.35984201514E+01  0.31555754304E+02 -0.28295571304E+01  0.31886057311E+02  0.00000000000E+00 0. -1.
         11    1    3    3    0    0 -0.52704316187E+01 -0.92108011286E+01  0.11927744684E+02  0.15965193402E+02  0.51100000000E-03 0. -1.
        -11    1    3    3    0    0  0.19616533287E+01 -0.10884397200E+02  0.13268197140E+02  0.17273194314E+02  0.51100000000E-03 0.  1.
         12    1    3    3    0    0  0.69071984414E+01 -0.11460555976E+02 -0.22366384693E+02  0.26063554973E+02  0.00000000000E+00 0. -1.
</event>
<event>
 7    1  0.3220798E-013  0.5930195E+02  0.7816164E-02  0.1266605E+00
        -11   -1    0    0    0    0  0.00000000000E+00  0.00000000000E+00  0.45593999997E+02  0.45594000000E+02  0.51100000000E-03 0. -1.
         11   -1    0    0    0    0 -0.00000000000E+00 -0.00000000000E+00 -0.45593999997E+02  0.45594000000E+02  0.51100000000E-03 0.  1.
    9900012    2    1    2    0    0  0.24270131609E+02 -0.67568701905E+01 -0.19545474460E+02  0.59301950465E+02  0.50000011740E+02 0.  0.
         12    1    1    2    0    0 -0.24270131609E+02  0.67568701905E+01  0.19545474460E+02  0.31886049535E+02  0.00000000000E+00 0. -1.
         11    1    3    3    0    0  0.27068876110E+01 -0.15481040499E+02 -0.11206207466E+02  0.19302045008E+02  0.51100000000E-03 0. -1.
        -11    1    3    3    0    0  0.24571950959E+02 -0.39879927248E+01 -0.10008933230E+02  0.26830274031E+02  0.51100000000E-03 0.  1.
         12    1    3    3    0    0 -0.30087069614E+01  0.12712163033E+02  0.16696662364E+01  0.13169631426E+02  0.00000000000E+00 0. -1.
</event>
<event>
 7    1  0.3220798E-013  0.5930195E+02  0.7816164E-02  0.1266605E+00
        -11   -1    0    0    0    0  0.00000000000E+00  0.00000000000E+00  0.45593999997E+02  0.45594000000E+02  0.51100000000E-03 0. -1.
         11   -1    0    0    0    0 -0.00000000000E+00 -0.00000000000E+00 -0.45593999997E+02  0.45594000000E+02  0.51100000000E-03 0.  1.
    9900012    2    1    2    0    0 -0.24605665107E+01  0.18644516474E+02 -0.25749710971E+02  0.59301952939E+02  0.50000016252E+02 0.  0.
         12    1    1    2    0    0  0.24605665107E+01 -0.18644516474E+02  0.25749710971E+02  0.31886047061E+02  0.00000000000E+00 0. -1.
         11    1    3    3    0    0 -0.12308742782E+02  0.41374573105E+01 -0.55554510022E+01  0.14123977413E+02  0.51100000000E-03 0. -1.
        -11    1    3    3    0    0 -0.67593770231E+01 -0.63819823380E+01 -0.15511518822E+02  0.18083862771E+02  0.51100000000E-03 0.  1.
        -12    1    3    3    0    0  0.16607553295E+02  0.20889041502E+02 -0.46827411466E+01  0.27094112754E+02  0.00000000000E+00 0.  1.
</event>
<event>
 7    1  0.3220798E-013  0.5930195E+02  0.7816164E-02  0.1266605E+00
        -11   -1    0    0    0    0  0.00000000000E+00  0.00000000000E+00  0.45593999997E+02  0.45594000000E+02  0.51100000000E-03 0. -1.
         11   -1    0    0    0    0 -0.00000000000E+00 -0.00000000000E+00 -0.45593999997E+02  0.45594000000E+02  0.51100000000E-03 0.  1.
    9900012    2    1    2    0    0  0.24687937130E+02  0.15486068147E+02  0.12938604506E+02  0.59301952378E+02  0.50000015229E+02 0.  0.
         12    1    1    2    0    0 -0.24687937130E+02 -0.15486068147E+02 -0.12938604506E+02  0.31886047622E+02  0.00000000000E+00 0. -1.
         11    1    3    3    0    0 -0.61319442187E+01  0.18185107080E+02  0.91358472305E+01  0.21254706874E+02  0.51100000000E-03 0. -1.
        -11    1    3    3    0    0 -0.11468549611E+01  0.28363805720E+01 -0.36470815162E+01  0.47604133117E+01  0.51100000000E-03 0.  1.
         12    1    3    3    0    0  0.31966736310E+02 -0.55354195052E+01  0.74498387915E+01  0.33286832193E+02  0.00000000000E+00 0. -1.
</event>
<event>
 7    1  0.3220798E-013  0.5930189E+02  0.7816164E-02  0.1266605E+00
        -11   -1    0    0    0    0  0.00000000000E+00  0.00000000000E+00  0.45593999997E+02  0.45594000000E+02  0.51100000000E-03 0.  1.
         11   -1    0    0    0    0 -0.00000000000E+00 -0.00000000000E+00 -0.45593999997E+02  0.45594000000E+02  0.51100000000E-03 0. -1.
    9900012    2    1    2    0    0 -0.12807863094E+02 -0.23431668805E+02  0.17425256323E+02  0.59301889890E+02  0.49999901266E+02 0.  0.
         12    1    1    2    0    0  0.12807863094E+02  0.23431668805E+02 -0.17425256323E+02  0.31886110110E+02  0.00000000000E+00 0. -1.
         11    1    3    3    0    0 -0.11586153595E+02 -0.38911199144E+01  0.75801875476E+01  0.14381898791E+02  0.51100000000E-03 0. -1.
        -11    1    3    3    0    0 -0.13315375399E+01 -0.21984433215E+02  0.22820857267E+02  0.31715608502E+02  0.51100000000E-03 0.  1.
         12    1    3    3    0    0  0.10982804089E+00  0.24438843241E+01 -0.12975788492E+02  0.13204382597E+02  0.00000000000E+00 0. -1.
</event>
<event>
 7    1  0.3220798E-013  0.5930194E+02  0.7816164E-02  0.1266605E+00
        -11   -1    0    0    0    0  0.00000000000E+00  0.00000000000E+00  0.45593999997E+02  0.45594000000E+02  0.51100000000E-03 0.  1.
         11   -1    0    0    0    0 -0.00000000000E+00 -0.00000000000E+00 -0.45593999997E+02  0.45594000000E+02  0.51100000000E-03 0. -1.
    9900012    2    1    2    0    0 -0.30327229418E+02  0.97481584335E+01 -0.13977422839E+01  0.59301935325E+02  0.49999984128E+02 0.  0.
         12    1    1    2    0    0  0.30327229418E+02 -0.97481584335E+01  0.13977422839E+01  0.31886064675E+02  0.00000000000E+00 0. -1.
         11    1    3    3    0    0 -0.99686954770E+01  0.10102150585E+02 -0.16818425986E+02  0.22006539684E+02  0.51100000000E-03 0. -1.
        -11    1    3    3    0    0 -0.90661422496E+01  0.13187888301E+02  0.99032725469E+01  0.18819939972E+02  0.51100000000E-03 0.  1.
         12    1    3    3    0    0 -0.11292391691E+02 -0.13541880453E+02  0.55174111552E+01  0.18475455669E+02  0.00000000000E+00 0. -1.
</event>
<event>
 7    1  0.3220798E-013  0.5930202E+02  0.7816164E-02  0.1266605E+00
        -11   -1    0    0    0    0  0.00000000000E+00  0.00000000000E+00  0.45593999997E+02  0.45594000000E+02  0.51100000000E-03 0.  1.
         11   -1    0    0    0    0 -0.00000000000E+00 -0.00000000000E+00 -0.45593999997E+02  0.45594000000E+02  0.51100000000E-03 0. -1.
    9900012    2    1    2    0    0  0.71311614641E+01  0.24513136877E+02  0.19104147128E+02  0.59302019054E+02  0.50000136831E+02 0.  0.
         12    1    1    2    0    0 -0.71311614641E+01 -0.24513136877E+02 -0.19104147128E+02  0.31885980946E+02  0.00000000000E+00 0. -1.
         11    1    3    3    0    0  0.11412380169E+02  0.70086679913E+01 -0.60058277996E+01  0.14677663845E+02  0.51100000000E-03 0. -1.
        -11    1    3    3    0    0  0.13798334574E+02  0.52862081895E+01  0.12926846343E+02  0.19632661324E+02  0.51100000000E-03 0.  1.
        -12    1    3    3    0    0 -0.18079553278E+02  0.12218260696E+02  0.12183128585E+02  0.24991693886E+02  0.00000000000E+00 0.  1.
</event>
<event>
 7    1  0.3220798E-013  0.5930196E+02  0.7816164E-02  0.1266605E+00
        -11   -1    0    0    0    0  0.00000000000E+00  0.00000000000E+00  0.45593999997E+02  0.45594000000E+02  0.51100000000E-03 0.  1.
         11   -1    0    0    0    0 -0.00000000000E+00 -0.00000000000E+00 -0.45593999997E+02  0.45594000000E+02  0.51100000000E-03 0. -1.
    9900012    2    1    2    0    0  0.15095124469E+02  0.28072986912E+02  0.87407256103E+00  0.59301962621E+02  0.50000033910E+02 0.  0.
         12    1    1    2    0    0 -0.15095124469E+02 -0.28072986912E+02 -0.87407256103E+00  0.31886037379E+02  0.00000000000E+00 0. -1.
         11    1    3    3    0    0  0.87096158720E+01  0.25730847739E+01  0.74396418138E+01  0.11739950787E+02  0.51100000000E-03 0. -1.
        -11    1    3    3    0    0  0.68764877828E-01  0.12986408026E+02  0.16239375142E+02  0.20793480403E+02  0.51100000000E-03 0.  1.
         12    1    3    3    0    0  0.63167437191E+01  0.12513494113E+02 -0.22804944395E+02  0.26768531431E+02  0.00000000000E+00 0. -1.
</event>
<event>
 7    1  0.3220798E-013  0.5930194E+02  0.7816164E-02  0.1266605E+00
        -11   -1    0    0    0    0  0.00000000000E+00  0.00000000000E+00  0.45593999997E+02  0.45594000000E+02  0.51100000000E-03 0.  1.
         11   -1    0    0    0    0 -0.00000000000E+00 -0.00000000000E+00 -0.45593999997E+02  0.45594000000E+02  0.51100000000E-03 0. -1.
    9900012    2    1    2    0    0  0.17645249948E+02 -0.14416989909E+02  0.22305078943E+02  0.59301937364E+02  0.49999987848E+02 0.  0.
         12    1    1    2    0    0 -0.17645249948E+02  0.14416989909E+02 -0.22305078943E+02  0.31886062636E+02  0.00000000000E+00 0. -1.
         11    1    3    3    0    0 -0.96157907048E+01 -0.20398382650E+02  0.11249329470E+02  0.25201286861E+02  0.51100000000E-03 0.  1.
        -11    1    3    3    0    0 -0.14403952669E+01  0.52285691029E+00  0.36531697542E+01  0.39615359884E+01  0.51100000000E-03 0. -1.
         12    1    3    3    0    0  0.28701435920E+02  0.54585358316E+01  0.74025797180E+01  0.30139114515E+02  0.00000000000E+00 0. -1.
</event>
<event>
 7    1  0.3220798E-013  0.5930192E+02  0.7816164E-02  0.1266605E+00
        -11   -1    0    0    0    0  0.00000000000E+00  0.00000000000E+00  0.45593999997E+02  0.45594000000E+02  0.51100000000E-03 0. -1.
         11   -1    0    0    0    0 -0.00000000000E+00 -0.00000000000E+00 -0.45593999997E+02  0.45594000000E+02  0.51100000000E-03 0.  1.
    9900012    2    1    2    0    0  0.23539813231E+02 -0.87647416160E+00 -0.21490249152E+02  0.59301924316E+02  0.49999964050E+02 0.  0.
         12    1    1    2    0    0 -0.23539813231E+02  0.87647416160E+00  0.21490249152E+02  0.31886075684E+02  0.00000000000E+00 0. -1.
         11    1    3    3    0    0  0.11091558775E+02 -0.61352992320E+01 -0.10555631014E+01  0.12719229003E+02  0.51100000000E-03 0. -1.
        -11    1    3    3    0    0  0.10948702191E+02  0.97962440030E+01 -0.31374925351E+02  0.34644284049E+02  0.51100000000E-03 0.  1.
         12    1    3    3    0    0  0.14995522654E+01 -0.45374189325E+01  0.10940239300E+02  0.11938411264E+02  0.00000000000E+00 0. -1.
</event>
<event>
 7    1  0.3220798E-013  0.5930193E+02  0.7816164E-02  0.1266605E+00
        -11   -1    0    0    0    0  0.00000000000E+00  0.00000000000E+00  0.45593999997E+02  0.45594000000E+02  0.51100000000E-03 0.  1.
         11   -1    0    0    0    0 -0.00000000000E+00 -0.00000000000E+00 -0.45593999997E+02  0.45594000000E+02  0.51100000000E-03 0. -1.
    9900012    2    1    2    0    0 -0.27664167933E+02  0.14171444808E+02  0.71123518828E+01  0.59301928045E+02  0.49999970852E+02 0.  0.
         12    1    1    2    0    0  0.27664167933E+02 -0.14171444808E+02 -0.71123518828E+01  0.31886071955E+02  0.00000000000E+00 0. -1.
         11    1    3    3    0    0  0.19065935330E+01  0.19271815294E+01 -0.28129145936E+01  0.39066118721E+01  0.51100000000E-03 0. -1.
        -11    1    3    3    0    0  0.95301712874E+01  0.57353011583E+01  0.11133902356E+02  0.15737904120E+02  0.51100000000E-03 0.  1.
         12    1    3    3    0    0 -0.39100932754E+02  0.65089621198E+01 -0.12086358798E+01  0.39657412054E+02  0.00000000000E+00 0. -1.
</event>
<event>
 7    1  0.3220798E-013  0.5930194E+02  0.7816164E-02  0.1266605E+00
        -11   -1    0    0    0    0  0.00000000000E+00  0.00000000000E+00  0.45593999997E+02  0.45594000000E+02  0.51100000000E-03 0.  1.
         11   -1    0    0    0    0 -0.00000000000E+00 -0.00000000000E+00 -0.45593999997E+02  0.45594000000E+02  0.51100000000E-03 0. -1.
    9900012    2    1    2    0    0 -0.80060210626E+01  0.83621625376E+00  0.30853289330E+02  0.59301935750E+02  0.49999984903E+02 0.  0.
         12    1    1    2    0    0  0.80060210626E+01 -0.83621625376E+00 -0.30853289330E+02  0.31886064250E+02  0.00000000000E+00 0. -1.
         11    1    3    3    0    0  0.56378766495E+01 -0.12332756419E+00 -0.95657127288E+00  0.57197807357E+01  0.51100000000E-03 0. -1.
        -11    1    3    3    0    0 -0.45534820659E+01 -0.14630294391E+02 -0.18058664279E+01  0.15428573061E+02  0.51100000000E-03 0.  1.
        -12    1    3    3    0    0 -0.90904156462E+01  0.15589838209E+02  0.33615727031E+02  0.38153581953E+02  0.00000000000E+00 0.  1.
</event>
<event>
 7    1  0.3220798E-013  0.5930194E+02  0.7816164E-02  0.1266605E+00
        -11   -1    0    0    0    0  0.00000000000E+00  0.00000000000E+00  0.45593999997E+02  0.45594000000E+02  0.51100000000E-03 0. -1.
         11   -1    0    0    0    0 -0.00000000000E+00 -0.00000000000E+00 -0.45593999997E+02  0.45594000000E+02  0.51100000000E-03 0.  1.
    9900012    2    1    2    0    0 -0.49778289686E+01 -0.30462785475E+02 -0.79975492545E+01  0.59301939186E+02  0.49999991170E+02 0.  0.
         12    1    1    2    0    0  0.49778289686E+01  0.30462785475E+02  0.79975492545E+01  0.31886060814E+02  0.00000000000E+00 0. -1.
         11    1    3    3    0    0 -0.16198363394E+02 -0.24436869298E+01  0.28623863504E+01  0.16629847814E+02  0.51100000000E-03 0. -1.
        -11    1    3    3    0    0  0.62141796630E+01 -0.12298177546E+02 -0.19633041434E+02  0.23985777370E+02  0.51100000000E-03 0.  1.
        -12    1    3    3    0    0  0.50063547623E+01 -0.15720920999E+02  0.87731058293E+01  0.18686314001E+02  0.00000000000E+00 0.  1.
</event>
<event>
 7    1  0.3220798E-013  0.5930193E+02  0.7816164E-02  0.1266605E+00
        -11   -1    0    0    0    0  0.00000000000E+00  0.00000000000E+00  0.45593999997E+02  0.45594000000E+02  0.51100000000E-03 0.  1.
         11   -1    0    0    0    0 -0.00000000000E+00 -0.00000000000E+00 -0.45593999997E+02  0.45594000000E+02  0.51100000000E-03 0. -1.
    9900012    2    1    2    0    0  0.19072075489E+02  0.13679131147E+02 -0.21583757108E+02  0.59301933085E+02  0.49999980044E+02 0.  0.
         12    1    1    2    0    0 -0.19072075489E+02 -0.13679131147E+02  0.21583757108E+02  0.31886066915E+02  0.00000000000E+00 0. -1.
         11    1    3    3    0    0  0.11147665747E+01  0.68311757395E+01 -0.96272774794E+01  0.11857155579E+02  0.51100000000E-03 0. -1.
        -11    1    3    3    0    0  0.27004740665E+02  0.13779913149E+02 -0.17246164720E+02  0.34879395388E+02  0.51100000000E-03 0.  1.
         12    1    3    3    0    0 -0.90474317512E+01 -0.69319577422E+01  0.52896850909E+01  0.12565382119E+02  0.00000000000E+00 0. -1.
</event>
<event>
 7    1  0.3220798E-013  0.5930195E+02  0.7816164E-02  0.1266605E+00
        -11   -1    0    0    0    0  0.00000000000E+00  0.00000000000E+00  0.45593999997E+02  0.45594000000E+02  0.51100000000E-03 0. -1.
         11   -1    0    0    0    0 -0.00000000000E+00 -0.00000000000E+00 -0.45593999997E+02  0.45594000000E+02  0.51100000000E-03 0.  1.
    9900012    2    1    2    0    0 -0.23569025915E+02  0.10036904764E+02 -0.18986352411E+02  0.59301952617E+02  0.50000015665E+02 0.  0.
         12    1    1    2    0    0  0.23569025915E+02 -0.10036904764E+02  0.18986352411E+02  0.31886047383E+02  0.00000000000E+00 0. -1.
         11    1    3    3    0    0  0.10238115326E+02 -0.10793714921E+02 -0.80181624704E+00  0.14898530020E+02  0.51100000000E-03 0. -1.
        -11    1    3    3    0    0 -0.72100563573E+00  0.24955856755E+01 -0.19097839770E+01  0.32241389688E+01  0.51100000000E-03 0.  1.
        -12    1    3    3    0    0 -0.33086135605E+02  0.18335034009E+02 -0.16274752187E+02  0.41179283628E+02  0.00000000000E+00 0.  1.
</event>
<event>
 7    1  0.3220798E-013  0.5930201E+02  0.7816164E-02  0.1266605E+00
        -11   -1    0    0    0    0  0.00000000000E+00  0.00000000000E+00  0.45593999997E+02  0.45594000000E+02  0.51100000000E-03 0.  1.
         11   -1    0    0    0    0 -0.00000000000E+00 -0.00000000000E+00 -0.45593999997E+02  0.45594000000E+02  0.51100000000E-03 0. -1.
    9900012    2    1    2    0    0  0.14821246652E+02 -0.96587733031E+01  0.26528388577E+02  0.59302005355E+02  0.50000111846E+02 0.  0.
         12    1    1    2    0    0 -0.14821246652E+02  0.96587733031E+01 -0.26528388577E+02  0.31885994645E+02  0.00000000000E+00 0. -1.
         11    1    3    3    0    0  0.13943391701E+02 -0.77112294253E+01  0.28660815515E+01  0.16189368582E+02  0.51100000000E-03 0. -1.
        -11    1    3    3    0    0 -0.10350345450E+01 -0.11525226621E+02 -0.51677655752E+01  0.12673119051E+02  0.51100000000E-03 0.  1.
        -12    1    3    3    0    0  0.19128894965E+01  0.95776827437E+01  0.28830072600E+02  0.30439517721E+02  0.00000000000E+00 0.  1.
</event>
<event>
 7    1  0.3220798E-013  0.5930194E+02  0.7816164E-02  0.1266605E+00
        -11   -1    0    0    0    0  0.00000000000E+00  0.00000000000E+00  0.45593999997E+02  0.45594000000E+02  0.51100000000E-03 0.  1.
         11   -1    0    0    0    0 -0.00000000000E+00 -0.00000000000E+00 -0.45593999997E+02  0.45594000000E+02  0.51100000000E-03 0. -1.
    9900012    2    1    2    0    0 -0.83243234455E+01  0.12914854013E+02  0.27939811999E+02  0.59301938632E+02  0.49999990160E+02 0.  0.
         12    1    1    2    0    0  0.83243234455E+01 -0.12914854013E+02 -0.27939811999E+02  0.31886061368E+02  0.00000000000E+00 0. -1.
         11    1    3    3    0    0 -0.89387273093E+01  0.16288673742E+02  0.15680736770E+02  0.24312697179E+02  0.51100000000E-03 0. -1.
        -11    1    3    3    0    0  0.13698320945E+02  0.76108837997E+01  0.53023412888E+01  0.16543408728E+02  0.51100000000E-03 0.  1.
         12    1    3    3    0    0 -0.13083917081E+02 -0.10984703529E+02  0.69567339399E+01  0.18445832725E+02  0.00000000000E+00 0. -1.
</event>
<event>
 7    1  0.3220798E-013  0.5930195E+02  0.7816164E-02  0.1266605E+00
        -11   -1    0    0    0    0  0.00000000000E+00  0.00000000000E+00  0.45593999997E+02  0.45594000000E+02  0.51100000000E-03 0. -1.
         11   -1    0    0    0    0 -0.00000000000E+00 -0.00000000000E+00 -0.45593999997E+02  0.45594000000E+02  0.51100000000E-03 0.  1.
    9900012    2    1    2    0    0 -0.28865401873E+02  0.96727956454E+01  0.94839780602E+01  0.59301949120E+02  0.50000009286E+02 0.  0.
         12    1    1    2    0    0  0.28865401873E+02 -0.96727956454E+01 -0.94839780602E+01  0.31886050880E+02  0.00000000000E+00 0. -1.
         11    1    3    3    0    0 -0.19366559770E+02  0.10498706385E+02  0.15688300555E+02  0.27044578896E+02  0.51100000000E-03 0. -1.
        -11    1    3    3    0    0 -0.15147032549E+02 -0.47560164480E+01  0.70130582137E+01  0.17356130711E+02  0.51100000000E-03 0.  1.
         12    1    3    3    0    0  0.56481904461E+01  0.39301057088E+01 -0.13217380709E+02  0.14901239512E+02  0.00000000000E+00 0. -1.
</event>
<event>
 7    1  0.3220798E-013  0.5930196E+02  0.7816164E-02  0.1266605E+00
        -11   -1    0    0    0    0  0.00000000000E+00  0.00000000000E+00  0.45593999997E+02  0.45594000000E+02  0.51100000000E-03 0.  1.
         11   -1    0    0    0    0 -0.00000000000E+00 -0.00000000000E+00 -0.45593999997E+02  0.45594000000E+02  0.51100000000E-03 0. -1.
    9900012    2    1    2    0    0 -0.22692832521E+02 -0.45400863258E+01  0.21934956286E+02  0.59301963261E+02  0.50000035076E+02 0.  0.
         12    1    1    2    0    0  0.22692832521E+02  0.45400863258E+01 -0.21934956286E+02  0.31886036739E+02  0.00000000000E+00 0. -1.
         11    1    3    3    0    0 -0.16566978145E+01 -0.11213926240E+02 -0.33561539603E+01  0.11822037009E+02  0.51100000000E-03 0. -1.
        -11    1    3    3    0    0 -0.25469829242E+02 -0.64975085254E+01  0.16461367007E+02  0.31014616275E+02  0.51100000000E-03 0.  1.
         12    1    3    3    0    0  0.44336945362E+01  0.13171348440E+02  0.88297432394E+01  0.16465309977E+02  0.00000000000E+00 0. -1.
</event>
<event>
 7    1  0.3220798E-013  0.5930195E+02  0.7816164E-02  0.1266605E+00
        -11   -1    0    0    0    0  0.00000000000E+00  0.00000000000E+00  0.45593999997E+02  0.45594000000E+02  0.51100000000E-03 0.  1.
         11   -1    0    0    0    0 -0.00000000000E+00 -0.00000000000E+00 -0.45593999997E+02  0.45594000000E+02  0.51100000000E-03 0. -1.
    9900012    2    1    2    0    0 -0.18293130107E+02  0.25284628983E+02 -0.65398195664E+01  0.59301948004E+02  0.50000007252E+02 0.  0.
         12    1    1    2    0    0  0.18293130107E+02 -0.25284628983E+02  0.65398195664E+01  0.31886051996E+02  0.00000000000E+00 0. -1.
         11    1    3    3    0    0 -0.26127756446E+02  0.78476733095E+01  0.53874540640E+01  0.27807738038E+02  0.51100000000E-03 0. -1.
        -11    1    3    3    0    0  0.23796648667E+01  0.74244759519E+01  0.62801375292E+01  0.10011282420E+02  0.51100000000E-03 0.  1.
         12    1    3    3    0    0  0.54549614716E+01  0.10012479721E+02 -0.18207411160E+02  0.21482927546E+02  0.00000000000E+00 0. -1.
</event>
<event>
 7    1  0.3220798E-013  0.5930195E+02  0.7816164E-02  0.1266605E+00
        -11   -1    0    0    0    0  0.00000000000E+00  0.00000000000E+00  0.45593999997E+02  0.45594000000E+02  0.51100000000E-03 0. -1.
         11   -1    0    0    0    0 -0.00000000000E+00 -0.00000000000E+00 -0.45593999997E+02  0.45594000000E+02  0.51100000000E-03 0.  1.
    9900012    2    1    2    0    0 -0.14271010189E+01 -0.18596612492E+02 -0.25862121382E+02  0.59301953900E+02  0.50000018005E+02 0.  0.
         12    1    1    2    0    0  0.14271010189E+01  0.18596612492E+02  0.25862121382E+02  0.31886046100E+02  0.00000000000E+00 0. -1.
         11    1    3    3    0    0 -0.11372881333E+02 -0.41244494686E+01 -0.34272057829E+01  0.12573752542E+02  0.51100000000E-03 0. -1.
        -11    1    3    3    0    0 -0.85693906371E+01 -0.11124593028E+02 -0.24043856330E+02  0.27844174497E+02  0.51100000000E-03 0.  1.
         12    1    3    3    0    0  0.18515170951E+02 -0.33475699959E+01  0.16089407314E+01  0.18884026862E+02  0.00000000000E+00 0. -1.
</event>
<event>
 7    1  0.3220798E-013  0.5930191E+02  0.7816164E-02  0.1266605E+00
        -11   -1    0    0    0    0  0.00000000000E+00  0.00000000000E+00  0.45593999997E+02  0.45594000000E+02  0.51100000000E-03 0. -1.
         11   -1    0    0    0    0 -0.00000000000E+00 -0.00000000000E+00 -0.45593999997E+02  0.45594000000E+02  0.51100000000E-03 0.  1.
    9900012    2    1    2    0    0 -0.15747806304E+02 -0.26363827155E+02 -0.85835913186E+01  0.59301908587E+02  0.49999935365E+02 0.  0.
         12    1    1    2    0    0  0.15747806304E+02  0.26363827155E+02  0.85835913186E+01  0.31886091413E+02  0.00000000000E+00 0. -1.
         11    1    3    3    0    0 -0.22293382045E+01 -0.16811113752E+02 -0.32690945514E+01  0.17270508790E+02  0.51100000000E-03 0.  1.
        -11    1    3    3    0    0 -0.18162737491E+02  0.10576023531E+02 -0.33135478091E+01  0.21277145162E+02  0.51100000000E-03 0. -1.
         12    1    3    3    0    0  0.46442693916E+01 -0.20128736934E+02 -0.20009489581E+01  0.20754254636E+02  0.00000000000E+00 0. -1.
</event>
<event>
 7    1  0.3220798E-013  0.5930193E+02  0.7816164E-02  0.1266605E+00
        -11   -1    0    0    0    0  0.00000000000E+00  0.00000000000E+00  0.45593999997E+02  0.45594000000E+02  0.51100000000E-03 0. -1.
         11   -1    0    0    0    0 -0.00000000000E+00 -0.00000000000E+00 -0.45593999997E+02  0.45594000000E+02  0.51100000000E-03 0.  1.
    9900012    2    1    2    0    0 -0.16905197323E+02 -0.55568872242E+01 -0.26458580049E+02  0.59301934856E+02  0.49999983274E+02 0.  0.
         12    1    1    2    0    0  0.16905197323E+02  0.55568872242E+01  0.26458580049E+02  0.31886065144E+02  0.00000000000E+00 0. -1.
         11    1    3    3    0    0 -0.10314313345E+02 -0.59877448542E+01  0.40843842507E+00  0.11933355371E+02  0.51100000000E-03 0. -1.
        -11    1    3    3    0    0  0.11115558768E+02 -0.12767208849E+02 -0.11686306802E+02  0.20570051907E+02  0.51100000000E-03 0.  1.
        -12    1    3    3    0    0 -0.17706442746E+02  0.13198066479E+02 -0.15180711671E+02  0.26798527578E+02  0.00000000000E+00 0.  1.
</event>
<event>
 7    1  0.3220798E-013  0.5930193E+02  0.7816164E-02  0.1266605E+00
        -11   -1    0    0    0    0  0.00000000000E+00  0.00000000000E+00  0.45593999997E+02  0.45594000000E+02  0.51100000000E-03 0.  1.
         11   -1    0    0    0    0 -0.00000000000E+00 -0.00000000000E+00 -0.45593999997E+02  0.45594000000E+02  0.51100000000E-03 0. -1.
    9900012    2    1    2    0    0 -0.29605916225E+02 -0.10126146794E+02  0.61377725989E+01  0.59301931304E+02  0.49999976795E+02 0.  0.
         12    1    1    2    0    0  0.29605916225E+02  0.10126146794E+02 -0.61377725989E+01  0.31886068696E+02  0.00000000000E+00 0. -1.
         11    1    3    3    0    0 -0.32562115565E+01 -0.73993132850E+01  0.23626566963E+01  0.84222857774E+01  0.51100000000E-03 0. -1.
        -11    1    3    3    0    0 -0.30858380526E+02  0.64170273455E+01  0.15682108445E+02  0.35204352205E+02  0.51100000000E-03 0.  1.
         12    1    3    3    0    0  0.45086758574E+01 -0.91438608549E+01 -0.11906992542E+02  0.15675293322E+02  0.00000000000E+00 0. -1.
</event>
<event>
 7    1  0.3220798E-013  0.5930195E+02  0.7816164E-02  0.1266605E+00
        -11   -1    0    0    0    0  0.00000000000E+00  0.00000000000E+00  0.45593999997E+02  0.45594000000E+02  0.51100000000E-03 0.  1.
         11   -1    0    0    0    0 -0.00000000000E+00 -0.00000000000E+00 -0.45593999997E+02  0.45594000000E+02  0.51100000000E-03 0. -1.
    9900012    2    1    2    0    0  0.29100503450E+02 -0.77203579374E+01  0.10501283735E+02  0.59301949949E+02  0.50000010800E+02 0.  0.
         12    1    1    2    0    0 -0.29100503450E+02  0.77203579374E+01 -0.10501283735E+02  0.31886050051E+02  0.00000000000E+00 0. -1.
         11    1    3    3    0    0 -0.10340164716E+02  0.27954070970E+00  0.83437524573E+01  0.13289670978E+02  0.51100000000E-03 0. -1.
        -11    1    3    3    0    0  0.47374537944E+01 -0.87892523359E+01  0.50324612440E+01  0.11181238371E+02  0.51100000000E-03 0.  1.
         12    1    3    3    0    0  0.34703214372E+02  0.78935368874E+00 -0.28749299663E+01  0.34831040601E+02  0.00000000000E+00 0. -1.
</event>
<event>
 7    1  0.3220798E-013  0.5930196E+02  0.7816164E-02  0.1266605E+00
        -11   -1    0    0    0    0  0.00000000000E+00  0.00000000000E+00  0.45593999997E+02  0.45594000000E+02  0.51100000000E-03 0.  1.
         11   -1    0    0    0    0 -0.00000000000E+00 -0.00000000000E+00 -0.45593999997E+02  0.45594000000E+02  0.51100000000E-03 0. -1.
    9900012    2    1    2    0    0 -0.16680365406E+02 -0.26860199768E+02 -0.41249133743E+01  0.59301955529E+02  0.50000020976E+02 0.  0.
         12    1    1    2    0    0  0.16680365406E+02  0.26860199768E+02  0.41249133743E+01  0.31886044471E+02  0.00000000000E+00 0. -1.
         11    1    3    3    0    0 -0.19089807204E+02 -0.26261826375E+01 -0.64507348119E+01  0.20320668153E+02  0.51100000000E-03 0. -1.
        -11    1    3    3    0    0 -0.11600840654E+02 -0.43473699597E+01  0.69713293990E+01  0.14215433982E+02  0.51100000000E-03 0.  1.
        -12    1    3    3    0    0  0.14010282452E+02 -0.19886647171E+02 -0.46455079613E+01  0.24765853393E+02  0.00000000000E+00 0.  1.
</event>
<event>
 7    1  0.3220798E-013  0.5930196E+02  0.7816164E-02  0.1266605E+00
        -11   -1    0    0    0    0  0.00000000000E+00  0.00000000000E+00  0.45593999997E+02  0.45594000000E+02  0.51100000000E-03 0. -1.
         11   -1    0    0    0    0 -0.00000000000E+00 -0.00000000000E+00 -0.45593999997E+02  0.45594000000E+02  0.51100000000E-03 0.  1.
    9900012    2    1    2    0    0  0.21374439693E+02 -0.23458222090E+02 -0.30927316017E+01  0.59301955332E+02  0.50000020616E+02 0.  0.
         12    1    1    2    0    0 -0.21374439693E+02  0.23458222090E+02  0.30927316017E+01  0.31886044668E+02  0.00000000000E+00 0. -1.
         11    1    3    3    0    0  0.28434630784E+01  0.10174621472E+01  0.93172136955E+01  0.97944363190E+01  0.51100000000E-03 0. -1.
        -11    1    3    3    0    0 -0.80919247260E+01  0.29383719179E+01 -0.66145036210E+01  0.10856561781E+02  0.51100000000E-03 0.  1.
        -12    1    3    3    0    0  0.26622901340E+02 -0.27414056156E+02 -0.57954416762E+01  0.38650957231E+02  0.00000000000E+00 0.  1.
</event>
<event>
 7    1  0.3220798E-013  0.5930191E+02  0.7816164E-02  0.1266605E+00
        -11   -1    0    0    0    0  0.00000000000E+00  0.00000000000E+00  0.45593999997E+02  0.45594000000E+02  0.51100000000E-03 0. -1.
         11   -1    0    0    0    0 -0.00000000000E+00 -0.00000000000E+00 -0.45593999997E+02  0.45594000000E+02  0.51100000000E-03 0.  1.
    9900012    2    1    2    0    0  0.55812550385E+01  0.22359934093E+02 -0.22036461592E+02  0.59301910558E+02  0.49999938959E+02 0.  0.
         12    1    1    2    0    0 -0.55812550385E+01 -0.22359934093E+02  0.22036461592E+02  0.31886089442E+02  0.00000000000E+00 0. -1.
         11    1    3    3    0    0  0.14253142576E+02  0.13662370211E+02 -0.28382657188E+02  0.34574378698E+02  0.51100000000E-03 0.  1.
        -11    1    3    3    0    0 -0.43257130528E+01  0.96377242329E+01 -0.56171369644E+01  0.11964520456E+02  0.51100000000E-03 0. -1.
         12    1    3    3    0    0 -0.43461744848E+01 -0.94016035065E+00  0.11963332560E+02  0.12763011404E+02  0.00000000000E+00 0. -1.
</event>
<event>
 7    1  0.3220798E-013  0.5930194E+02  0.7816164E-02  0.1266605E+00
        -11   -1    0    0    0    0  0.00000000000E+00  0.00000000000E+00  0.45593999997E+02  0.45594000000E+02  0.51100000000E-03 0. -1.
         11   -1    0    0    0    0 -0.00000000000E+00 -0.00000000000E+00 -0.45593999997E+02  0.45594000000E+02  0.51100000000E-03 0.  1.
    9900012    2    1    2    0    0  0.26415964556E+02 -0.84212306092E+01 -0.15748035595E+02  0.59301938257E+02  0.49999989475E+02 0.  0.
         12    1    1    2    0    0 -0.26415964556E+02  0.84212306092E+01  0.15748035595E+02  0.31886061743E+02  0.00000000000E+00 0. -1.
         11    1    3    3    0    0  0.20247200864E+02  0.22606897102E+01 -0.53428372014E+01  0.21061950774E+02  0.51100000000E-03 0. -1.
        -11    1    3    3    0    0  0.19217096260E+02  0.93326149936E+00 -0.67740205351E+01  0.20397429254E+02  0.51100000000E-03 0.  1.
         12    1    3    3    0    0 -0.13048332569E+02 -0.11615181819E+02 -0.36311778580E+01  0.17842558228E+02  0.00000000000E+00 0. -1.
</event>
<event>
 7    1  0.3220798E-013  0.5930196E+02  0.7816164E-02  0.1266605E+00
        -11   -1    0    0    0    0  0.00000000000E+00  0.00000000000E+00  0.45593999997E+02  0.45594000000E+02  0.51100000000E-03 0. -1.
         11   -1    0    0    0    0 -0.00000000000E+00 -0.00000000000E+00 -0.45593999997E+02  0.45594000000E+02  0.51100000000E-03 0.  1.
    9900012    2    1    2    0    0  0.28903144232E+02  0.13052244273E+02 -0.33115689063E+01  0.59301963626E+02  0.50000035742E+02 0.  0.
         12    1    1    2    0    0 -0.28903144232E+02 -0.13052244273E+02  0.33115689063E+01  0.31886036374E+02  0.00000000000E+00 0. -1.
         11    1    3    3    0    0  0.21271618572E+02  0.93116468254E+01 -0.16277303893E+02  0.28357347294E+02  0.51100000000E-03 0. -1.
        -11    1    3    3    0    0  0.77904840576E+01  0.16363028662E+01 -0.71610733667E+01  0.10707478739E+02  0.51100000000E-03 0.  1.
         12    1    3    3    0    0 -0.15895839733E+00  0.21042945813E+01  0.20126808353E+02  0.20237137593E+02  0.00000000000E+00 0. -1.
</event>
<event>
 7    1  0.3220798E-013  0.5930187E+02  0.7816164E-02  0.1266605E+00
        -11   -1    0    0    0    0  0.00000000000E+00  0.00000000000E+00  0.45593999997E+02  0.45594000000E+02  0.51100000000E-03 0.  1.
         11   -1    0    0    0    0 -0.00000000000E+00 -0.00000000000E+00 -0.45593999997E+02  0.45594000000E+02  0.51100000000E-03 0. -1.
    9900012    2    1    2    0    0  0.26469244708E+02  0.91610885903E+01  0.15237420166E+02  0.59301867703E+02  0.49999860801E+02 0.  0.
         12    1    1    2    0    0 -0.26469244708E+02 -0.91610885903E+01 -0.15237420166E+02  0.31886132297E+02  0.00000000000E+00 0. -1.
         11    1    3    3    0    0  0.14998267562E+02  0.21929928132E+02  0.52796491468E+01  0.27087718123E+02  0.51100000000E-03 0. -1.
        -11    1    3    3    0    0  0.11630139499E+02  0.30390530974E+01 -0.22640012599E+01  0.12231994542E+02  0.51100000000E-03 0.  1.
        -12    1    3    3    0    0 -0.15916235263E+00 -0.15807892639E+02  0.12221772279E+02  0.19982155038E+02  0.00000000000E+00 0.  1.
</event>
<event>
 7    1  0.3220798E-013  0.5930192E+02  0.7816164E-02  0.1266605E+00
        -11   -1    0    0    0    0  0.00000000000E+00  0.00000000000E+00  0.45593999997E+02  0.45594000000E+02  0.51100000000E-03 0. -1.
         11   -1    0    0    0    0 -0.00000000000E+00 -0.00000000000E+00 -0.45593999997E+02  0.45594000000E+02  0.51100000000E-03 0.  1.
    9900012    2    1    2    0    0 -0.24280896830E+02 -0.18832870869E+02 -0.85136887505E+01  0.59301923537E+02  0.49999962630E+02 0.  0.
         12    1    1    2    0    0  0.24280896830E+02  0.18832870869E+02  0.85136887505E+01  0.31886076463E+02  0.00000000000E+00 0. -1.
         11    1    3    3    0    0  0.76214667656E+01  0.35164937304E+01 -0.45997248709E+01  0.95713088429E+01  0.51100000000E-03 0. -1.
        -11    1    3    3    0    0 -0.26216142269E+01  0.56352141894E+01  0.53281974428E+01  0.81864637277E+01  0.51100000000E-03 0.  1.
        -12    1    3    3    0    0 -0.29280749369E+02 -0.27984578789E+02 -0.92421613224E+01  0.41544150966E+02  0.00000000000E+00 0.  1.
</event>
<event>
 7    1  0.3220798E-013  0.5930195E+02  0.7816164E-02  0.1266605E+00
        -11   -1    0    0    0    0  0.00000000000E+00  0.00000000000E+00  0.45593999997E+02  0.45594000000E+02  0.51100000000E-03 0.  1.
         11   -1    0    0    0    0 -0.00000000000E+00 -0.00000000000E+00 -0.45593999997E+02  0.45594000000E+02  0.51100000000E-03 0. -1.
    9900012    2    1    2    0    0 -0.19634667446E+02 -0.67002235077E+01  0.24213784093E+02  0.59301945040E+02  0.50000001847E+02 0.  0.
         12    1    1    2    0    0  0.19634667446E+02  0.67002235077E+01 -0.24213784093E+02  0.31886054960E+02  0.00000000000E+00 0. -1.
         11    1    3    3    0    0  0.52371328171E+01  0.22498843822E+00 -0.25727763789E+00  0.52482732385E+01  0.51100000000E-03 0. -1.
        -11    1    3    3    0    0 -0.18611229696E+02  0.15926377403E+02  0.12932611730E+02  0.27699816144E+02  0.51100000000E-03 0.  1.
         12    1    3    3    0    0 -0.62605705669E+01 -0.22851589349E+02  0.11538450002E+02  0.26353855658E+02  0.00000000000E+00 0. -1.
</event>
<event>
 7    1  0.3220798E-013  0.5930195E+02  0.7816164E-02  0.1266605E+00
        -11   -1    0    0    0    0  0.00000000000E+00  0.00000000000E+00  0.45593999997E+02  0.45594000000E+02  0.51100000000E-03 0. -1.
         11   -1    0    0    0    0 -0.00000000000E+00 -0.00000000000E+00 -0.45593999997E+02  0.45594000000E+02  0.51100000000E-03 0.  1.
    9900012    2    1    2    0    0 -0.27002710141E+02  0.49680320640E+01 -0.16213966299E+02  0.59301946611E+02  0.50000004712E+02 0.  0.
         12    1    1    2    0    0  0.27002710141E+02 -0.49680320640E+01  0.16213966299E+02  0.31886053389E+02  0.00000000000E+00 0. -1.
         11    1    3    3    0    0  0.31524476611E+01  0.82256332951E+01  0.40674330405E+01  0.97027306034E+01  0.51100000000E-03 0. -1.
        -11    1    3    3    0    0 -0.89368665246E+01  0.12235537294E+02  0.18278211371E+01  0.15261614807E+02  0.51100000000E-03 0.  1.
         12    1    3    3    0    0 -0.21218291278E+02 -0.15493138525E+02 -0.22109220477E+02  0.34337601201E+02  0.00000000000E+00 0. -1.
</event>
<event>
 7    1  0.3220798E-013  0.5930194E+02  0.7816164E-02  0.1266605E+00
        -11   -1    0    0    0    0  0.00000000000E+00  0.00000000000E+00  0.45593999997E+02  0.45594000000E+02  0.51100000000E-03 0.  1.
         11   -1    0    0    0    0 -0.00000000000E+00 -0.00000000000E+00 -0.45593999997E+02  0.45594000000E+02  0.51100000000E-03 0. -1.
    9900012    2    1    2    0    0 -0.21217052409E+02 -0.23800919654E+02  0.27164209971E+00  0.59301939115E+02  0.49999991041E+02 0.  0.
         12    1    1    2    0    0  0.21217052409E+02  0.23800919654E+02 -0.27164209971E+00  0.31886060885E+02  0.00000000000E+00 0. -1.
         11    1    3    3    0    0  0.99771715477E+01  0.10848239131E+01  0.40100991118E+01  0.10807483063E+02  0.51100000000E-03 0. -1.
        -11    1    3    3    0    0 -0.58930959706E+01  0.47903995729E+01  0.42269581733E+01  0.86915869580E+01  0.51100000000E-03 0.  1.
        -12    1    3    3    0    0 -0.25301127986E+02 -0.29676143140E+02 -0.79654151854E+01  0.39802869094E+02  0.00000000000E+00 0.  1.
</event>
<event>
 7    1  0.3220798E-013  0.5930191E+02  0.7816164E-02  0.1266605E+00
        -11   -1    0    0    0    0  0.00000000000E+00  0.00000000000E+00  0.45593999997E+02  0.45594000000E+02  0.51100000000E-03 0.  1.
         11   -1    0    0    0    0 -0.00000000000E+00 -0.00000000000E+00 -0.45593999997E+02  0.45594000000E+02  0.51100000000E-03 0. -1.
    9900012    2    1    2    0    0  0.12677780257E+02  0.29120875808E+02  0.28233046416E+01  0.59301912608E+02  0.49999942698E+02 0.  0.
         12    1    1    2    0    0 -0.12677780257E+02 -0.29120875808E+02 -0.28233046416E+01  0.31886087392E+02  0.00000000000E+00 0. -1.
         11    1    3    3    0    0  0.90753556051E+01  0.16863486204E+02 -0.13183235195E+02  0.23249450247E+02  0.51100000000E-03 0. -1.
        -11    1    3    3    0    0 -0.10108414546E+02 -0.31787279271E+01  0.12390708107E+01  0.10668629369E+02  0.51100000000E-03 0.  1.
        -12    1    3    3    0    0  0.13710839198E+02  0.15436117531E+02  0.14767469026E+02  0.25383832992E+02  0.00000000000E+00 0.  1.
</event>
<event>
 7    1  0.3220798E-013  0.5930217E+02  0.7816164E-02  0.1266604E+00
        -11   -1    0    0    0    0  0.00000000000E+00  0.00000000000E+00  0.45593999997E+02  0.45594000000E+02  0.51100000000E-03 0.  1.
         11   -1    0    0    0    0 -0.00000000000E+00 -0.00000000000E+00 -0.45593999997E+02  0.45594000000E+02  0.51100000000E-03 0. -1.
    9900012    2    1    2    0    0 -0.96731017619E+01  0.13893856479E+02  0.27020328694E+02  0.59302167593E+02  0.50000407727E+02 0.  0.
         12    1    1    2    0    0  0.96731017619E+01 -0.13893856479E+02 -0.27020328694E+02  0.31885832407E+02  0.00000000000E+00 0. -1.
         11    1    3    3    0    0  0.64946618908E+01  0.31701042267E+01  0.27193838405E+02  0.28137786718E+02  0.51100000000E-03 0. -1.
        -11    1    3    3    0    0  0.34616310176E+01  0.10732554210E+02  0.18621702562E+01  0.11429710735E+02  0.51100000000E-03 0.  1.
        -12    1    3    3    0    0 -0.19629394670E+02 -0.88019575213E-02 -0.20356799674E+01  0.19734670140E+02  0.00000000000E+00 0.  1.
</event>
<event>
 7    1  0.3220798E-013  0.5930209E+02  0.7816164E-02  0.1266604E+00
        -11   -1    0    0    0    0  0.00000000000E+00  0.00000000000E+00  0.45593999997E+02  0.45594000000E+02  0.51100000000E-03 0. -1.
         11   -1    0    0    0    0 -0.00000000000E+00 -0.00000000000E+00 -0.45593999997E+02  0.45594000000E+02  0.51100000000E-03 0.  1.
    9900012    2    1    2    0    0 -0.55427711444E+01  0.26663566921E+02 -0.16584417800E+02  0.59302093605E+02  0.50000272792E+02 0.  0.
         12    1    1    2    0    0  0.55427711444E+01 -0.26663566921E+02  0.16584417800E+02  0.31885906395E+02  0.00000000000E+00 0. -1.
         11    1    3    3    0    0 -0.72896797317E+01  0.18400963018E+02 -0.17879734234E+02  0.26672453339E+02  0.51100000000E-03 0. -1.
        -11    1    3    3    0    0 -0.13960871773E+02  0.94040630657E+01  0.12673154596E+01  0.16880415621E+02  0.51100000000E-03 0.  1.
         12    1    3    3    0    0  0.15707780360E+02 -0.11414591630E+01  0.28000974671E-01  0.15749224645E+02  0.00000000000E+00 0. -1.
</event>
<event>
 7    1  0.3220798E-013  0.5930194E+02  0.7816164E-02  0.1266605E+00
        -11   -1    0    0    0    0  0.00000000000E+00  0.00000000000E+00  0.45593999997E+02  0.45594000000E+02  0.51100000000E-03 0. -1.
         11   -1    0    0    0    0 -0.00000000000E+00 -0.00000000000E+00 -0.45593999997E+02  0.45594000000E+02  0.51100000000E-03 0.  1.
    9900012    2    1    2    0    0  0.25261101819E+02 -0.11108211597E+02 -0.15975149334E+02  0.59301936803E+02  0.49999986823E+02 0.  0.
         12    1    1    2    0    0 -0.25261101819E+02  0.11108211597E+02  0.15975149334E+02  0.31886063197E+02  0.00000000000E+00 0. -1.
         11    1    3    3    0    0  0.32514581307E+02 -0.62211219109E+01 -0.97636472587E+01  0.34514187857E+02  0.51100000000E-03 0. -1.
        -11    1    3    3    0    0  0.68961335639E+01 -0.64520933049E+01 -0.44615681832E+01  0.10444699951E+02  0.51100000000E-03 0.  1.
         12    1    3    3    0    0 -0.14149613052E+02  0.15650036188E+01 -0.17499338916E+01  0.14343048995E+02  0.00000000000E+00 0. -1.
</event>
<event>
 7    1  0.3220798E-013  0.5930194E+02  0.7816164E-02  0.1266605E+00
        -11   -1    0    0    0    0  0.00000000000E+00  0.00000000000E+00  0.45593999997E+02  0.45594000000E+02  0.51100000000E-03 0.  1.
         11   -1    0    0    0    0 -0.00000000000E+00 -0.00000000000E+00 -0.45593999997E+02  0.45594000000E+02  0.51100000000E-03 0. -1.
    9900012    2    1    2    0    0 -0.16145753518E+02  0.66342571490E+01  0.26683745068E+02  0.59301937599E+02  0.49999988275E+02 0.  0.
         12    1    1    2    0    0  0.16145753518E+02 -0.66342571490E+01 -0.26683745068E+02  0.31886062401E+02  0.00000000000E+00 0. -1.
         11    1    3    3    0    0 -0.31244094072E+01 -0.15664077248E+01  0.97444478597E+00  0.36283756980E+01  0.51100000000E-03 0. -1.
        -11    1    3    3    0    0 -0.23570296255E+01 -0.90831731986E+01  0.32835819980E+02  0.34150412853E+02  0.51100000000E-03 0.  1.
        -12    1    3    3    0    0 -0.10664314485E+02  0.17283838072E+02 -0.71265196972E+01  0.21523149048E+02  0.00000000000E+00 0.  1.
</event>
<event>
 7    1  0.3220798E-013  0.5930192E+02  0.7816164E-02  0.1266605E+00
        -11   -1    0    0    0    0  0.00000000000E+00  0.00000000000E+00  0.45593999997E+02  0.45594000000E+02  0.51100000000E-03 0. -1.
         11   -1    0    0    0    0 -0.00000000000E+00 -0.00000000000E+00 -0.45593999997E+02  0.45594000000E+02  0.51100000000E-03 0.  1.
    9900012    2    1    2    0    0  0.18366877634E+02 -0.25474720889E+02  0.55152715778E+01  0.59301924372E+02  0.49999964153E+02 0.  0.
         12    1    1    2    0    0 -0.18366877634E+02  0.25474720889E+02 -0.55152715778E+01  0.31886075628E+02  0.00000000000E+00 0. -1.
         11    1    3    3    0    0  0.25146329988E+02 -0.42180856786E+01  0.39426595132E+01  0.25800672917E+02  0.51100000000E-03 0. -1.
        -11    1    3    3    0    0  0.67954388639E+01 -0.10429349474E+02  0.82104569391E+01  0.14911771297E+02  0.51100000000E-03 0.  1.
        -12    1    3    3    0    0 -0.13574891218E+02 -0.10827285736E+02 -0.66378448746E+01  0.18589480159E+02  0.00000000000E+00 0.  1.
</event>
<event>
 7    1  0.3220798E-013  0.5930181E+02  0.7816164E-02  0.1266605E+00
        -11   -1    0    0    0    0  0.00000000000E+00  0.00000000000E+00  0.45593999997E+02  0.45594000000E+02  0.51100000000E-03 0.  1.
         11   -1    0    0    0    0 -0.00000000000E+00 -0.00000000000E+00 -0.45593999997E+02  0.45594000000E+02  0.51100000000E-03 0. -1.
    9900012    2    1    2    0    0  0.44392470090E+01 -0.30165749180E+02  0.93300322920E+01  0.59301814274E+02  0.49999763359E+02 0.  0.
         12    1    1    2    0    0 -0.44392470090E+01  0.30165749180E+02 -0.93300322920E+01  0.31886185726E+02  0.00000000000E+00 0. -1.
         11    1    3    3    0    0 -0.27465734215E+01 -0.24116445982E+02 -0.70450957486E+01  0.25274097545E+02  0.51100000000E-03 0. -1.
        -11    1    3    3    0    0  0.82654611019E+00 -0.14647097273E+02  0.24237337148E+00  0.14672402056E+02  0.51100000000E-03 0.  1.
         12    1    3    3    0    0  0.63592743204E+01  0.85977940748E+01  0.16132754669E+02  0.19355314672E+02  0.00000000000E+00 0. -1.
</event>
<event>
 7    1  0.3220798E-013  0.5930195E+02  0.7816164E-02  0.1266605E+00
        -11   -1    0    0    0    0  0.00000000000E+00  0.00000000000E+00  0.45593999997E+02  0.45594000000E+02  0.51100000000E-03 0. -1.
         11   -1    0    0    0    0 -0.00000000000E+00 -0.00000000000E+00 -0.45593999997E+02  0.45594000000E+02  0.51100000000E-03 0.  1.
    9900012    2    1    2    0    0 -0.16300307274E+01  0.41028640625E+01 -0.31578944738E+02  0.59301949061E+02  0.50000009180E+02 0.  0.
         12    1    1    2    0    0  0.16300307274E+01 -0.41028640625E+01  0.31578944738E+02  0.31886050939E+02  0.00000000000E+00 0. -1.
         11    1    3    3    0    0  0.85960380871E+01 -0.46485148253E+01 -0.11555548832E+02  0.15133779103E+02  0.51100000000E-03 0. -1.
        -11    1    3    3    0    0 -0.25871883016E+01  0.18255051526E+02 -0.24944993155E+02  0.31019238116E+02  0.51100000000E-03 0.  1.
        -12    1    3    3    0    0 -0.76388805128E+01 -0.95036726377E+01  0.49215972493E+01  0.13148931842E+02  0.00000000000E+00 0.  1.
</event>
<event>
 7    1  0.3220798E-013  0.5930184E+02  0.7816164E-02  0.1266605E+00
        -11   -1    0    0    0    0  0.00000000000E+00  0.00000000000E+00  0.45593999997E+02  0.45594000000E+02  0.51100000000E-03 0.  1.
         11   -1    0    0    0    0 -0.00000000000E+00 -0.00000000000E+00 -0.45593999997E+02  0.45594000000E+02  0.51100000000E-03 0. -1.
    9900012    2    1    2    0    0  0.25070479384E+02 -0.14951071061E+02  0.12832127911E+02  0.59301843613E+02  0.49999816868E+02 0.  0.
         12    1    1    2    0    0 -0.25070479384E+02  0.14951071061E+02 -0.12832127911E+02  0.31886156387E+02  0.00000000000E+00 0. -1.
         11    1    3    3    0    0 -0.23235723446E+00 -0.56046925352E+01 -0.12522303594E+02  0.13721321214E+02  0.51100000000E-03 0. -1.
        -11    1    3    3    0    0  0.48526352492E+01 -0.15724365147E+02  0.11067143147E+02  0.19831424201E+02  0.51100000000E-03 0.  1.
        -12    1    3    3    0    0  0.20450201369E+02  0.63779866215E+01  0.14287288358E+02  0.25749098198E+02  0.00000000000E+00 0.  1.
</event>
<event>
 7    1  0.3220798E-013  0.5930195E+02  0.7816164E-02  0.1266605E+00
        -11   -1    0    0    0    0  0.00000000000E+00  0.00000000000E+00  0.45593999997E+02  0.45594000000E+02  0.51100000000E-03 0.  1.
         11   -1    0    0    0    0 -0.00000000000E+00 -0.00000000000E+00 -0.45593999997E+02  0.45594000000E+02  0.51100000000E-03 0. -1.
    9900012    2    1    2    0    0  0.29486761984E+01 -0.21969527806E+02  0.22920852375E+02  0.59301947925E+02  0.50000007108E+02 0.  0.
         12    1    1    2    0    0 -0.29486761984E+01  0.21969527806E+02 -0.22920852375E+02  0.31886052075E+02  0.00000000000E+00 0. -1.
         11    1    3    3    0    0 -0.24773530970E+00  0.11338035467E+01 -0.66713965255E+01  0.67715888185E+01  0.51100000000E-03 0. -1.
        -11    1    3    3    0    0 -0.10733758492E+02 -0.73721762398E+01  0.28680596924E+02  0.31498241127E+02  0.51100000000E-03 0.  1.
         12    1    3    3    0    0  0.13930170000E+02 -0.15731155113E+02  0.91165197637E+00  0.21032117980E+02  0.00000000000E+00 0. -1.
</event>
<event>
 7    1  0.3220798E-013  0.5930197E+02  0.7816164E-02  0.1266605E+00
        -11   -1    0    0    0    0  0.00000000000E+00  0.00000000000E+00  0.45593999997E+02  0.45594000000E+02  0.51100000000E-03 0.  1.
         11   -1    0    0    0    0 -0.00000000000E+00 -0.00000000000E+00 -0.45593999997E+02  0.45594000000E+02  0.51100000000E-03 0. -1.
    9900012    2    1    2    0    0 -0.29926971113E+02  0.97207262988E+01 -0.51578152394E+01  0.59301965787E+02  0.50000039684E+02 0.  0.
         12    1    1    2    0    0  0.29926971113E+02 -0.97207262988E+01  0.51578152394E+01  0.31886034213E+02  0.00000000000E+00 0. -1.
         11    1    3    3    0    0  0.68473952751E+01 -0.38825006823E+01  0.31427142633E+01  0.84756879841E+01  0.51100000000E-03 0. -1.
        -11    1    3    3    0    0 -0.21989668813E+02  0.59595839509E+00  0.97974665926E+01  0.24080927158E+02  0.51100000000E-03 0.  1.
         12    1    3    3    0    0 -0.14784697575E+02  0.13007268586E+02 -0.18097996095E+02  0.26745350645E+02  0.00000000000E+00 0. -1.
</event>
<event>
 7    1  0.3220798E-013  0.5930184E+02  0.7816164E-02  0.1266605E+00
        -11   -1    0    0    0    0  0.00000000000E+00  0.00000000000E+00  0.45593999997E+02  0.45594000000E+02  0.51100000000E-03 0.  1.
         11   -1    0    0    0    0 -0.00000000000E+00 -0.00000000000E+00 -0.45593999997E+02  0.45594000000E+02  0.51100000000E-03 0. -1.
    9900012    2    1    2    0    0  0.21291393491E+02 -0.82257939506E+01  0.22265220323E+02  0.59301840636E+02  0.49999811438E+02 0.  0.
         12    1    1    2    0    0 -0.21291393491E+02  0.82257939506E+01 -0.22265220323E+02  0.31886159364E+02  0.00000000000E+00 0. -1.
         11    1    3    3    0    0 -0.35325057916E+01 -0.35860785347E+01 -0.89844451953E+01  0.10298485916E+02  0.51100000000E-03 0. -1.
        -11    1    3    3    0    0 -0.15674531760E+01  0.55468963571E+01  0.15694919071E+02  0.16719911889E+02  0.51100000000E-03 0.  1.
        -12    1    3    3    0    0  0.26391352459E+02 -0.10186611773E+02  0.15554746448E+02  0.32283442832E+02  0.00000000000E+00 0.  1.
</event>
<event>
 7    1  0.3220798E-013  0.5930193E+02  0.7816164E-02  0.1266605E+00
        -11   -1    0    0    0    0  0.00000000000E+00  0.00000000000E+00  0.45593999997E+02  0.45594000000E+02  0.51100000000E-03 0.  1.
         11   -1    0    0    0    0 -0.00000000000E+00 -0.00000000000E+00 -0.45593999997E+02  0.45594000000E+02  0.51100000000E-03 0. -1.
    9900012    2    1    2    0    0  0.49039208948E+01  0.30599790517E+02  0.75050371401E+01  0.59301934042E+02  0.49999981788E+02 0.  0.
         12    1    1    2    0    0 -0.49039208948E+01 -0.30599790517E+02 -0.75050371401E+01  0.31886065958E+02  0.00000000000E+00 0. -1.
         11    1    3    3    0    0  0.10735788212E+01  0.14955619154E+02 -0.11028151354E+02  0.18612985744E+02  0.51100000000E-03 0. -1.
        -11    1    3    3    0    0  0.15878262605E+02  0.12043896719E+02  0.19747637657E+02  0.28056084275E+02  0.51100000000E-03 0.  1.
         12    1    3    3    0    0 -0.12047920532E+02  0.36002746428E+01 -0.12144491630E+01  0.12632864023E+02  0.00000000000E+00 0. -1.
</event>
<event>
 7    1  0.3220798E-013  0.5930192E+02  0.7816164E-02  0.1266605E+00
        -11   -1    0    0    0    0  0.00000000000E+00  0.00000000000E+00  0.45593999997E+02  0.45594000000E+02  0.51100000000E-03 0.  1.
         11   -1    0    0    0    0 -0.00000000000E+00 -0.00000000000E+00 -0.45593999997E+02  0.45594000000E+02  0.51100000000E-03 0. -1.
    9900012    2    1    2    0    0 -0.11487093602E+02  0.23484012981E+02  0.18255674332E+02  0.59301924192E+02  0.49999963825E+02 0.  0.
         12    1    1    2    0    0  0.11487093602E+02 -0.23484012981E+02 -0.18255674332E+02  0.31886075808E+02  0.00000000000E+00 0. -1.
         11    1    3    3    0    0 -0.85545897933E+01  0.12378781443E+02  0.12466902137E+02  0.19540698189E+02  0.51100000000E-03 0. -1.
        -11    1    3    3    0    0 -0.35209506656E+01 -0.10483225782E+02  0.12930538085E+02  0.17014521204E+02  0.51100000000E-03 0.  1.
         12    1    3    3    0    0  0.58844685672E+00  0.21588457321E+02 -0.71417658906E+01  0.22746704799E+02  0.00000000000E+00 0. -1.
</event>
<event>
 7    1  0.3220798E-013  0.5930199E+02  0.7816164E-02  0.1266605E+00
        -11   -1    0    0    0    0  0.00000000000E+00  0.00000000000E+00  0.45593999997E+02  0.45594000000E+02  0.51100000000E-03 0.  1.
         11   -1    0    0    0    0 -0.00000000000E+00 -0.00000000000E+00 -0.45593999997E+02  0.45594000000E+02  0.51100000000E-03 0. -1.
    9900012    2    1    2    0    0 -0.92913606544E+01  0.29729440809E+02  0.68226551564E+01  0.59301989635E+02  0.50000083177E+02 0.  0.
         12    1    1    2    0    0  0.92913606544E+01 -0.29729440809E+02 -0.68226551564E+01  0.31886010365E+02  0.00000000000E+00 0. -1.
         11    1    3    3    0    0 -0.11896798877E+02  0.76721467228E+01  0.14587975449E+02  0.20327436799E+02  0.51100000000E-03 0. -1.
        -11    1    3    3    0    0  0.58084555673E+01  0.23334852355E+01  0.10289402701E+02  0.12043882996E+02  0.51100000000E-03 0.  1.
         12    1    3    3    0    0 -0.32030173449E+01  0.19723808850E+02 -0.18054722994E+02  0.26930669840E+02  0.00000000000E+00 0. -1.
</event>
<event>
 7    1  0.4153003E-013  0.5930193E+02  0.7816164E-02  0.1266605E+00
        -11   -1    0    0    0    0  0.00000000000E+00  0.00000000000E+00  0.45593999997E+02  0.45594000000E+02  0.51100000000E-03 0.  1.
         11   -1    0    0    0    0 -0.00000000000E+00 -0.00000000000E+00 -0.45593999997E+02  0.45594000000E+02  0.51100000000E-03 0. -1.
    9900012    2    1    2    0    0  0.17224152188E+02  0.17184792079E+01 -0.26778661752E+02  0.59301932280E+02  0.49999978576E+02 0.  0.
         12    1    1    2    0    0 -0.17224152188E+02 -0.17184792079E+01  0.26778661752E+02  0.31886067720E+02  0.00000000000E+00 0. -1.
         11    1    3    3    0    0  0.88827996337E+01  0.16176062173E+02 -0.16139712356E+02  0.24516513454E+02  0.51100000000E-03 0. -1.
        -11    1    3    3    0    0  0.12767123453E+02  0.55821960549E+00 -0.13807229286E+02  0.18813575716E+02  0.51100000000E-03 0.  1.
         12    1    3    3    0    0 -0.44257708989E+01 -0.15015802570E+02  0.31682798901E+01  0.15971843110E+02  0.00000000000E+00 0. -1.
</event>
<event>
 7    1  0.3220798E-013  0.5930194E+02  0.7816164E-02  0.1266605E+00
        -11   -1    0    0    0    0  0.00000000000E+00  0.00000000000E+00  0.45593999997E+02  0.45594000000E+02  0.51100000000E-03 0. -1.
         11   -1    0    0    0    0 -0.00000000000E+00 -0.00000000000E+00 -0.45593999997E+02  0.45594000000E+02  0.51100000000E-03 0.  1.
    9900012    2    1    2    0    0 -0.29097070033E+02 -0.12255038006E+02 -0.44604324887E+01  0.59301938797E+02  0.49999990461E+02 0.  0.
         12    1    1    2    0    0  0.29097070033E+02  0.12255038006E+02  0.44604324887E+01  0.31886061203E+02  0.00000000000E+00 0. -1.
         11    1    3    3    0    0  0.91298265244E+01 -0.59885946842E+01  0.43126137801E+01  0.11739490472E+02  0.51100000000E-03 0. -1.
        -11    1    3    3    0    0 -0.15017738365E+02 -0.15507441959E+02 -0.20026408818E+01  0.21680032115E+02  0.51100000000E-03 0.  1.
        -12    1    3    3    0    0 -0.23209158192E+02  0.92409986374E+01 -0.67704053871E+01  0.25882416211E+02  0.00000000000E+00 0.  1.
</event>
<event>
 7    1  0.3220798E-013  0.5930193E+02  0.7816164E-02  0.1266605E+00
        -11   -1    0    0    0    0  0.00000000000E+00  0.00000000000E+00  0.45593999997E+02  0.45594000000E+02  0.51100000000E-03 0. -1.
         11   -1    0    0    0    0 -0.00000000000E+00 -0.00000000000E+00 -0.45593999997E+02  0.45594000000E+02  0.51100000000E-03 0.  1.
    9900012    2    1    2    0    0  0.29643891884E+02 -0.29948182304E+01 -0.11357463784E+02  0.59301933358E+02  0.49999980542E+02 0.  0.
         12    1    1    2    0    0 -0.29643891884E+02  0.29948182304E+01  0.11357463784E+02  0.31886066642E+02  0.00000000000E+00 0. -1.
         11    1    3    3    0    0  0.86528291510E+01 -0.35454237071E+01 -0.21546226630E+01  0.95960346321E+01  0.51100000000E-03 0. -1.
        -11    1    3    3    0    0  0.17220072710E+02  0.16188400722E+02 -0.19470866098E+02  0.30622048412E+02  0.51100000000E-03 0.  1.
         12    1    3    3    0    0  0.37709900226E+01 -0.15637795245E+02  0.10268024977E+02  0.19083850314E+02  0.00000000000E+00 0. -1.
</event>
<event>
 7    1  0.3220798E-013  0.5930195E+02  0.7816164E-02  0.1266605E+00
        -11   -1    0    0    0    0  0.00000000000E+00  0.00000000000E+00  0.45593999997E+02  0.45594000000E+02  0.51100000000E-03 0.  1.
         11   -1    0    0    0    0 -0.00000000000E+00 -0.00000000000E+00 -0.45593999997E+02  0.45594000000E+02  0.51100000000E-03 0. -1.
    9900012    2    1    2    0    0  0.41808961850E+01  0.25344392059E+02  0.18891846970E+02  0.59301953151E+02  0.50000016638E+02 0.  0.
         12    1    1    2    0    0 -0.41808961850E+01 -0.25344392059E+02 -0.18891846970E+02  0.31886046849E+02  0.00000000000E+00 0. -1.
         11    1    3    3    0    0  0.14799897620E+02  0.89041233511E+00  0.35591247067E+01  0.15247857968E+02  0.51100000000E-03 0. -1.
        -11    1    3    3    0    0  0.89269156674E+01  0.13587312000E+02 -0.11116351645E+01  0.16295416647E+02  0.51100000000E-03 0.  1.
        -12    1    3    3    0    0 -0.19545917102E+02  0.10866667724E+02  0.16444357428E+02  0.27758678535E+02  0.00000000000E+00 0.  1.
</event>
<event>
 7    1  0.3220798E-013  0.5930192E+02  0.7816164E-02  0.1266605E+00
        -11   -1    0    0    0    0  0.00000000000E+00  0.00000000000E+00  0.45593999997E+02  0.45594000000E+02  0.51100000000E-03 0. -1.
         11   -1    0    0    0    0 -0.00000000000E+00 -0.00000000000E+00 -0.45593999997E+02  0.45594000000E+02  0.51100000000E-03 0.  1.
    9900012    2    1    2    0    0  0.15166943690E+02 -0.27933855976E+02  0.25269815608E+01  0.59301919551E+02  0.49999955360E+02 0.  0.
         12    1    1    2    0    0 -0.15166943690E+02  0.27933855976E+02 -0.25269815608E+01  0.31886080449E+02  0.00000000000E+00 0. -1.
         11    1    3    3    0    0  0.23205162260E+01 -0.32151841499E+01  0.63088907855E+01  0.74514634722E+01  0.51100000000E-03 0. -1.
        -11    1    3    3    0    0  0.25652769852E+02 -0.89940829724E+01 -0.12321811090E+02  0.29846024164E+02  0.51100000000E-03 0.  1.
         12    1    3    3    0    0 -0.12806342389E+02 -0.15724588854E+02  0.85399018656E+01  0.22004431915E+02  0.00000000000E+00 0. -1.
</event>
<event>
 7    1  0.3220798E-013  0.5930196E+02  0.7816164E-02  0.1266605E+00
        -11   -1    0    0    0    0  0.00000000000E+00  0.00000000000E+00  0.45593999997E+02  0.45594000000E+02  0.51100000000E-03 0.  1.
         11   -1    0    0    0    0 -0.00000000000E+00 -0.00000000000E+00 -0.45593999997E+02  0.45594000000E+02  0.51100000000E-03 0. -1.
    9900012    2    1    2    0    0  0.24996188111E+02 -0.14393840042E+02 -0.13591453741E+02  0.59301958131E+02  0.50000025722E+02 0.  0.
         12    1    1    2    0    0 -0.24996188111E+02  0.14393840042E+02  0.13591453741E+02  0.31886041869E+02  0.00000000000E+00 0. -1.
         11    1    3    3    0    0  0.40199762250E+01 -0.15011722107E+02 -0.11685977621E+02  0.19444127203E+02  0.51100000000E-03 0. -1.
        -11    1    3    3    0    0 -0.76829215037E+01 -0.23951266534E+01 -0.69127401168E+01  0.10608953327E+02  0.51100000000E-03 0.  1.
        -12    1    3    3    0    0  0.28659133390E+02  0.30130087177E+01  0.50072639975E+01  0.29248877601E+02  0.00000000000E+00 0.  1.
</event>
<event>
 7    1  0.3220798E-013  0.5930196E+02  0.7816164E-02  0.1266605E+00
        -11   -1    0    0    0    0  0.00000000000E+00  0.00000000000E+00  0.45593999997E+02  0.45594000000E+02  0.51100000000E-03 0. -1.
         11   -1    0    0    0    0 -0.00000000000E+00 -0.00000000000E+00 -0.45593999997E+02  0.45594000000E+02  0.51100000000E-03 0.  1.
    9900012    2    1    2    0    0  0.18573628994E+02  0.22994910890E+02 -0.11957160999E+02  0.59301963557E+02  0.50000035617E+02 0.  0.
         12    1    1    2    0    0 -0.18573628994E+02 -0.22994910890E+02  0.11957160999E+02  0.31886036443E+02  0.00000000000E+00 0. -1.
         11    1    3    3    0    0  0.57091013667E+01  0.19841466288E+02  0.62981606382E+00  0.20656095745E+02  0.51100000000E-03 0. -1.
        -11    1    3    3    0    0 -0.51664954815E+01 -0.13772106155E+01 -0.18404457874E+02  0.19165423412E+02  0.51100000000E-03 0.  1.
         12    1    3    3    0    0  0.18031023109E+02  0.45306552173E+01  0.58174808113E+01  0.19480444401E+02  0.00000000000E+00 0. -1.
</event>
<event>
 7    1  0.3220798E-013  0.5930195E+02  0.7816164E-02  0.1266605E+00
        -11   -1    0    0    0    0  0.00000000000E+00  0.00000000000E+00  0.45593999997E+02  0.45594000000E+02  0.51100000000E-03 0.  1.
         11   -1    0    0    0    0 -0.00000000000E+00 -0.00000000000E+00 -0.45593999997E+02  0.45594000000E+02  0.51100000000E-03 0. -1.
    9900012    2    1    2    0    0 -0.11910605241E+02 -0.25359211001E+02  0.15223931580E+02  0.59301949875E+02  0.50000010665E+02 0.  0.
         12    1    1    2    0    0  0.11910605241E+02  0.25359211001E+02 -0.15223931580E+02  0.31886050125E+02  0.00000000000E+00 0. -1.
         11    1    3    3    0    0  0.68586393259E+01 -0.78216480695E+01 -0.12958982882E+02  0.16617892451E+02  0.51100000000E-03 0. -1.
        -11    1    3    3    0    0  0.10595700204E+01 -0.10522826188E+02  0.12919903220E+02  0.16696600226E+02  0.51100000000E-03 0.  1.
        -12    1    3    3    0    0 -0.19828814587E+02 -0.70147367435E+01  0.15263011241E+02  0.25987457199E+02  0.00000000000E+00 0.  1.
</event>
<event>
 7    1  0.3220798E-013  0.5930194E+02  0.7816164E-02  0.1266605E+00
        -11   -1    0    0    0    0  0.00000000000E+00  0.00000000000E+00  0.45593999997E+02  0.45594000000E+02  0.51100000000E-03 0.  1.
         11   -1    0    0    0    0 -0.00000000000E+00 -0.00000000000E+00 -0.45593999997E+02  0.45594000000E+02  0.51100000000E-03 0. -1.
    9900012    2    1    2    0    0  0.31422980084E+02  0.51039759023E+01  0.18073342403E+01  0.59301941849E+02  0.49999996027E+02 0.  0.
         12    1    1    2    0    0 -0.31422980084E+02 -0.51039759023E+01 -0.18073342403E+01  0.31886058151E+02  0.00000000000E+00 0. -1.
         11    1    3    3    0    0  0.75929939679E+01  0.10433189609E+02 -0.97704951117E+01  0.16185412500E+02  0.51100000000E-03 0. -1.
        -11    1    3    3    0    0  0.12821313780E+02  0.14188930742E+02  0.52049325816E+01  0.19819262502E+02  0.51100000000E-03 0.  1.
         12    1    3    3    0    0  0.11008672335E+02 -0.19518144449E+02  0.63728967705E+01  0.23297266847E+02  0.00000000000E+00 0. -1.
</event>
<event>
 7    1  0.3220798E-013  0.5930196E+02  0.7816164E-02  0.1266605E+00
        -11   -1    0    0    0    0  0.00000000000E+00  0.00000000000E+00  0.45593999997E+02  0.45594000000E+02  0.51100000000E-03 0. -1.
         11   -1    0    0    0    0 -0.00000000000E+00 -0.00000000000E+00 -0.45593999997E+02  0.45594000000E+02  0.51100000000E-03 0.  1.
    9900012    2    1    2    0    0 -0.57579329057E+01 -0.12632841668E+00 -0.31361597427E+02  0.59301960055E+02  0.50000029230E+02 0.  0.
         12    1    1    2    0    0  0.57579329057E+01  0.12632841668E+00  0.31361597427E+02  0.31886039945E+02  0.00000000000E+00 0. -1.
         11    1    3    3    0    0  0.17291558839E+02 -0.31653229506E+01 -0.86675016210E+01  0.19599562777E+02  0.51100000000E-03 0. -1.
        -11    1    3    3    0    0 -0.15615089746E+01  0.54363803610E+01 -0.16150922409E+02  0.17112709798E+02  0.51100000000E-03 0.  1.
         12    1    3    3    0    0 -0.21487982770E+02 -0.23973858271E+01 -0.65431733963E+01  0.22589687479E+02  0.00000000000E+00 0. -1.
</event>
<event>
 7    1  0.3220798E-013  0.5930191E+02  0.7816164E-02  0.1266605E+00
        -11   -1    0    0    0    0  0.00000000000E+00  0.00000000000E+00  0.45593999997E+02  0.45594000000E+02  0.51100000000E-03 0.  1.
         11   -1    0    0    0    0 -0.00000000000E+00 -0.00000000000E+00 -0.45593999997E+02  0.45594000000E+02  0.51100000000E-03 0. -1.
    9900012    2    1    2    0    0  0.16564085034E+02  0.11878280963E+02  0.24520604542E+02  0.59301913398E+02  0.49999944139E+02 0.  0.
         12    1    1    2    0    0 -0.16564085034E+02 -0.11878280963E+02 -0.24520604542E+02  0.31886086602E+02  0.00000000000E+00 0. -1.
         11    1    3    3    0    0  0.18104288412E+02 -0.60994812160E+01  0.26118428693E+02  0.32359561921E+02  0.51100000000E-03 0. -1.
        -11    1    3    3    0    0  0.90086077644E+01  0.55140761115E+01 -0.39509245518E+00  0.10569585968E+02  0.51100000000E-03 0.  1.
         12    1    3    3    0    0 -0.10548811143E+02  0.12463686067E+02 -0.12027316955E+01  0.16372765510E+02  0.00000000000E+00 0. -1.
</event>
<event>
 7    1  0.3941409E-013  0.5930194E+02  0.7816164E-02  0.1266605E+00
        -11   -1    0    0    0    0  0.00000000000E+00  0.00000000000E+00  0.45593999997E+02  0.45594000000E+02  0.51100000000E-03 0. -1.
         11   -1    0    0    0    0 -0.00000000000E+00 -0.00000000000E+00 -0.45593999997E+02  0.45594000000E+02  0.51100000000E-03 0.  1.
    9900012    2    1    2    0    0 -0.52323446802E+01 -0.20092385125E+02 -0.24199994771E+02  0.59301935367E+02  0.49999984206E+02 0.  0.
         12    1    1    2    0    0  0.52323446802E+01  0.20092385125E+02  0.24199994771E+02  0.31886064633E+02  0.00000000000E+00 0. -1.
         11    1    3    3    0    0  0.64204781014E+01 -0.15372984976E+02  0.47664232036E+01  0.17328300452E+02  0.51100000000E-03 0. -1.
        -11    1    3    3    0    0 -0.15046742769E+02 -0.13226749441E+02 -0.14049654613E+02  0.24469249350E+02  0.51100000000E-03 0.  1.
         12    1    3    3    0    0  0.33939199873E+01  0.85073492925E+01 -0.14916763361E+02  0.17504385566E+02  0.00000000000E+00 0. -1.
</event>
<event>
 7    1  0.3220798E-013  0.5930197E+02  0.7816164E-02  0.1266605E+00
        -11   -1    0    0    0    0  0.00000000000E+00  0.00000000000E+00  0.45593999997E+02  0.45594000000E+02  0.51100000000E-03 0.  1.
         11   -1    0    0    0    0 -0.00000000000E+00 -0.00000000000E+00 -0.45593999997E+02  0.45594000000E+02  0.51100000000E-03 0. -1.
    9900012    2    1    2    0    0 -0.13685886933E+02  0.73758306884E+01  0.27839049842E+02  0.59301967390E+02  0.50000042608E+02 0.  0.
         12    1    1    2    0    0  0.13685886933E+02 -0.73758306884E+01 -0.27839049842E+02  0.31886032610E+02  0.00000000000E+00 0. -1.
         11    1    3    3    0    0  0.13804476052E+02 -0.35917700015E+01  0.97602526502E+01  0.17283717854E+02  0.51100000000E-03 0. -1.
        -11    1    3    3    0    0 -0.36207153329E+00 -0.79486154217E-01  0.12121606777E+02  0.12127273599E+02  0.51100000000E-03 0.  1.
         12    1    3    3    0    0 -0.27128291452E+02  0.11047086844E+02  0.59571904148E+01  0.29890975937E+02  0.00000000000E+00 0. -1.
</event>
<event>
 7    1  0.3220798E-013  0.5930190E+02  0.7816164E-02  0.1266605E+00
        -11   -1    0    0    0    0  0.00000000000E+00  0.00000000000E+00  0.45593999997E+02  0.45594000000E+02  0.51100000000E-03 0. -1.
         11   -1    0    0    0    0 -0.00000000000E+00 -0.00000000000E+00 -0.45593999997E+02  0.45594000000E+02  0.51100000000E-03 0.  1.
    9900012    2    1    2    0    0 -0.98682676239E+01  0.29631412071E+02 -0.64280631821E+01  0.59301901407E+02  0.49999922270E+02 0.  0.
         12    1    1    2    0    0  0.98682676239E+01 -0.29631412071E+02  0.64280631821E+01  0.31886098593E+02  0.00000000000E+00 0. -1.
         11    1    3    3    0    0 -0.36798917784E+01  0.21981500126E+02  0.12602184259E+01  0.22322994916E+02  0.51100000000E-03 0. -1.
        -11    1    3    3    0    0 -0.12200414026E+02  0.15492069428E+02  0.55255581269E+01  0.20478918684E+02  0.51100000000E-03 0.  1.
        -12    1    3    3    0    0  0.60120381810E+01 -0.78421574835E+01 -0.13213839735E+02  0.16499987807E+02  0.00000000000E+00 0.  1.
</event>
<event>
 7    1  0.3220798E-013  0.5930194E+02  0.7816164E-02  0.1266605E+00
        -11   -1    0    0    0    0  0.00000000000E+00  0.00000000000E+00  0.45593999997E+02  0.45594000000E+02  0.51100000000E-03 0.  1.
         11   -1    0    0    0    0 -0.00000000000E+00 -0.00000000000E+00 -0.45593999997E+02  0.45594000000E+02  0.51100000000E-03 0. -1.
    9900012    2    1    2    0    0 -0.52959420847E+01 -0.17185264757E+02  0.26331357610E+02  0.59301941590E+02  0.49999995554E+02 0.  0.
         12    1    1    2    0    0  0.52959420847E+01  0.17185264757E+02 -0.26331357610E+02  0.31886058410E+02  0.00000000000E+00 0. -1.
         11    1    3    3    0    0 -0.84611861692E+01 -0.33107419611E+02  0.13856726094E+02  0.36874134064E+02  0.51100000000E-03 0. -1.
        -11    1    3    3    0    0  0.90683873126E+00 -0.48715420059E-02 -0.10671569920E+01  0.14004301208E+01  0.51100000000E-03 0.  1.
        -12    1    3    3    0    0  0.22584053533E+01  0.15927026396E+02  0.13541788508E+02  0.21027377405E+02  0.00000000000E+00 0.  1.
</event>
<event>
 7    1  0.3220798E-013  0.5930195E+02  0.7816164E-02  0.1266605E+00
        -11   -1    0    0    0    0  0.00000000000E+00  0.00000000000E+00  0.45593999997E+02  0.45594000000E+02  0.51100000000E-03 0.  1.
         11   -1    0    0    0    0 -0.00000000000E+00 -0.00000000000E+00 -0.45593999997E+02  0.45594000000E+02  0.51100000000E-03 0. -1.
    9900012    2    1    2    0    0  0.14055239160E+02  0.79128080880E+01  0.27505596638E+02  0.59301950917E+02  0.50000012565E+02 0.  0.
         12    1    1    2    0    0 -0.14055239160E+02 -0.79128080880E+01 -0.27505596638E+02  0.31886049083E+02  0.00000000000E+00 0. -1.
         11    1    3    3    0    0  0.71156996990E+01  0.19489866680E+01 -0.16235045843E+00  0.73795724247E+01  0.51100000000E-03 0. -1.
        -11    1    3    3    0    0  0.19988585354E+02 -0.47369541024E+01  0.12573494087E+01  0.20580651263E+02  0.51100000000E-03 0.  1.
         12    1    3    3    0    0 -0.13049045892E+02  0.10700775522E+02  0.26410597688E+02  0.31341727229E+02  0.00000000000E+00 0. -1.
</event>
<event>
 7    1  0.3220798E-013  0.5930195E+02  0.7816164E-02  0.1266605E+00
        -11   -1    0    0    0    0  0.00000000000E+00  0.00000000000E+00  0.45593999997E+02  0.45594000000E+02  0.51100000000E-03 0.  1.
         11   -1    0    0    0    0 -0.00000000000E+00 -0.00000000000E+00 -0.45593999997E+02  0.45594000000E+02  0.51100000000E-03 0. -1.
    9900012    2    1    2    0    0 -0.17277036989E+02 -0.11961776056E+02  0.23982077598E+02  0.59301950708E+02  0.50000012184E+02 0.  0.
         12    1    1    2    0    0  0.17277036989E+02  0.11961776056E+02 -0.23982077598E+02  0.31886049292E+02  0.00000000000E+00 0. -1.
         11    1    3    3    0    0  0.59062577676E+01 -0.10912813113E+02  0.10601060660E+02  0.16320412318E+02  0.51100000000E-03 0. -1.
        -11    1    3    3    0    0 -0.89997074389E+01  0.59970583004E+01  0.22315408789E+02  0.24797921525E+02  0.51100000000E-03 0.  1.
         12    1    3    3    0    0 -0.14183587318E+02 -0.70460212433E+01 -0.89343918518E+01  0.18183616866E+02  0.00000000000E+00 0. -1.
</event>
<event>
 7    1  0.3220798E-013  0.5930191E+02  0.7816164E-02  0.1266605E+00
        -11   -1    0    0    0    0  0.00000000000E+00  0.00000000000E+00  0.45593999997E+02  0.45594000000E+02  0.51100000000E-03 0.  1.
         11   -1    0    0    0    0 -0.00000000000E+00 -0.00000000000E+00 -0.45593999997E+02  0.45594000000E+02  0.51100000000E-03 0. -1.
    9900012    2    1    2    0    0  0.16403433524E+02 -0.11444925688E+02  0.24832715152E+02  0.59301910600E+02  0.49999939036E+02 0.  0.
         12    1    1    2    0    0 -0.16403433524E+02  0.11444925688E+02 -0.24832715152E+02  0.31886089400E+02  0.00000000000E+00 0. -1.
         11    1    3    3    0    0  0.84892255240E+01 -0.28578637180E+01 -0.35856123894E+01  0.96483652240E+01  0.51100000000E-03 0. -1.
        -11    1    3    3    0    0  0.18160223039E+02 -0.16154557273E+02  0.80008554685E+01  0.25588612897E+02  0.51100000000E-03 0.  1.
        -12    1    3    3    0    0 -0.10246015039E+02  0.75674953035E+01  0.20417472073E+02  0.24064932479E+02  0.00000000000E+00 0.  1.
</event>
<event>
 7    1  0.3220798E-013  0.5930198E+02  0.7816164E-02  0.1266605E+00
        -11   -1    0    0    0    0  0.00000000000E+00  0.00000000000E+00  0.45593999997E+02  0.45594000000E+02  0.51100000000E-03 0. -1.
         11   -1    0    0    0    0 -0.00000000000E+00 -0.00000000000E+00 -0.45593999997E+02  0.45594000000E+02  0.51100000000E-03 0.  1.
    9900012    2    1    2    0    0  0.28249536530E+02 -0.13211039175E+02 -0.66445668803E+01  0.59301982072E+02  0.50000069384E+02 0.  0.
         12    1    1    2    0    0 -0.28249536530E+02  0.13211039175E+02  0.66445668803E+01  0.31886017928E+02  0.00000000000E+00 0. -1.
         11    1    3    3    0    0  0.11105225148E+02  0.75037022063E+01  0.10617064040E+02  0.17098351426E+02  0.51100000000E-03 0. -1.
        -11    1    3    3    0    0  0.20262907566E+02 -0.36045111959E+01 -0.58295113600E+01  0.21390678506E+02  0.51100000000E-03 0.  1.
        -12    1    3    3    0    0 -0.31185961841E+01 -0.17110230186E+02 -0.11432119560E+02  0.20812952141E+02  0.00000000000E+00 0.  1.
</event>
<event>
 7    1  0.3220798E-013  0.5930195E+02  0.7816164E-02  0.1266605E+00
        -11   -1    0    0    0    0  0.00000000000E+00  0.00000000000E+00  0.45593999997E+02  0.45594000000E+02  0.51100000000E-03 0. -1.
         11   -1    0    0    0    0 -0.00000000000E+00 -0.00000000000E+00 -0.45593999997E+02  0.45594000000E+02  0.51100000000E-03 0.  1.
    9900012    2    1    2    0    0  0.25781832745E+02  0.17867935500E+02  0.57231521312E+01  0.59301945226E+02  0.50000002185E+02 0.  0.
         12    1    1    2    0    0 -0.25781832745E+02 -0.17867935500E+02 -0.57231521312E+01  0.31886054774E+02  0.00000000000E+00 0. -1.
         11    1    3    3    0    0 -0.46202207592E+01 -0.61186855422E+01 -0.50270740554E+01  0.91682182810E+01  0.51100000000E-03 0. -1.
        -11    1    3    3    0    0  0.11619604531E+02  0.26058627308E+02  0.28575967627E+00  0.28533295034E+02  0.51100000000E-03 0.  1.
         12    1    3    3    0    0  0.18782448973E+02 -0.20720062660E+01  0.10464466510E+02  0.21600431911E+02  0.00000000000E+00 0. -1.
</event>
<event>
 7    1  0.3220798E-013  0.5930195E+02  0.7816164E-02  0.1266605E+00
        -11   -1    0    0    0    0  0.00000000000E+00  0.00000000000E+00  0.45593999997E+02  0.45594000000E+02  0.51100000000E-03 0.  1.
         11   -1    0    0    0    0 -0.00000000000E+00 -0.00000000000E+00 -0.45593999997E+02  0.45594000000E+02  0.51100000000E-03 0. -1.
    9900012    2    1    2    0    0 -0.75842060565E+01 -0.30500722547E+02 -0.53764330620E+01  0.59301948349E+02  0.50000007882E+02 0.  0.
         12    1    1    2    0    0  0.75842060565E+01  0.30500722547E+02  0.53764330620E+01  0.31886051651E+02  0.00000000000E+00 0. -1.
         11    1    3    3    0    0 -0.17693561231E+02 -0.23685828197E+01  0.23682012841E+01  0.18007794735E+02  0.51100000000E-03 0.  1.
        -11    1    3    3    0    0 -0.60072736813E+01 -0.45095832921E+01 -0.10115344776E+02  0.12599360252E+02  0.51100000000E-03 0. -1.
        -12    1    3    3    0    0  0.16116628856E+02 -0.23622556435E+02  0.23707104300E+01  0.28694793363E+02  0.00000000000E+00 0.  1.
</event>
<event>
 7    1  0.3220798E-013  0.5930196E+02  0.7816164E-02  0.1266605E+00
        -11   -1    0    0    0    0  0.00000000000E+00  0.00000000000E+00  0.45593999997E+02  0.45594000000E+02  0.51100000000E-03 0.  1.
         11   -1    0    0    0    0 -0.00000000000E+00 -0.00000000000E+00 -0.45593999997E+02  0.45594000000E+02  0.51100000000E-03 0. -1.
    9900012    2    1    2    0    0  0.21410826193E+01  0.22139870024E+02  0.22846479766E+02  0.59301957329E+02  0.50000024259E+02 0.  0.
         12    1    1    2    0    0 -0.21410826193E+01 -0.22139870024E+02 -0.22846479766E+02  0.31886042671E+02  0.00000000000E+00 0. -1.
         11    1    3    3    0    0 -0.12052829652E+02  0.91775816860E+01  0.86562894924E+01  0.17447924125E+02  0.51100000000E-03 0.  1.
        -11    1    3    3    0    0  0.17792396105E+02  0.10347567947E+02  0.23679138968E+02  0.31374243323E+02  0.51100000000E-03 0. -1.
         12    1    3    3    0    0 -0.35984838340E+01  0.26147203918E+01 -0.94889486943E+01  0.10479789881E+02  0.00000000000E+00 0. -1.
</event>
<event>
 7    1  0.3220798E-013  0.5930194E+02  0.7816164E-02  0.1266605E+00
        -11   -1    0    0    0    0  0.00000000000E+00  0.00000000000E+00  0.45593999997E+02  0.45594000000E+02  0.51100000000E-03 0. -1.
         11   -1    0    0    0    0 -0.00000000000E+00 -0.00000000000E+00 -0.45593999997E+02  0.45594000000E+02  0.51100000000E-03 0.  1.
    9900012    2    1    2    0    0  0.75696942234E+00  0.23088212967E+02 -0.21979124872E+02  0.59301944884E+02  0.50000001561E+02 0.  0.
         12    1    1    2    0    0 -0.75696942234E+00 -0.23088212967E+02  0.21979124872E+02  0.31886055116E+02  0.00000000000E+00 0. -1.
         11    1    3    3    0    0  0.88098690205E+01  0.77620860336E+01 -0.58977442900E+01  0.13139526617E+02  0.51100000000E-03 0. -1.
        -11    1    3    3    0    0  0.73655862549E+01 -0.69898256081E+01 -0.16103956152E+02  0.19038038946E+02  0.51100000000E-03 0.  1.
         12    1    3    3    0    0 -0.15418485853E+02  0.22315952542E+02  0.22575569758E-01  0.27124379320E+02  0.00000000000E+00 0. -1.
</event>
<event>
 7    1  0.3220798E-013  0.5930195E+02  0.7816164E-02  0.1266605E+00
        -11   -1    0    0    0    0  0.00000000000E+00  0.00000000000E+00  0.45593999997E+02  0.45594000000E+02  0.51100000000E-03 0.  1.
         11   -1    0    0    0    0 -0.00000000000E+00 -0.00000000000E+00 -0.45593999997E+02  0.45594000000E+02  0.51100000000E-03 0. -1.
    9900012    2    1    2    0    0  0.14775832427E+02  0.59637156203E+01  0.27619365139E+02  0.59301945704E+02  0.50000003057E+02 0.  0.
         12    1    1    2    0    0 -0.14775832427E+02 -0.59637156203E+01 -0.27619365139E+02  0.31886054296E+02  0.00000000000E+00 0. -1.
         11    1    3    3    0    0  0.12247907589E+02  0.37828148751E+01 -0.14549834702E+01  0.12901081576E+02  0.51100000000E-03 0. -1.
        -11    1    3    3    0    0  0.18822656507E+02  0.29272173181E+01  0.20457323772E+02  0.27952872757E+02  0.51100000000E-03 0.  1.
        -12    1    3    3    0    0 -0.16294731668E+02 -0.74631657287E+00  0.86170248363E+01  0.18447991370E+02  0.00000000000E+00 0.  1.
</event>
<event>
 7    1  0.3220798E-013  0.5930195E+02  0.7816164E-02  0.1266605E+00
        -11   -1    0    0    0    0  0.00000000000E+00  0.00000000000E+00  0.45593999997E+02  0.45594000000E+02  0.51100000000E-03 0.  1.
         11   -1    0    0    0    0 -0.00000000000E+00 -0.00000000000E+00 -0.45593999997E+02  0.45594000000E+02  0.51100000000E-03 0. -1.
    9900012    2    1    2    0    0  0.20818936432E+02  0.23996482632E+02 -0.27315034455E+01  0.59301946561E+02  0.50000004620E+02 0.  0.
         12    1    1    2    0    0 -0.20818936432E+02 -0.23996482632E+02  0.27315034455E+01  0.31886053439E+02  0.00000000000E+00 0. -1.
         11    1    3    3    0    0  0.62075730825E+01  0.26759129365E+02  0.45367293354E+01  0.27841818929E+02  0.51100000000E-03 0. -1.
        -11    1    3    3    0    0  0.20015205516E+02 -0.18710716865E+01  0.25039411928E+01  0.20257815353E+02  0.51100000000E-03 0.  1.
         12    1    3    3    0    0 -0.54038421663E+01 -0.89157504714E+00 -0.97721739737E+01  0.11202312279E+02  0.00000000000E+00 0. -1.
</event>
<event>
 7    1  0.3220798E-013  0.5930195E+02  0.7816164E-02  0.1266605E+00
        -11   -1    0    0    0    0  0.00000000000E+00  0.00000000000E+00  0.45593999997E+02  0.45594000000E+02  0.51100000000E-03 0.  1.
         11   -1    0    0    0    0 -0.00000000000E+00 -0.00000000000E+00 -0.45593999997E+02  0.45594000000E+02  0.51100000000E-03 0. -1.
    9900012    2    1    2    0    0  0.29178460440E+02 -0.11798803384E+00  0.12857821085E+02  0.59301952301E+02  0.50000015088E+02 0.  0.
         12    1    1    2    0    0 -0.29178460440E+02  0.11798803384E+00 -0.12857821085E+02  0.31886047699E+02  0.00000000000E+00 0. -1.
         11    1    3    3    0    0  0.26720297348E+01 -0.16699439018E+01  0.22246601060E+02  0.22468638467E+02  0.51100000000E-03 0. -1.
        -11    1    3    3    0    0 -0.86714366180E-01  0.56971898925E+01  0.38125852679E+01  0.68557493200E+01  0.51100000000E-03 0.  1.
        -12    1    3    3    0    0  0.26593145071E+02 -0.41452340245E+01 -0.13201365243E+02  0.29977564514E+02  0.00000000000E+00 0.  1.
</event>
<event>
 7    1  0.3220798E-013  0.5930194E+02  0.7816164E-02  0.1266605E+00
        -11   -1    0    0    0    0  0.00000000000E+00  0.00000000000E+00  0.45593999997E+02  0.45594000000E+02  0.51100000000E-03 0. -1.
         11   -1    0    0    0    0 -0.00000000000E+00 -0.00000000000E+00 -0.45593999997E+02  0.45594000000E+02  0.51100000000E-03 0.  1.
    9900012    2    1    2    0    0  0.22390218284E+02 -0.21219476630E+02 -0.80704823205E+01  0.59301941163E+02  0.49999994775E+02 0.  0.
         12    1    1    2    0    0 -0.22390218284E+02  0.21219476630E+02  0.80704823205E+01  0.31886058837E+02  0.00000000000E+00 0. -1.
         11    1    3    3    0    0 -0.20881676298E+01  0.40910005739E+01 -0.11098070719E+02  0.12010990954E+02  0.51100000000E-03 0. -1.
        -11    1    3    3    0    0  0.94379449793E+01  0.55666447356E+01  0.65492767518E+01  0.12765397185E+02  0.51100000000E-03 0.  1.
        -12    1    3    3    0    0  0.15040440935E+02 -0.30877121940E+02 -0.35216883529E+01  0.34525553024E+02  0.00000000000E+00 0.  1.
</event>
<event>
 7    1  0.3220798E-013  0.5930170E+02  0.7816164E-02  0.1266606E+00
        -11   -1    0    0    0    0  0.00000000000E+00  0.00000000000E+00  0.45593999997E+02  0.45594000000E+02  0.51100000000E-03 0.  1.
         11   -1    0    0    0    0 -0.00000000000E+00 -0.00000000000E+00 -0.45593999997E+02  0.45594000000E+02  0.51100000000E-03 0. -1.
    9900012    2    1    2    0    0  0.28728646812E+02 -0.35654917138E+01 -0.13367433741E+02  0.59301699436E+02  0.49999553922E+02 0.  0.
         12    1    1    2    0    0 -0.28728646812E+02  0.35654917138E+01  0.13367433741E+02  0.31886300564E+02  0.00000000000E+00 0. -1.
         11    1    3    3    0    0 -0.18349190489E+01 -0.22218074333E+01 -0.11749179422E+01  0.31118786318E+01  0.51100000000E-03 0. -1.
        -11    1    3    3    0    0 -0.12342638576E+01  0.10902807531E+01  0.14505589952E+02  0.14598775959E+02  0.51100000000E-03 0.  1.
        -12    1    3    3    0    0  0.31797829719E+02 -0.24339650337E+01 -0.26698105751E+02  0.41591044845E+02  0.00000000000E+00 0.  1.
</event>
<event>
 7    1  0.3220798E-013  0.5930197E+02  0.7816164E-02  0.1266605E+00
        -11   -1    0    0    0    0  0.00000000000E+00  0.00000000000E+00  0.45593999997E+02  0.45594000000E+02  0.51100000000E-03 0.  1.
         11   -1    0    0    0    0 -0.00000000000E+00 -0.00000000000E+00 -0.45593999997E+02  0.45594000000E+02  0.51100000000E-03 0. -1.
    9900012    2    1    2    0    0  0.18894024892E+02 -0.25627899337E+02 -0.17163161412E+01  0.59301966346E+02  0.50000040704E+02 0.  0.
         12    1    1    2    0    0 -0.18894024892E+02  0.25627899337E+02  0.17163161412E+01  0.31886033654E+02  0.00000000000E+00 0. -1.
         11    1    3    3    0    0  0.21795416900E+02 -0.12264499615E+02  0.18926338792E+02  0.31363425339E+02  0.51100000000E-03 0.  1.
        -11    1    3    3    0    0 -0.51536829279E+01 -0.13389239491E+02 -0.11116239625E+02  0.18149461853E+02  0.51100000000E-03 0. -1.
        -12    1    3    3    0    0  0.22522909202E+01  0.25839768729E-01 -0.95264153080E+01  0.97890791551E+01  0.00000000000E+00 0.  1.
</event>
<event>
 7    1  0.3220798E-013  0.5930194E+02  0.7816164E-02  0.1266605E+00
        -11   -1    0    0    0    0  0.00000000000E+00  0.00000000000E+00  0.45593999997E+02  0.45594000000E+02  0.51100000000E-03 0.  1.
         11   -1    0    0    0    0 -0.00000000000E+00 -0.00000000000E+00 -0.45593999997E+02  0.45594000000E+02  0.51100000000E-03 0. -1.
    9900012    2    1    2    0    0  0.22666831023E+02 -0.21449095930E+02  0.65476574031E+01  0.59301940941E+02  0.49999994371E+02 0.  0.
         12    1    1    2    0    0 -0.22666831023E+02  0.21449095930E+02 -0.65476574031E+01  0.31886059059E+02  0.00000000000E+00 0. -1.
         11    1    3    3    0    0  0.14882837542E+02  0.25553343428E+01 -0.31717781750E+01  0.15430125208E+02  0.51100000000E-03 0. -1.
        -11    1    3    3    0    0 -0.77895220331E+01 -0.10411342143E+02  0.17485047550E+02  0.21789896439E+02  0.51100000000E-03 0.  1.
         12    1    3    3    0    0  0.15573515515E+02 -0.13593088130E+02 -0.77656119723E+01  0.22081919294E+02  0.00000000000E+00 0. -1.
</event>
<event>
 7    1  0.3220798E-013  0.5930180E+02  0.7816164E-02  0.1266605E+00
        -11   -1    0    0    0    0  0.00000000000E+00  0.00000000000E+00  0.45593999997E+02  0.45594000000E+02  0.51100000000E-03 0. -1.
         11   -1    0    0    0    0 -0.00000000000E+00 -0.00000000000E+00 -0.45593999997E+02  0.45594000000E+02  0.51100000000E-03 0.  1.
    9900012    2    1    2    0    0 -0.90496844419E+01  0.26357366952E+02 -0.15495870750E+02  0.59301802493E+02  0.49999741874E+02 0.  0.
         12    1    1    2    0    0  0.90496844419E+01 -0.26357366952E+02  0.15495870750E+02  0.31886197507E+02  0.00000000000E+00 0. -1.
         11    1    3    3    0    0  0.31545978863E+01 -0.77602934994E+01  0.31599903597E+01  0.89531660520E+01  0.51100000000E-03 0. -1.
        -11    1    3    3    0    0 -0.89139007059E+01  0.20006214403E+02  0.51316703303E+01  0.22495339099E+02  0.51100000000E-03 0.  1.
        -12    1    3    3    0    0 -0.32903816222E+01  0.14111446049E+02 -0.23787531440E+02  0.27853297342E+02  0.00000000000E+00 0.  1.
</event>
<event>
 7    1  0.3220798E-013  0.5930200E+02  0.7816164E-02  0.1266605E+00
        -11   -1    0    0    0    0  0.00000000000E+00  0.00000000000E+00  0.45593999997E+02  0.45594000000E+02  0.51100000000E-03 0.  1.
         11   -1    0    0    0    0 -0.00000000000E+00 -0.00000000000E+00 -0.45593999997E+02  0.45594000000E+02  0.51100000000E-03 0. -1.
    9900012    2    1    2    0    0  0.27722265702E+02 -0.10321678027E+01  0.15720290597E+02  0.59302001153E+02  0.50000104183E+02 0.  0.
         12    1    1    2    0    0 -0.27722265702E+02  0.10321678027E+01 -0.15720290597E+02  0.31885998847E+02  0.00000000000E+00 0. -1.
         11    1    3    3    0    0  0.57922630846E+00 -0.13268917753E+02  0.44884190090E+01  0.14019471706E+02  0.51100000000E-03 0. -1.
        -11    1    3    3    0    0  0.23383898202E+02  0.11320828325E+01  0.19880815524E+02  0.30713761294E+02  0.51100000000E-03 0.  1.
        -12    1    3    3    0    0  0.37591411919E+01  0.11104667118E+02 -0.86489439367E+01  0.14568768154E+02  0.00000000000E+00 0.  1.
</event>
<event>
 7    1  0.3220798E-013  0.5930195E+02  0.7816164E-02  0.1266605E+00
        -11   -1    0    0    0    0  0.00000000000E+00  0.00000000000E+00  0.45593999997E+02  0.45594000000E+02  0.51100000000E-03 0. -1.
         11   -1    0    0    0    0 -0.00000000000E+00 -0.00000000000E+00 -0.45593999997E+02  0.45594000000E+02  0.51100000000E-03 0.  1.
    9900012    2    1    2    0    0  0.12158293952E+02 -0.27759858131E+02 -0.99139465012E+01  0.59301950221E+02  0.50000011295E+02 0.  0.
         12    1    1    2    0    0 -0.12158293952E+02  0.27759858131E+02  0.99139465012E+01  0.31886049779E+02  0.00000000000E+00 0. -1.
         11    1    3    3    0    0 -0.25960179171E+01 -0.22297499349E+02 -0.20339026090E+02  0.30291810259E+02  0.51100000000E-03 0. -1.
        -11    1    3    3    0    0  0.17762969770E+02 -0.79351089709E+01  0.17893655314E+01  0.19536910674E+02  0.51100000000E-03 0.  1.
         12    1    3    3    0    0 -0.30086578999E+01  0.24727501887E+01  0.86357140575E+01  0.94732292877E+01  0.00000000000E+00 0. -1.
</event>
<event>
 7    1  0.3220798E-013  0.5930192E+02  0.7816164E-02  0.1266605E+00
        -11   -1    0    0    0    0  0.00000000000E+00  0.00000000000E+00  0.45593999997E+02  0.45594000000E+02  0.51100000000E-03 0.  1.
         11   -1    0    0    0    0 -0.00000000000E+00 -0.00000000000E+00 -0.45593999997E+02  0.45594000000E+02  0.51100000000E-03 0. -1.
    9900012    2    1    2    0    0  0.45681961979E+01 -0.20471474067E+02  0.24016088199E+02  0.59301919034E+02  0.49999954417E+02 0.  0.
         12    1    1    2    0    0 -0.45681961979E+01  0.20471474067E+02 -0.24016088199E+02  0.31886080966E+02  0.00000000000E+00 0. -1.
         11    1    3    3    0    0  0.10326437647E+02 -0.26191169818E+01  0.40397679530E+01  0.11393630397E+02  0.51100000000E-03 0. -1.
        -11    1    3    3    0    0  0.83627115537E+01  0.91810779405E+01  0.95843683316E+01  0.15687168427E+02  0.51100000000E-03 0.  1.
        -12    1    3    3    0    0 -0.14120953003E+02 -0.27033435026E+02  0.10391951914E+02  0.32221120210E+02  0.00000000000E+00 0.  1.
</event>
<event>
 7    1  0.3220798E-013  0.5930195E+02  0.7816164E-02  0.1266605E+00
        -11   -1    0    0    0    0  0.00000000000E+00  0.00000000000E+00  0.45593999997E+02  0.45594000000E+02  0.51100000000E-03 0. -1.
         11   -1    0    0    0    0 -0.00000000000E+00 -0.00000000000E+00 -0.45593999997E+02  0.45594000000E+02  0.51100000000E-03 0.  1.
    9900012    2    1    2    0    0  0.17239820082E+01 -0.22392839448E+02 -0.22634235445E+02  0.59301953104E+02  0.50000016553E+02 0.  0.
         12    1    1    2    0    0 -0.17239820082E+01  0.22392839448E+02  0.22634235445E+02  0.31886046896E+02  0.00000000000E+00 0. -1.
         11    1    3    3    0    0  0.51720764816E+01  0.12419758460E+01 -0.15114108603E+02  0.16022769994E+02  0.51100000000E-03 0.  1.
        -11    1    3    3    0    0  0.34843114127E+01 -0.42368043621E+00  0.11789265806E+02  0.12300679642E+02  0.51100000000E-03 0. -1.
         12    1    3    3    0    0 -0.69324058861E+01 -0.23211134857E+02 -0.19309392648E+02  0.30978503469E+02  0.00000000000E+00 0. -1.
</event>
<event>
 7    1  0.3220798E-013  0.5930218E+02  0.7816164E-02  0.1266604E+00
        -11   -1    0    0    0    0  0.00000000000E+00  0.00000000000E+00  0.45593999997E+02  0.45594000000E+02  0.51100000000E-03 0. -1.
         11   -1    0    0    0    0 -0.00000000000E+00 -0.00000000000E+00 -0.45593999997E+02  0.45594000000E+02  0.51100000000E-03 0.  1.
    9900012    2    1    2    0    0  0.19695997753E+02 -0.10326504141E+02 -0.22850300678E+02  0.59302184089E+02  0.50000437812E+02 0.  0.
         12    1    1    2    0    0 -0.19695997753E+02  0.10326504141E+02  0.22850300678E+02  0.31885815911E+02  0.00000000000E+00 0. -1.
         11    1    3    3    0    0 -0.30341886233E+01  0.53031775901E+01  0.47196552808E+01  0.77204364763E+01  0.51100000000E-03 0. -1.
        -11    1    3    3    0    0  0.18976608807E+02 -0.97713430360E+01  0.17797196469E+01  0.21418642087E+02  0.51100000000E-03 0.  1.
        -12    1    3    3    0    0  0.37535775688E+01 -0.58583386955E+01 -0.29349675605E+02  0.30163105526E+02  0.00000000000E+00 0.  1.
</event>
<event>
 7    1  0.3220798E-013  0.5930197E+02  0.7816164E-02  0.1266605E+00
        -11   -1    0    0    0    0  0.00000000000E+00  0.00000000000E+00  0.45593999997E+02  0.45594000000E+02  0.51100000000E-03 0.  1.
         11   -1    0    0    0    0 -0.00000000000E+00 -0.00000000000E+00 -0.45593999997E+02  0.45594000000E+02  0.51100000000E-03 0. -1.
    9900012    2    1    2    0    0  0.38985545985E+01  0.20920147850E+02  0.23745892927E+02  0.59301972576E+02  0.50000052064E+02 0.  0.
         12    1    1    2    0    0 -0.38985545985E+01 -0.20920147850E+02 -0.23745892927E+02  0.31886027424E+02  0.00000000000E+00 0. -1.
         11    1    3    3    0    0 -0.73839704999E+01  0.23959764947E+02  0.63382461905E+01  0.25860524390E+02  0.51100000000E-03 0. -1.
        -11    1    3    3    0    0 -0.74791323443E+00 -0.71796252422E+00 -0.64972656396E+01  0.65794608780E+01  0.51100000000E-03 0.  1.
        -12    1    3    3    0    0  0.12030438333E+02 -0.23216545733E+01  0.23904912376E+02  0.26861987308E+02  0.00000000000E+00 0.  1.
</event>
<event>
 7    1  0.3220798E-013  0.5930194E+02  0.7816164E-02  0.1266605E+00
        -11   -1    0    0    0    0  0.00000000000E+00  0.00000000000E+00  0.45593999997E+02  0.45594000000E+02  0.51100000000E-03 0. -1.
         11   -1    0    0    0    0 -0.00000000000E+00 -0.00000000000E+00 -0.45593999997E+02  0.45594000000E+02  0.51100000000E-03 0.  1.
    9900012    2    1    2    0    0 -0.21859314508E+02 -0.16765068763E+02 -0.16056885931E+02  0.59301941178E+02  0.49999994803E+02 0.  0.
         12    1    1    2    0    0  0.21859314508E+02  0.16765068763E+02  0.16056885931E+02  0.31886058822E+02  0.00000000000E+00 0. -1.
         11    1    3    3    0    0  0.76660830990E+01 -0.44734778803E+01 -0.62794166622E+01  0.10872529986E+02  0.51100000000E-03 0. -1.
        -11    1    3    3    0    0 -0.27250478140E+02  0.55490264760E+01 -0.12036985459E+02  0.30302958154E+02  0.51100000000E-03 0.  1.
         12    1    3    3    0    0 -0.22749194670E+01 -0.17840617358E+02  0.22595161901E+01  0.18126453038E+02  0.00000000000E+00 0. -1.
</event>
<event>
 7    1  0.3220798E-013  0.5930192E+02  0.7816164E-02  0.1266605E+00
        -11   -1    0    0    0    0  0.00000000000E+00  0.00000000000E+00  0.45593999997E+02  0.45594000000E+02  0.51100000000E-03 0. -1.
         11   -1    0    0    0    0 -0.00000000000E+00 -0.00000000000E+00 -0.45593999997E+02  0.45594000000E+02  0.51100000000E-03 0.  1.
    9900012    2    1    2    0    0 -0.24534960925E+02  0.12501949089E+02  0.16076668145E+02  0.59301916871E+02  0.49999950473E+02 0.  0.
         12    1    1    2    0    0  0.24534960925E+02 -0.12501949089E+02 -0.16076668145E+02  0.31886083129E+02  0.00000000000E+00 0. -1.
         11    1    3    3    0    0 -0.76696528394E+01  0.30968878939E+01  0.13387042374E+02  0.15736174665E+02  0.51100000000E-03 0. -1.
        -11    1    3    3    0    0 -0.14535315744E+02 -0.90935096238E+01  0.13669963892E+02  0.21927955539E+02  0.51100000000E-03 0.  1.
         12    1    3    3    0    0 -0.23299923419E+01  0.18498570819E+02 -0.10980338120E+02  0.21637786668E+02  0.00000000000E+00 0. -1.
</event>
<event>
 7    1  0.3220798E-013  0.5930193E+02  0.7816164E-02  0.1266605E+00
        -11   -1    0    0    0    0  0.00000000000E+00  0.00000000000E+00  0.45593999997E+02  0.45594000000E+02  0.51100000000E-03 0. -1.
         11   -1    0    0    0    0 -0.00000000000E+00 -0.00000000000E+00 -0.45593999997E+02  0.45594000000E+02  0.51100000000E-03 0.  1.
    9900012    2    1    2    0    0  0.12050977289E+02 -0.28861118029E+02 -0.62073602328E+01  0.59301929239E+02  0.49999973029E+02 0.  0.
         12    1    1    2    0    0 -0.12050977289E+02  0.28861118029E+02  0.62073602328E+01  0.31886070761E+02  0.00000000000E+00 0. -1.
         11    1    3    3    0    0 -0.10136563464E+02 -0.13959055442E+02 -0.14958194031E+02  0.22833149511E+02  0.51100000000E-03 0. -1.
        -11    1    3    3    0    0  0.24814561405E+01 -0.12461889642E+02 -0.34458464875E+01  0.13165491875E+02  0.51100000000E-03 0.  1.
         12    1    3    3    0    0  0.19706084613E+02 -0.24401729454E+01  0.12196680285E+02  0.23303287853E+02  0.00000000000E+00 0. -1.
</event>
<event>
 7    1  0.3220798E-013  0.5930195E+02  0.7816164E-02  0.1266605E+00
        -11   -1    0    0    0    0  0.00000000000E+00  0.00000000000E+00  0.45593999997E+02  0.45594000000E+02  0.51100000000E-03 0. -1.
         11   -1    0    0    0    0 -0.00000000000E+00 -0.00000000000E+00 -0.45593999997E+02  0.45594000000E+02  0.51100000000E-03 0.  1.
    9900012    2    1    2    0    0 -0.12585064002E+02  0.29035605082E+02  0.39076523432E+01  0.59301953753E+02  0.50000017736E+02 0.  0.
         12    1    1    2    0    0  0.12585064002E+02 -0.29035605082E+02 -0.39076523432E+01  0.31886046247E+02  0.00000000000E+00 0. -1.
         11    1    3    3    0    0  0.43011627338E+01  0.15658818321E+02  0.15610008935E+02  0.22524896699E+02  0.51100000000E-03 0. -1.
        -11    1    3    3    0    0  0.68439973081E+01  0.63893552536E+01  0.11083669046E+00  0.93635700853E+01  0.51100000000E-03 0.  1.
        -12    1    3    3    0    0 -0.23730224044E+02  0.69874315075E+01 -0.11813193282E+02  0.27413486969E+02  0.00000000000E+00 0.  1.
</event>
<event>
 7    1  0.3220798E-013  0.5930192E+02  0.7816164E-02  0.1266605E+00
        -11   -1    0    0    0    0  0.00000000000E+00  0.00000000000E+00  0.45593999997E+02  0.45594000000E+02  0.51100000000E-03 0. -1.
         11   -1    0    0    0    0 -0.00000000000E+00 -0.00000000000E+00 -0.45593999997E+02  0.45594000000E+02  0.51100000000E-03 0.  1.
    9900012    2    1    2    0    0  0.30932605104E+02 -0.60829354840E+00 -0.77153296615E+01  0.59301915397E+02  0.49999947784E+02 0.  0.
         12    1    1    2    0    0 -0.30932605104E+02  0.60829354840E+00  0.77153296615E+01  0.31886084603E+02  0.00000000000E+00 0. -1.
         11    1    3    3    0    0  0.15320790460E+02  0.14093629592E+02  0.11745811055E+01  0.20850339480E+02  0.51100000000E-03 0. -1.
        -11    1    3    3    0    0  0.12280632620E+02 -0.21229122587E+02  0.27687940871E+01  0.24681081911E+02  0.51100000000E-03 0.  1.
         12    1    3    3    0    0  0.33311820237E+01  0.65271994466E+01 -0.11658704854E+02  0.13770494006E+02  0.00000000000E+00 0. -1.
</event>
<event>
 7    1  0.3220798E-013  0.5930198E+02  0.7816164E-02  0.1266605E+00
        -11   -1    0    0    0    0  0.00000000000E+00  0.00000000000E+00  0.45593999997E+02  0.45594000000E+02  0.51100000000E-03 0. -1.
         11   -1    0    0    0    0 -0.00000000000E+00 -0.00000000000E+00 -0.45593999997E+02  0.45594000000E+02  0.51100000000E-03 0.  1.
    9900012    2    1    2    0    0  0.11180575023E+02  0.15372530059E+02 -0.25600743359E+02  0.59301984276E+02  0.50000073403E+02 0.  0.
         12    1    1    2    0    0 -0.11180575023E+02 -0.15372530059E+02  0.25600743359E+02  0.31886015724E+02  0.00000000000E+00 0. -1.
         11    1    3    3    0    0  0.16935447019E+02  0.16052549635E+01 -0.39163991605E+01  0.17456356775E+02  0.51100000000E-03 0. -1.
        -11    1    3    3    0    0  0.88442669746E+01  0.16468284058E+02 -0.19191962152E+02  0.26790984484E+02  0.51100000000E-03 0.  1.
        -12    1    3    3    0    0 -0.14599138970E+02 -0.27010089624E+01 -0.24923820463E+01  0.15054643016E+02  0.00000000000E+00 0.  1.
</event>
<event>
 7    1  0.3220798E-013  0.5930193E+02  0.7816164E-02  0.1266605E+00
        -11   -1    0    0    0    0  0.00000000000E+00  0.00000000000E+00  0.45593999997E+02  0.45594000000E+02  0.51100000000E-03 0.  1.
         11   -1    0    0    0    0 -0.00000000000E+00 -0.00000000000E+00 -0.45593999997E+02  0.45594000000E+02  0.51100000000E-03 0. -1.
    9900012    2    1    2    0    0  0.27763087700E+02  0.97808359487E+01  0.12258366598E+02  0.59301931849E+02  0.49999977788E+02 0.  0.
         12    1    1    2    0    0 -0.27763087700E+02 -0.97808359487E+01 -0.12258366598E+02  0.31886068151E+02  0.00000000000E+00 0. -1.
         11    1    3    3    0    0  0.21592249075E+02  0.84641449546E+01 -0.14041563667E+01  0.23234427587E+02  0.51100000000E-03 0. -1.
        -11    1    3    3    0    0  0.11752159590E+02  0.14314473961E+02  0.40308987136E+01  0.18954302005E+02  0.51100000000E-03 0.  1.
        -12    1    3    3    0    0 -0.55813209640E+01 -0.12997782967E+02  0.96316242511E+01  0.17113202257E+02  0.00000000000E+00 0.  1.
</event>
<event>
 7    1  0.3220798E-013  0.5930196E+02  0.7816164E-02  0.1266605E+00
        -11   -1    0    0    0    0  0.00000000000E+00  0.00000000000E+00  0.45593999997E+02  0.45594000000E+02  0.51100000000E-03 0. -1.
         11   -1    0    0    0    0 -0.00000000000E+00 -0.00000000000E+00 -0.45593999997E+02  0.45594000000E+02  0.51100000000E-03 0.  1.
    9900012    2    1    2    0    0 -0.92242131775E+01 -0.30226830647E+02 -0.42393783118E+01  0.59301957157E+02  0.50000023944E+02 0.  0.
         12    1    1    2    0    0  0.92242131775E+01  0.30226830647E+02  0.42393783118E+01  0.31886042843E+02  0.00000000000E+00 0. -1.
         11    1    3    3    0    0  0.32416159376E+00 -0.13104539987E+01 -0.13100726245E+02  0.13170094868E+02  0.51100000000E-03 0. -1.
        -11    1    3    3    0    0 -0.75381372883E+01  0.40822140395E+01 -0.53953580910E+01  0.10129060886E+02  0.51100000000E-03 0.  1.
         12    1    3    3    0    0 -0.20102374829E+01 -0.32998590688E+02  0.14256706025E+02  0.36002801402E+02  0.00000000000E+00 0. -1.
</event>
<event>
 7    1  0.3220798E-013  0.5930194E+02  0.7816164E-02  0.1266605E+00
        -11   -1    0    0    0    0  0.00000000000E+00  0.00000000000E+00  0.45593999997E+02  0.45594000000E+02  0.51100000000E-03 0. -1.
         11   -1    0    0    0    0 -0.00000000000E+00 -0.00000000000E+00 -0.45593999997E+02  0.45594000000E+02  0.51100000000E-03 0.  1.
    9900012    2    1    2    0    0  0.31210950431E+02 -0.62366149106E+01 -0.19241432692E+01  0.59301935338E+02  0.49999984152E+02 0.  0.
         12    1    1    2    0    0 -0.31210950431E+02  0.62366149106E+01  0.19241432692E+01  0.31886064662E+02  0.00000000000E+00 0. -1.
         11    1    3    3    0    0  0.28953660418E+02 -0.17878648635E+02 -0.22055034270E+01  0.34100216630E+02  0.51100000000E-03 0.  1.
        -11    1    3    3    0    0 -0.61489291353E+01 -0.21217840454E+01 -0.50290623772E+01  0.82220901054E+01  0.51100000000E-03 0. -1.
        -12    1    3    3    0    0  0.84062191478E+01  0.13763817770E+02  0.53104225351E+01  0.16979628602E+02  0.00000000000E+00 0.  1.
</event>
<event>
 7    1  0.3220798E-013  0.5930196E+02  0.7816164E-02  0.1266605E+00
        -11   -1    0    0    0    0  0.00000000000E+00  0.00000000000E+00  0.45593999997E+02  0.45594000000E+02  0.51100000000E-03 0. -1.
         11   -1    0    0    0    0 -0.00000000000E+00 -0.00000000000E+00 -0.45593999997E+02  0.45594000000E+02  0.51100000000E-03 0.  1.
    9900012    2    1    2    0    0  0.27548170534E+02 -0.15701392059E+02 -0.33592101060E+01  0.59301957523E+02  0.50000024611E+02 0.  0.
         12    1    1    2    0    0 -0.27548170534E+02  0.15701392059E+02  0.33592101060E+01  0.31886042477E+02  0.00000000000E+00 0. -1.
         11    1    3    3    0    0  0.20649505352E+02 -0.64733639517E+01  0.17956852052E+02  0.28120367139E+02  0.51100000000E-03 0. -1.
        -11    1    3    3    0    0  0.70164099125E+01  0.48461593905E+01 -0.98440424211E+01  0.13023841229E+02  0.51100000000E-03 0.  1.
        -12    1    3    3    0    0 -0.11774473107E+00 -0.14074187498E+02 -0.11472019737E+02  0.18157749155E+02  0.00000000000E+00 0.  1.
</event>
<event>
 7    1  0.3220798E-013  0.5930206E+02  0.7816164E-02  0.1266604E+00
        -11   -1    0    0    0    0  0.00000000000E+00  0.00000000000E+00  0.45593999997E+02  0.45594000000E+02  0.51100000000E-03 0.  1.
         11   -1    0    0    0    0 -0.00000000000E+00 -0.00000000000E+00 -0.45593999997E+02  0.45594000000E+02  0.51100000000E-03 0. -1.
    9900012    2    1    2    0    0 -0.29767793740E+02  0.33228335359E+01 -0.10933904257E+02  0.59302062203E+02  0.50000215523E+02 0.  0.
         12    1    1    2    0    0  0.29767793740E+02 -0.33228335359E+01  0.10933904257E+02  0.31885937797E+02  0.00000000000E+00 0. -1.
         11    1    3    3    0    0 -0.38641554525E-01 -0.85037331966E+01 -0.61892323257E+01  0.10517678855E+02  0.51100000000E-03 0. -1.
        -11    1    3    3    0    0 -0.15834508048E+02  0.24806971606E+02 -0.44734801443E+01  0.29767927544E+02  0.51100000000E-03 0.  1.
         12    1    3    3    0    0 -0.13894644138E+02 -0.12980404873E+02 -0.27119178707E+00  0.19016455805E+02  0.00000000000E+00 0. -1.
</event>
<event>
 7    1  0.3220798E-013  0.5930192E+02  0.7816164E-02  0.1266605E+00
        -11   -1    0    0    0    0  0.00000000000E+00  0.00000000000E+00  0.45593999997E+02  0.45594000000E+02  0.51100000000E-03 0.  1.
         11   -1    0    0    0    0 -0.00000000000E+00 -0.00000000000E+00 -0.45593999997E+02  0.45594000000E+02  0.51100000000E-03 0. -1.
    9900012    2    1    2    0    0  0.60245115444E+01 -0.29005432212E+02 -0.11794580082E+02  0.59301922216E+02  0.49999960220E+02 0.  0.
         12    1    1    2    0    0 -0.60245115444E+01  0.29005432212E+02  0.11794580082E+02  0.31886077784E+02  0.00000000000E+00 0. -1.
         11    1    3    3    0    0  0.69827058824E+01 -0.19515692985E+02  0.70278780941E+01  0.21886331920E+02  0.51100000000E-03 0. -1.
        -11    1    3    3    0    0  0.10043433043E+02  0.44375222009E+01  0.73591570201E+00  0.11004713661E+02  0.51100000000E-03 0.  1.
         12    1    3    3    0    0 -0.11001627381E+02 -0.13927261428E+02 -0.19558373878E+02  0.26410876635E+02  0.00000000000E+00 0. -1.
</event>
<event>
 7    1  0.3220798E-013  0.5930193E+02  0.7816164E-02  0.1266605E+00
        -11   -1    0    0    0    0  0.00000000000E+00  0.00000000000E+00  0.45593999997E+02  0.45594000000E+02  0.51100000000E-03 0.  1.
         11   -1    0    0    0    0 -0.00000000000E+00 -0.00000000000E+00 -0.45593999997E+02  0.45594000000E+02  0.51100000000E-03 0. -1.
    9900012    2    1    2    0    0  0.71529351943E+01 -0.57252131559E+01  0.30541427609E+02  0.59301931757E+02  0.49999977622E+02 0.  0.
         12    1    1    2    0    0 -0.71529351943E+01  0.57252131559E+01 -0.30541427609E+02  0.31886068243E+02  0.00000000000E+00 0. -1.
         11    1    3    3    0    0  0.90398134647E+01 -0.65531746352E+01 -0.29916743106E+01  0.11559084770E+02  0.51100000000E-03 0. -1.
        -11    1    3    3    0    0 -0.30142790325E+01 -0.13008795720E+02  0.22820926634E+01  0.13547051020E+02  0.51100000000E-03 0.  1.
        -12    1    3    3    0    0  0.11274007621E+01  0.13836757199E+02  0.31251009256E+02  0.34195795967E+02  0.00000000000E+00 0.  1.
</event>
<event>
 7    1  0.3220798E-013  0.5930193E+02  0.7816164E-02  0.1266605E+00
        -11   -1    0    0    0    0  0.00000000000E+00  0.00000000000E+00  0.45593999997E+02  0.45594000000E+02  0.51100000000E-03 0. -1.
         11   -1    0    0    0    0 -0.00000000000E+00 -0.00000000000E+00 -0.45593999997E+02  0.45594000000E+02  0.51100000000E-03 0.  1.
    9900012    2    1    2    0    0  0.29796087308E+01  0.25239323076E+02 -0.19256688900E+02  0.59301928355E+02  0.49999971417E+02 0.  0.
         12    1    1    2    0    0 -0.29796087308E+01 -0.25239323076E+02  0.19256688900E+02  0.31886071645E+02  0.00000000000E+00 0. -1.
         11    1    3    3    0    0  0.54758741291E+01  0.12247170880E+02 -0.73849365132E+01  0.15313904780E+02  0.51100000000E-03 0. -1.
        -11    1    3    3    0    0  0.17630207710E+02  0.22125368944E+01 -0.11477685490E+02  0.21153174889E+02  0.51100000000E-03 0.  1.
         12    1    3    3    0    0 -0.20126473108E+02  0.10779615302E+02 -0.39406689677E+00  0.22834848687E+02  0.00000000000E+00 0. -1.
</event>
<event>
 7    1  0.3220798E-013  0.5930194E+02  0.7816164E-02  0.1266605E+00
        -11   -1    0    0    0    0  0.00000000000E+00  0.00000000000E+00  0.45593999997E+02  0.45594000000E+02  0.51100000000E-03 0.  1.
         11   -1    0    0    0    0 -0.00000000000E+00 -0.00000000000E+00 -0.45593999997E+02  0.45594000000E+02  0.51100000000E-03 0. -1.
    9900012    2    1    2    0    0 -0.12319994531E+02  0.25651734661E+02  0.14384966680E+02  0.59301936858E+02  0.49999986923E+02 0.  0.
         12    1    1    2    0    0  0.12319994531E+02 -0.25651734661E+02 -0.14384966680E+02  0.31886063142E+02  0.00000000000E+00 0. -1.
         11    1    3    3    0    0  0.67927446096E+01  0.69548333043E+01 -0.20744522791E+01  0.99405451632E+01  0.51100000000E-03 0. -1.
        -11    1    3    3    0    0  0.81184050738E+01  0.15277189636E+02  0.13122854389E+02  0.21714288653E+02  0.51100000000E-03 0.  1.
        -12    1    3    3    0    0 -0.27231144214E+02  0.34197117206E+01  0.33365645700E+01  0.27647103042E+02  0.00000000000E+00 0.  1.
</event>
<event>
 7    1  0.3220798E-013  0.5930194E+02  0.7816164E-02  0.1266605E+00
        -11   -1    0    0    0    0  0.00000000000E+00  0.00000000000E+00  0.45593999997E+02  0.45594000000E+02  0.51100000000E-03 0. -1.
         11   -1    0    0    0    0 -0.00000000000E+00 -0.00000000000E+00 -0.45593999997E+02  0.45594000000E+02  0.51100000000E-03 0.  1.
    9900012    2    1    2    0    0 -0.16619571931E+02 -0.17560303148E+02 -0.20788124998E+02  0.59301944133E+02  0.50000000192E+02 0.  0.
         12    1    1    2    0    0  0.16619571931E+02  0.17560303148E+02  0.20788124998E+02  0.31886055867E+02  0.00000000000E+00 0. -1.
         11    1    3    3    0    0 -0.63006788550E+01  0.63302114061E+01  0.55301802528E+01  0.10504904777E+02  0.51100000000E-03 0. -1.
        -11    1    3    3    0    0 -0.10291166128E+02 -0.20037645754E+02 -0.33662179201E+02  0.40503798050E+02  0.51100000000E-03 0.  1.
         12    1    3    3    0    0 -0.27726947615E-01 -0.38528687996E+01  0.73438739502E+01  0.82932413064E+01  0.00000000000E+00 0. -1.
</event>
<event>
 7    1  0.3220798E-013  0.5930189E+02  0.7816164E-02  0.1266605E+00
        -11   -1    0    0    0    0  0.00000000000E+00  0.00000000000E+00  0.45593999997E+02  0.45594000000E+02  0.51100000000E-03 0.  1.
         11   -1    0    0    0    0 -0.00000000000E+00 -0.00000000000E+00 -0.45593999997E+02  0.45594000000E+02  0.51100000000E-03 0. -1.
    9900012    2    1    2    0    0 -0.79112362088E+01  0.10024727408E+01  0.30872828085E+02  0.59301888229E+02  0.49999898236E+02 0.  0.
         12    1    1    2    0    0  0.79112362088E+01 -0.10024727408E+01 -0.30872828085E+02  0.31886111771E+02  0.00000000000E+00 0. -1.
         11    1    3    3    0    0  0.79031281589E+01 -0.12027637129E+02  0.13756837232E+02  0.19909145147E+02  0.51100000000E-03 0. -1.
        -11    1    3    3    0    0  0.60398228497E+01  0.73357619271E+00 -0.34210776955E+01  0.69800692651E+01  0.51100000000E-03 0.  1.
        -12    1    3    3    0    0 -0.21854187217E+02  0.12296533677E+02  0.20537068548E+02  0.32412673817E+02  0.00000000000E+00 0.  1.
</event>
<event>
 7    1  0.3220798E-013  0.5930192E+02  0.7816164E-02  0.1266605E+00
        -11   -1    0    0    0    0  0.00000000000E+00  0.00000000000E+00  0.45593999997E+02  0.45594000000E+02  0.51100000000E-03 0.  1.
         11   -1    0    0    0    0 -0.00000000000E+00 -0.00000000000E+00 -0.45593999997E+02  0.45594000000E+02  0.51100000000E-03 0. -1.
    9900012    2    1    2    0    0 -0.67741348702E+01  0.22137465345E+02  0.21926374015E+02  0.59301919141E+02  0.49999954612E+02 0.  0.
         12    1    1    2    0    0  0.67741348702E+01 -0.22137465345E+02 -0.21926374015E+02  0.31886080859E+02  0.00000000000E+00 0. -1.
         11    1    3    3    0    0 -0.52785690477E+01  0.12317170198E+01 -0.24268312107E+01  0.59388490463E+01  0.51100000000E-03 0. -1.
        -11    1    3    3    0    0 -0.74388637036E+01  0.40321046069E+01  0.32588348441E+02  0.33668902790E+02  0.51100000000E-03 0.  1.
         12    1    3    3    0    0  0.59432978811E+01  0.16873643718E+02 -0.82351432148E+01  0.19694167304E+02  0.00000000000E+00 0. -1.
</event>
<event>
 7    1  0.3220798E-013  0.5930195E+02  0.7816164E-02  0.1266605E+00
        -11   -1    0    0    0    0  0.00000000000E+00  0.00000000000E+00  0.45593999997E+02  0.45594000000E+02  0.51100000000E-03 0.  1.
         11   -1    0    0    0    0 -0.00000000000E+00 -0.00000000000E+00 -0.45593999997E+02  0.45594000000E+02  0.51100000000E-03 0. -1.
    9900012    2    1    2    0    0  0.29477685080E+01 -0.17681137098E+02  0.26370595005E+02  0.59301949301E+02  0.50000009617E+02 0.  0.
         12    1    1    2    0    0 -0.29477685080E+01  0.17681137098E+02 -0.26370595005E+02  0.31886050699E+02  0.00000000000E+00 0. -1.
         11    1    3    3    0    0  0.42297265979E-02 -0.10106736579E+02 -0.64192493724E+01  0.11973007347E+02  0.51100000000E-03 0. -1.
        -11    1    3    3    0    0 -0.74705571113E+01  0.83713511299E+01  0.24147386764E+01  0.11476920599E+02  0.51100000000E-03 0.  1.
        -12    1    3    3    0    0  0.10414095893E+02 -0.15945751649E+02  0.30375105701E+02  0.35852021356E+02  0.00000000000E+00 0.  1.
</event>
<event>
 7    1  0.3220798E-013  0.5930183E+02  0.7816164E-02  0.1266605E+00
        -11   -1    0    0    0    0  0.00000000000E+00  0.00000000000E+00  0.45593999997E+02  0.45594000000E+02  0.51100000000E-03 0.  1.
         11   -1    0    0    0    0 -0.00000000000E+00 -0.00000000000E+00 -0.45593999997E+02  0.45594000000E+02  0.51100000000E-03 0. -1.
    9900012    2    1    2    0    0  0.31327948343E+02 -0.25562270873E+01  0.53622141621E+01  0.59301827683E+02  0.49999787815E+02 0.  0.
         12    1    1    2    0    0 -0.31327948343E+02  0.25562270873E+01 -0.53622141621E+01  0.31886172317E+02  0.00000000000E+00 0. -1.
         11    1    3    3    0    0 -0.47154627337E+01  0.14182274495E+01  0.22680820392E+01  0.54213609259E+01  0.51100000000E-03 0. -1.
        -11    1    3    3    0    0  0.19136841490E+02  0.16220884750E+02  0.94143447416E+01  0.26794881815E+02  0.51100000000E-03 0.  1.
         12    1    3    3    0    0  0.16906569587E+02 -0.20195339287E+02 -0.63202126187E+01  0.27085584942E+02  0.00000000000E+00 0. -1.
</event>
<event>
 7    1  0.3220798E-013  0.5930191E+02  0.7816164E-02  0.1266605E+00
        -11   -1    0    0    0    0  0.00000000000E+00  0.00000000000E+00  0.45593999997E+02  0.45594000000E+02  0.51100000000E-03 0. -1.
         11   -1    0    0    0    0 -0.00000000000E+00 -0.00000000000E+00 -0.45593999997E+02  0.45594000000E+02  0.51100000000E-03 0.  1.
    9900012    2    1    2    0    0  0.24212930845E+01 -0.10680457761E+01 -0.31776081672E+02  0.59301909797E+02  0.49999937572E+02 0.  0.
         12    1    1    2    0    0 -0.24212930845E+01  0.10680457761E+01  0.31776081672E+02  0.31886090203E+02  0.00000000000E+00 0. -1.
         11    1    3    3    0    0  0.91589583892E+01  0.19809864962E+02 -0.18908680174E+02  0.28876555452E+02  0.51100000000E-03 0. -1.
        -11    1    3    3    0    0 -0.42583328349E+01  0.18381307540E+01 -0.13190570283E+01  0.48220363858E+01  0.51100000000E-03 0.  1.
        -12    1    3    3    0    0 -0.24793324698E+01 -0.22716041492E+02 -0.11548344469E+02  0.25603317960E+02  0.00000000000E+00 0.  1.
</event>
<event>
 7    1  0.3220798E-013  0.5930194E+02  0.7816164E-02  0.1266605E+00
        -11   -1    0    0    0    0  0.00000000000E+00  0.00000000000E+00  0.45593999997E+02  0.45594000000E+02  0.51100000000E-03 0. -1.
         11   -1    0    0    0    0 -0.00000000000E+00 -0.00000000000E+00 -0.45593999997E+02  0.45594000000E+02  0.51100000000E-03 0.  1.
    9900012    2    1    2    0    0 -0.19399573227E+02 -0.18960314705E+01 -0.25234554590E+02  0.59301935300E+02  0.49999984082E+02 0.  0.
         12    1    1    2    0    0  0.19399573227E+02  0.18960314705E+01  0.25234554590E+02  0.31886064700E+02  0.00000000000E+00 0. -1.
         11    1    3    3    0    0 -0.64337777384E+01  0.97912868880E+01  0.64437439219E+01  0.13371037017E+02  0.51100000000E-03 0. -1.
        -11    1    3    3    0    0 -0.12137020296E+02  0.10932641624E+01 -0.46819564635E+00  0.12195150496E+02  0.51100000000E-03 0.  1.
        -12    1    3    3    0    0 -0.82877519319E+00 -0.12780582521E+02 -0.31210102865E+02  0.33735747787E+02  0.00000000000E+00 0.  1.
</event>
<event>
 7    1  0.3220798E-013  0.5930188E+02  0.7816164E-02  0.1266605E+00
        -11   -1    0    0    0    0  0.00000000000E+00  0.00000000000E+00  0.45593999997E+02  0.45594000000E+02  0.51100000000E-03 0.  1.
         11   -1    0    0    0    0 -0.00000000000E+00 -0.00000000000E+00 -0.45593999997E+02  0.45594000000E+02  0.51100000000E-03 0. -1.
    9900012    2    1    2    0    0  0.95879900805E-01  0.13965680801E+02  0.28664880012E+02  0.59301877951E+02  0.49999879492E+02 0.  0.
         12    1    1    2    0    0 -0.95879900805E-01 -0.13965680801E+02 -0.28664880012E+02  0.31886122049E+02  0.00000000000E+00 0. -1.
         11    1    3    3    0    0  0.53843472969E+01 -0.13035555094E+02  0.77287833893E+01  0.16082629926E+02  0.51100000000E-03 0. -1.
        -11    1    3    3    0    0 -0.10259802861E+02  0.64266178805E+01 -0.17039037793E+01  0.12225721266E+02  0.51100000000E-03 0.  1.
        -12    1    3    3    0    0  0.49713354646E+01  0.20574618014E+02  0.22640000402E+02  0.30993526759E+02  0.00000000000E+00 0.  1.
</event>
<event>
 7    1  0.3220798E-013  0.5930194E+02  0.7816164E-02  0.1266605E+00
        -11   -1    0    0    0    0  0.00000000000E+00  0.00000000000E+00  0.45593999997E+02  0.45594000000E+02  0.51100000000E-03 0.  1.
         11   -1    0    0    0    0 -0.00000000000E+00 -0.00000000000E+00 -0.45593999997E+02  0.45594000000E+02  0.51100000000E-03 0. -1.
    9900012    2    1    2    0    0 -0.17411401960E+02  0.18513905215E+02  0.19256143115E+02  0.59301942668E+02  0.49999997520E+02 0.  0.
         12    1    1    2    0    0  0.17411401960E+02 -0.18513905215E+02 -0.19256143115E+02  0.31886057332E+02  0.00000000000E+00 0. -1.
         11    1    3    3    0    0  0.45730422685E+01 -0.13035729768E+01  0.17388755028E+02  0.18027224406E+02  0.51100000000E-03 0. -1.
        -11    1    3    3    0    0 -0.43655961943E+00  0.13272803800E+02  0.10730586861E+02  0.17073470639E+02  0.51100000000E-03 0.  1.
         12    1    3    3    0    0 -0.21547884609E+02  0.65446743922E+01 -0.88631987742E+01  0.24201247623E+02  0.00000000000E+00 0. -1.
</event>
<event>
 7    1  0.3220798E-013  0.5930199E+02  0.7816164E-02  0.1266605E+00
        -11   -1    0    0    0    0  0.00000000000E+00  0.00000000000E+00  0.45593999997E+02  0.45594000000E+02  0.51100000000E-03 0.  1.
         11   -1    0    0    0    0 -0.00000000000E+00 -0.00000000000E+00 -0.45593999997E+02  0.45594000000E+02  0.51100000000E-03 0. -1.
    9900012    2    1    2    0    0 -0.35078596076E+01 -0.43852712139E+01  0.31387612665E+02  0.59301985645E+02  0.50000075900E+02 0.  0.
         12    1    1    2    0    0  0.35078596076E+01  0.43852712139E+01 -0.31387612665E+02  0.31886014355E+02  0.00000000000E+00 0. -1.
         11    1    3    3    0    0 -0.19946863094E+02 -0.63881081144E+00  0.25917581904E+01  0.20124677322E+02  0.51100000000E-03 0. -1.
        -11    1    3    3    0    0  0.53087930354E+01 -0.11454702269E+02  0.10524053389E+02  0.16436215731E+02  0.51100000000E-03 0.  1.
        -12    1    3    3    0    0  0.11130210451E+02  0.77082418668E+01  0.18271801085E+02  0.22741092591E+02  0.00000000000E+00 0.  1.
</event>
<event>
 7    1  0.3220798E-013  0.5930194E+02  0.7816164E-02  0.1266605E+00
        -11   -1    0    0    0    0  0.00000000000E+00  0.00000000000E+00  0.45593999997E+02  0.45594000000E+02  0.51100000000E-03 0.  1.
         11   -1    0    0    0    0 -0.00000000000E+00 -0.00000000000E+00 -0.45593999997E+02  0.45594000000E+02  0.51100000000E-03 0. -1.
    9900012    2    1    2    0    0 -0.87213956940E+01 -0.25118886347E+02  0.17598280370E+02  0.59301942449E+02  0.49999997121E+02 0.  0.
         12    1    1    2    0    0  0.87213956940E+01  0.25118886347E+02 -0.17598280370E+02  0.31886057551E+02  0.00000000000E+00 0. -1.
         11    1    3    3    0    0 -0.47008447880E+00 -0.27709288921E+01 -0.78762687784E+01  0.83626931351E+01  0.51100000000E-03 0. -1.
        -11    1    3    3    0    0 -0.14166774362E+02 -0.82856065430E+01 -0.47476859623E+01  0.17084767890E+02  0.51100000000E-03 0.  1.
        -12    1    3    3    0    0  0.59154631469E+01 -0.14062350912E+02  0.30222235110E+02  0.33854481424E+02  0.00000000000E+00 0.  1.
</event>
<event>
 7    1  0.3220798E-013  0.5930194E+02  0.7816164E-02  0.1266605E+00
        -11   -1    0    0    0    0  0.00000000000E+00  0.00000000000E+00  0.45593999997E+02  0.45594000000E+02  0.51100000000E-03 0. -1.
         11   -1    0    0    0    0 -0.00000000000E+00 -0.00000000000E+00 -0.45593999997E+02  0.45594000000E+02  0.51100000000E-03 0.  1.
    9900012    2    1    2    0    0  0.11254567686E+02  0.99275173172E+01 -0.28133606581E+02  0.59301941712E+02  0.49999995776E+02 0.  0.
         12    1    1    2    0    0 -0.11254567686E+02 -0.99275173172E+01  0.28133606581E+02  0.31886058288E+02  0.00000000000E+00 0. -1.
         11    1    3    3    0    0  0.13306105047E+01  0.89879949628E+01  0.44668560558E+01  0.10124592883E+02  0.51100000000E-03 0. -1.
        -11    1    3    3    0    0 -0.12964368458E+02  0.15848544101E+01 -0.17139932147E+02  0.21549104094E+02  0.51100000000E-03 0.  1.
        -12    1    3    3    0    0  0.22888325639E+02 -0.64533205570E+00 -0.15460530491E+02  0.27628244734E+02  0.00000000000E+00 0.  1.
</event>
<event>
 7    1  0.3220798E-013  0.5930158E+02  0.7816164E-02  0.1266606E+00
        -11   -1    0    0    0    0  0.00000000000E+00  0.00000000000E+00  0.45593999997E+02  0.45594000000E+02  0.51100000000E-03 0.  1.
         11   -1    0    0    0    0 -0.00000000000E+00 -0.00000000000E+00 -0.45593999997E+02  0.45594000000E+02  0.51100000000E-03 0. -1.
    9900012    2    1    2    0    0  0.73103494601E+01  0.17127009539E+02  0.25883746517E+02  0.59301576576E+02  0.49999329852E+02 0.  0.
         12    1    1    2    0    0 -0.73103494601E+01 -0.17127009539E+02 -0.25883746517E+02  0.31886423424E+02  0.00000000000E+00 0. -1.
         11    1    3    3    0    0  0.23829064426E+02  0.11537473486E+02  0.86768814126E+01  0.27860830518E+02  0.51100000000E-03 0. -1.
        -11    1    3    3    0    0  0.26864359370E+01  0.61358602978E+01  0.69860663224E+01  0.96783698297E+01  0.51100000000E-03 0.  1.
        -12    1    3    3    0    0 -0.19205150903E+02 -0.54632424425E+00  0.10220798782E+02  0.21762376229E+02  0.00000000000E+00 0.  1.
</event>
<event>
 7    1  0.3220798E-013  0.5930191E+02  0.7816164E-02  0.1266605E+00
        -11   -1    0    0    0    0  0.00000000000E+00  0.00000000000E+00  0.45593999997E+02  0.45594000000E+02  0.51100000000E-03 0. -1.
         11   -1    0    0    0    0 -0.00000000000E+00 -0.00000000000E+00 -0.45593999997E+02  0.45594000000E+02  0.51100000000E-03 0.  1.
    9900012    2    1    2    0    0 -0.26704266986E+02 -0.12133190255E+02 -0.12505614943E+02  0.59301912342E+02  0.49999942214E+02 0.  0.
         12    1    1    2    0    0  0.26704266986E+02  0.12133190255E+02  0.12505614943E+02  0.31886087658E+02  0.00000000000E+00 0. -1.
         11    1    3    3    0    0 -0.30306901735E+02 -0.12165325350E+02 -0.17414766382E+01  0.32703763924E+02  0.51100000000E-03 0. -1.
        -11    1    3    3    0    0 -0.40361316424E+01 -0.10670355793E+01  0.64785451596E+01  0.77071701167E+01  0.51100000000E-03 0.  1.
        -12    1    3    3    0    0  0.76387663916E+01  0.10991706743E+01 -0.17242683464E+02  0.18890978302E+02  0.00000000000E+00 0.  1.
</event>
<event>
 7    1  0.3220798E-013  0.5930203E+02  0.7816164E-02  0.1266604E+00
        -11   -1    0    0    0    0  0.00000000000E+00  0.00000000000E+00  0.45593999997E+02  0.45594000000E+02  0.51100000000E-03 0. -1.
         11   -1    0    0    0    0 -0.00000000000E+00 -0.00000000000E+00 -0.45593999997E+02  0.45594000000E+02  0.51100000000E-03 0.  1.
    9900012    2    1    2    0    0  0.89026265836E+00  0.30823593144E+02 -0.81134799983E+01  0.59302030992E+02  0.50000158601E+02 0.  0.
         12    1    1    2    0    0 -0.89026265836E+00 -0.30823593144E+02  0.81134799983E+01  0.31885969008E+02  0.00000000000E+00 0. -1.
         11    1    3    3    0    0 -0.11645635645E+02 -0.44291107771E+01 -0.58258142134E+01  0.13754198027E+02  0.51100000000E-03 0. -1.
        -11    1    3    3    0    0 -0.77184796777E+01  0.54546240261E+01 -0.10918153630E+00  0.94519718933E+01  0.51100000000E-03 0.  1.
        -12    1    3    3    0    0  0.20254377981E+02  0.29798079895E+02 -0.21784842486E+01  0.36095861071E+02  0.00000000000E+00 0.  1.
</event>
<event>
 7    1  0.3220798E-013  0.5930195E+02  0.7816164E-02  0.1266605E+00
        -11   -1    0    0    0    0  0.00000000000E+00  0.00000000000E+00  0.45593999997E+02  0.45594000000E+02  0.51100000000E-03 0.  1.
         11   -1    0    0    0    0 -0.00000000000E+00 -0.00000000000E+00 -0.45593999997E+02  0.45594000000E+02  0.51100000000E-03 0. -1.
    9900012    2    1    2    0    0 -0.22182502080E+02  0.22799411862E+02 -0.22007943173E+01  0.59301951712E+02  0.50000014014E+02 0.  0.
         12    1    1    2    0    0  0.22182502080E+02 -0.22799411862E+02  0.22007943173E+01  0.31886048288E+02  0.00000000000E+00 0. -1.
         11    1    3    3    0    0 -0.24936776405E+02  0.32593304928E+02 -0.86171964033E+01  0.41933547640E+02  0.51100000000E-03 0. -1.
        -11    1    3    3    0    0  0.59137185463E+01 -0.24423391698E+01 -0.97886151364E+00  0.64726546168E+01  0.51100000000E-03 0.  1.
        -12    1    3    3    0    0 -0.31594442216E+01 -0.73515538959E+01  0.73952635997E+01  0.10895749455E+02  0.00000000000E+00 0.  1.
</event>
<event>
 7    1  0.3220798E-013  0.5930196E+02  0.7816164E-02  0.1266605E+00
        -11   -1    0    0    0    0  0.00000000000E+00  0.00000000000E+00  0.45593999997E+02  0.45594000000E+02  0.51100000000E-03 0. -1.
         11   -1    0    0    0    0 -0.00000000000E+00 -0.00000000000E+00 -0.45593999997E+02  0.45594000000E+02  0.51100000000E-03 0.  1.
    9900012    2    1    2    0    0 -0.11434192265E+02 -0.26862768605E+02  0.12820696857E+02  0.59301962966E+02  0.50000034538E+02 0.  0.
         12    1    1    2    0    0  0.11434192265E+02  0.26862768605E+02 -0.12820696857E+02  0.31886037034E+02  0.00000000000E+00 0. -1.
         11    1    3    3    0    0 -0.40370028487E+01 -0.76471626646E+01 -0.64931555506E+01  0.10813767063E+02  0.51100000000E-03 0. -1.
        -11    1    3    3    0    0  0.30364966258E+01 -0.25538364284E+02  0.88231873728E-01  0.25718400946E+02  0.51100000000E-03 0.  1.
         12    1    3    3    0    0 -0.10433686042E+02  0.63227583440E+01  0.19225620534E+02  0.22769794957E+02  0.00000000000E+00 0. -1.
</event>
<event>
 7    1  0.3220798E-013  0.5930191E+02  0.7816164E-02  0.1266605E+00
        -11   -1    0    0    0    0  0.00000000000E+00  0.00000000000E+00  0.45593999997E+02  0.45594000000E+02  0.51100000000E-03 0. -1.
         11   -1    0    0    0    0 -0.00000000000E+00 -0.00000000000E+00 -0.45593999997E+02  0.45594000000E+02  0.51100000000E-03 0.  1.
    9900012    2    1    2    0    0  0.24144425250E+02  0.95584617348E+01 -0.18504189892E+02  0.59301913615E+02  0.49999944535E+02 0.  0.
         12    1    1    2    0    0 -0.24144425250E+02 -0.95584617348E+01  0.18504189892E+02  0.31886086385E+02  0.00000000000E+00 0. -1.
         11    1    3    3    0    0  0.46887649922E+01  0.17430545606E+02 -0.60414435357E+01  0.19034376205E+02  0.51100000000E-03 0. -1.
        -11    1    3    3    0    0 -0.24730509080E+01  0.79950270839E+01 -0.10071787844E+02  0.13094936025E+02  0.51100000000E-03 0.  1.
        -12    1    3    3    0    0  0.21928711166E+02 -0.15867110955E+02 -0.23909585125E+01  0.27172601385E+02  0.00000000000E+00 0.  1.
</event>
<event>
 7    1  0.3220798E-013  0.5930194E+02  0.7816164E-02  0.1266605E+00
        -11   -1    0    0    0    0  0.00000000000E+00  0.00000000000E+00  0.45593999997E+02  0.45594000000E+02  0.51100000000E-03 0.  1.
         11   -1    0    0    0    0 -0.00000000000E+00 -0.00000000000E+00 -0.45593999997E+02  0.45594000000E+02  0.51100000000E-03 0. -1.
    9900012    2    1    2    0    0 -0.24162977614E+02 -0.68201665809E+01  0.19655952201E+02  0.59301943231E+02  0.49999998547E+02 0.  0.
         12    1    1    2    0    0  0.24162977614E+02  0.68201665809E+01 -0.19655952201E+02  0.31886056769E+02  0.00000000000E+00 0. -1.
         11    1    3    3    0    0 -0.13945568874E+02 -0.24094913137E+02  0.10583651144E+02  0.29783508895E+02  0.51100000000E-03 0. -1.
        -11    1    3    3    0    0  0.35454082130E+01  0.34002461769E+01 -0.37193328024E+01  0.61615769261E+01  0.51100000000E-03 0.  1.
        -12    1    3    3    0    0 -0.13762816953E+02  0.13874500379E+02  0.12791633859E+02  0.23356857409E+02  0.00000000000E+00 0.  1.
</event>
<event>
 7    1  0.3220798E-013  0.5930195E+02  0.7816164E-02  0.1266605E+00
        -11   -1    0    0    0    0  0.00000000000E+00  0.00000000000E+00  0.45593999997E+02  0.45594000000E+02  0.51100000000E-03 0.  1.
         11   -1    0    0    0    0 -0.00000000000E+00 -0.00000000000E+00 -0.45593999997E+02  0.45594000000E+02  0.51100000000E-03 0. -1.
    9900012    2    1    2    0    0 -0.22246900949E+02  0.51610046246E+01  0.22252181204E+02  0.59301950717E+02  0.50000012199E+02 0.  0.
         12    1    1    2    0    0  0.22246900949E+02 -0.51610046246E+01 -0.22252181204E+02  0.31886049283E+02  0.00000000000E+00 0. -1.
         11    1    3    3    0    0  0.73030200111E+01  0.16281051519E+01  0.11226173354E+01  0.75660490093E+01  0.51100000000E-03 0. -1.
        -11    1    3    3    0    0 -0.59033954750E+01 -0.41203407077E+01  0.25503214650E+02  0.26499834781E+02  0.51100000000E-03 0.  1.
         12    1    3    3    0    0 -0.23646525485E+02  0.76532401803E+01 -0.43736507812E+01  0.25236066926E+02  0.00000000000E+00 0. -1.
</event>
<event>
 7    1  0.3220798E-013  0.5930195E+02  0.7816164E-02  0.1266605E+00
        -11   -1    0    0    0    0  0.00000000000E+00  0.00000000000E+00  0.45593999997E+02  0.45594000000E+02  0.51100000000E-03 0. -1.
         11   -1    0    0    0    0 -0.00000000000E+00 -0.00000000000E+00 -0.45593999997E+02  0.45594000000E+02  0.51100000000E-03 0.  1.
    9900012    2    1    2    0    0  0.19954566444E+02 -0.17938343517E+02 -0.17226469662E+02  0.59301950588E+02  0.50000011965E+02 0.  0.
         12    1    1    2    0    0 -0.19954566444E+02  0.17938343517E+02  0.17226469662E+02  0.31886049412E+02  0.00000000000E+00 0. -1.
         11    1    3    3    0    0  0.10925374726E+02  0.67927372298E+01  0.71285786257E+01  0.14707879706E+02  0.51100000000E-03 0. -1.
        -11    1    3    3    0    0  0.78255046863E+00 -0.15162299635E+02  0.20526553595E+01  0.15320610619E+02  0.51100000000E-03 0.  1.
        -12    1    3    3    0    0  0.82466412497E+01 -0.95687811116E+01 -0.26407703647E+02  0.29273460263E+02  0.00000000000E+00 0.  1.
</event>
<event>
 7    1  0.3220798E-013  0.5930194E+02  0.7816164E-02  0.1266605E+00
        -11   -1    0    0    0    0  0.00000000000E+00  0.00000000000E+00  0.45593999997E+02  0.45594000000E+02  0.51100000000E-03 0.  1.
         11   -1    0    0    0    0 -0.00000000000E+00 -0.00000000000E+00 -0.45593999997E+02  0.45594000000E+02  0.51100000000E-03 0. -1.
    9900012    2    1    2    0    0  0.48338957910E+01 -0.17898438542E+02  0.25942243176E+02  0.59301942988E+02  0.49999998104E+02 0.  0.
         12    1    1    2    0    0 -0.48338957910E+01  0.17898438542E+02 -0.25942243176E+02  0.31886057012E+02  0.00000000000E+00 0. -1.
         11    1    3    3    0    0  0.13824584325E+02 -0.28914754365E+01  0.17885259143E+02  0.22789520768E+02  0.51100000000E-03 0. -1.
        -11    1    3    3    0    0 -0.38474372969E-01  0.79043065117E+01  0.88955238323E+01  0.11899995219E+02  0.51100000000E-03 0.  1.
         12    1    3    3    0    0 -0.89522141615E+01 -0.22911269617E+02 -0.83853979879E+00  0.24612427000E+02  0.00000000000E+00 0. -1.
</event>
<event>
 7    1  0.3220798E-013  0.5930194E+02  0.7816164E-02  0.1266605E+00
        -11   -1    0    0    0    0  0.00000000000E+00  0.00000000000E+00  0.45593999997E+02  0.45594000000E+02  0.51100000000E-03 0. -1.
         11   -1    0    0    0    0 -0.00000000000E+00 -0.00000000000E+00 -0.45593999997E+02  0.45594000000E+02  0.51100000000E-03 0.  1.
    9900012    2    1    2    0    0  0.51979169463E+01  0.16238778877E+02 -0.26944468161E+02  0.59301942789E+02  0.49999997741E+02 0.  0.
         12    1    1    2    0    0 -0.51979169463E+01 -0.16238778877E+02  0.26944468161E+02  0.31886057211E+02  0.00000000000E+00 0. -1.
         11    1    3    3    0    0  0.11414454803E+02 -0.55725856039E+01 -0.24133553136E+02  0.27272181358E+02  0.51100000000E-03 0. -1.
        -11    1    3    3    0    0 -0.64656967854E+01 -0.24608721398E+01 -0.34860703299E+01  0.77468582803E+01  0.51100000000E-03 0.  1.
         12    1    3    3    0    0  0.24915892849E+00  0.24272236621E+02  0.67515530527E+00  0.24282903151E+02  0.00000000000E+00 0. -1.
</event>
<event>
 7    1  0.3220798E-013  0.5930188E+02  0.7816164E-02  0.1266605E+00
        -11   -1    0    0    0    0  0.00000000000E+00  0.00000000000E+00  0.45593999997E+02  0.45594000000E+02  0.51100000000E-03 0.  1.
         11   -1    0    0    0    0 -0.00000000000E+00 -0.00000000000E+00 -0.45593999997E+02  0.45594000000E+02  0.51100000000E-03 0. -1.
    9900012    2    1    2    0    0  0.29634137718E+02 -0.31478571213E+01  0.11341664126E+02  0.59301882835E+02  0.49999888399E+02 0.  0.
         12    1    1    2    0    0 -0.29634137718E+02  0.31478571213E+01 -0.11341664126E+02  0.31886117165E+02  0.00000000000E+00 0. -1.
         11    1    3    3    0    0  0.45949923784E+01  0.74264824908E+01  0.14853305622E+02  0.17230417444E+02  0.51100000000E-03 0. -1.
        -11    1    3    3    0    0  0.21496017846E+02 -0.18613532888E+02  0.60660838137E+01  0.29074727220E+02  0.51100000000E-03 0.  1.
         12    1    3    3    0    0  0.35431274928E+01  0.80391932763E+01 -0.95777253097E+01  0.12996738170E+02  0.00000000000E+00 0. -1.
</event>
<event>
 7    1  0.3220798E-013  0.5930196E+02  0.7816164E-02  0.1266605E+00
        -11   -1    0    0    0    0  0.00000000000E+00  0.00000000000E+00  0.45593999997E+02  0.45594000000E+02  0.51100000000E-03 0. -1.
         11   -1    0    0    0    0 -0.00000000000E+00 -0.00000000000E+00 -0.45593999997E+02  0.45594000000E+02  0.51100000000E-03 0.  1.
    9900012    2    1    2    0    0  0.17646963934E+02  0.18360074708E+02 -0.19188841799E+02  0.59301963417E+02  0.50000035362E+02 0.  0.
         12    1    1    2    0    0 -0.17646963934E+02 -0.18360074708E+02  0.19188841799E+02  0.31886036583E+02  0.00000000000E+00 0. -1.
         11    1    3    3    0    0  0.14100561805E+02  0.19331897958E+02 -0.11168430434E+02  0.26406097033E+02  0.51100000000E-03 0. -1.
        -11    1    3    3    0    0  0.74492537082E+01  0.84561890438E+01 -0.16258006096E+02  0.19781842089E+02  0.51100000000E-03 0.  1.
         12    1    3    3    0    0 -0.39028515798E+01 -0.94280122943E+01  0.82375947303E+01  0.13114024295E+02  0.00000000000E+00 0. -1.
</event>
<event>
 7    1  0.3220798E-013  0.5930196E+02  0.7816164E-02  0.1266605E+00
        -11   -1    0    0    0    0  0.00000000000E+00  0.00000000000E+00  0.45593999997E+02  0.45594000000E+02  0.51100000000E-03 0. -1.
         11   -1    0    0    0    0 -0.00000000000E+00 -0.00000000000E+00 -0.45593999997E+02  0.45594000000E+02  0.51100000000E-03 0.  1.
    9900012    2    1    2    0    0 -0.15134115576E+00 -0.42366640784E+01 -0.31602967460E+02  0.59301956361E+02  0.50000022494E+02 0.  0.
         12    1    1    2    0    0  0.15134115576E+00  0.42366640784E+01  0.31602967460E+02  0.31886043639E+02  0.00000000000E+00 0. -1.
         11    1    3    3    0    0 -0.19473340937E+02  0.56936195066E+01 -0.20493214487E+02  0.28837478229E+02  0.51100000000E-03 0. -1.
        -11    1    3    3    0    0 -0.29109421087E+01 -0.16748050112E+01 -0.49146781958E+01  0.59525303708E+01  0.51100000000E-03 0.  1.
         12    1    3    3    0    0  0.22232941890E+02 -0.82554785738E+01 -0.61950747771E+01  0.24511947762E+02  0.00000000000E+00 0. -1.
</event>
<event>
 7    1  0.3220798E-013  0.5930200E+02  0.7816164E-02  0.1266605E+00
        -11   -1    0    0    0    0  0.00000000000E+00  0.00000000000E+00  0.45593999997E+02  0.45594000000E+02  0.51100000000E-03 0.  1.
         11   -1    0    0    0    0 -0.00000000000E+00 -0.00000000000E+00 -0.45593999997E+02  0.45594000000E+02  0.51100000000E-03 0. -1.
    9900012    2    1    2    0    0  0.32373869017E+01 -0.78252736922E+01  0.30740874204E+02  0.59302001049E+02  0.50000103993E+02 0.  0.
         12    1    1    2    0    0 -0.32373869017E+01  0.78252736922E+01 -0.30740874204E+02  0.31885998951E+02  0.00000000000E+00 0. -1.
         11    1    3    3    0    0  0.46729814703E+01  0.85758047972E+01 -0.64994945456E+01  0.11731351727E+02  0.51100000000E-03 0. -1.
        -11    1    3    3    0    0 -0.41357634701E+01 -0.13413911596E+02  0.47309635146E+01  0.14812818092E+02  0.51100000000E-03 0.  1.
        -12    1    3    3    0    0  0.27001689015E+01 -0.29871668932E+01  0.32509405235E+02  0.32757831229E+02  0.00000000000E+00 0.  1.
</event>
<event>
 7    1  0.3220798E-013  0.5930194E+02  0.7816164E-02  0.1266605E+00
        -11   -1    0    0    0    0  0.00000000000E+00  0.00000000000E+00  0.45593999997E+02  0.45594000000E+02  0.51100000000E-03 0.  1.
         11   -1    0    0    0    0 -0.00000000000E+00 -0.00000000000E+00 -0.45593999997E+02  0.45594000000E+02  0.51100000000E-03 0. -1.
    9900012    2    1    2    0    0 -0.26813269910E+02  0.91246349185E+01  0.14646167879E+02  0.59301942871E+02  0.49999997891E+02 0.  0.
         12    1    1    2    0    0  0.26813269910E+02 -0.91246349185E+01 -0.14646167879E+02  0.31886057129E+02  0.00000000000E+00 0. -1.
         11    1    3    3    0    0 -0.11320892263E+02  0.26618316643E+01  0.54564778668E+01  0.12846053884E+02  0.51100000000E-03 0.  1.
        -11    1    3    3    0    0 -0.14458089221E+02 -0.10820930483E+02  0.19279060474E+02  0.26416113520E+02  0.51100000000E-03 0. -1.
         12    1    3    3    0    0 -0.10342884262E+01  0.17283733737E+02 -0.10089370462E+02  0.20039775467E+02  0.00000000000E+00 0. -1.
</event>
<event>
 7    1  0.3220798E-013  0.5930187E+02  0.7816164E-02  0.1266605E+00
        -11   -1    0    0    0    0  0.00000000000E+00  0.00000000000E+00  0.45593999997E+02  0.45594000000E+02  0.51100000000E-03 0.  1.
         11   -1    0    0    0    0 -0.00000000000E+00 -0.00000000000E+00 -0.45593999997E+02  0.45594000000E+02  0.51100000000E-03 0. -1.
    9900012    2    1    2    0    0  0.16814759202E+02 -0.22183024779E+02  0.15553220620E+02  0.59301868422E+02  0.49999862113E+02 0.  0.
         12    1    1    2    0    0 -0.16814759202E+02  0.22183024779E+02 -0.15553220620E+02  0.31886131578E+02  0.00000000000E+00 0. -1.
         11    1    3    3    0    0  0.26859915737E+02 -0.24954223300E+01  0.18908097859E+02  0.32942349201E+02  0.51100000000E-03 0. -1.
        -11    1    3    3    0    0  0.21557150354E+01 -0.33196500329E+01 -0.43992885013E+01  0.59178478549E+01  0.51100000000E-03 0.  1.
        -12    1    3    3    0    0 -0.12200871570E+02 -0.16367952416E+02  0.10444112629E+01  0.20441671366E+02  0.00000000000E+00 0.  1.
</event>
<event>
 7    1  0.3220798E-013  0.5930195E+02  0.7816164E-02  0.1266605E+00
        -11   -1    0    0    0    0  0.00000000000E+00  0.00000000000E+00  0.45593999997E+02  0.45594000000E+02  0.51100000000E-03 0. -1.
         11   -1    0    0    0    0 -0.00000000000E+00 -0.00000000000E+00 -0.45593999997E+02  0.45594000000E+02  0.51100000000E-03 0.  1.
    9900012    2    1    2    0    0 -0.22727887169E+02  0.10573804044E+02 -0.19706803082E+02  0.59301948585E+02  0.50000008311E+02 0.  0.
         12    1    1    2    0    0  0.22727887169E+02 -0.10573804044E+02  0.19706803082E+02  0.31886051415E+02  0.00000000000E+00 0. -1.
         11    1    3    3    0    0 -0.11941358774E+02 -0.35789120544E+01 -0.19475632392E+02  0.23123687383E+02  0.51100000000E-03 0. -1.
        -11    1    3    3    0    0 -0.18477462484E+02  0.18906418524E+01 -0.74392908028E+01  0.20008353115E+02  0.51100000000E-03 0.  1.
         12    1    3    3    0    0  0.76909340882E+01  0.12262074246E+02  0.72081201134E+01  0.16169908087E+02  0.00000000000E+00 0. -1.
</event>
<event>
 7    1  0.3220798E-013  0.5930187E+02  0.7816164E-02  0.1266605E+00
        -11   -1    0    0    0    0  0.00000000000E+00  0.00000000000E+00  0.45593999997E+02  0.45594000000E+02  0.51100000000E-03 0. -1.
         11   -1    0    0    0    0 -0.00000000000E+00 -0.00000000000E+00 -0.45593999997E+02  0.45594000000E+02  0.51100000000E-03 0.  1.
    9900012    2    1    2    0    0 -0.10247499401E+02 -0.24195065300E+02 -0.18064134917E+02  0.59301868232E+02  0.49999861766E+02 0.  0.
         12    1    1    2    0    0  0.10247499401E+02  0.24195065300E+02  0.18064134917E+02  0.31886131768E+02  0.00000000000E+00 0. -1.
         11    1    3    3    0    0  0.52808884164E+01 -0.94626365985E+01  0.23874513721E+01  0.11096359681E+02  0.51100000000E-03 0. -1.
        -11    1    3    3    0    0  0.55132052763E+01 -0.11292770761E+02 -0.23518312625E+02  0.26665204535E+02  0.51100000000E-03 0.  1.
        -12    1    3    3    0    0 -0.21041593094E+02 -0.34396579407E+01  0.30667263363E+01  0.21540304016E+02  0.00000000000E+00 0.  1.
</event>
<event>
 7    1  0.3220798E-013  0.5930189E+02  0.7816164E-02  0.1266605E+00
        -11   -1    0    0    0    0  0.00000000000E+00  0.00000000000E+00  0.45593999997E+02  0.45594000000E+02  0.51100000000E-03 0. -1.
         11   -1    0    0    0    0 -0.00000000000E+00 -0.00000000000E+00 -0.45593999997E+02  0.45594000000E+02  0.51100000000E-03 0.  1.
    9900012    2    1    2    0    0  0.14445617001E+02 -0.25317175115E+02 -0.12926295283E+02  0.59301885215E+02  0.49999892740E+02 0.  0.
         12    1    1    2    0    0 -0.14445617001E+02  0.25317175115E+02  0.12926295283E+02  0.31886114785E+02  0.00000000000E+00 0. -1.
         11    1    3    3    0    0  0.90828890032E+01 -0.97260433234E+01  0.16692523059E+01  0.13411979529E+02  0.51100000000E-03 0. -1.
        -11    1    3    3    0    0  0.10461804569E+02 -0.27944566318E+02 -0.75365697737E+01  0.30775770108E+02  0.51100000000E-03 0.  1.
        -12    1    3    3    0    0 -0.50990765713E+01  0.12353434526E+02 -0.70589778149E+01  0.15114135578E+02  0.00000000000E+00 0.  1.
</event>
<event>
 7    1  0.3220798E-013  0.5930195E+02  0.7816164E-02  0.1266605E+00
        -11   -1    0    0    0    0  0.00000000000E+00  0.00000000000E+00  0.45593999997E+02  0.45594000000E+02  0.51100000000E-03 0.  1.
         11   -1    0    0    0    0 -0.00000000000E+00 -0.00000000000E+00 -0.45593999997E+02  0.45594000000E+02  0.51100000000E-03 0. -1.
    9900012    2    1    2    0    0  0.15710700398E+02 -0.12822084272E+01  0.27717327586E+02  0.59301946403E+02  0.50000004333E+02 0.  0.
         12    1    1    2    0    0 -0.15710700398E+02  0.12822084272E+01 -0.27717327586E+02  0.31886053597E+02  0.00000000000E+00 0. -1.
         11    1    3    3    0    0  0.21735607222E+01  0.69723157529E+01  0.67972805825E+01  0.99770023929E+01  0.51100000000E-03 0. -1.
        -11    1    3    3    0    0  0.55193955681E+01 -0.45888833851E+01  0.33334565489E+02  0.34098604587E+02  0.51100000000E-03 0.  1.
         12    1    3    3    0    0  0.80177441080E+01 -0.36656407950E+01 -0.12414518486E+02  0.15226339424E+02  0.00000000000E+00 0. -1.
</event>
<event>
 7    1  0.3220798E-013  0.5930188E+02  0.7816164E-02  0.1266605E+00
        -11   -1    0    0    0    0  0.00000000000E+00  0.00000000000E+00  0.45593999997E+02  0.45594000000E+02  0.51100000000E-03 0.  1.
         11   -1    0    0    0    0 -0.00000000000E+00 -0.00000000000E+00 -0.45593999997E+02  0.45594000000E+02  0.51100000000E-03 0. -1.
    9900012    2    1    2    0    0 -0.14570723289E+01 -0.30553242995E+01  0.31705934455E+02  0.59301884746E+02  0.49999891884E+02 0.  0.
         12    1    1    2    0    0  0.14570723289E+01  0.30553242995E+01 -0.31705934455E+02  0.31886115254E+02  0.00000000000E+00 0. -1.
         11    1    3    3    0    0 -0.59938365153E-01 -0.20787473603E+02  0.20652104543E+02  0.29302424366E+02  0.51100000000E-03 0. -1.
        -11    1    3    3    0    0  0.20362530587E+01 -0.18839667785E+01  0.96442693534E+01  0.10035317083E+02  0.51100000000E-03 0.  1.
        -12    1    3    3    0    0 -0.34333870225E+01  0.19616116082E+02  0.14095605581E+01  0.19964143296E+02  0.00000000000E+00 0.  1.
</event>
<event>
 7    1  0.3220798E-013  0.5930202E+02  0.7816164E-02  0.1266604E+00
        -11   -1    0    0    0    0  0.00000000000E+00  0.00000000000E+00  0.45593999997E+02  0.45594000000E+02  0.51100000000E-03 0. -1.
         11   -1    0    0    0    0 -0.00000000000E+00 -0.00000000000E+00 -0.45593999997E+02  0.45594000000E+02  0.51100000000E-03 0.  1.
    9900012    2    1    2    0    0 -0.17214827572E+02  0.12463396085E+02 -0.23770337755E+02  0.59302023658E+02  0.50000145226E+02 0.  0.
         12    1    1    2    0    0  0.17214827572E+02 -0.12463396085E+02  0.23770337755E+02  0.31885976342E+02  0.00000000000E+00 0. -1.
         11    1    3    3    0    0  0.71161785570E+00  0.23433076256E+02 -0.38534672888E+01  0.23758465296E+02  0.51100000000E-03 0. -1.
        -11    1    3    3    0    0  0.21587145028E+01 -0.86137497273E+01 -0.86365251533E+01  0.12387344334E+02  0.51100000000E-03 0.  1.
        -12    1    3    3    0    0 -0.20085159931E+02 -0.23559304444E+01 -0.11280345313E+02  0.23156214028E+02  0.00000000000E+00 0.  1.
</event>
<event>
 7    1  0.3220798E-013  0.5930193E+02  0.7816164E-02  0.1266605E+00
        -11   -1    0    0    0    0  0.00000000000E+00  0.00000000000E+00  0.45593999997E+02  0.45594000000E+02  0.51100000000E-03 0. -1.
         11   -1    0    0    0    0 -0.00000000000E+00 -0.00000000000E+00 -0.45593999997E+02  0.45594000000E+02  0.51100000000E-03 0.  1.
    9900012    2    1    2    0    0 -0.12249787624E+02  0.27568659295E+02  0.10326324615E+02  0.59301933259E+02  0.49999980360E+02 0.  0.
         12    1    1    2    0    0  0.12249787624E+02 -0.27568659295E+02 -0.10326324615E+02  0.31886066741E+02  0.00000000000E+00 0. -1.
         11    1    3    3    0    0 -0.12661896378E+02  0.76225399700E+01  0.17210075807E+01  0.14879133135E+02  0.51100000000E-03 0. -1.
        -11    1    3    3    0    0 -0.13497167295E+02 -0.55050600617E+01  0.29975508116E+01  0.14881684125E+02  0.51100000000E-03 0.  1.
         12    1    3    3    0    0  0.13909276050E+02  0.25451179387E+02  0.56077662230E+01  0.29541115998E+02  0.00000000000E+00 0. -1.
</event>
<event>
 7    1  0.3220798E-013  0.5930199E+02  0.7816164E-02  0.1266605E+00
        -11   -1    0    0    0    0  0.00000000000E+00  0.00000000000E+00  0.45593999997E+02  0.45594000000E+02  0.51100000000E-03 0. -1.
         11   -1    0    0    0    0 -0.00000000000E+00 -0.00000000000E+00 -0.45593999997E+02  0.45594000000E+02  0.51100000000E-03 0.  1.
    9900012    2    1    2    0    0  0.11743007407E+02 -0.13858584565E+02 -0.26206089270E+02  0.59301988899E+02  0.50000081834E+02 0.  0.
         12    1    1    2    0    0 -0.11743007407E+02  0.13858584565E+02  0.26206089270E+02  0.31886011101E+02  0.00000000000E+00 0. -1.
         11    1    3    3    0    0 -0.32053239455E+01 -0.10663948611E+02  0.60364287865E+01  0.12666190205E+02  0.51100000000E-03 0. -1.
        -11    1    3    3    0    0  0.42435651257E+01 -0.14999445093E+02 -0.24199230893E+02  0.28785308304E+02  0.51100000000E-03 0.  1.
        -12    1    3    3    0    0  0.10704766227E+02  0.11804809138E+02 -0.80432871637E+01  0.17850490390E+02  0.00000000000E+00 0.  1.
</event>
<event>
 7    1  0.3220798E-013  0.5930196E+02  0.7816164E-02  0.1266605E+00
        -11   -1    0    0    0    0  0.00000000000E+00  0.00000000000E+00  0.45593999997E+02  0.45594000000E+02  0.51100000000E-03 0.  1.
         11   -1    0    0    0    0 -0.00000000000E+00 -0.00000000000E+00 -0.45593999997E+02  0.45594000000E+02  0.51100000000E-03 0. -1.
    9900012    2    1    2    0    0 -0.21943128623E+02  0.20580931874E+02  0.10566176418E+02  0.59301957056E+02  0.50000023760E+02 0.  0.
         12    1    1    2    0    0  0.21943128623E+02 -0.20580931874E+02 -0.10566176418E+02  0.31886042944E+02  0.00000000000E+00 0. -1.
         11    1    3    3    0    0 -0.84915964729E+01 -0.56158246998E+01  0.13546813590E+02  0.16945821208E+02  0.51100000000E-03 0. -1.
        -11    1    3    3    0    0 -0.11982709990E+02  0.42022349176E+01  0.10534695202E+02  0.16499209686E+02  0.51100000000E-03 0.  1.
         12    1    3    3    0    0 -0.14688221602E+01  0.21994521656E+02 -0.13515332373E+02  0.25856926162E+02  0.00000000000E+00 0. -1.
</event>
<event>
 7    1  0.3220798E-013  0.5930193E+02  0.7816164E-02  0.1266605E+00
        -11   -1    0    0    0    0  0.00000000000E+00  0.00000000000E+00  0.45593999997E+02  0.45594000000E+02  0.51100000000E-03 0.  1.
         11   -1    0    0    0    0 -0.00000000000E+00 -0.00000000000E+00 -0.45593999997E+02  0.45594000000E+02  0.51100000000E-03 0. -1.
    9900012    2    1    2    0    0  0.24898701241E+02  0.11329609846E+02  0.16383417228E+02  0.59301925566E+02  0.49999966330E+02 0.  0.
         12    1    1    2    0    0 -0.24898701241E+02 -0.11329609846E+02 -0.16383417228E+02  0.31886074434E+02  0.00000000000E+00 0. -1.
         11    1    3    3    0    0  0.18222427169E+02 -0.13584229569E+02 -0.32814590315E+01  0.22964235641E+02  0.51100000000E-03 0.  1.
        -11    1    3    3    0    0  0.47903923755E+01  0.99291707099E+01  0.18047776951E+02  0.21148487966E+02  0.51100000000E-03 0. -1.
        -12    1    3    3    0    0  0.18858816961E+01  0.14984668706E+02  0.16170993084E+01  0.15189201959E+02  0.00000000000E+00 0.  1.
</event>
<event>
 7    1  0.3220798E-013  0.5930193E+02  0.7816164E-02  0.1266605E+00
        -11   -1    0    0    0    0  0.00000000000E+00  0.00000000000E+00  0.45593999997E+02  0.45594000000E+02  0.51100000000E-03 0.  1.
         11   -1    0    0    0    0 -0.00000000000E+00 -0.00000000000E+00 -0.45593999997E+02  0.45594000000E+02  0.51100000000E-03 0. -1.
    9900012    2    1    2    0    0  0.17490090188E+02 -0.82201840423E+01  0.25362304300E+02  0.59301934707E+02  0.49999983001E+02 0.  0.
         12    1    1    2    0    0 -0.17490090188E+02  0.82201840423E+01 -0.25362304300E+02  0.31886065293E+02  0.00000000000E+00 0. -1.
         11    1    3    3    0    0 -0.57776510770E-01  0.11340293944E+02  0.26337943953E+02  0.28675649893E+02  0.51100000000E-03 0. -1.
        -11    1    3    3    0    0 -0.13803445387E+00 -0.94657367346E+01 -0.35282633247E+01  0.10102864336E+02  0.51100000000E-03 0.  1.
        -12    1    3    3    0    0  0.17685901153E+02 -0.10094741251E+02  0.25526236719E+01  0.20523420478E+02  0.00000000000E+00 0.  1.
</event>
<event>
 7    1  0.3220798E-013  0.5930188E+02  0.7816164E-02  0.1266605E+00
        -11   -1    0    0    0    0  0.00000000000E+00  0.00000000000E+00  0.45593999997E+02  0.45594000000E+02  0.51100000000E-03 0.  1.
         11   -1    0    0    0    0 -0.00000000000E+00 -0.00000000000E+00 -0.45593999997E+02  0.45594000000E+02  0.51100000000E-03 0. -1.
    9900012    2    1    2    0    0 -0.15004999459E+02  0.12362204037E+02  0.25273508979E+02  0.59301884628E+02  0.49999891669E+02 0.  0.
         12    1    1    2    0    0  0.15004999459E+02 -0.12362204037E+02 -0.25273508979E+02  0.31886115372E+02  0.00000000000E+00 0. -1.
         11    1    3    3    0    0  0.12619551189E+01  0.12621279226E+02  0.17293283413E+01  0.12801554468E+02  0.51100000000E-03 0. -1.
        -11    1    3    3    0    0 -0.23689147431E+00  0.16021621952E+02  0.15456609385E+02  0.22263316498E+02  0.51100000000E-03 0.  1.
         12    1    3    3    0    0 -0.16030063104E+02 -0.16280697141E+02  0.80875712519E+01  0.24237013662E+02  0.00000000000E+00 0. -1.
</event>
<event>
 7    1  0.3220798E-013  0.5930194E+02  0.7816164E-02  0.1266605E+00
        -11   -1    0    0    0    0  0.00000000000E+00  0.00000000000E+00  0.45593999997E+02  0.45594000000E+02  0.51100000000E-03 0.  1.
         11   -1    0    0    0    0 -0.00000000000E+00 -0.00000000000E+00 -0.45593999997E+02  0.45594000000E+02  0.51100000000E-03 0. -1.
    9900012    2    1    2    0    0 -0.12927983635E+02 -0.17480690986E+02  0.23324092977E+02  0.59301942993E+02  0.49999998113E+02 0.  0.
         12    1    1    2    0    0  0.12927983635E+02  0.17480690986E+02 -0.23324092977E+02  0.31886057007E+02  0.00000000000E+00 0. -1.
         11    1    3    3    0    0  0.11042567039E+01 -0.61682969801E+01  0.16262426806E+02  0.17427960190E+02  0.51100000000E-03 0. -1.
        -11    1    3    3    0    0 -0.12190414568E+02 -0.61674841957E+01  0.22039520089E+02  0.25930378220E+02  0.51100000000E-03 0.  1.
         12    1    3    3    0    0 -0.18418257715E+01 -0.51449098106E+01 -0.14977853917E+02  0.15943604583E+02  0.00000000000E+00 0. -1.
</event>
<event>
 7    1  0.3220798E-013  0.5930197E+02  0.7816164E-02  0.1266605E+00
        -11   -1    0    0    0    0  0.00000000000E+00  0.00000000000E+00  0.45593999997E+02  0.45594000000E+02  0.51100000000E-03 0. -1.
         11   -1    0    0    0    0 -0.00000000000E+00 -0.00000000000E+00 -0.45593999997E+02  0.45594000000E+02  0.51100000000E-03 0.  1.
    9900012    2    1    2    0    0  0.93378241981E+01 -0.28648791800E+02 -0.10429324651E+02  0.59301967870E+02  0.50000043482E+02 0.  0.
         12    1    1    2    0    0 -0.93378241981E+01  0.28648791800E+02  0.10429324651E+02  0.31886032130E+02  0.00000000000E+00 0. -1.
         11    1    3    3    0    0 -0.52730486799E+01 -0.20350306155E+02  0.16049745280E+02  0.26448711250E+02  0.51100000000E-03 0. -1.
        -11    1    3    3    0    0  0.50735184134E+01 -0.42371409969E+01 -0.18869992055E+02  0.19994263010E+02  0.51100000000E-03 0.  1.
        -12    1    3    3    0    0  0.95373544646E+01 -0.40613446483E+01 -0.76090778754E+01  0.12858993610E+02  0.00000000000E+00 0.  1.
</event>
<event>
 7    1  0.3220798E-013  0.5930194E+02  0.7816164E-02  0.1266605E+00
        -11   -1    0    0    0    0  0.00000000000E+00  0.00000000000E+00  0.45593999997E+02  0.45594000000E+02  0.51100000000E-03 0.  1.
         11   -1    0    0    0    0 -0.00000000000E+00 -0.00000000000E+00 -0.45593999997E+02  0.45594000000E+02  0.51100000000E-03 0. -1.
    9900012    2    1    2    0    0 -0.57232443181E+01  0.11545929512E+02  0.29166024762E+02  0.59301936990E+02  0.49999987166E+02 0.  0.
         12    1    1    2    0    0  0.57232443181E+01 -0.11545929512E+02 -0.29166024762E+02  0.31886063010E+02  0.00000000000E+00 0. -1.
         11    1    3    3    0    0  0.15740613532E+02 -0.24025729143E+01  0.52558119875E+01  0.16767910749E+02  0.51100000000E-03 0. -1.
        -11    1    3    3    0    0  0.94636290017E+00  0.68174431715E+01  0.16497980814E+02  0.17876143469E+02  0.51100000000E-03 0.  1.
         12    1    3    3    0    0 -0.22410220750E+02  0.71310592547E+01  0.74122319610E+01  0.24657882772E+02  0.00000000000E+00 0. -1.
</event>
<event>
 7    1  0.3220798E-013  0.5930196E+02  0.7816164E-02  0.1266605E+00
        -11   -1    0    0    0    0  0.00000000000E+00  0.00000000000E+00  0.45593999997E+02  0.45594000000E+02  0.51100000000E-03 0.  1.
         11   -1    0    0    0    0 -0.00000000000E+00 -0.00000000000E+00 -0.45593999997E+02  0.45594000000E+02  0.51100000000E-03 0. -1.
    9900012    2    1    2    0    0  0.21953645103E+02  0.52679480754E+01  0.22516793414E+02  0.59301956096E+02  0.50000022009E+02 0.  0.
         12    1    1    2    0    0 -0.21953645103E+02 -0.52679480754E+01 -0.22516793414E+02  0.31886043904E+02  0.00000000000E+00 0. -1.
         11    1    3    3    0    0  0.58537329215E+01  0.16323494030E+02  0.74353974282E+01  0.18868168476E+02  0.51100000000E-03 0. -1.
        -11    1    3    3    0    0  0.18436122680E+02 -0.56128072209E+01  0.23341804090E+02  0.30269358150E+02  0.51100000000E-03 0.  1.
        -12    1    3    3    0    0 -0.23362104987E+01 -0.54427387333E+01 -0.82604081039E+01  0.10164429470E+02  0.00000000000E+00 0.  1.
</event>
<event>
 7    1  0.3220798E-013  0.5930199E+02  0.7816164E-02  0.1266605E+00
        -11   -1    0    0    0    0  0.00000000000E+00  0.00000000000E+00  0.45593999997E+02  0.45594000000E+02  0.51100000000E-03 0. -1.
         11   -1    0    0    0    0 -0.00000000000E+00 -0.00000000000E+00 -0.45593999997E+02  0.45594000000E+02  0.51100000000E-03 0.  1.
    9900012    2    1    2    0    0 -0.13721649116E+02 -0.21036653259E+02 -0.19644165697E+02  0.59301989263E+02  0.50000082498E+02 0.  0.
         12    1    1    2    0    0  0.13721649116E+02  0.21036653259E+02  0.19644165697E+02  0.31886010737E+02  0.00000000000E+00 0. -1.
         11    1    3    3    0    0 -0.61322287755E+01 -0.31726866779E+02 -0.63393862928E+01  0.32930018588E+02  0.51100000000E-03 0. -1.
        -11    1    3    3    0    0  0.28176446099E+01 -0.41845714863E+00  0.29511883880E+01  0.41016753523E+01  0.51100000000E-03 0.  1.
        -12    1    3    3    0    0 -0.10407064950E+02  0.11108670668E+02 -0.16255967792E+02  0.22270295323E+02  0.00000000000E+00 0.  1.
</event>
<event>
 7    1  0.3220798E-013  0.5930194E+02  0.7816164E-02  0.1266605E+00
        -11   -1    0    0    0    0  0.00000000000E+00  0.00000000000E+00  0.45593999997E+02  0.45594000000E+02  0.51100000000E-03 0. -1.
         11   -1    0    0    0    0 -0.00000000000E+00 -0.00000000000E+00 -0.45593999997E+02  0.45594000000E+02  0.51100000000E-03 0.  1.
    9900012    2    1    2    0    0  0.38640280426E+01 -0.31273467162E+02 -0.48744833597E+01  0.59301936444E+02  0.49999986170E+02 0.  0.
         12    1    1    2    0    0 -0.38640280426E+01  0.31273467162E+02  0.48744833597E+01  0.31886063556E+02  0.00000000000E+00 0. -1.
         11    1    3    3    0    0  0.66990593979E+01 -0.23015655178E+02 -0.13205099415E+02  0.27367360685E+02  0.51100000000E-03 0. -1.
        -11    1    3    3    0    0  0.11552522905E+02 -0.68997908252E+01 -0.27372485922E+01  0.13731730737E+02  0.51100000000E-03 0.  1.
         12    1    3    3    0    0 -0.14387554261E+02 -0.13580211591E+01  0.11067864647E+02  0.18202845022E+02  0.00000000000E+00 0. -1.
</event>
<event>
 7    1  0.3220798E-013  0.5930186E+02  0.7816164E-02  0.1266605E+00
        -11   -1    0    0    0    0  0.00000000000E+00  0.00000000000E+00  0.45593999997E+02  0.45594000000E+02  0.51100000000E-03 0.  1.
         11   -1    0    0    0    0 -0.00000000000E+00 -0.00000000000E+00 -0.45593999997E+02  0.45594000000E+02  0.51100000000E-03 0. -1.
    9900012    2    1    2    0    0  0.29964472988E+02 -0.22434715161E+01 -0.10668788253E+02  0.59301861183E+02  0.49999848910E+02 0.  0.
         12    1    1    2    0    0 -0.29964472988E+02  0.22434715161E+01  0.10668788253E+02  0.31886138817E+02  0.00000000000E+00 0. -1.
         11    1    3    3    0    0  0.84674771728E+01 -0.11496404449E+02  0.10335118195E+02  0.17626121335E+02  0.51100000000E-03 0.  1.
        -11    1    3    3    0    0  0.18979526517E+01 -0.15479648748E+01 -0.19056244168E+02  0.19212986794E+02  0.51100000000E-03 0. -1.
        -12    1    3    3    0    0  0.19599043163E+02  0.10800897808E+02 -0.19476622809E+01  0.22462753053E+02  0.00000000000E+00 0.  1.
</event>
<event>
 7    1  0.3220798E-013  0.5930194E+02  0.7816164E-02  0.1266605E+00
        -11   -1    0    0    0    0  0.00000000000E+00  0.00000000000E+00  0.45593999997E+02  0.45594000000E+02  0.51100000000E-03 0. -1.
         11   -1    0    0    0    0 -0.00000000000E+00 -0.00000000000E+00 -0.45593999997E+02  0.45594000000E+02  0.51100000000E-03 0.  1.
    9900012    2    1    2    0    0 -0.15850460932E+02 -0.25885669474E+02 -0.97681086869E+01  0.59301938105E+02  0.49999989198E+02 0.  0.
         12    1    1    2    0    0  0.15850460932E+02  0.25885669474E+02  0.97681086869E+01  0.31886061895E+02  0.00000000000E+00 0. -1.
         11    1    3    3    0    0  0.67824559994E+00 -0.86529248146E+01 -0.22988951981E+00  0.86825096829E+01  0.51100000000E-03 0. -1.
        -11    1    3    3    0    0  0.37139676440E+01 -0.26971485501E+02 -0.44566811453E+01  0.27588341612E+02  0.51100000000E-03 0.  1.
         12    1    3    3    0    0 -0.20242674176E+02  0.97387408421E+01 -0.50815380218E+01  0.23031086810E+02  0.00000000000E+00 0. -1.
</event>
<event>
 7    1  0.3220798E-013  0.5930181E+02  0.7816164E-02  0.1266605E+00
        -11   -1    0    0    0    0  0.00000000000E+00  0.00000000000E+00  0.45593999997E+02  0.45594000000E+02  0.51100000000E-03 0.  1.
         11   -1    0    0    0    0 -0.00000000000E+00 -0.00000000000E+00 -0.45593999997E+02  0.45594000000E+02  0.51100000000E-03 0. -1.
    9900012    2    1    2    0    0  0.12550060644E+02  0.27986971355E+02  0.87151979763E+01  0.59301807635E+02  0.49999751251E+02 0.  0.
         12    1    1    2    0    0 -0.12550060644E+02 -0.27986971355E+02 -0.87151979763E+01  0.31886192365E+02  0.00000000000E+00 0. -1.
         11    1    3    3    0    0  0.24379268204E+01 -0.55905768402E+00 -0.47522108028E+01  0.53702458464E+01  0.51100000000E-03 0. -1.
        -11    1    3    3    0    0 -0.14805696435E+02  0.28531693804E+01  0.97314233877E+01  0.17945746679E+02  0.51100000000E-03 0.  1.
        -12    1    3    3    0    0  0.24917830259E+02  0.25692859658E+02  0.37359853915E+01  0.35985815110E+02  0.00000000000E+00 0.  1.
</event>
<event>
 7    1  0.3220798E-013  0.5930195E+02  0.7816164E-02  0.1266605E+00
        -11   -1    0    0    0    0  0.00000000000E+00  0.00000000000E+00  0.45593999997E+02  0.45594000000E+02  0.51100000000E-03 0.  1.
         11   -1    0    0    0    0 -0.00000000000E+00 -0.00000000000E+00 -0.45593999997E+02  0.45594000000E+02  0.51100000000E-03 0. -1.
    9900012    2    1    2    0    0 -0.12378390780E+02  0.16599888205E+02  0.24247459650E+02  0.59301950603E+02  0.50000011991E+02 0.  0.
         12    1    1    2    0    0  0.12378390780E+02 -0.16599888205E+02 -0.24247459650E+02  0.31886049397E+02  0.00000000000E+00 0. -1.
         11    1    3    3    0    0 -0.26356263242E+01 -0.97521223030E+01  0.72042300050E+01  0.12407713156E+02  0.51100000000E-03 0. -1.
        -11    1    3    3    0    0 -0.21132777638E+01  0.58059801291E+01  0.23297175018E+02  0.24102566507E+02  0.51100000000E-03 0.  1.
         12    1    3    3    0    0 -0.76294866920E+01  0.20546030378E+02 -0.62539453728E+01  0.22791670940E+02  0.00000000000E+00 0. -1.
</event>
<event>
 7    1  0.3220798E-013  0.5930195E+02  0.7816164E-02  0.1266605E+00
        -11   -1    0    0    0    0  0.00000000000E+00  0.00000000000E+00  0.45593999997E+02  0.45594000000E+02  0.51100000000E-03 0.  1.
         11   -1    0    0    0    0 -0.00000000000E+00 -0.00000000000E+00 -0.45593999997E+02  0.45594000000E+02  0.51100000000E-03 0. -1.
    9900012    2    1    2    0    0  0.73020348960E+01 -0.21680229292E+02  0.22211884456E+02  0.59301954982E+02  0.50000019979E+02 0.  0.
         12    1    1    2    0    0 -0.73020348960E+01  0.21680229292E+02 -0.22211884456E+02  0.31886045018E+02  0.00000000000E+00 0. -1.
         11    1    3    3    0    0 -0.11152959643E+02  0.55095872132E+01  0.14354569124E+02  0.18994675966E+02  0.51100000000E-03 0. -1.
        -11    1    3    3    0    0 -0.18786846044E+01 -0.14920081397E+02  0.68836821522E+01  0.16538541803E+02  0.51100000000E-03 0.  1.
        -12    1    3    3    0    0  0.20333679144E+02 -0.12269735109E+02  0.97363317973E+00  0.23768737214E+02  0.00000000000E+00 0.  1.
</event>
<event>
 7    1  0.3220798E-013  0.5930192E+02  0.7816164E-02  0.1266605E+00
        -11   -1    0    0    0    0  0.00000000000E+00  0.00000000000E+00  0.45593999997E+02  0.45594000000E+02  0.51100000000E-03 0.  1.
         11   -1    0    0    0    0 -0.00000000000E+00 -0.00000000000E+00 -0.45593999997E+02  0.45594000000E+02  0.51100000000E-03 0. -1.
    9900012    2    1    2    0    0  0.72947843458E+01 -0.23932754337E+02  0.19766926214E+02  0.59301921835E+02  0.49999959525E+02 0.  0.
         12    1    1    2    0    0 -0.72947843458E+01  0.23932754337E+02 -0.19766926214E+02  0.31886078165E+02  0.00000000000E+00 0. -1.
         11    1    3    3    0    0 -0.43892450886E+01  0.99430113064E+01 -0.23114112819E+01  0.11111776125E+02  0.51100000000E-03 0. -1.
        -11    1    3    3    0    0  0.25372054238E+01 -0.50190627601E+01  0.16469514661E+02  0.17403255896E+02  0.51100000000E-03 0.  1.
        -12    1    3    3    0    0  0.91468240106E+01 -0.28856702883E+02  0.56088228347E+01  0.30786889813E+02  0.00000000000E+00 0.  1.
</event>
<event>
 7    1  0.3220798E-013  0.5930204E+02  0.7816164E-02  0.1266604E+00
        -11   -1    0    0    0    0  0.00000000000E+00  0.00000000000E+00  0.45593999997E+02  0.45594000000E+02  0.51100000000E-03 0.  1.
         11   -1    0    0    0    0 -0.00000000000E+00 -0.00000000000E+00 -0.45593999997E+02  0.45594000000E+02  0.51100000000E-03 0. -1.
    9900012    2    1    2    0    0 -0.30089760446E+02  0.55866273261E+01  0.89504396445E+01  0.59302039791E+02  0.50000174650E+02 0.  0.
         12    1    1    2    0    0  0.30089760446E+02 -0.55866273261E+01 -0.89504396445E+01  0.31885960209E+02  0.00000000000E+00 0. -1.
         11    1    3    3    0    0 -0.33484608182E+01 -0.60377784763E+01 -0.14786061459E+02  0.16318534631E+02  0.51100000000E-03 0. -1.
        -11    1    3    3    0    0 -0.16745604959E+02 -0.38778394372E+01  0.91825785330E+01  0.19487757001E+02  0.51100000000E-03 0.  1.
         12    1    3    3    0    0 -0.99956946691E+01  0.15502245240E+02  0.14553922570E+02  0.23495748159E+02  0.00000000000E+00 0. -1.
</event>
<event>
 7    1  0.3220798E-013  0.5930195E+02  0.7816164E-02  0.1266605E+00
        -11   -1    0    0    0    0  0.00000000000E+00  0.00000000000E+00  0.45593999997E+02  0.45594000000E+02  0.51100000000E-03 0.  1.
         11   -1    0    0    0    0 -0.00000000000E+00 -0.00000000000E+00 -0.45593999997E+02  0.45594000000E+02  0.51100000000E-03 0. -1.
    9900012    2    1    2    0    0  0.12977039146E+02  0.29743737533E+01  0.28973605838E+02  0.59301948513E+02  0.50000008179E+02 0.  0.
         12    1    1    2    0    0 -0.12977039146E+02 -0.29743737533E+01 -0.28973605838E+02  0.31886051487E+02  0.00000000000E+00 0. -1.
         11    1    3    3    0    0  0.67615451471E+01 -0.74427984931E+01  0.15866202861E+02  0.18784305568E+02  0.51100000000E-03 0. -1.
        -11    1    3    3    0    0 -0.14331688008E+02  0.10103635456E+01  0.10445976404E+02  0.17763348191E+02  0.51100000000E-03 0.  1.
         12    1    3    3    0    0  0.20547182006E+02  0.94068087008E+01  0.26614265723E+01  0.22754294754E+02  0.00000000000E+00 0. -1.
</event>
<event>
 7    1  0.3220798E-013  0.5930181E+02  0.7816164E-02  0.1266605E+00
        -11   -1    0    0    0    0  0.00000000000E+00  0.00000000000E+00  0.45593999997E+02  0.45594000000E+02  0.51100000000E-03 0.  1.
         11   -1    0    0    0    0 -0.00000000000E+00 -0.00000000000E+00 -0.45593999997E+02  0.45594000000E+02  0.51100000000E-03 0. -1.
    9900012    2    1    2    0    0  0.36505309249E+01  0.22111752323E+02  0.22682003344E+02  0.59301807964E+02  0.49999751852E+02 0.  0.
         12    1    1    2    0    0 -0.36505309249E+01 -0.22111752323E+02 -0.22682003344E+02  0.31886192036E+02  0.00000000000E+00 0. -1.
         11    1    3    3    0    0  0.15584820920E+02 -0.62240509802E+01  0.47599778625E+01  0.17443704974E+02  0.51100000000E-03 0. -1.
        -11    1    3    3    0    0 -0.18651149881E+01  0.12938723635E+02  0.19409052207E+02  0.23400866032E+02  0.51100000000E-03 0.  1.
        -12    1    3    3    0    0 -0.10069175007E+02  0.15397079668E+02 -0.14870267254E+01  0.18457236958E+02  0.00000000000E+00 0.  1.
</event>
<event>
 7    1  0.3564321E-013  0.5930195E+02  0.7816164E-02  0.1266605E+00
        -11   -1    0    0    0    0  0.00000000000E+00  0.00000000000E+00  0.45593999997E+02  0.45594000000E+02  0.51100000000E-03 0. -1.
         11   -1    0    0    0    0 -0.00000000000E+00 -0.00000000000E+00 -0.45593999997E+02  0.45594000000E+02  0.51100000000E-03 0.  1.
    9900012    2    1    2    0    0  0.23878510883E+01 -0.16033080409E+02 -0.27458303744E+02  0.59301953762E+02  0.50000017753E+02 0.  0.
         12    1    1    2    0    0 -0.23878510883E+01  0.16033080409E+02  0.27458303744E+02  0.31886046238E+02  0.00000000000E+00 0. -1.
         11    1    3    3    0    0 -0.13409099558E+02 -0.90748447364E+01 -0.12888791941E+02  0.20694871730E+02  0.51100000000E-03 0.  1.
        -11    1    3    3    0    0  0.13308981675E+02 -0.19023027887E+02 -0.11515684716E+02  0.25915547032E+02  0.51100000000E-03 0. -1.
         12    1    3    3    0    0  0.24879689711E+01  0.12064792215E+02 -0.30538270866E+01  0.12691535000E+02  0.00000000000E+00 0. -1.
</event>
<event>
 7    1  0.3220798E-013  0.5930194E+02  0.7816164E-02  0.1266605E+00
        -11   -1    0    0    0    0  0.00000000000E+00  0.00000000000E+00  0.45593999997E+02  0.45594000000E+02  0.51100000000E-03 0.  1.
         11   -1    0    0    0    0 -0.00000000000E+00 -0.00000000000E+00 -0.45593999997E+02  0.45594000000E+02  0.51100000000E-03 0. -1.
    9900012    2    1    2    0    0 -0.28409025397E+02 -0.47071398010E+01 -0.13692743349E+02  0.59301935496E+02  0.49999984440E+02 0.  0.
         12    1    1    2    0    0  0.28409025397E+02  0.47071398010E+01  0.13692743349E+02  0.31886064504E+02  0.00000000000E+00 0. -1.
         11    1    3    3    0    0 -0.20921896072E+02 -0.24743693716E+01 -0.66245711096E+01  0.22084682060E+02  0.51100000000E-03 0. -1.
        -11    1    3    3    0    0 -0.15626995231E+02  0.57558556821E+01  0.78730335136E+01  0.18420573052E+02  0.51100000000E-03 0.  1.
         12    1    3    3    0    0  0.81398659061E+01 -0.79886261115E+01 -0.14941205753E+02  0.18796680384E+02  0.00000000000E+00 0. -1.
</event>
<event>
 7    1  0.3220798E-013  0.5930197E+02  0.7816164E-02  0.1266605E+00
        -11   -1    0    0    0    0  0.00000000000E+00  0.00000000000E+00  0.45593999997E+02  0.45594000000E+02  0.51100000000E-03 0.  1.
         11   -1    0    0    0    0 -0.00000000000E+00 -0.00000000000E+00 -0.45593999997E+02  0.45594000000E+02  0.51100000000E-03 0. -1.
    9900012    2    1    2    0    0  0.19361989911E+02 -0.21271734998E+02  0.13760289753E+02  0.59301969560E+02  0.50000046565E+02 0.  0.
         12    1    1    2    0    0 -0.19361989911E+02  0.21271734998E+02 -0.13760289753E+02  0.31886030440E+02  0.00000000000E+00 0. -1.
         11    1    3    3    0    0  0.23613777521E+02 -0.10263645614E+02  0.82115165927E+01  0.27025578904E+02  0.51100000000E-03 0.  1.
        -11    1    3    3    0    0  0.10535343309E+00 -0.99555050915E+01 -0.11172406590E+02  0.14964820421E+02  0.51100000000E-03 0. -1.
         12    1    3    3    0    0 -0.43571410427E+01 -0.10525842921E+01  0.16721179750E+02  0.17311570234E+02  0.00000000000E+00 0. -1.
</event>
<event>
 7    1  0.3220798E-013  0.5930193E+02  0.7816164E-02  0.1266605E+00
        -11   -1    0    0    0    0  0.00000000000E+00  0.00000000000E+00  0.45593999997E+02  0.45594000000E+02  0.51100000000E-03 0.  1.
         11   -1    0    0    0    0 -0.00000000000E+00 -0.00000000000E+00 -0.45593999997E+02  0.45594000000E+02  0.51100000000E-03 0. -1.
    9900012    2    1    2    0    0 -0.18607271600E+02 -0.17542207385E+02  0.19046307553E+02  0.59301930507E+02  0.49999975341E+02 0.  0.
         12    1    1    2    0    0  0.18607271600E+02  0.17542207385E+02 -0.19046307553E+02  0.31886069493E+02  0.00000000000E+00 0. -1.
         11    1    3    3    0    0  0.67119871263E+01 -0.25504572920E+02  0.51383113009E+01  0.26868871474E+02  0.51100000000E-03 0.  1.
        -11    1    3    3    0    0 -0.62818061398E+01  0.32585986190E+01 -0.18063367433E+01  0.73035885720E+01  0.51100000000E-03 0. -1.
        -12    1    3    3    0    0 -0.19037452586E+02  0.47037669158E+01  0.15714332995E+02  0.25129470461E+02  0.00000000000E+00 0.  1.
</event>
<event>
 7    1  0.3220798E-013  0.5930195E+02  0.7816164E-02  0.1266605E+00
        -11   -1    0    0    0    0  0.00000000000E+00  0.00000000000E+00  0.45593999997E+02  0.45594000000E+02  0.51100000000E-03 0.  1.
         11   -1    0    0    0    0 -0.00000000000E+00 -0.00000000000E+00 -0.45593999997E+02  0.45594000000E+02  0.51100000000E-03 0. -1.
    9900012    2    1    2    0    0  0.37145278495E+01 -0.22686293688E+02  0.22096482956E+02  0.59301949798E+02  0.50000010524E+02 0.  0.
         12    1    1    2    0    0 -0.37145278495E+01  0.22686293688E+02 -0.22096482956E+02  0.31886050202E+02  0.00000000000E+00 0. -1.
         11    1    3    3    0    0 -0.63366163723E+01 -0.12566756826E+01 -0.72242575359E+01  0.96913279806E+01  0.51100000000E-03 0. -1.
        -11    1    3    3    0    0  0.12555191148E+01 -0.28615028399E+02  0.21674701698E+02  0.35919199218E+02  0.51100000000E-03 0.  1.
         12    1    3    3    0    0  0.87956251070E+01  0.71854103937E+01  0.76460387942E+01  0.13691422599E+02  0.00000000000E+00 0. -1.
</event>
<event>
 7    1  0.3220798E-013  0.5930194E+02  0.7816164E-02  0.1266605E+00
        -11   -1    0    0    0    0  0.00000000000E+00  0.00000000000E+00  0.45593999997E+02  0.45594000000E+02  0.51100000000E-03 0. -1.
         11   -1    0    0    0    0 -0.00000000000E+00 -0.00000000000E+00 -0.45593999997E+02  0.45594000000E+02  0.51100000000E-03 0.  1.
    9900012    2    1    2    0    0  0.19245927735E+01  0.30622272100E+02 -0.86771532151E+01  0.59301943583E+02  0.49999999189E+02 0.  0.
         12    1    1    2    0    0 -0.19245927735E+01 -0.30622272100E+02  0.86771532151E+01  0.31886056417E+02  0.00000000000E+00 0. -1.
         11    1    3    3    0    0  0.45602313940E+01  0.58091843751E+00  0.45417430231E+01  0.64622446988E+01  0.51100000000E-03 0. -1.
        -11    1    3    3    0    0  0.15910631692E+02  0.15205245536E+02  0.54006574476E+01  0.22660864807E+02  0.51100000000E-03 0.  1.
        -12    1    3    3    0    0 -0.18546270313E+02  0.14836108126E+02 -0.18619553686E+02  0.30178834078E+02  0.00000000000E+00 0.  1.
</event>
<event>
 7    1  0.3220798E-013  0.5930196E+02  0.7816164E-02  0.1266605E+00
        -11   -1    0    0    0    0  0.00000000000E+00  0.00000000000E+00  0.45593999997E+02  0.45594000000E+02  0.51100000000E-03 0.  1.
         11   -1    0    0    0    0 -0.00000000000E+00 -0.00000000000E+00 -0.45593999997E+02  0.45594000000E+02  0.51100000000E-03 0. -1.
    9900012    2    1    2    0    0  0.48885099645E+01  0.21273848493E+02  0.23243176382E+02  0.59301962183E+02  0.50000033110E+02 0.  0.
         12    1    1    2    0    0 -0.48885099645E+01 -0.21273848493E+02 -0.23243176382E+02  0.31886037817E+02  0.00000000000E+00 0. -1.
         11    1    3    3    0    0  0.18218547504E+02  0.10999180908E+02 -0.22729930651E+01  0.21402428636E+02  0.51100000000E-03 0. -1.
        -11    1    3    3    0    0 -0.30432055433E+01 -0.71344618662E+01  0.61245456938E+01  0.98828996917E+01  0.51100000000E-03 0.  1.
        -12    1    3    3    0    0 -0.10286831996E+02  0.17409129452E+02  0.19391623753E+02  0.28016633855E+02  0.00000000000E+00 0.  1.
</event>
<event>
 7    1  0.3220798E-013  0.5930197E+02  0.7816164E-02  0.1266605E+00
        -11   -1    0    0    0    0  0.00000000000E+00  0.00000000000E+00  0.45593999997E+02  0.45594000000E+02  0.51100000000E-03 0. -1.
         11   -1    0    0    0    0 -0.00000000000E+00 -0.00000000000E+00 -0.45593999997E+02  0.45594000000E+02  0.51100000000E-03 0.  1.
    9900012    2    1    2    0    0 -0.23244704446E+02  0.20375961736E+02  0.78245135824E+01  0.59301966784E+02  0.50000041502E+02 0.  0.
         12    1    1    2    0    0  0.23244704446E+02 -0.20375961736E+02 -0.78245135824E+01  0.31886033216E+02  0.00000000000E+00 0. -1.
         11    1    3    3    0    0  0.95093747465E+00 -0.19969376621E+01  0.11999165828E+02  0.12201312345E+02  0.51100000000E-03 0. -1.
        -11    1    3    3    0    0  0.43086936621E+01 -0.21812352206E+01  0.64030603704E+01  0.80200879378E+01  0.51100000000E-03 0.  1.
        -12    1    3    3    0    0 -0.28504335583E+02  0.24554134619E+02 -0.10577712616E+02  0.39080566501E+02  0.00000000000E+00 0.  1.
</event>
<event>
 7    1  0.3220798E-013  0.5930196E+02  0.7816164E-02  0.1266605E+00
        -11   -1    0    0    0    0  0.00000000000E+00  0.00000000000E+00  0.45593999997E+02  0.45594000000E+02  0.51100000000E-03 0.  1.
         11   -1    0    0    0    0 -0.00000000000E+00 -0.00000000000E+00 -0.45593999997E+02  0.45594000000E+02  0.51100000000E-03 0. -1.
    9900012    2    1    2    0    0 -0.27903312711E+02 -0.13858537949E+02  0.67871671783E+01  0.59301959596E+02  0.50000028393E+02 0.  0.
         12    1    1    2    0    0  0.27903312711E+02  0.13858537949E+02 -0.67871671783E+01  0.31886040404E+02  0.00000000000E+00 0. -1.
         11    1    3    3    0    0 -0.14767501137E+02 -0.16781283452E+02  0.66021900402E+01  0.23308356392E+02  0.51100000000E-03 0. -1.
        -11    1    3    3    0    0 -0.16188709084E+02 -0.11542485685E+02 -0.46877745876E+01  0.20427396026E+02  0.51100000000E-03 0.  1.
         12    1    3    3    0    0  0.30528975093E+01  0.14465231188E+02  0.48727517256E+01  0.15566207177E+02  0.00000000000E+00 0. -1.
</event>
<event>
 7    1  0.3220798E-013  0.5930193E+02  0.7816164E-02  0.1266605E+00
        -11   -1    0    0    0    0  0.00000000000E+00  0.00000000000E+00  0.45593999997E+02  0.45594000000E+02  0.51100000000E-03 0.  1.
         11   -1    0    0    0    0 -0.00000000000E+00 -0.00000000000E+00 -0.45593999997E+02  0.45594000000E+02  0.51100000000E-03 0. -1.
    9900012    2    1    2    0    0 -0.79370419979E+01 -0.27242763071E+02  0.14544996768E+02  0.59301926137E+02  0.49999967371E+02 0.  0.
         12    1    1    2    0    0  0.79370419979E+01  0.27242763071E+02 -0.14544996768E+02  0.31886073863E+02  0.00000000000E+00 0. -1.
         11    1    3    3    0    0 -0.13870542880E+02  0.58330997149E+01 -0.28696413297E+01  0.15318350228E+02  0.51100000000E-03 0. -1.
        -11    1    3    3    0    0 -0.43244264002E+01 -0.20578741360E+01  0.90822590561E+01  0.10267567359E+02  0.51100000000E-03 0.  1.
         12    1    3    3    0    0  0.10257927283E+02 -0.31017988650E+02  0.83323790419E+01  0.33716008550E+02  0.00000000000E+00 0. -1.
</event>
<event>
 7    1  0.3220798E-013  0.5930194E+02  0.7816164E-02  0.1266605E+00
        -11   -1    0    0    0    0  0.00000000000E+00  0.00000000000E+00  0.45593999997E+02  0.45594000000E+02  0.51100000000E-03 0. -1.
         11   -1    0    0    0    0 -0.00000000000E+00 -0.00000000000E+00 -0.45593999997E+02  0.45594000000E+02  0.51100000000E-03 0.  1.
    9900012    2    1    2    0    0 -0.23392238155E+02  0.12274535611E+01 -0.21633713983E+02  0.59301936761E+02  0.49999986748E+02 0.  0.
         12    1    1    2    0    0  0.23392238155E+02 -0.12274535611E+01  0.21633713983E+02  0.31886063239E+02  0.00000000000E+00 0. -1.
         11    1    3    3    0    0 -0.51269076300E+01  0.16324613339E+02 -0.37310486732E+01  0.17512821217E+02  0.51100000000E-03 0. -1.
        -11    1    3    3    0    0  0.59177447007E+00  0.78232316678E+01 -0.19125117785E+01  0.80753236663E+01  0.51100000000E-03 0.  1.
        -12    1    3    3    0    0 -0.18857104995E+02 -0.22920391446E+02 -0.15990153532E+02  0.33713791878E+02  0.00000000000E+00 0.  1.
</event>
<event>
 7    1  0.3220798E-013  0.5930194E+02  0.7816164E-02  0.1266605E+00
        -11   -1    0    0    0    0  0.00000000000E+00  0.00000000000E+00  0.45593999997E+02  0.45594000000E+02  0.51100000000E-03 0.  1.
         11   -1    0    0    0    0 -0.00000000000E+00 -0.00000000000E+00 -0.45593999997E+02  0.45594000000E+02  0.51100000000E-03 0. -1.
    9900012    2    1    2    0    0  0.22130164145E+02  0.18268849841E+02  0.13900557077E+02  0.59301944636E+02  0.50000001110E+02 0.  0.
         12    1    1    2    0    0 -0.22130164145E+02 -0.18268849841E+02 -0.13900557077E+02  0.31886055364E+02  0.00000000000E+00 0. -1.
         11    1    3    3    0    0  0.18926709644E+02  0.64835036600E+01  0.19089004966E+02  0.27652238038E+02  0.51100000000E-03 0. -1.
        -11    1    3    3    0    0  0.20054248171E+01  0.70935619297E+01  0.11839385534E+02  0.13946734372E+02  0.51100000000E-03 0.  1.
         12    1    3    3    0    0  0.11980296843E+01  0.46917842516E+01 -0.17027833423E+02  0.17702972227E+02  0.00000000000E+00 0. -1.
</event>
<event>
 7    1  0.3220798E-013  0.5930192E+02  0.7816164E-02  0.1266605E+00
        -11   -1    0    0    0    0  0.00000000000E+00  0.00000000000E+00  0.45593999997E+02  0.45594000000E+02  0.51100000000E-03 0.  1.
         11   -1    0    0    0    0 -0.00000000000E+00 -0.00000000000E+00 -0.45593999997E+02  0.45594000000E+02  0.51100000000E-03 0. -1.
    9900012    2    1    2    0    0  0.16945264316E+02  0.20110177381E+02  0.18032222922E+02  0.59301917133E+02  0.49999950951E+02 0.  0.
         12    1    1    2    0    0 -0.16945264316E+02 -0.20110177381E+02 -0.18032222922E+02  0.31886082867E+02  0.00000000000E+00 0. -1.
         11    1    3    3    0    0  0.10107257331E+02  0.44246900670E+01 -0.11805536843E+02  0.16158750983E+02  0.51100000000E-03 0. -1.
        -11    1    3    3    0    0  0.59222679540E-01  0.16494122640E+02  0.47811679684E+01  0.17173210428E+02  0.51100000000E-03 0.  1.
        -12    1    3    3    0    0  0.67787843060E+01 -0.80863532550E+00  0.25056591797E+02  0.25969955722E+02  0.00000000000E+00 0.  1.
</event>
<event>
 7    1  0.3220798E-013  0.5930195E+02  0.7816164E-02  0.1266605E+00
        -11   -1    0    0    0    0  0.00000000000E+00  0.00000000000E+00  0.45593999997E+02  0.45594000000E+02  0.51100000000E-03 0. -1.
         11   -1    0    0    0    0 -0.00000000000E+00 -0.00000000000E+00 -0.45593999997E+02  0.45594000000E+02  0.51100000000E-03 0.  1.
    9900012    2    1    2    0    0  0.65640638516E+01  0.29686054343E+02  0.96110091327E+01  0.59301948924E+02  0.50000008929E+02 0.  0.
         12    1    1    2    0    0 -0.65640638516E+01 -0.29686054343E+02 -0.96110091327E+01  0.31886051076E+02  0.00000000000E+00 0. -1.
         11    1    3    3    0    0  0.16198907935E+02 -0.23794198317E+01  0.74271250503E+01  0.17978555108E+02  0.51100000000E-03 0. -1.
        -11    1    3    3    0    0 -0.13027231740E+01  0.13528473975E+02 -0.10667535724E+02  0.17277529176E+02  0.51100000000E-03 0.  1.
        -12    1    3    3    0    0 -0.83321209089E+01  0.18537000199E+02  0.12851419806E+02  0.24045864639E+02  0.00000000000E+00 0.  1.
</event>
<event>
 7    1  0.3220798E-013  0.5930196E+02  0.7816164E-02  0.1266605E+00
        -11   -1    0    0    0    0  0.00000000000E+00  0.00000000000E+00  0.45593999997E+02  0.45594000000E+02  0.51100000000E-03 0.  1.
         11   -1    0    0    0    0 -0.00000000000E+00 -0.00000000000E+00 -0.45593999997E+02  0.45594000000E+02  0.51100000000E-03 0. -1.
    9900012    2    1    2    0    0  0.11852413916E+02  0.63079120070E+01  0.28921450225E+02  0.59301956774E+02  0.50000023246E+02 0.  0.
         12    1    1    2    0    0 -0.11852413916E+02 -0.63079120070E+01 -0.28921450225E+02  0.31886043226E+02  0.00000000000E+00 0. -1.
         11    1    3    3    0    0  0.54142603407E+01  0.24280305820E+02  0.26834423715E+02  0.36591443838E+02  0.51100000000E-03 0.  1.
        -11    1    3    3    0    0 -0.33416400578E+01 -0.61967060225E+01 -0.95248018382E+00  0.71044311924E+01  0.51100000000E-03 0. -1.
        -12    1    3    3    0    0  0.97797936327E+01 -0.11775687791E+02  0.30395066931E+01  0.15606081744E+02  0.00000000000E+00 0.  1.
</event>
<event>
 7    1  0.3220798E-013  0.5930210E+02  0.7816164E-02  0.1266604E+00
        -11   -1    0    0    0    0  0.00000000000E+00  0.00000000000E+00  0.45593999997E+02  0.45594000000E+02  0.51100000000E-03 0. -1.
         11   -1    0    0    0    0 -0.00000000000E+00 -0.00000000000E+00 -0.45593999997E+02  0.45594000000E+02  0.51100000000E-03 0.  1.
    9900012    2    1    2    0    0 -0.90884371913E+01 -0.27145846970E+02 -0.14043289166E+02  0.59302099215E+02  0.50000283023E+02 0.  0.
         12    1    1    2    0    0  0.90884371913E+01  0.27145846970E+02  0.14043289166E+02  0.31885900785E+02  0.00000000000E+00 0. -1.
         11    1    3    3    0    0 -0.27023955668E+01 -0.61322523276E+01 -0.22613601324E+02  0.23585640239E+02  0.51100000000E-03 0. -1.
        -11    1    3    3    0    0  0.94793460562E+00 -0.13678698631E+02 -0.82155792674E+01  0.15984402372E+02  0.51100000000E-03 0.  1.
         12    1    3    3    0    0 -0.73339762301E+01 -0.73348960116E+01  0.16785891425E+02  0.19732056603E+02  0.00000000000E+00 0. -1.
</event>
<event>
 7    1  0.3220798E-013  0.5930197E+02  0.7816164E-02  0.1266605E+00
        -11   -1    0    0    0    0  0.00000000000E+00  0.00000000000E+00  0.45593999997E+02  0.45594000000E+02  0.51100000000E-03 0. -1.
         11   -1    0    0    0    0 -0.00000000000E+00 -0.00000000000E+00 -0.45593999997E+02  0.45594000000E+02  0.51100000000E-03 0.  1.
    9900012    2    1    2    0    0 -0.30139670555E+00 -0.20809671358E+02 -0.24157516877E+02  0.59301970400E+02  0.50000048096E+02 0.  0.
         12    1    1    2    0    0  0.30139670555E+00  0.20809671358E+02  0.24157516877E+02  0.31886029600E+02  0.00000000000E+00 0. -1.
         11    1    3    3    0    0  0.71937501774E+01 -0.13763845144E+01 -0.88898193397E+00  0.73779919413E+01  0.51100000000E-03 0. -1.
        -11    1    3    3    0    0  0.13108638862E+02 -0.11307671053E+01  0.33837395144E+01  0.13585460626E+02  0.51100000000E-03 0.  1.
        -12    1    3    3    0    0 -0.20603785745E+02 -0.18302519738E+02 -0.26652274457E+02  0.38338517832E+02  0.00000000000E+00 0.  1.
</event>
<event>
 7    1  0.3220798E-013  0.5930196E+02  0.7816164E-02  0.1266605E+00
        -11   -1    0    0    0    0  0.00000000000E+00  0.00000000000E+00  0.45593999997E+02  0.45594000000E+02  0.51100000000E-03 0.  1.
         11   -1    0    0    0    0 -0.00000000000E+00 -0.00000000000E+00 -0.45593999997E+02  0.45594000000E+02  0.51100000000E-03 0. -1.
    9900012    2    1    2    0    0  0.82514084442E+01  0.97724024741E+01  0.29208459606E+02  0.59301957536E+02  0.50000024636E+02 0.  0.
         12    1    1    2    0    0 -0.82514084442E+01 -0.97724024741E+01 -0.29208459606E+02  0.31886042464E+02  0.00000000000E+00 0. -1.
         11    1    3    3    0    0 -0.22594235599E+01 -0.16899867019E+02  0.15243542655E+02  0.22870856849E+02  0.51100000000E-03 0. -1.
        -11    1    3    3    0    0 -0.32992106330E+01  0.30670369775E+01  0.68055537533E+01  0.81613153825E+01  0.51100000000E-03 0.  1.
         12    1    3    3    0    0  0.13810042637E+02  0.23605232516E+02  0.71593631985E+01  0.28269785305E+02  0.00000000000E+00 0. -1.
</event>
<event>
 7    1  0.3220798E-013  0.5930196E+02  0.7816164E-02  0.1266605E+00
        -11   -1    0    0    0    0  0.00000000000E+00  0.00000000000E+00  0.45593999997E+02  0.45594000000E+02  0.51100000000E-03 0.  1.
         11   -1    0    0    0    0 -0.00000000000E+00 -0.00000000000E+00 -0.45593999997E+02  0.45594000000E+02  0.51100000000E-03 0. -1.
    9900012    2    1    2    0    0  0.18860124124E+01 -0.30670098067E+02 -0.85151539458E+01  0.59301955953E+02  0.50000021749E+02 0.  0.
         12    1    1    2    0    0 -0.18860124124E+01  0.30670098067E+02  0.85151539458E+01  0.31886044047E+02  0.00000000000E+00 0. -1.
         11    1    3    3    0    0  0.28121836345E+01 -0.51937794603E+01  0.69421908765E+01  0.91146989146E+01  0.51100000000E-03 0. -1.
        -11    1    3    3    0    0 -0.86268279631E+01 -0.45744048872E+01  0.11585419254E+02  0.15151543827E+02  0.51100000000E-03 0.  1.
         12    1    3    3    0    0  0.77006567410E+01 -0.20901913719E+02 -0.27042764077E+02  0.35035713212E+02  0.00000000000E+00 0. -1.
</event>
<event>
 7    1  0.3220798E-013  0.5930191E+02  0.7816164E-02  0.1266605E+00
        -11   -1    0    0    0    0  0.00000000000E+00  0.00000000000E+00  0.45593999997E+02  0.45594000000E+02  0.51100000000E-03 0. -1.
         11   -1    0    0    0    0 -0.00000000000E+00 -0.00000000000E+00 -0.45593999997E+02  0.45594000000E+02  0.51100000000E-03 0.  1.
    9900012    2    1    2    0    0 -0.18028729523E+01 -0.16366625750E+02 -0.27305787908E+02  0.59301908321E+02  0.49999934879E+02 0.  0.
         12    1    1    2    0    0  0.18028729523E+01  0.16366625750E+02  0.27305787908E+02  0.31886091679E+02  0.00000000000E+00 0. -1.
         11    1    3    3    0    0 -0.16003718825E+02 -0.14818928697E+02 -0.28004324260E+01  0.21990045157E+02  0.51100000000E-03 0. -1.
        -11    1    3    3    0    0 -0.21652894885E+01 -0.94976301901E+01 -0.64779547591E+01  0.11698604871E+02  0.51100000000E-03 0.  1.
        -12    1    3    3    0    0  0.16366135362E+02  0.79499331375E+01 -0.18027400722E+02  0.25613258293E+02  0.00000000000E+00 0.  1.
</event>
<event>
 7    1  0.3220798E-013  0.5930205E+02  0.7816164E-02  0.1266604E+00
        -11   -1    0    0    0    0  0.00000000000E+00  0.00000000000E+00  0.45593999997E+02  0.45594000000E+02  0.51100000000E-03 0.  1.
         11   -1    0    0    0    0 -0.00000000000E+00 -0.00000000000E+00 -0.45593999997E+02  0.45594000000E+02  0.51100000000E-03 0. -1.
    9900012    2    1    2    0    0  0.26104726006E+02  0.17488893550E+02  0.54217826972E+01  0.59302049409E+02  0.50000192190E+02 0.  0.
         12    1    1    2    0    0 -0.26104726006E+02 -0.17488893550E+02 -0.54217826972E+01  0.31885950591E+02  0.00000000000E+00 0. -1.
         11    1    3    3    0    0  0.18412877645E+02 -0.82520332495E+01  0.47098340646E+01  0.20719861320E+02  0.51100000000E-03 0. -1.
        -11    1    3    3    0    0  0.92942439810E+01  0.88679300532E+01  0.12510171533E+02  0.17931189215E+02  0.51100000000E-03 0.  1.
         12    1    3    3    0    0 -0.16023956203E+01  0.16872996746E+02 -0.11798222901E+02  0.20650998875E+02  0.00000000000E+00 0. -1.
</event>
<event>
 7    1  0.3220798E-013  0.5930189E+02  0.7816164E-02  0.1266605E+00
        -11   -1    0    0    0    0  0.00000000000E+00  0.00000000000E+00  0.45593999997E+02  0.45594000000E+02  0.51100000000E-03 0.  1.
         11   -1    0    0    0    0 -0.00000000000E+00 -0.00000000000E+00 -0.45593999997E+02  0.45594000000E+02  0.51100000000E-03 0. -1.
    9900012    2    1    2    0    0  0.31123592420E+02 -0.49880527857E+01  0.48130056134E+01  0.59301894895E+02  0.49999910393E+02 0.  0.
         12    1    1    2    0    0 -0.31123592420E+02  0.49880527857E+01 -0.48130056134E+01  0.31886105105E+02  0.00000000000E+00 0. -1.
         11    1    3    3    0    0  0.10195890048E+02  0.10345885627E+02  0.16083400288E+02  0.21671854751E+02  0.51100000000E-03 0. -1.
        -11    1    3    3    0    0  0.10903373015E+02  0.53553457062E+01 -0.28626290383E+00  0.12150934839E+02  0.51100000000E-03 0.  1.
         12    1    3    3    0    0  0.10024329357E+02 -0.20689284119E+02 -0.10984131770E+02  0.25479105305E+02  0.00000000000E+00 0. -1.
</event>
<event>
 7    1  0.3220798E-013  0.5930194E+02  0.7816164E-02  0.1266605E+00
        -11   -1    0    0    0    0  0.00000000000E+00  0.00000000000E+00  0.45593999997E+02  0.45594000000E+02  0.51100000000E-03 0. -1.
         11   -1    0    0    0    0 -0.00000000000E+00 -0.00000000000E+00 -0.45593999997E+02  0.45594000000E+02  0.51100000000E-03 0.  1.
    9900012    2    1    2    0    0  0.15803858317E+02 -0.81173814213E+01 -0.26477664228E+02  0.59301944712E+02  0.50000001248E+02 0.  0.
         12    1    1    2    0    0 -0.15803858317E+02  0.81173814213E+01  0.26477664228E+02  0.31886055288E+02  0.00000000000E+00 0. -1.
         11    1    3    3    0    0 -0.61288369551E+01  0.27585905522E+01  0.55406227868E+01  0.87103941003E+01  0.51100000000E-03 0. -1.
        -11    1    3    3    0    0  0.21613512355E+02 -0.19978756775E+02 -0.28043000616E+02  0.40653468763E+02  0.51100000000E-03 0.  1.
         12    1    3    3    0    0  0.31918291715E+00  0.91027848018E+01 -0.39752863990E+01  0.99380818490E+01  0.00000000000E+00 0. -1.
</event>
<event>
 7    1  0.3220798E-013  0.5930199E+02  0.7816164E-02  0.1266605E+00
        -11   -1    0    0    0    0  0.00000000000E+00  0.00000000000E+00  0.45593999997E+02  0.45594000000E+02  0.51100000000E-03 0. -1.
         11   -1    0    0    0    0 -0.00000000000E+00 -0.00000000000E+00 -0.45593999997E+02  0.45594000000E+02  0.51100000000E-03 0.  1.
    9900012    2    1    2    0    0  0.44366364134E-01 -0.31822765212E+02  0.20068058080E+01  0.59301990158E+02  0.50000084131E+02 0.  0.
         12    1    1    2    0    0 -0.44366364134E-01  0.31822765212E+02 -0.20068058080E+01  0.31886009842E+02  0.00000000000E+00 0. -1.
         11    1    3    3    0    0 -0.10553613633E+02 -0.27582737208E+01 -0.39158686547E+01  0.11589687753E+02  0.51100000000E-03 0. -1.
        -11    1    3    3    0    0  0.31294393751E+01 -0.22008098796E+02 -0.13308217716E+02  0.25908656130E+02  0.51100000000E-03 0.  1.
        -12    1    3    3    0    0  0.74685406221E+01 -0.70563926949E+01  0.19230892179E+02  0.21803646275E+02  0.00000000000E+00 0.  1.
</event>
<event>
 7    1  0.3220798E-013  0.5930194E+02  0.7816164E-02  0.1266605E+00
        -11   -1    0    0    0    0  0.00000000000E+00  0.00000000000E+00  0.45593999997E+02  0.45594000000E+02  0.51100000000E-03 0. -1.
         11   -1    0    0    0    0 -0.00000000000E+00 -0.00000000000E+00 -0.45593999997E+02  0.45594000000E+02  0.51100000000E-03 0.  1.
    9900012    2    1    2    0    0  0.50662878488E+00 -0.45693093746E+01 -0.31552900767E+02  0.59301940229E+02  0.49999993072E+02 0.  0.
         12    1    1    2    0    0 -0.50662878488E+00  0.45693093746E+01  0.31552900767E+02  0.31886059771E+02  0.00000000000E+00 0. -1.
         11    1    3    3    0    0  0.56436612679E+01  0.89846817542E+01 -0.34407876076E+02  0.36006629321E+02  0.51100000000E-03 0. -1.
        -11    1    3    3    0    0 -0.42925154533E+01  0.85901738397E+00  0.70162064704E+01  0.82698702093E+01  0.51100000000E-03 0.  1.
        -12    1    3    3    0    0 -0.84451702972E+00 -0.14413008513E+02 -0.41612311618E+01  0.15025440699E+02  0.00000000000E+00 0.  1.
</event>
<event>
 7    1  0.3220798E-013  0.5930192E+02  0.7816164E-02  0.1266605E+00
        -11   -1    0    0    0    0  0.00000000000E+00  0.00000000000E+00  0.45593999997E+02  0.45594000000E+02  0.51100000000E-03 0.  1.
         11   -1    0    0    0    0 -0.00000000000E+00 -0.00000000000E+00 -0.45593999997E+02  0.45594000000E+02  0.51100000000E-03 0. -1.
    9900012    2    1    2    0    0  0.25975973927E+02  0.15801792488E+02  0.96059618141E+01  0.59301915736E+02  0.49999948403E+02 0.  0.
         12    1    1    2    0    0 -0.25975973927E+02 -0.15801792488E+02 -0.96059618141E+01  0.31886084264E+02  0.00000000000E+00 0. -1.
         11    1    3    3    0    0  0.66759879511E+01 -0.71353174747E+01 -0.29454886088E+01  0.10205756904E+02  0.51100000000E-03 0. -1.
        -11    1    3    3    0    0 -0.84349864351E+01 -0.26004546292E+01  0.63844668821E+01  0.10893703597E+02  0.51100000000E-03 0.  1.
        -12    1    3    3    0    0  0.27734972412E+02  0.25537564592E+02  0.61669835407E+01  0.38202455234E+02  0.00000000000E+00 0.  1.
</event>
<event>
 7    1  0.3220798E-013  0.5930188E+02  0.7816164E-02  0.1266605E+00
        -11   -1    0    0    0    0  0.00000000000E+00  0.00000000000E+00  0.45593999997E+02  0.45594000000E+02  0.51100000000E-03 0.  1.
         11   -1    0    0    0    0 -0.00000000000E+00 -0.00000000000E+00 -0.45593999997E+02  0.45594000000E+02  0.51100000000E-03 0. -1.
    9900012    2    1    2    0    0 -0.37014454807E+01 -0.18455631436E+01  0.31616733078E+02  0.59301880567E+02  0.49999884263E+02 0.  0.
         12    1    1    2    0    0  0.37014454807E+01  0.18455631436E+01 -0.31616733078E+02  0.31886119433E+02  0.00000000000E+00 0. -1.
         11    1    3    3    0    0 -0.18842367442E+01 -0.22978023180E+02  0.16410510480E+02  0.28299200551E+02  0.51100000000E-03 0. -1.
        -11    1    3    3    0    0 -0.55615460976E+01  0.51524568101E+01  0.12129515350E+02  0.14303976687E+02  0.51100000000E-03 0.  1.
        -12    1    3    3    0    0  0.37443373610E+01  0.15980003226E+02  0.30767072491E+01  0.16698703329E+02  0.00000000000E+00 0.  1.
</event>
<event>
 7    1  0.3220798E-013  0.5930193E+02  0.7816164E-02  0.1266605E+00
        -11   -1    0    0    0    0  0.00000000000E+00  0.00000000000E+00  0.45593999997E+02  0.45594000000E+02  0.51100000000E-03 0.  1.
         11   -1    0    0    0    0 -0.00000000000E+00 -0.00000000000E+00 -0.45593999997E+02  0.45594000000E+02  0.51100000000E-03 0. -1.
    9900012    2    1    2    0    0 -0.23362054493E+02  0.69529534998E+01  0.20557042775E+02  0.59301934702E+02  0.49999982992E+02 0.  0.
         12    1    1    2    0    0  0.23362054493E+02 -0.69529534998E+01 -0.20557042775E+02  0.31886065298E+02  0.00000000000E+00 0. -1.
         11    1    3    3    0    0  0.10356163709E+02  0.54922668899E+01 -0.53850402004E+01  0.12900146533E+02  0.51100000000E-03 0. -1.
        -11    1    3    3    0    0 -0.13578108026E+02 -0.23311403076E+01  0.57252567457E+00  0.13788655431E+02  0.51100000000E-03 0.  1.
        -12    1    3    3    0    0 -0.20140110177E+02  0.37918269174E+01  0.25369557301E+02  0.32613132738E+02  0.00000000000E+00 0.  1.
</event>
<event>
 7    1  0.3220798E-013  0.5930195E+02  0.7816164E-02  0.1266605E+00
        -11   -1    0    0    0    0  0.00000000000E+00  0.00000000000E+00  0.45593999997E+02  0.45594000000E+02  0.51100000000E-03 0.  1.
         11   -1    0    0    0    0 -0.00000000000E+00 -0.00000000000E+00 -0.45593999997E+02  0.45594000000E+02  0.51100000000E-03 0. -1.
    9900012    2    1    2    0    0 -0.14327925026E+02 -0.14641524508E+02  0.24434740935E+02  0.59301949131E+02  0.50000009308E+02 0.  0.
         12    1    1    2    0    0  0.14327925026E+02  0.14641524508E+02 -0.24434740935E+02  0.31886050869E+02  0.00000000000E+00 0. -1.
         11    1    3    3    0    0  0.41744484410E+01 -0.35765042999E+01 -0.99861529547E+01  0.11399151455E+02  0.51100000000E-03 0. -1.
        -11    1    3    3    0    0  0.37661409430E+01  0.45976765317E+01  0.79907136164E+01  0.99586119240E+01  0.51100000000E-03 0.  1.
        -12    1    3    3    0    0 -0.22268514410E+02 -0.15662696739E+02  0.26430180273E+02  0.37944185753E+02  0.00000000000E+00 0.  1.
</event>
<event>
 7    1  0.3220798E-013  0.5930187E+02  0.7816164E-02  0.1266605E+00
        -11   -1    0    0    0    0  0.00000000000E+00  0.00000000000E+00  0.45593999997E+02  0.45594000000E+02  0.51100000000E-03 0.  1.
         11   -1    0    0    0    0 -0.00000000000E+00 -0.00000000000E+00 -0.45593999997E+02  0.45594000000E+02  0.51100000000E-03 0. -1.
    9900012    2    1    2    0    0 -0.13299550322E+02  0.24858998740E+02  0.14895546354E+02  0.59301872009E+02  0.49999868655E+02 0.  0.
         12    1    1    2    0    0  0.13299550322E+02 -0.24858998740E+02 -0.14895546354E+02  0.31886127991E+02  0.00000000000E+00 0. -1.
         11    1    3    3    0    0  0.59395371306E+01 -0.27528188458E+01  0.45180626042E+01  0.79541814714E+01  0.51100000000E-03 0. -1.
        -11    1    3    3    0    0  0.97414277753E+01  0.16425010922E+02  0.57274366169E+01  0.19936898689E+02  0.51100000000E-03 0.  1.
        -12    1    3    3    0    0 -0.28980515228E+02  0.11186806663E+02  0.46500471325E+01  0.31410791848E+02  0.00000000000E+00 0.  1.
</event>
<event>
 7    1  0.3220798E-013  0.5930179E+02  0.7816164E-02  0.1266605E+00
        -11   -1    0    0    0    0  0.00000000000E+00  0.00000000000E+00  0.45593999997E+02  0.45594000000E+02  0.51100000000E-03 0. -1.
         11   -1    0    0    0    0 -0.00000000000E+00 -0.00000000000E+00 -0.45593999997E+02  0.45594000000E+02  0.51100000000E-03 0.  1.
    9900012    2    1    2    0    0 -0.28607005630E+01 -0.73602075474E+01 -0.30892949384E+02  0.59301786921E+02  0.49999713475E+02 0.  0.
         12    1    1    2    0    0  0.28607005630E+01  0.73602075474E+01  0.30892949384E+02  0.31886213079E+02  0.00000000000E+00 0. -1.
         11    1    3    3    0    0  0.46591701109E+01 -0.98239807493E+01 -0.29291718799E+01  0.11260484539E+02  0.51100000000E-03 0. -1.
        -11    1    3    3    0    0  0.15081837725E+02  0.36437318811E+01 -0.64103581300E+01  0.16787831987E+02  0.51100000000E-03 0.  1.
        -12    1    3    3    0    0 -0.22601708399E+02 -0.11799586791E+01 -0.21553419374E+02  0.31253470396E+02  0.00000000000E+00 0.  1.
</event>
<event>
 7    1  0.3220798E-013  0.5930194E+02  0.7816164E-02  0.1266605E+00
        -11   -1    0    0    0    0  0.00000000000E+00  0.00000000000E+00  0.45593999997E+02  0.45594000000E+02  0.51100000000E-03 0. -1.
         11   -1    0    0    0    0 -0.00000000000E+00 -0.00000000000E+00 -0.45593999997E+02  0.45594000000E+02  0.51100000000E-03 0.  1.
    9900012    2    1    2    0    0 -0.24984919031E+02  0.19805732358E+02 -0.45554192135E+00  0.59301941422E+02  0.49999995248E+02 0.  0.
         12    1    1    2    0    0  0.24984919031E+02 -0.19805732358E+02  0.45554192135E+00  0.31886058578E+02  0.00000000000E+00 0. -1.
         11    1    3    3    0    0 -0.48856760458E+01  0.15878209045E+01 -0.57692296738E+01  0.77249606432E+01  0.51100000000E-03 0. -1.
        -11    1    3    3    0    0  0.59754247050E+01  0.14130253738E+02 -0.12454122848E+02  0.19760438945E+02  0.51100000000E-03 0.  1.
         12    1    3    3    0    0 -0.26074667690E+02  0.40876577157E+01  0.17767810601E+02  0.31816541834E+02  0.00000000000E+00 0. -1.
</event>
<event>
 7    1  0.3220798E-013  0.5930208E+02  0.7816164E-02  0.1266604E+00
        -11   -1    0    0    0    0  0.00000000000E+00  0.00000000000E+00  0.45593999997E+02  0.45594000000E+02  0.51100000000E-03 0.  1.
         11   -1    0    0    0    0 -0.00000000000E+00 -0.00000000000E+00 -0.45593999997E+02  0.45594000000E+02  0.51100000000E-03 0. -1.
    9900012    2    1    2    0    0 -0.21571710192E+02  0.20009622853E+02 -0.12287738358E+02  0.59302075185E+02  0.50000239199E+02 0.  0.
         12    1    1    2    0    0  0.21571710192E+02 -0.20009622853E+02  0.12287738358E+02  0.31885924815E+02  0.00000000000E+00 0. -1.
         11    1    3    3    0    0 -0.11470140669E+02  0.74075535111E+01 -0.19660029746E+02  0.23936431352E+02  0.51100000000E-03 0. -1.
        -11    1    3    3    0    0 -0.13584054148E+02  0.42565397260E+00 -0.77464246354E+01  0.15643362915E+02  0.51100000000E-03 0.  1.
         12    1    3    3    0    0  0.34824846256E+01  0.12176415369E+02  0.15118716023E+02  0.19722280918E+02  0.00000000000E+00 0. -1.
</event>
<event>
 7    1  0.3220798E-013  0.5930195E+02  0.7816164E-02  0.1266605E+00
        -11   -1    0    0    0    0  0.00000000000E+00  0.00000000000E+00  0.45593999997E+02  0.45594000000E+02  0.51100000000E-03 0.  1.
         11   -1    0    0    0    0 -0.00000000000E+00 -0.00000000000E+00 -0.45593999997E+02  0.45594000000E+02  0.51100000000E-03 0. -1.
    9900012    2    1    2    0    0 -0.17040403335E+02  0.44146816681E-01  0.26950752171E+02  0.59301947605E+02  0.50000006524E+02 0.  0.
         12    1    1    2    0    0  0.17040403335E+02 -0.44146816681E-01 -0.26950752171E+02  0.31886052395E+02  0.00000000000E+00 0. -1.
         11    1    3    3    0    0 -0.48204678244E+01  0.48298634794E+01  0.84553400691E+01  0.10865416109E+02  0.51100000000E-03 0. -1.
        -11    1    3    3    0    0 -0.37279112020E+01 -0.10630234665E+02  0.30558438297E+02  0.32568656134E+02  0.51100000000E-03 0.  1.
        -12    1    3    3    0    0 -0.84920243084E+01  0.58445180023E+01 -0.12063026195E+02  0.15867875362E+02  0.00000000000E+00 0.  1.
</event>
<event>
 7    1  0.3220798E-013  0.5930197E+02  0.7816164E-02  0.1266605E+00
        -11   -1    0    0    0    0  0.00000000000E+00  0.00000000000E+00  0.45593999997E+02  0.45594000000E+02  0.51100000000E-03 0. -1.
         11   -1    0    0    0    0 -0.00000000000E+00 -0.00000000000E+00 -0.45593999997E+02  0.45594000000E+02  0.51100000000E-03 0.  1.
    9900012    2    1    2    0    0 -0.22540712567E+02  0.26065625362E+01 -0.22401808492E+02  0.59301969908E+02  0.50000047200E+02 0.  0.
         12    1    1    2    0    0  0.22540712567E+02 -0.26065625362E+01  0.22401808492E+02  0.31886030092E+02  0.00000000000E+00 0. -1.
         11    1    3    3    0    0 -0.25980973529E+00 -0.21149606273E+01 -0.79952604018E+01  0.82743427961E+01  0.51100000000E-03 0. -1.
        -11    1    3    3    0    0  0.89185682512E+01 -0.43094623240E+01  0.69988394273E+01  0.12128317227E+02  0.51100000000E-03 0.  1.
        -12    1    3    3    0    0 -0.31199471083E+02  0.90309854875E+01 -0.21405387518E+02  0.38899309885E+02  0.00000000000E+00 0.  1.
</event>
<event>
 7    1  0.3220798E-013  0.5930194E+02  0.7816164E-02  0.1266605E+00
        -11   -1    0    0    0    0  0.00000000000E+00  0.00000000000E+00  0.45593999997E+02  0.45594000000E+02  0.51100000000E-03 0.  1.
         11   -1    0    0    0    0 -0.00000000000E+00 -0.00000000000E+00 -0.45593999997E+02  0.45594000000E+02  0.51100000000E-03 0. -1.
    9900012    2    1    2    0    0 -0.14004167644E+02 -0.83331964092E+01  0.27407338082E+02  0.59301936359E+02  0.49999986014E+02 0.  0.
         12    1    1    2    0    0  0.14004167644E+02  0.83331964092E+01 -0.27407338082E+02  0.31886063641E+02  0.00000000000E+00 0. -1.
         11    1    3    3    0    0 -0.13382938426E+02  0.23560140160E+01 -0.42165661241E+01  0.14227904733E+02  0.51100000000E-03 0. -1.
        -11    1    3    3    0    0 -0.15252450534E+02 -0.42580989165E+01  0.12664482586E+02  0.20277025746E+02  0.51100000000E-03 0.  1.
        -12    1    3    3    0    0  0.14631221316E+02 -0.64311115087E+01  0.18959421620E+02  0.24797005879E+02  0.00000000000E+00 0.  1.
</event>
<event>
 7    1  0.3220798E-013  0.5930201E+02  0.7816164E-02  0.1266605E+00
        -11   -1    0    0    0    0  0.00000000000E+00  0.00000000000E+00  0.45593999997E+02  0.45594000000E+02  0.51100000000E-03 0.  1.
         11   -1    0    0    0    0 -0.00000000000E+00 -0.00000000000E+00 -0.45593999997E+02  0.45594000000E+02  0.51100000000E-03 0. -1.
    9900012    2    1    2    0    0 -0.30588212841E+02 -0.73902898912E+01  0.51440232989E+01  0.59302013656E+02  0.50000126984E+02 0.  0.
         12    1    1    2    0    0  0.30588212841E+02  0.73902898912E+01 -0.51440232989E+01  0.31885986344E+02  0.00000000000E+00 0. -1.
         11    1    3    3    0    0  0.12748614879E+02 -0.61367450789E+01 -0.33103932003E+00  0.14152611377E+02  0.51100000000E-03 0. -1.
        -11    1    3    3    0    0 -0.38566538236E+01 -0.32520531355E+01  0.21346097306E+01  0.54777903643E+01  0.51100000000E-03 0.  1.
        -12    1    3    3    0    0 -0.39480173896E+02  0.19985083233E+01  0.33404528883E+01  0.39671611914E+02  0.00000000000E+00 0.  1.
</event>
<event>
 7    1  0.3220798E-013  0.5930213E+02  0.7816164E-02  0.1266604E+00
        -11   -1    0    0    0    0  0.00000000000E+00  0.00000000000E+00  0.45593999997E+02  0.45594000000E+02  0.51100000000E-03 0. -1.
         11   -1    0    0    0    0 -0.00000000000E+00 -0.00000000000E+00 -0.45593999997E+02  0.45594000000E+02  0.51100000000E-03 0.  1.
    9900012    2    1    2    0    0  0.44197942796E+01 -0.16858607927E+02 -0.26701333604E+02  0.59302133869E+02  0.50000346224E+02 0.  0.
         12    1    1    2    0    0 -0.44197942796E+01  0.16858607927E+02  0.26701333604E+02  0.31885866131E+02  0.00000000000E+00 0. -1.
         11    1    3    3    0    0  0.10067983810E+02  0.10556781832E+02 -0.12237677390E+02  0.19041289054E+02  0.51100000000E-03 0. -1.
        -11    1    3    3    0    0 -0.67752839878E+01 -0.14969155518E+02 -0.20590255168E+02  0.26342716226E+02  0.51100000000E-03 0.  1.
         12    1    3    3    0    0  0.11270944570E+01 -0.12446234240E+02  0.61265989545E+01  0.13918128589E+02  0.00000000000E+00 0. -1.
</event>
<event>
 7    1  0.3220798E-013  0.5930195E+02  0.7816164E-02  0.1266605E+00
        -11   -1    0    0    0    0  0.00000000000E+00  0.00000000000E+00  0.45593999997E+02  0.45594000000E+02  0.51100000000E-03 0. -1.
         11   -1    0    0    0    0 -0.00000000000E+00 -0.00000000000E+00 -0.45593999997E+02  0.45594000000E+02  0.51100000000E-03 0.  1.
    9900012    2    1    2    0    0  0.23587544209E+02 -0.35155267097E+01 -0.21165748436E+02  0.59301951692E+02  0.50000013978E+02 0.  0.
         12    1    1    2    0    0 -0.23587544209E+02  0.35155267097E+01  0.21165748436E+02  0.31886048308E+02  0.00000000000E+00 0. -1.
         11    1    3    3    0    0  0.27482461250E+01 -0.47233619773E+01  0.12538171548E+01  0.56066980346E+01  0.51100000000E-03 0. -1.
        -11    1    3    3    0    0  0.66949837799E+01  0.10137930357E+01  0.13493237311E+02  0.15096954578E+02  0.51100000000E-03 0.  1.
        -12    1    3    3    0    0  0.14144314304E+02  0.19404223194E+00 -0.35912802902E+02  0.38598299079E+02  0.00000000000E+00 0.  1.
</event>
<event>
 7    1  0.3220798E-013  0.5930197E+02  0.7816164E-02  0.1266605E+00
        -11   -1    0    0    0    0  0.00000000000E+00  0.00000000000E+00  0.45593999997E+02  0.45594000000E+02  0.51100000000E-03 0.  1.
         11   -1    0    0    0    0 -0.00000000000E+00 -0.00000000000E+00 -0.45593999997E+02  0.45594000000E+02  0.51100000000E-03 0. -1.
    9900012    2    1    2    0    0 -0.29465813751E+02 -0.13384146927E+01  0.12111705197E+02  0.59301969568E+02  0.50000046580E+02 0.  0.
         12    1    1    2    0    0  0.29465813751E+02  0.13384146927E+01 -0.12111705197E+02  0.31886030432E+02  0.00000000000E+00 0. -1.
         11    1    3    3    0    0 -0.57806387064E+00 -0.59740551985E+01 -0.71625461876E+01  0.93448146854E+01  0.51100000000E-03 0. -1.
        -11    1    3    3    0    0 -0.10547958536E+01  0.13232981834E+02 -0.26012659288E+01  0.13527416132E+02  0.51100000000E-03 0.  1.
        -12    1    3    3    0    0 -0.27832954027E+02 -0.85973413278E+01  0.21875517313E+02  0.36429738751E+02  0.00000000000E+00 0.  1.
</event>
<event>
 7    1  0.3220798E-013  0.5930195E+02  0.7816164E-02  0.1266605E+00
        -11   -1    0    0    0    0  0.00000000000E+00  0.00000000000E+00  0.45593999997E+02  0.45594000000E+02  0.51100000000E-03 0.  1.
         11   -1    0    0    0    0 -0.00000000000E+00 -0.00000000000E+00 -0.45593999997E+02  0.45594000000E+02  0.51100000000E-03 0. -1.
    9900012    2    1    2    0    0 -0.12719764899E+02  0.11999574312E+02  0.26663422510E+02  0.59301948148E+02  0.50000007515E+02 0.  0.
         12    1    1    2    0    0  0.12719764899E+02 -0.11999574312E+02 -0.26663422510E+02  0.31886051852E+02  0.00000000000E+00 0. -1.
         11    1    3    3    0    0  0.10233753374E+01  0.15791597287E+02  0.35482467551E+01  0.16217641544E+02  0.51100000000E-03 0. -1.
        -11    1    3    3    0    0  0.96852114475E+00 -0.10090862715E+02 -0.45596667862E+01  0.11115489418E+02  0.51100000000E-03 0.  1.
        -12    1    3    3    0    0 -0.14711661381E+02  0.62988397403E+01  0.27674842541E+02  0.31968817187E+02  0.00000000000E+00 0.  1.
</event>
<event>
 7    1  0.3220798E-013  0.5930193E+02  0.7816164E-02  0.1266605E+00
        -11   -1    0    0    0    0  0.00000000000E+00  0.00000000000E+00  0.45593999997E+02  0.45594000000E+02  0.51100000000E-03 0. -1.
         11   -1    0    0    0    0 -0.00000000000E+00 -0.00000000000E+00 -0.45593999997E+02  0.45594000000E+02  0.51100000000E-03 0.  1.
    9900012    2    1    2    0    0  0.14519901444E+02 -0.26027739706E+02 -0.11333606545E+02  0.59301930793E+02  0.49999975863E+02 0.  0.
         12    1    1    2    0    0 -0.14519901444E+02  0.26027739706E+02  0.11333606545E+02  0.31886069207E+02  0.00000000000E+00 0. -1.
         11    1    3    3    0    0  0.15896669536E+02 -0.65578496591E+01  0.11879136897E+02  0.20900320289E+02  0.51100000000E-03 0. -1.
        -11    1    3    3    0    0  0.59202995342E+01  0.30160340844E+01 -0.29663615628E+01  0.72763802371E+01  0.51100000000E-03 0.  1.
        -12    1    3    3    0    0 -0.72970676265E+01 -0.22485924131E+02 -0.20246381879E+02  0.31125230267E+02  0.00000000000E+00 0.  1.
</event>
<event>
 7    1  0.3220798E-013  0.5930194E+02  0.7816164E-02  0.1266605E+00
        -11   -1    0    0    0    0  0.00000000000E+00  0.00000000000E+00  0.45593999997E+02  0.45594000000E+02  0.51100000000E-03 0.  1.
         11   -1    0    0    0    0 -0.00000000000E+00 -0.00000000000E+00 -0.45593999997E+02  0.45594000000E+02  0.51100000000E-03 0. -1.
    9900012    2    1    2    0    0 -0.71348035274E+01 -0.29008219839E+02  0.11150710292E+02  0.59301943806E+02  0.49999999596E+02 0.  0.
         12    1    1    2    0    0  0.71348035274E+01  0.29008219839E+02 -0.11150710292E+02  0.31886056194E+02  0.00000000000E+00 0. -1.
         11    1    3    3    0    0 -0.68102382477E+01  0.72857396158E+01  0.64564498459E+01  0.11880534147E+02  0.51100000000E-03 0. -1.
        -11    1    3    3    0    0  0.13730228136E+02 -0.96223255904E+01  0.41321764313E+01  0.17267981838E+02  0.51100000000E-03 0.  1.
         12    1    3    3    0    0 -0.14054793416E+02 -0.26671633864E+02  0.56208401424E+00  0.30153427821E+02  0.00000000000E+00 0. -1.
</event>
<event>
 7    1  0.3220798E-013  0.5930197E+02  0.7816164E-02  0.1266605E+00
        -11   -1    0    0    0    0  0.00000000000E+00  0.00000000000E+00  0.45593999997E+02  0.45594000000E+02  0.51100000000E-03 0.  1.
         11   -1    0    0    0    0 -0.00000000000E+00 -0.00000000000E+00 -0.45593999997E+02  0.45594000000E+02  0.51100000000E-03 0. -1.
    9900012    2    1    2    0    0 -0.13858138490E+02  0.20822136679E+02  0.19776489419E+02  0.59301969955E+02  0.50000047285E+02 0.  0.
         12    1    1    2    0    0  0.13858138490E+02 -0.20822136679E+02 -0.19776489419E+02  0.31886030045E+02  0.00000000000E+00 0. -1.
         11    1    3    3    0    0  0.71788606050E+01  0.12149104722E+02  0.12003465973E+02  0.18526197148E+02  0.51100000000E-03 0. -1.
        -11    1    3    3    0    0 -0.24825143839E+01  0.10574295121E+02  0.16838437513E+02  0.20037753694E+02  0.51100000000E-03 0.  1.
         12    1    3    3    0    0 -0.18554484711E+02 -0.19012631639E+01 -0.90654140670E+01  0.20738019113E+02  0.00000000000E+00 0. -1.
</event>
<event>
 7    1  0.3220798E-013  0.5930222E+02  0.7816164E-02  0.1266604E+00
        -11   -1    0    0    0    0  0.00000000000E+00  0.00000000000E+00  0.45593999997E+02  0.45594000000E+02  0.51100000000E-03 0.  1.
         11   -1    0    0    0    0 -0.00000000000E+00 -0.00000000000E+00 -0.45593999997E+02  0.45594000000E+02  0.51100000000E-03 0. -1.
    9900012    2    1    2    0    0 -0.87516532188E+01  0.25714493725E+02  0.16699591771E+02  0.59302219675E+02  0.50000502712E+02 0.  0.
         12    1    1    2    0    0  0.87516532188E+01 -0.25714493725E+02 -0.16699591771E+02  0.31885780325E+02  0.00000000000E+00 0. -1.
         11    1    3    3    0    0  0.45777880196E+01  0.23417096995E+02  0.15818197822E+02  0.28627468582E+02  0.51100000000E-03 0. -1.
        -11    1    3    3    0    0 -0.15251046109E+02  0.12682353540E+02  0.24928712535E+01  0.19991270747E+02  0.51100000000E-03 0.  1.
        -12    1    3    3    0    0  0.19216048703E+01 -0.10384956810E+02 -0.16114773038E+01  0.10683480347E+02  0.00000000000E+00 0.  1.
</event>
<event>
 7    1  0.3220798E-013  0.5930194E+02  0.7816164E-02  0.1266605E+00
        -11   -1    0    0    0    0  0.00000000000E+00  0.00000000000E+00  0.45593999997E+02  0.45594000000E+02  0.51100000000E-03 0.  1.
         11   -1    0    0    0    0 -0.00000000000E+00 -0.00000000000E+00 -0.45593999997E+02  0.45594000000E+02  0.51100000000E-03 0. -1.
    9900012    2    1    2    0    0 -0.17846797201E+02  0.25754191152E+02 -0.59105327354E+01  0.59301938320E+02  0.49999989591E+02 0.  0.
         12    1    1    2    0    0  0.17846797201E+02 -0.25754191152E+02  0.59105327354E+01  0.31886061680E+02  0.00000000000E+00 0. -1.
         11    1    3    3    0    0 -0.18399110575E+01  0.98279314224E+01  0.33802671825E+01  0.10554606351E+02  0.51100000000E-03 0. -1.
        -11    1    3    3    0    0 -0.27270377247E+02  0.21999625455E+02 -0.74160380724E+01  0.35814167815E+02  0.51100000000E-03 0.  1.
         12    1    3    3    0    0  0.11263491103E+02 -0.60733657250E+01 -0.18747618456E+01  0.12933164154E+02  0.00000000000E+00 0. -1.
</event>
<event>
 7    1  0.3220798E-013  0.5930196E+02  0.7816164E-02  0.1266605E+00
        -11   -1    0    0    0    0  0.00000000000E+00  0.00000000000E+00  0.45593999997E+02  0.45594000000E+02  0.51100000000E-03 0.  1.
         11   -1    0    0    0    0 -0.00000000000E+00 -0.00000000000E+00 -0.45593999997E+02  0.45594000000E+02  0.51100000000E-03 0. -1.
    9900012    2    1    2    0    0  0.12639108336E+02 -0.10684114833E+02  0.27254761832E+02  0.59301962118E+02  0.50000032992E+02 0.  0.
         12    1    1    2    0    0 -0.12639108336E+02  0.10684114833E+02 -0.27254761832E+02  0.31886037882E+02  0.00000000000E+00 0. -1.
         11    1    3    3    0    0 -0.92298489810E+01  0.81780574062E+01  0.14774155691E+01  0.12419882937E+02  0.51100000000E-03 0. -1.
        -11    1    3    3    0    0  0.20753423045E+02 -0.36390198415E+01  0.23307590911E+02  0.31419593056E+02  0.51100000000E-03 0.  1.
         12    1    3    3    0    0  0.11155342712E+01 -0.15223152398E+02  0.24697553521E+01  0.15462486125E+02  0.00000000000E+00 0. -1.
</event>
<event>
 7    1  0.3220798E-013  0.5930193E+02  0.7816164E-02  0.1266605E+00
        -11   -1    0    0    0    0  0.00000000000E+00  0.00000000000E+00  0.45593999997E+02  0.45594000000E+02  0.51100000000E-03 0.  1.
         11   -1    0    0    0    0 -0.00000000000E+00 -0.00000000000E+00 -0.45593999997E+02  0.45594000000E+02  0.51100000000E-03 0. -1.
    9900012    2    1    2    0    0 -0.15512648523E+02  0.66062263849E+01  0.27063569335E+02  0.59301932880E+02  0.49999979668E+02 0.  0.
         12    1    1    2    0    0  0.15512648523E+02 -0.66062263849E+01 -0.27063569335E+02  0.31886067120E+02  0.00000000000E+00 0. -1.
         11    1    3    3    0    0 -0.11880334195E+02 -0.72056833405E+01  0.92579599305E+01  0.16696527643E+02  0.51100000000E-03 0. -1.
        -11    1    3    3    0    0 -0.14612115347E+02 -0.55646424385E+01  0.11651222092E+02  0.19499490683E+02  0.51100000000E-03 0.  1.
        -12    1    3    3    0    0  0.10979801019E+02  0.19376552164E+02  0.61543873125E+01  0.23105914554E+02  0.00000000000E+00 0.  1.
</event>
<event>
 7    1  0.3220798E-013  0.5930201E+02  0.7816164E-02  0.1266605E+00
        -11   -1    0    0    0    0  0.00000000000E+00  0.00000000000E+00  0.45593999997E+02  0.45594000000E+02  0.51100000000E-03 0.  1.
         11   -1    0    0    0    0 -0.00000000000E+00 -0.00000000000E+00 -0.45593999997E+02  0.45594000000E+02  0.51100000000E-03 0. -1.
    9900012    2    1    2    0    0  0.10688513073E+01 -0.30887678740E+02  0.78437893378E+01  0.59302012917E+02  0.50000125637E+02 0.  0.
         12    1    1    2    0    0 -0.10688513073E+01  0.30887678740E+02 -0.78437893378E+01  0.31885987083E+02  0.00000000000E+00 0. -1.
         11    1    3    3    0    0  0.85665398956E+01 -0.15365005691E+02  0.13309510788E+01  0.17642007729E+02  0.51100000000E-03 0.  1.
        -11    1    3    3    0    0 -0.54014540960E+01  0.28445363613E+01  0.18597686244E+02  0.19573988540E+02  0.51100000000E-03 0. -1.
         12    1    3    3    0    0 -0.20962344924E+01 -0.18367209411E+02 -0.12084847985E+02  0.22086016649E+02  0.00000000000E+00 0. -1.
</event>
<event>
 7    1  0.3220798E-013  0.5930191E+02  0.7816164E-02  0.1266605E+00
        -11   -1    0    0    0    0  0.00000000000E+00  0.00000000000E+00  0.45593999997E+02  0.45594000000E+02  0.51100000000E-03 0. -1.
         11   -1    0    0    0    0 -0.00000000000E+00 -0.00000000000E+00 -0.45593999997E+02  0.45594000000E+02  0.51100000000E-03 0.  1.
    9900012    2    1    2    0    0 -0.31415833081E+01  0.77095067385E+01 -0.30780138928E+02  0.59301905974E+02  0.49999930599E+02 0.  0.
         12    1    1    2    0    0  0.31415833081E+01 -0.77095067385E+01  0.30780138928E+02  0.31886094026E+02  0.00000000000E+00 0. -1.
         11    1    3    3    0    0  0.27602540880E+01  0.13730261178E+02 -0.26182903083E+02  0.29693155588E+02  0.51100000000E-03 0.  1.
        -11    1    3    3    0    0 -0.97206997679E+01  0.10717011346E+01 -0.14094758036E+02  0.17155254345E+02  0.51100000000E-03 0. -1.
         12    1    3    3    0    0  0.38188623718E+01 -0.70924555738E+01  0.94975221909E+01  0.12453496041E+02  0.00000000000E+00 0. -1.
</event>
<event>
 7    1  0.3220798E-013  0.5930195E+02  0.7816164E-02  0.1266605E+00
        -11   -1    0    0    0    0  0.00000000000E+00  0.00000000000E+00  0.45593999997E+02  0.45594000000E+02  0.51100000000E-03 0. -1.
         11   -1    0    0    0    0 -0.00000000000E+00 -0.00000000000E+00 -0.45593999997E+02  0.45594000000E+02  0.51100000000E-03 0.  1.
    9900012    2    1    2    0    0 -0.16366869191E+02 -0.71227823665E+01  0.26421805070E+02  0.59301949462E+02  0.50000009911E+02 0.  0.
         12    1    1    2    0    0  0.16366869191E+02  0.71227823665E+01 -0.26421805070E+02  0.31886050538E+02  0.00000000000E+00 0. -1.
         11    1    3    3    0    0 -0.57615595415E+01  0.14529794024E+02  0.29927747308E+02  0.33763597882E+02  0.51100000000E-03 0. -1.
        -11    1    3    3    0    0 -0.50396880667E+01 -0.39773222465E+01 -0.27721519864E+01  0.69930233061E+01  0.51100000000E-03 0.  1.
        -12    1    3    3    0    0 -0.55656215831E+01 -0.17675254144E+02 -0.73379025196E+00  0.18545328274E+02  0.00000000000E+00 0.  1.
</event>
<event>
 7    1  0.3220798E-013  0.5930191E+02  0.7816164E-02  0.1266605E+00
        -11   -1    0    0    0    0  0.00000000000E+00  0.00000000000E+00  0.45593999997E+02  0.45594000000E+02  0.51100000000E-03 0. -1.
         11   -1    0    0    0    0 -0.00000000000E+00 -0.00000000000E+00 -0.45593999997E+02  0.45594000000E+02  0.51100000000E-03 0.  1.
    9900012    2    1    2    0    0 -0.13932134480E+02  0.27280315032E+02 -0.88545502860E+01  0.59301905536E+02  0.49999929800E+02 0.  0.
         12    1    1    2    0    0  0.13932134480E+02 -0.27280315032E+02  0.88545502860E+01  0.31886094464E+02  0.00000000000E+00 0. -1.
         11    1    3    3    0    0 -0.77540440984E+01 -0.50181196190E+01 -0.57168330094E+01  0.10862269759E+02  0.51100000000E-03 0. -1.
        -11    1    3    3    0    0  0.88516432188E+01  0.27268593305E+02 -0.11050323081E+02  0.30725191765E+02  0.51100000000E-03 0.  1.
         12    1    3    3    0    0 -0.15029733600E+02  0.50298413454E+01  0.79126058042E+01  0.17714444012E+02  0.00000000000E+00 0. -1.
</event>
<event>
 7    1  0.3220798E-013  0.5930194E+02  0.7816164E-02  0.1266605E+00
        -11   -1    0    0    0    0  0.00000000000E+00  0.00000000000E+00  0.45593999997E+02  0.45594000000E+02  0.51100000000E-03 0. -1.
         11   -1    0    0    0    0 -0.00000000000E+00 -0.00000000000E+00 -0.45593999997E+02  0.45594000000E+02  0.51100000000E-03 0.  1.
    9900012    2    1    2    0    0 -0.48393307146E+01  0.26655013931E+02  0.16817020081E+02  0.59301936370E+02  0.49999986033E+02 0.  0.
         12    1    1    2    0    0  0.48393307146E+01 -0.26655013931E+02 -0.16817020081E+02  0.31886063630E+02  0.00000000000E+00 0. -1.
         11    1    3    3    0    0 -0.71931613077E+01 -0.58751176292E+01 -0.64001248434E+01  0.11279192127E+02  0.51100000000E-03 0. -1.
        -11    1    3    3    0    0 -0.61177133729E+01 -0.19880144264E+01  0.45248878843E+01  0.78646823776E+01  0.51100000000E-03 0.  1.
        -12    1    3    3    0    0  0.84715439661E+01  0.34518145987E+02  0.18692257040E+02  0.40158061865E+02  0.00000000000E+00 0.  1.
</event>
<event>
 7    1  0.3220798E-013  0.5930194E+02  0.7816164E-02  0.1266605E+00
        -11   -1    0    0    0    0  0.00000000000E+00  0.00000000000E+00  0.45593999997E+02  0.45594000000E+02  0.51100000000E-03 0.  1.
         11   -1    0    0    0    0 -0.00000000000E+00 -0.00000000000E+00 -0.45593999997E+02  0.45594000000E+02  0.51100000000E-03 0. -1.
    9900012    2    1    2    0    0 -0.19590945180E+02 -0.67207101212E+01  0.24243504261E+02  0.59301943856E+02  0.49999999687E+02 0.  0.
         12    1    1    2    0    0  0.19590945180E+02  0.67207101212E+01 -0.24243504261E+02  0.31886056144E+02  0.00000000000E+00 0. -1.
         11    1    3    3    0    0  0.69068970040E+01  0.88256801841E+01  0.80173912142E+01  0.13779565272E+02  0.51100000000E-03 0. -1.
        -11    1    3    3    0    0 -0.19335775430E+02  0.44115513306E+00  0.19761088590E+02  0.27650812861E+02  0.51100000000E-03 0.  1.
        -12    1    3    3    0    0 -0.71620667535E+01 -0.15987545438E+02 -0.35349755429E+01  0.17871565724E+02  0.00000000000E+00 0.  1.
</event>
<event>
 7    1  0.3220798E-013  0.5930195E+02  0.7816164E-02  0.1266605E+00
        -11   -1    0    0    0    0  0.00000000000E+00  0.00000000000E+00  0.45593999997E+02  0.45594000000E+02  0.51100000000E-03 0. -1.
         11   -1    0    0    0    0 -0.00000000000E+00 -0.00000000000E+00 -0.45593999997E+02  0.45594000000E+02  0.51100000000E-03 0.  1.
    9900012    2    1    2    0    0  0.27260790543E+02 -0.65970432179E+01 -0.15167359390E+02  0.59301945507E+02  0.50000002698E+02 0.  0.
         12    1    1    2    0    0 -0.27260790543E+02  0.65970432179E+01  0.15167359390E+02  0.31886054493E+02  0.00000000000E+00 0. -1.
         11    1    3    3    0    0  0.21409784327E+02 -0.76370312801E+01 -0.67361174690E+00  0.22741083192E+02  0.51100000000E-03 0. -1.
        -11    1    3    3    0    0  0.16587501956E+02  0.10172076618E+02 -0.79164760168E+01  0.21006831190E+02  0.51100000000E-03 0.  1.
         12    1    3    3    0    0 -0.10736495741E+02 -0.91320885555E+01 -0.65772716264E+01  0.15554031125E+02  0.00000000000E+00 0. -1.
</event>
<event>
 7    1  0.3220798E-013  0.5930193E+02  0.7816164E-02  0.1266605E+00
        -11   -1    0    0    0    0  0.00000000000E+00  0.00000000000E+00  0.45593999997E+02  0.45594000000E+02  0.51100000000E-03 0.  1.
         11   -1    0    0    0    0 -0.00000000000E+00 -0.00000000000E+00 -0.45593999997E+02  0.45594000000E+02  0.51100000000E-03 0. -1.
    9900012    2    1    2    0    0  0.94688123381E+01  0.30440997806E+02 -0.63952951405E+00  0.59301925414E+02  0.49999966052E+02 0.  0.
         12    1    1    2    0    0 -0.94688123381E+01 -0.30440997806E+02  0.63952951405E+00  0.31886074586E+02  0.00000000000E+00 0. -1.
         11    1    3    3    0    0 -0.10070528189E+02  0.20069139660E+02  0.61399271098E+01  0.23278415106E+02  0.51100000000E-03 0. -1.
        -11    1    3    3    0    0  0.53193366263E+01  0.95643368584E+01  0.94294574680E+01  0.14445987335E+02  0.51100000000E-03 0.  1.
        -12    1    3    3    0    0  0.14220003901E+02  0.80752128775E+00 -0.16208914092E+02  0.21577522972E+02  0.00000000000E+00 0.  1.
</event>
<event>
 7    1  0.3220798E-013  0.5930194E+02  0.7816164E-02  0.1266605E+00
        -11   -1    0    0    0    0  0.00000000000E+00  0.00000000000E+00  0.45593999997E+02  0.45594000000E+02  0.51100000000E-03 0.  1.
         11   -1    0    0    0    0 -0.00000000000E+00 -0.00000000000E+00 -0.45593999997E+02  0.45594000000E+02  0.51100000000E-03 0. -1.
    9900012    2    1    2    0    0 -0.21023289509E+02 -0.12508218974E+02  0.20452062965E+02  0.59301935282E+02  0.49999984049E+02 0.  0.
         12    1    1    2    0    0  0.21023289509E+02  0.12508218974E+02 -0.20452062965E+02  0.31886064718E+02  0.00000000000E+00 0. -1.
         11    1    3    3    0    0  0.39421125940E+01  0.20120848749E+01 -0.41587242422E+01  0.60731972495E+01  0.51100000000E-03 0. -1.
        -11    1    3    3    0    0 -0.18497656364E+02  0.74363945861E+01  0.44222158178E+00  0.19941384495E+02  0.51100000000E-03 0.  1.
        -12    1    3    3    0    0 -0.64677457393E+01 -0.21956698435E+02  0.24168565626E+02  0.33287353537E+02  0.00000000000E+00 0.  1.
</event>
<event>
 7    1  0.3220798E-013  0.5930198E+02  0.7816164E-02  0.1266605E+00
        -11   -1    0    0    0    0  0.00000000000E+00  0.00000000000E+00  0.45593999997E+02  0.45594000000E+02  0.51100000000E-03 0.  1.
         11   -1    0    0    0    0 -0.00000000000E+00 -0.00000000000E+00 -0.45593999997E+02  0.45594000000E+02  0.51100000000E-03 0. -1.
    9900012    2    1    2    0    0  0.69001306268E+01  0.27208933125E+02  0.15125497936E+02  0.59301975910E+02  0.50000058146E+02 0.  0.
         12    1    1    2    0    0 -0.69001306268E+01 -0.27208933125E+02 -0.15125497936E+02  0.31886024090E+02  0.00000000000E+00 0. -1.
         11    1    3    3    0    0 -0.20417969502E+01 -0.44589244445E+01 -0.50183816530E+01  0.70167725247E+01  0.51100000000E-03 0. -1.
        -11    1    3    3    0    0 -0.86442521897E+01 -0.19494944469E+01  0.92569736459E+01  0.12814647317E+02  0.51100000000E-03 0.  1.
         12    1    3    3    0    0  0.17586179767E+02  0.33617352016E+02  0.10886905943E+02  0.39470556069E+02  0.00000000000E+00 0. -1.
</event>
<event>
 7    1  0.3220798E-013  0.5930194E+02  0.7816164E-02  0.1266605E+00
        -11   -1    0    0    0    0  0.00000000000E+00  0.00000000000E+00  0.45593999997E+02  0.45594000000E+02  0.51100000000E-03 0.  1.
         11   -1    0    0    0    0 -0.00000000000E+00 -0.00000000000E+00 -0.45593999997E+02  0.45594000000E+02  0.51100000000E-03 0. -1.
    9900012    2    1    2    0    0  0.16053787728E+02 -0.39428180622E+00  0.27547074261E+02  0.59301939426E+02  0.49999991608E+02 0.  0.
         12    1    1    2    0    0 -0.16053787728E+02  0.39428180622E+00 -0.27547074261E+02  0.31886060574E+02  0.00000000000E+00 0. -1.
         11    1    3    3    0    0 -0.11787190158E+02 -0.92927544509E+00  0.19082056868E+02  0.22448302815E+02  0.51100000000E-03 0. -1.
        -11    1    3    3    0    0  0.12059090246E+02 -0.41150742418E+01  0.14523740987E+02  0.19320831920E+02  0.51100000000E-03 0.  1.
         12    1    3    3    0    0  0.15781887639E+02  0.46500678806E+01 -0.60587235943E+01  0.17532804691E+02  0.00000000000E+00 0. -1.
</event>
<event>
 7    1  0.3220798E-013  0.5930191E+02  0.7816164E-02  0.1266605E+00
        -11   -1    0    0    0    0  0.00000000000E+00  0.00000000000E+00  0.45593999997E+02  0.45594000000E+02  0.51100000000E-03 0.  1.
         11   -1    0    0    0    0 -0.00000000000E+00 -0.00000000000E+00 -0.45593999997E+02  0.45594000000E+02  0.51100000000E-03 0. -1.
    9900012    2    1    2    0    0 -0.11967770826E+02  0.16497293744E+02  0.24522128800E+02  0.59301905220E+02  0.49999929225E+02 0.  0.
         12    1    1    2    0    0  0.11967770826E+02 -0.16497293744E+02 -0.24522128800E+02  0.31886094780E+02  0.00000000000E+00 0. -1.
         11    1    3    3    0    0 -0.46847182398E+01  0.51637689361E+01 -0.23532353835E+01  0.73585876120E+01  0.51100000000E-03 0. -1.
        -11    1    3    3    0    0 -0.20819711115E+02  0.90062473777E+00  0.91110574006E+00  0.20859089380E+02  0.51100000000E-03 0.  1.
        -12    1    3    3    0    0  0.13536658529E+02  0.10432900071E+02  0.25964258443E+02  0.31084228228E+02  0.00000000000E+00 0.  1.
</event>
<event>
 7    1  0.3220798E-013  0.5930194E+02  0.7816164E-02  0.1266605E+00
        -11   -1    0    0    0    0  0.00000000000E+00  0.00000000000E+00  0.45593999997E+02  0.45594000000E+02  0.51100000000E-03 0.  1.
         11   -1    0    0    0    0 -0.00000000000E+00 -0.00000000000E+00 -0.45593999997E+02  0.45594000000E+02  0.51100000000E-03 0. -1.
    9900012    2    1    2    0    0 -0.18499792508E+02 -0.24590148403E+02  0.83548179765E+01  0.59301941844E+02  0.49999996017E+02 0.  0.
         12    1    1    2    0    0  0.18499792508E+02  0.24590148403E+02 -0.83548179765E+01  0.31886058156E+02  0.00000000000E+00 0. -1.
         11    1    3    3    0    0 -0.60573246305E+01 -0.98969212595E+01 -0.17007303358E+02  0.20588555070E+02  0.51100000000E-03 0. -1.
        -11    1    3    3    0    0 -0.11642048960E+02 -0.14316717646E+02  0.61057573321E+01  0.19436717341E+02  0.51100000000E-03 0.  1.
        -12    1    3    3    0    0 -0.80041891761E+00 -0.37650949723E+00  0.19256364002E+02  0.19276669433E+02  0.00000000000E+00 0.  1.
</event>
<event>
 7    1  0.3220798E-013  0.5930189E+02  0.7816164E-02  0.1266605E+00
        -11   -1    0    0    0    0  0.00000000000E+00  0.00000000000E+00  0.45593999997E+02  0.45594000000E+02  0.51100000000E-03 0.  1.
         11   -1    0    0    0    0 -0.00000000000E+00 -0.00000000000E+00 -0.45593999997E+02  0.45594000000E+02  0.51100000000E-03 0. -1.
    9900012    2    1    2    0    0 -0.16455569327E+00 -0.76362387560E+01  0.30957787702E+02  0.59301892675E+02  0.49999906345E+02 0.  0.
         12    1    1    2    0    0  0.16455569327E+00  0.76362387560E+01 -0.30957787702E+02  0.31886107325E+02  0.00000000000E+00 0. -1.
         11    1    3    3    0    0 -0.84595635578E+01 -0.14753266754E+02  0.11048096983E+02  0.20280126792E+02  0.51100000000E-03 0. -1.
        -11    1    3    3    0    0 -0.64610559316E+01  0.14679994324E+02  0.52132074351E+01  0.16864904658E+02  0.51100000000E-03 0.  1.
         12    1    3    3    0    0  0.14756063796E+02 -0.75629663258E+01  0.14696483284E+02  0.22156861225E+02  0.00000000000E+00 0. -1.
</event>
<event>
 7    1  0.3220798E-013  0.5930195E+02  0.7816164E-02  0.1266605E+00
        -11   -1    0    0    0    0  0.00000000000E+00  0.00000000000E+00  0.45593999997E+02  0.45594000000E+02  0.51100000000E-03 0.  1.
         11   -1    0    0    0    0 -0.00000000000E+00 -0.00000000000E+00 -0.45593999997E+02  0.45594000000E+02  0.51100000000E-03 0. -1.
    9900012    2    1    2    0    0  0.19208189356E+02 -0.34271037519E+01  0.25219449355E+02  0.59301949692E+02  0.50000010330E+02 0.  0.
         12    1    1    2    0    0 -0.19208189356E+02  0.34271037519E+01 -0.25219449355E+02  0.31886050308E+02  0.00000000000E+00 0. -1.
         11    1    3    3    0    0  0.10571173823E+02  0.18208286343E+02  0.34866602567E+01  0.21341232569E+02  0.51100000000E-03 0. -1.
        -11    1    3    3    0    0 -0.21557993330E+01  0.16718918665E+01 -0.16819463438E+01  0.32049394600E+01  0.51100000000E-03 0.  1.
        -12    1    3    3    0    0  0.10792814867E+02 -0.23307281961E+02  0.23414735442E+02  0.34755777663E+02  0.00000000000E+00 0.  1.
</event>
<event>
 7    1  0.3220798E-013  0.5930194E+02  0.7816164E-02  0.1266605E+00
        -11   -1    0    0    0    0  0.00000000000E+00  0.00000000000E+00  0.45593999997E+02  0.45594000000E+02  0.51100000000E-03 0. -1.
         11   -1    0    0    0    0 -0.00000000000E+00 -0.00000000000E+00 -0.45593999997E+02  0.45594000000E+02  0.51100000000E-03 0.  1.
    9900012    2    1    2    0    0 -0.55809436603E+01 -0.89646952591E+00 -0.31381052831E+02  0.59301936170E+02  0.49999985670E+02 0.  0.
         12    1    1    2    0    0  0.55809436603E+01  0.89646952591E+00  0.31381052831E+02  0.31886063830E+02  0.00000000000E+00 0. -1.
         11    1    3    3    0    0  0.79950183829E+01 -0.72343835186E+01 -0.78660414535E+01  0.13346581294E+02  0.51100000000E-03 0. -1.
        -11    1    3    3    0    0 -0.25999290637E+01  0.10695985395E+02 -0.30368037753E+02  0.32301415634E+02  0.51100000000E-03 0.  1.
        -12    1    3    3    0    0 -0.10976032979E+02 -0.43580714028E+01  0.68530263758E+01  0.13653939242E+02  0.00000000000E+00 0.  1.
</event>
<event>
 7    1  0.3220798E-013  0.5930193E+02  0.7816164E-02  0.1266605E+00
        -11   -1    0    0    0    0  0.00000000000E+00  0.00000000000E+00  0.45593999997E+02  0.45594000000E+02  0.51100000000E-03 0. -1.
         11   -1    0    0    0    0 -0.00000000000E+00 -0.00000000000E+00 -0.45593999997E+02  0.45594000000E+02  0.51100000000E-03 0.  1.
    9900012    2    1    2    0    0 -0.26300350180E+01  0.30224213231E+02 -0.98133125402E+01  0.59301933252E+02  0.49999980348E+02 0.  0.
         12    1    1    2    0    0  0.26300350180E+01 -0.30224213231E+02  0.98133125402E+01  0.31886066748E+02  0.00000000000E+00 0. -1.
         11    1    3    3    0    0  0.18533205793E+01  0.15881975203E+02 -0.12848311322E+02  0.20512216789E+02  0.51100000000E-03 0. -1.
        -11    1    3    3    0    0  0.60175156547E+01  0.22833714055E+02 -0.33535558112E+01  0.23850268951E+02  0.51100000000E-03 0.  1.
         12    1    3    3    0    0 -0.10500871252E+02 -0.84914760268E+01  0.63885545932E+01  0.14939447512E+02  0.00000000000E+00 0. -1.
</event>
<event>
 7    1  0.3220798E-013  0.5930194E+02  0.7816164E-02  0.1266605E+00
        -11   -1    0    0    0    0  0.00000000000E+00  0.00000000000E+00  0.45593999997E+02  0.45594000000E+02  0.51100000000E-03 0. -1.
         11   -1    0    0    0    0 -0.00000000000E+00 -0.00000000000E+00 -0.45593999997E+02  0.45594000000E+02  0.51100000000E-03 0.  1.
    9900012    2    1    2    0    0  0.21207655272E+01 -0.27400288029E+02 -0.16169332588E+02  0.59301941184E+02  0.49999994814E+02 0.  0.
         12    1    1    2    0    0 -0.21207655272E+01  0.27400288029E+02  0.16169332588E+02  0.31886058816E+02  0.00000000000E+00 0. -1.
         11    1    3    3    0    0  0.13930475669E+02 -0.13128332409E+02  0.58459125250E+01  0.20014643582E+02  0.51100000000E-03 0. -1.
        -11    1    3    3    0    0  0.80210720370E+01 -0.58143074436E+01 -0.11868623964E+02  0.15459883659E+02  0.51100000000E-03 0.  1.
         12    1    3    3    0    0 -0.19830782179E+02 -0.84576481758E+01 -0.10146621148E+02  0.23827413943E+02  0.00000000000E+00 0. -1.
</event>
<event>
 7    1  0.3220798E-013  0.5930193E+02  0.7816164E-02  0.1266605E+00
        -11   -1    0    0    0    0  0.00000000000E+00  0.00000000000E+00  0.45593999997E+02  0.45594000000E+02  0.51100000000E-03 0.  1.
         11   -1    0    0    0    0 -0.00000000000E+00 -0.00000000000E+00 -0.45593999997E+02  0.45594000000E+02  0.51100000000E-03 0. -1.
    9900012    2    1    2    0    0 -0.57766631095E+01 -0.26764359723E+02  0.16340768646E+02  0.59301929248E+02  0.49999973045E+02 0.  0.
         12    1    1    2    0    0  0.57766631095E+01  0.26764359723E+02 -0.16340768646E+02  0.31886070752E+02  0.00000000000E+00 0. -1.
         11    1    3    3    0    0 -0.26555869183E+01 -0.22758454687E+00 -0.53073335566E+01  0.59390004503E+01  0.51100000000E-03 0. -1.
        -11    1    3    3    0    0 -0.17659672761E+02 -0.22370503151E+02  0.24954669230E+02  0.37881908214E+02  0.51100000000E-03 0.  1.
         12    1    3    3    0    0  0.14538596570E+02 -0.41662720244E+01 -0.33065670270E+01  0.15481020584E+02  0.00000000000E+00 0. -1.
</event>
<event>
 7    1  0.3220798E-013  0.5930194E+02  0.7816164E-02  0.1266605E+00
        -11   -1    0    0    0    0  0.00000000000E+00  0.00000000000E+00  0.45593999997E+02  0.45594000000E+02  0.51100000000E-03 0.  1.
         11   -1    0    0    0    0 -0.00000000000E+00 -0.00000000000E+00 -0.45593999997E+02  0.45594000000E+02  0.51100000000E-03 0. -1.
    9900012    2    1    2    0    0 -0.16160346678E+02  0.16248203530E+02  0.22171144796E+02  0.59301943733E+02  0.49999999462E+02 0.  0.
         12    1    1    2    0    0  0.16160346678E+02 -0.16248203530E+02 -0.22171144796E+02  0.31886056267E+02  0.00000000000E+00 0. -1.
         11    1    3    3    0    0 -0.49302822690E+01 -0.14160794422E+02  0.23617332453E+01  0.15179379635E+02  0.51100000000E-03 0. -1.
        -11    1    3    3    0    0 -0.87276006403E+01 -0.16818147239E+00  0.38530705753E+01  0.95417739998E+01  0.51100000000E-03 0.  1.
        -12    1    3    3    0    0 -0.25024637687E+01  0.30577179424E+02  0.15956340976E+02  0.34580790098E+02  0.00000000000E+00 0.  1.
</event>
<event>
 7    1  0.3220798E-013  0.5930185E+02  0.7816164E-02  0.1266605E+00
        -11   -1    0    0    0    0  0.00000000000E+00  0.00000000000E+00  0.45593999997E+02  0.45594000000E+02  0.51100000000E-03 0. -1.
         11   -1    0    0    0    0 -0.00000000000E+00 -0.00000000000E+00 -0.45593999997E+02  0.45594000000E+02  0.51100000000E-03 0.  1.
    9900012    2    1    2    0    0 -0.81336457060E+01 -0.28267530999E+02 -0.12309218432E+02  0.59301853170E+02  0.49999834297E+02 0.  0.
         12    1    1    2    0    0  0.81336457060E+01  0.28267530999E+02  0.12309218432E+02  0.31886146830E+02  0.00000000000E+00 0. -1.
         11    1    3    3    0    0 -0.75458153345E+01 -0.94548749112E+01  0.14636862440E+01  0.12185087867E+02  0.51100000000E-03 0. -1.
        -11    1    3    3    0    0 -0.26480202600E+01 -0.14112592669E+02  0.13293788351E+02  0.19567884201E+02  0.51100000000E-03 0.  1.
        -12    1    3    3    0    0  0.20601898885E+01 -0.47000634194E+01 -0.27066693027E+02  0.27548881102E+02  0.00000000000E+00 0.  1.
</event>
<event>
 7    1  0.3220798E-013  0.5930194E+02  0.7816164E-02  0.1266605E+00
        -11   -1    0    0    0    0  0.00000000000E+00  0.00000000000E+00  0.45593999997E+02  0.45594000000E+02  0.51100000000E-03 0.  1.
         11   -1    0    0    0    0 -0.00000000000E+00 -0.00000000000E+00 -0.45593999997E+02  0.45594000000E+02  0.51100000000E-03 0. -1.
    9900012    2    1    2    0    0 -0.28278042267E+02 -0.83157967358E+01  0.12162273613E+02  0.59301936441E+02  0.49999986164E+02 0.  0.
         12    1    1    2    0    0  0.28278042267E+02  0.83157967358E+01 -0.12162273613E+02  0.31886063559E+02  0.00000000000E+00 0. -1.
         11    1    3    3    0    0 -0.23007430442E+02  0.91050898176E+01  0.96159484190E+01  0.26546392983E+02  0.51100000000E-03 0. -1.
        -11    1    3    3    0    0 -0.15829421493E+02 -0.57149881711E+01  0.23270675792E+01  0.16989612073E+02  0.51100000000E-03 0.  1.
         12    1    3    3    0    0  0.10558809668E+02 -0.11705898382E+02  0.21925761499E+00  0.15765931386E+02  0.00000000000E+00 0. -1.
</event>
<event>
 7    1  0.3220798E-013  0.5930195E+02  0.7816164E-02  0.1266605E+00
        -11   -1    0    0    0    0  0.00000000000E+00  0.00000000000E+00  0.45593999997E+02  0.45594000000E+02  0.51100000000E-03 0. -1.
         11   -1    0    0    0    0 -0.00000000000E+00 -0.00000000000E+00 -0.45593999997E+02  0.45594000000E+02  0.51100000000E-03 0.  1.
    9900012    2    1    2    0    0 -0.10578931978E+02 -0.32359962509E+01 -0.29905428329E+02  0.59301951058E+02  0.50000012822E+02 0.  0.
         12    1    1    2    0    0  0.10578931978E+02  0.32359962509E+01  0.29905428329E+02  0.31886048942E+02  0.00000000000E+00 0. -1.
         11    1    3    3    0    0 -0.14313947170E+02 -0.30058543967E+01 -0.23976582837E+02  0.28085597182E+02  0.51100000000E-03 0. -1.
        -11    1    3    3    0    0  0.28452574054E+01  0.10200159324E+02 -0.14313014550E+02  0.17804525427E+02  0.51100000000E-03 0.  1.
         12    1    3    3    0    0  0.88975778610E+00 -0.10430301178E+02  0.83841690575E+01  0.13411828450E+02  0.00000000000E+00 0. -1.
</event>
<event>
 7    1  0.3220798E-013  0.5930196E+02  0.7816164E-02  0.1266605E+00
        -11   -1    0    0    0    0  0.00000000000E+00  0.00000000000E+00  0.45593999997E+02  0.45594000000E+02  0.51100000000E-03 0.  1.
         11   -1    0    0    0    0 -0.00000000000E+00 -0.00000000000E+00 -0.45593999997E+02  0.45594000000E+02  0.51100000000E-03 0. -1.
    9900012    2    1    2    0    0  0.49416624468E+01  0.28856165728E+02  0.12634136223E+02  0.59301957185E+02  0.50000023996E+02 0.  0.
         12    1    1    2    0    0 -0.49416624468E+01 -0.28856165728E+02 -0.12634136223E+02  0.31886042815E+02  0.00000000000E+00 0. -1.
         11    1    3    3    0    0  0.71355718513E+01  0.10487073832E+02 -0.62482623485E+01  0.14139868664E+02  0.51100000000E-03 0. -1.
        -11    1    3    3    0    0  0.13988580517E+02 -0.18309435686E+01  0.19725100042E+01  0.14245123207E+02  0.51100000000E-03 0.  1.
         12    1    3    3    0    0 -0.16182489921E+02  0.20200035465E+02  0.16909888568E+02  0.30916965313E+02  0.00000000000E+00 0. -1.
</event>
<event>
 7    1  0.3220798E-013  0.5930190E+02  0.7816164E-02  0.1266605E+00
        -11   -1    0    0    0    0  0.00000000000E+00  0.00000000000E+00  0.45593999997E+02  0.45594000000E+02  0.51100000000E-03 0.  1.
         11   -1    0    0    0    0 -0.00000000000E+00 -0.00000000000E+00 -0.45593999997E+02  0.45594000000E+02  0.51100000000E-03 0. -1.
    9900012    2    1    2    0    0 -0.11177379677E+02 -0.29857673566E+02  0.55591915150E+00  0.59301897489E+02  0.49999915125E+02 0.  0.
         12    1    1    2    0    0  0.11177379677E+02  0.29857673566E+02 -0.55591915150E+00  0.31886102511E+02  0.00000000000E+00 0. -1.
         11    1    3    3    0    0 -0.14769614742E+02  0.29144479533E+01 -0.29212027551E+01  0.15335219343E+02  0.51100000000E-03 0. -1.
        -11    1    3    3    0    0 -0.17516026974E+01 -0.14465509573E+02 -0.12414545072E+02  0.19142622830E+02  0.51100000000E-03 0.  1.
        -12    1    3    3    0    0  0.53438377626E+01 -0.18306611946E+02  0.15891666978E+02  0.24824055316E+02  0.00000000000E+00 0.  1.
</event>
<event>
 7    1  0.3220798E-013  0.5930197E+02  0.7816164E-02  0.1266605E+00
        -11   -1    0    0    0    0  0.00000000000E+00  0.00000000000E+00  0.45593999997E+02  0.45594000000E+02  0.51100000000E-03 0.  1.
         11   -1    0    0    0    0 -0.00000000000E+00 -0.00000000000E+00 -0.45593999997E+02  0.45594000000E+02  0.51100000000E-03 0. -1.
    9900012    2    1    2    0    0 -0.18905048079E+01  0.21594546356E+02  0.23384189270E+02  0.59301972518E+02  0.50000051960E+02 0.  0.
         12    1    1    2    0    0  0.18905048079E+01 -0.21594546356E+02 -0.23384189270E+02  0.31886027482E+02  0.00000000000E+00 0. -1.
         11    1    3    3    0    0  0.91289742075E+01  0.23994654809E+02  0.13292951129E+02  0.28909932194E+02  0.51100000000E-03 0. -1.
        -11    1    3    3    0    0 -0.18601330537E+01  0.95855372273E+01  0.11680041590E+02  0.15223862543E+02  0.51100000000E-03 0.  1.
         12    1    3    3    0    0 -0.91593459617E+01 -0.11985645680E+02 -0.15888034496E+01  0.15168177782E+02  0.00000000000E+00 0. -1.
</event>
<event>
 7    1  0.3220798E-013  0.5930189E+02  0.7816164E-02  0.1266605E+00
        -11   -1    0    0    0    0  0.00000000000E+00  0.00000000000E+00  0.45593999997E+02  0.45594000000E+02  0.51100000000E-03 0.  1.
         11   -1    0    0    0    0 -0.00000000000E+00 -0.00000000000E+00 -0.45593999997E+02  0.45594000000E+02  0.51100000000E-03 0. -1.
    9900012    2    1    2    0    0  0.18877742881E+02 -0.21386224322E+02  0.14247245080E+02  0.59301893944E+02  0.49999908660E+02 0.  0.
         12    1    1    2    0    0 -0.18877742881E+02  0.21386224322E+02 -0.14247245080E+02  0.31886106056E+02  0.00000000000E+00 0. -1.
         11    1    3    3    0    0 -0.50191297929E+01 -0.60540266092E+01 -0.20227025471E+01  0.81199894038E+01  0.51100000000E-03 0. -1.
        -11    1    3    3    0    0  0.18599279582E+02 -0.27615450525E+02  0.17737210761E+02  0.37724726036E+02  0.51100000000E-03 0.  1.
         12    1    3    3    0    0  0.52975930914E+01  0.12283252811E+02 -0.14672631341E+01  0.13457178504E+02  0.00000000000E+00 0. -1.
</event>
<event>
 7    1  0.3220798E-013  0.5930194E+02  0.7816164E-02  0.1266605E+00
        -11   -1    0    0    0    0  0.00000000000E+00  0.00000000000E+00  0.45593999997E+02  0.45594000000E+02  0.51100000000E-03 0.  1.
         11   -1    0    0    0    0 -0.00000000000E+00 -0.00000000000E+00 -0.45593999997E+02  0.45594000000E+02  0.51100000000E-03 0. -1.
    9900012    2    1    2    0    0 -0.31563503021E+02 -0.45165862791E+01  0.25798928957E+00  0.59301939832E+02  0.49999992347E+02 0.  0.
         12    1    1    2    0    0  0.31563503021E+02  0.45165862791E+01 -0.25798928957E+00  0.31886060168E+02  0.00000000000E+00 0. -1.
         11    1    3    3    0    0 -0.13295780364E+02 -0.12220708173E+01  0.44282198333E-01  0.13351898507E+02  0.51100000000E-03 0. -1.
        -11    1    3    3    0    0 -0.30013310211E+02  0.42479238654E+01 -0.56063723433E+01  0.30826531724E+02  0.51100000000E-03 0.  1.
        -12    1    3    3    0    0  0.11745587554E+02 -0.75424393272E+01  0.58200794346E+01  0.15123509600E+02  0.00000000000E+00 0.  1.
</event>
<event>
 7    1  0.3220798E-013  0.5930194E+02  0.7816164E-02  0.1266605E+00
        -11   -1    0    0    0    0  0.00000000000E+00  0.00000000000E+00  0.45593999997E+02  0.45594000000E+02  0.51100000000E-03 0.  1.
         11   -1    0    0    0    0 -0.00000000000E+00 -0.00000000000E+00 -0.45593999997E+02  0.45594000000E+02  0.51100000000E-03 0. -1.
    9900012    2    1    2    0    0 -0.14744273080E+02 -0.17627099342E+02  0.22104582750E+02  0.59301940374E+02  0.49999993337E+02 0.  0.
         12    1    1    2    0    0  0.14744273080E+02  0.17627099342E+02 -0.22104582750E+02  0.31886059626E+02  0.00000000000E+00 0. -1.
         11    1    3    3    0    0 -0.13317865520E+02 -0.62775813294E+01 -0.54927906054E+01  0.15714462073E+02  0.51100000000E-03 0. -1.
        -11    1    3    3    0    0 -0.93739620188E+01  0.17702235427E+01  0.26550831706E+02  0.28212612780E+02  0.51100000000E-03 0.  1.
         12    1    3    3    0    0  0.79475544594E+01 -0.13119741556E+02  0.10465416501E+01  0.15374865521E+02  0.00000000000E+00 0. -1.
</event>
<event>
 7    1  0.3220798E-013  0.5930194E+02  0.7816164E-02  0.1266605E+00
        -11   -1    0    0    0    0  0.00000000000E+00  0.00000000000E+00  0.45593999997E+02  0.45594000000E+02  0.51100000000E-03 0. -1.
         11   -1    0    0    0    0 -0.00000000000E+00 -0.00000000000E+00 -0.45593999997E+02  0.45594000000E+02  0.51100000000E-03 0.  1.
    9900012    2    1    2    0    0 -0.14996861563E+02  0.21069502905E+02 -0.18651831050E+02  0.59301943315E+02  0.49999998700E+02 0.  0.
         12    1    1    2    0    0  0.14996861563E+02 -0.21069502905E+02  0.18651831050E+02  0.31886056685E+02  0.00000000000E+00 0. -1.
         11    1    3    3    0    0  0.95745248653E+01  0.28226089699E+01 -0.21157625179E+02  0.23394096504E+02  0.51100000000E-03 0. -1.
        -11    1    3    3    0    0 -0.26970746418E+01  0.12125521617E+02  0.42437821304E+01  0.13126773143E+02  0.51100000000E-03 0.  1.
        -12    1    3    3    0    0 -0.21874311786E+02  0.61213723182E+01 -0.17379880016E+01  0.22781073668E+02  0.00000000000E+00 0.  1.
</event>
<event>
 7    1  0.3220798E-013  0.5930195E+02  0.7816164E-02  0.1266605E+00
        -11   -1    0    0    0    0  0.00000000000E+00  0.00000000000E+00  0.45593999997E+02  0.45594000000E+02  0.51100000000E-03 0.  1.
         11   -1    0    0    0    0 -0.00000000000E+00 -0.00000000000E+00 -0.45593999997E+02  0.45594000000E+02  0.51100000000E-03 0. -1.
    9900012    2    1    2    0    0 -0.22397931213E+01  0.20940063169E+02  0.23941955103E+02  0.59301950811E+02  0.50000012371E+02 0.  0.
         12    1    1    2    0    0  0.22397931213E+01 -0.20940063169E+02 -0.23941955103E+02  0.31886049189E+02  0.00000000000E+00 0. -1.
         11    1    3    3    0    0  0.78112425511E+01 -0.48289475617E+01 -0.89331454749E+01  0.12811531254E+02  0.51100000000E-03 0. -1.
        -11    1    3    3    0    0  0.30171202563E+00  0.11835626578E+02  0.34588193902E+01  0.12334363319E+02  0.51100000000E-03 0.  1.
        -12    1    3    3    0    0 -0.10352747698E+02  0.13933384152E+02  0.29416281187E+02  0.34156056238E+02  0.00000000000E+00 0.  1.
</event>
<event>
 7    1  0.3220798E-013  0.5930195E+02  0.7816164E-02  0.1266605E+00
        -11   -1    0    0    0    0  0.00000000000E+00  0.00000000000E+00  0.45593999997E+02  0.45594000000E+02  0.51100000000E-03 0.  1.
         11   -1    0    0    0    0 -0.00000000000E+00 -0.00000000000E+00 -0.45593999997E+02  0.45594000000E+02  0.51100000000E-03 0. -1.
    9900012    2    1    2    0    0  0.14578724791E+02 -0.14477362801E+02  0.24384157680E+02  0.59301946686E+02  0.50000004849E+02 0.  0.
         12    1    1    2    0    0 -0.14578724791E+02  0.14477362801E+02 -0.24384157680E+02  0.31886053314E+02  0.00000000000E+00 0. -1.
         11    1    3    3    0    0  0.15393095760E+02  0.49838754252E+01 -0.38045250643E+01  0.16621095709E+02  0.51100000000E-03 0. -1.
        -11    1    3    3    0    0  0.41467846752E+01 -0.68059112060E+01 -0.31122248927E+01  0.85558281031E+01  0.51100000000E-03 0.  1.
         12    1    3    3    0    0 -0.49611556449E+01 -0.12655327020E+02  0.31300907637E+02  0.34125022874E+02  0.00000000000E+00 0. -1.
</event>
<event>
 7    1  0.3220798E-013  0.5930200E+02  0.7816164E-02  0.1266605E+00
        -11   -1    0    0    0    0  0.00000000000E+00  0.00000000000E+00  0.45593999997E+02  0.45594000000E+02  0.51100000000E-03 0.  1.
         11   -1    0    0    0    0 -0.00000000000E+00 -0.00000000000E+00 -0.45593999997E+02  0.45594000000E+02  0.51100000000E-03 0. -1.
    9900012    2    1    2    0    0  0.12524957463E+01 -0.44778562146E+00  0.31858243975E+02  0.59302000459E+02  0.50000102917E+02 0.  0.
         12    1    1    2    0    0 -0.12524957463E+01  0.44778562146E+00 -0.31858243975E+02  0.31885999541E+02  0.00000000000E+00 0. -1.
         11    1    3    3    0    0  0.23153850421E+01 -0.94411357430E+01 -0.18417329694E+01  0.98938381128E+01  0.51100000000E-03 0. -1.
        -11    1    3    3    0    0 -0.54022044958E+01 -0.12786166479E+02  0.11795393336E+02  0.18215410258E+02  0.51100000000E-03 0.  1.
         12    1    3    3    0    0  0.43393152000E+01  0.21779516601E+02  0.21904583608E+02  0.31192752088E+02  0.00000000000E+00 0. -1.
</event>
<event>
 7    1  0.3220798E-013  0.5930193E+02  0.7816164E-02  0.1266605E+00
        -11   -1    0    0    0    0  0.00000000000E+00  0.00000000000E+00  0.45593999997E+02  0.45594000000E+02  0.51100000000E-03 0.  1.
         11   -1    0    0    0    0 -0.00000000000E+00 -0.00000000000E+00 -0.45593999997E+02  0.45594000000E+02  0.51100000000E-03 0. -1.
    9900012    2    1    2    0    0 -0.11253188842E+02 -0.26557512894E+02  0.13593600308E+02  0.59301925930E+02  0.49999966995E+02 0.  0.
         12    1    1    2    0    0  0.11253188842E+02  0.26557512894E+02 -0.13593600308E+02  0.31886074070E+02  0.00000000000E+00 0. -1.
         11    1    3    3    0    0  0.86223458505E+01  0.35621994155E+00  0.28035610351E+01  0.90736814663E+01  0.51100000000E-03 0. -1.
        -11    1    3    3    0    0 -0.12419144832E+02 -0.28143588647E+02  0.21203541165E+02  0.37361569808E+02  0.51100000000E-03 0.  1.
         12    1    3    3    0    0 -0.74563898597E+01  0.12298558116E+01 -0.10413501892E+02  0.12866674656E+02  0.00000000000E+00 0. -1.
</event>
<event>
 7    1  0.3220798E-013  0.5930194E+02  0.7816164E-02  0.1266605E+00
        -11   -1    0    0    0    0  0.00000000000E+00  0.00000000000E+00  0.45593999997E+02  0.45594000000E+02  0.51100000000E-03 0. -1.
         11   -1    0    0    0    0 -0.00000000000E+00 -0.00000000000E+00 -0.45593999997E+02  0.45594000000E+02  0.51100000000E-03 0.  1.
    9900012    2    1    2    0    0 -0.85183963343E+01 -0.21775252422E+02 -0.21679392945E+02  0.59301940779E+02  0.49999994076E+02 0.  0.
         12    1    1    2    0    0  0.85183963343E+01  0.21775252422E+02  0.21679392945E+02  0.31886059221E+02  0.00000000000E+00 0. -1.
         11    1    3    3    0    0 -0.19280971928E+02  0.35958892766E+01 -0.13406084080E+02  0.23757301800E+02  0.51100000000E-03 0. -1.
        -11    1    3    3    0    0  0.89461591111E+00 -0.11104662363E+01 -0.92269601307E+01  0.93365018291E+01  0.51100000000E-03 0.  1.
         12    1    3    3    0    0  0.98679596825E+01 -0.24260675462E+02  0.95365126571E+00  0.26208137151E+02  0.00000000000E+00 0. -1.
</event>
<event>
 7    1  0.3220798E-013  0.5930191E+02  0.7816164E-02  0.1266605E+00
        -11   -1    0    0    0    0  0.00000000000E+00  0.00000000000E+00  0.45593999997E+02  0.45594000000E+02  0.51100000000E-03 0.  1.
         11   -1    0    0    0    0 -0.00000000000E+00 -0.00000000000E+00 -0.45593999997E+02  0.45594000000E+02  0.51100000000E-03 0. -1.
    9900012    2    1    2    0    0  0.22414541994E+02 -0.18473910139E+02  0.13153932036E+02  0.59301906219E+02  0.49999931045E+02 0.  0.
         12    1    1    2    0    0 -0.22414541994E+02  0.18473910139E+02 -0.13153932036E+02  0.31886093781E+02  0.00000000000E+00 0. -1.
         11    1    3    3    0    0  0.24581854606E+01 -0.86432382327E+01  0.14890766886E+02  0.17392043630E+02  0.51100000000E-03 0. -1.
        -11    1    3    3    0    0  0.18305848061E+02 -0.22525586094E+02 -0.21111796969E+01  0.29102631876E+02  0.51100000000E-03 0.  1.
         12    1    3    3    0    0  0.16505084729E+01  0.12694914189E+02  0.37434484666E+00  0.12807230713E+02  0.00000000000E+00 0. -1.
</event>
<event>
 7    1  0.3220798E-013  0.5930192E+02  0.7816164E-02  0.1266605E+00
        -11   -1    0    0    0    0  0.00000000000E+00  0.00000000000E+00  0.45593999997E+02  0.45594000000E+02  0.51100000000E-03 0. -1.
         11   -1    0    0    0    0 -0.00000000000E+00 -0.00000000000E+00 -0.45593999997E+02  0.45594000000E+02  0.51100000000E-03 0.  1.
    9900012    2    1    2    0    0  0.14381961569E+02  0.29254707594E+01 -0.28307651036E+02  0.59301916751E+02  0.49999950255E+02 0.  0.
         12    1    1    2    0    0 -0.14381961569E+02 -0.29254707594E+01  0.28307651036E+02  0.31886083249E+02  0.00000000000E+00 0. -1.
         11    1    3    3    0    0 -0.36150699104E+01  0.51540989614E+01  0.43054025253E-01  0.62956588592E+01  0.51100000000E-03 0. -1.
        -11    1    3    3    0    0  0.11156451019E+02 -0.24393676741E+01  0.93067108773E+01  0.14731998561E+02  0.51100000000E-03 0.  1.
        -12    1    3    3    0    0  0.68405804606E+01  0.21073947207E+00 -0.37657415939E+02  0.38274259331E+02  0.00000000000E+00 0.  1.
</event>
<event>
 7    1  0.3220798E-013  0.5930193E+02  0.7816164E-02  0.1266605E+00
        -11   -1    0    0    0    0  0.00000000000E+00  0.00000000000E+00  0.45593999997E+02  0.45594000000E+02  0.51100000000E-03 0.  1.
         11   -1    0    0    0    0 -0.00000000000E+00 -0.00000000000E+00 -0.45593999997E+02  0.45594000000E+02  0.51100000000E-03 0. -1.
    9900012    2    1    2    0    0 -0.13200112439E+01  0.27675130001E+02  0.15781832226E+02  0.59301929708E+02  0.49999973884E+02 0.  0.
         12    1    1    2    0    0  0.13200112439E+01 -0.27675130001E+02 -0.15781832226E+02  0.31886070292E+02  0.00000000000E+00 0. -1.
         11    1    3    3    0    0 -0.16590009086E+01  0.64402524758E+01 -0.61407603618E+01  0.90519652037E+01  0.51100000000E-03 0. -1.
        -11    1    3    3    0    0 -0.80551495530E+01  0.30945446913E+02  0.12526698315E+02  0.34342747268E+02  0.51100000000E-03 0.  1.
        -12    1    3    3    0    0  0.83941392178E+01 -0.97105693876E+01  0.93958942720E+01  0.15907217237E+02  0.00000000000E+00 0.  1.
</event>
<event>
 7    1  0.3220798E-013  0.5930194E+02  0.7816164E-02  0.1266605E+00
        -11   -1    0    0    0    0  0.00000000000E+00  0.00000000000E+00  0.45593999997E+02  0.45594000000E+02  0.51100000000E-03 0.  1.
         11   -1    0    0    0    0 -0.00000000000E+00 -0.00000000000E+00 -0.45593999997E+02  0.45594000000E+02  0.51100000000E-03 0. -1.
    9900012    2    1    2    0    0  0.15453215690E+02  0.16852958774E+02  0.22223793657E+02  0.59301935660E+02  0.49999984739E+02 0.  0.
         12    1    1    2    0    0 -0.15453215690E+02 -0.16852958774E+02 -0.22223793657E+02  0.31886064340E+02  0.00000000000E+00 0. -1.
         11    1    3    3    0    0 -0.18495711302E+01 -0.46638064789E+01 -0.33279737739E+01  0.60205825249E+01  0.51100000000E-03 0. -1.
        -11    1    3    3    0    0 -0.45278562460E+01  0.57902479846E+01  0.25330110718E+02  0.26375044325E+02  0.51100000000E-03 0.  1.
         12    1    3    3    0    0  0.21830643066E+02  0.15726517269E+02  0.22165671260E+00  0.26906308810E+02  0.00000000000E+00 0. -1.
</event>
<event>
 7    1  0.3220798E-013  0.5930193E+02  0.7816164E-02  0.1266605E+00
        -11   -1    0    0    0    0  0.00000000000E+00  0.00000000000E+00  0.45593999997E+02  0.45594000000E+02  0.51100000000E-03 0. -1.
         11   -1    0    0    0    0 -0.00000000000E+00 -0.00000000000E+00 -0.45593999997E+02  0.45594000000E+02  0.51100000000E-03 0.  1.
    9900012    2    1    2    0    0  0.11013388184E+02  0.23910356945E+00 -0.29922725919E+02  0.59301930687E+02  0.49999975670E+02 0.  0.
         12    1    1    2    0    0 -0.11013388184E+02 -0.23910356945E+00  0.29922725919E+02  0.31886069313E+02  0.00000000000E+00 0. -1.
         11    1    3    3    0    0 -0.14717416758E+01  0.39182295848E+01  0.25450785996E+01  0.48985683601E+01  0.51100000000E-03 0. -1.
        -11    1    3    3    0    0  0.23420183394E+02  0.85689648149E+01 -0.10699061910E+02  0.27136729247E+02  0.51100000000E-03 0.  1.
        -12    1    3    3    0    0 -0.10935053534E+02 -0.12248090830E+02 -0.21768742609E+02  0.27266633080E+02  0.00000000000E+00 0.  1.
</event>
<event>
 7    1  0.3220798E-013  0.5930195E+02  0.7816164E-02  0.1266605E+00
        -11   -1    0    0    0    0  0.00000000000E+00  0.00000000000E+00  0.45593999997E+02  0.45594000000E+02  0.51100000000E-03 0.  1.
         11   -1    0    0    0    0 -0.00000000000E+00 -0.00000000000E+00 -0.45593999997E+02  0.45594000000E+02  0.51100000000E-03 0. -1.
    9900012    2    1    2    0    0  0.80563812443E+01  0.28871215115E+02  0.10875104679E+02  0.59301949089E+02  0.50000009230E+02 0.  0.
         12    1    1    2    0    0 -0.80563812443E+01 -0.28871215115E+02 -0.10875104679E+02  0.31886050911E+02  0.00000000000E+00 0. -1.
         11    1    3    3    0    0  0.15285897341E+01 -0.52986770235E+01 -0.47146059096E+01  0.72553479530E+01  0.51100000000E-03 0. -1.
        -11    1    3    3    0    0  0.48394304202E+01  0.56371098322E+01  0.21597245525E+02  0.22839398166E+02  0.51100000000E-03 0.  1.
        -12    1    3    3    0    0  0.16883610899E+01  0.28532782306E+02 -0.60075349365E+01  0.29207202969E+02  0.00000000000E+00 0.  1.
</event>
<event>
 7    1  0.3220798E-013  0.5930202E+02  0.7816164E-02  0.1266604E+00
        -11   -1    0    0    0    0  0.00000000000E+00  0.00000000000E+00  0.45593999997E+02  0.45594000000E+02  0.51100000000E-03 0. -1.
         11   -1    0    0    0    0 -0.00000000000E+00 -0.00000000000E+00 -0.45593999997E+02  0.45594000000E+02  0.51100000000E-03 0.  1.
    9900012    2    1    2    0    0  0.18051846448E+02 -0.19839459810E+02 -0.17240715419E+02  0.59302021986E+02  0.50000142178E+02 0.  0.
         12    1    1    2    0    0 -0.18051846448E+02  0.19839459810E+02  0.17240715419E+02  0.31885978014E+02  0.00000000000E+00 0. -1.
         11    1    3    3    0    0 -0.36561274268E+01 -0.14978843724E+02 -0.51452305780E+01  0.16254427859E+02  0.51100000000E-03 0. -1.
        -11    1    3    3    0    0  0.12244585576E+02 -0.18749071445E+02 -0.13558307921E+02  0.26177953891E+02  0.51100000000E-03 0.  1.
        -12    1    3    3    0    0  0.94633882983E+01  0.13888455359E+02  0.14628230799E+01  0.16869640236E+02  0.00000000000E+00 0.  1.
</event>
<event>
 7    1  0.3220798E-013  0.5930201E+02  0.7816164E-02  0.1266605E+00
        -11   -1    0    0    0    0  0.00000000000E+00  0.00000000000E+00  0.45593999997E+02  0.45594000000E+02  0.51100000000E-03 0.  1.
         11   -1    0    0    0    0 -0.00000000000E+00 -0.00000000000E+00 -0.45593999997E+02  0.45594000000E+02  0.51100000000E-03 0. -1.
    9900012    2    1    2    0    0 -0.24403621699E+02  0.19451175034E+02  0.65445500307E+01  0.59302014092E+02  0.50000127780E+02 0.  0.
         12    1    1    2    0    0  0.24403621699E+02 -0.19451175034E+02 -0.65445500307E+01  0.31885985908E+02  0.00000000000E+00 0. -1.
         11    1    3    3    0    0 -0.62157537352E+00  0.55448655168E+01 -0.56494868396E+01  0.79403143109E+01  0.51100000000E-03 0. -1.
        -11    1    3    3    0    0 -0.13618470492E+02 -0.12030566593E+02 -0.47166508256E+01  0.18773493718E+02  0.51100000000E-03 0.  1.
        -12    1    3    3    0    0 -0.10163575833E+02  0.25936876110E+02  0.16910687696E+02  0.32588206063E+02  0.00000000000E+00 0.  1.
</event>
<event>
 7    1  0.3220798E-013  0.5930194E+02  0.7816164E-02  0.1266605E+00
        -11   -1    0    0    0    0  0.00000000000E+00  0.00000000000E+00  0.45593999997E+02  0.45594000000E+02  0.51100000000E-03 0. -1.
         11   -1    0    0    0    0 -0.00000000000E+00 -0.00000000000E+00 -0.45593999997E+02  0.45594000000E+02  0.51100000000E-03 0.  1.
    9900012    2    1    2    0    0 -0.50715094447E+01  0.20594746133E+02 -0.23808764139E+02  0.59301936803E+02  0.49999986825E+02 0.  0.
         12    1    1    2    0    0  0.50715094447E+01 -0.20594746133E+02  0.23808764139E+02  0.31886063197E+02  0.00000000000E+00 0. -1.
         11    1    3    3    0    0  0.83861768081E+01  0.13705822145E+01 -0.20115711732E+02  0.21836856821E+02  0.51100000000E-03 0. -1.
        -11    1    3    3    0    0  0.90118122075E+01  0.27762933556E+01 -0.12421437248E+01  0.95112294343E+01  0.51100000000E-03 0.  1.
         12    1    3    3    0    0 -0.22469498460E+02  0.16447870563E+02 -0.24509086824E+01  0.27953850549E+02  0.00000000000E+00 0. -1.
</event>
<event>
 7    1  0.4145473E-013  0.5930194E+02  0.7816164E-02  0.1266605E+00
        -11   -1    0    0    0    0  0.00000000000E+00  0.00000000000E+00  0.45593999997E+02  0.45594000000E+02  0.51100000000E-03 0. -1.
         11   -1    0    0    0    0 -0.00000000000E+00 -0.00000000000E+00 -0.45593999997E+02  0.45594000000E+02  0.51100000000E-03 0.  1.
    9900012    2    1    2    0    0 -0.26429798319E+02  0.56422572819E+01 -0.16921924642E+02  0.59301939723E+02  0.49999992149E+02 0.  0.
         12    1    1    2    0    0  0.26429798319E+02 -0.56422572819E+01  0.16921924642E+02  0.31886060277E+02  0.00000000000E+00 0. -1.
         11    1    3    3    0    0 -0.20949494042E+02 -0.13873588435E+01  0.77368756226E+01  0.22375551610E+02  0.51100000000E-03 0. -1.
        -11    1    3    3    0    0 -0.15941772141E+02  0.52462740389E+01 -0.16552319592E+02  0.23572076159E+02  0.51100000000E-03 0.  1.
         12    1    3    3    0    0  0.10461467864E+02  0.17833420864E+01 -0.81064806725E+01  0.13354311954E+02  0.00000000000E+00 0. -1.
</event>
<event>
 7    1  0.3220798E-013  0.5930187E+02  0.7816164E-02  0.1266605E+00
        -11   -1    0    0    0    0  0.00000000000E+00  0.00000000000E+00  0.45593999997E+02  0.45594000000E+02  0.51100000000E-03 0. -1.
         11   -1    0    0    0    0 -0.00000000000E+00 -0.00000000000E+00 -0.45593999997E+02  0.45594000000E+02  0.51100000000E-03 0.  1.
    9900012    2    1    2    0    0 -0.11040961225E+02 -0.29758213495E+02 -0.30448492895E+01  0.59301871317E+02  0.49999867393E+02 0.  0.
         12    1    1    2    0    0  0.11040961225E+02  0.29758213495E+02  0.30448492895E+01  0.31886128683E+02  0.00000000000E+00 0. -1.
         11    1    3    3    0    0  0.12233979441E+02 -0.16268886759E+02 -0.12828642116E+02  0.24060776965E+02  0.51100000000E-03 0. -1.
        -11    1    3    3    0    0 -0.13724129771E+02 -0.89719653435E+01 -0.49348157321E+01  0.17123092789E+02  0.51100000000E-03 0.  1.
        -12    1    3    3    0    0 -0.95508108962E+01 -0.45173613928E+01  0.14718608559E+02  0.18118001563E+02  0.00000000000E+00 0.  1.
</event>
<event>
 7    1  0.3220798E-013  0.5930196E+02  0.7816164E-02  0.1266605E+00
        -11   -1    0    0    0    0  0.00000000000E+00  0.00000000000E+00  0.45593999997E+02  0.45594000000E+02  0.51100000000E-03 0.  1.
         11   -1    0    0    0    0 -0.00000000000E+00 -0.00000000000E+00 -0.45593999997E+02  0.45594000000E+02  0.51100000000E-03 0. -1.
    9900012    2    1    2    0    0 -0.29925639025E+02  0.21093507710E+00  0.11005953038E+02  0.59301962822E+02  0.50000034276E+02 0.  0.
         12    1    1    2    0    0  0.29925639025E+02 -0.21093507710E+00 -0.11005953038E+02  0.31886037178E+02  0.00000000000E+00 0. -1.
         11    1    3    3    0    0  0.13406651728E+01  0.35104848441E+01 -0.47497702199E+01  0.60565009988E+01  0.51100000000E-03 0. -1.
        -11    1    3    3    0    0 -0.18591104083E+02  0.17441179738E+02  0.13468381140E+02  0.28830906896E+02  0.51100000000E-03 0.  1.
         12    1    3    3    0    0 -0.12675200114E+02 -0.20740729505E+02  0.22873421178E+01  0.24414554927E+02  0.00000000000E+00 0. -1.
</event>
<event>
 7    1  0.3220798E-013  0.5930194E+02  0.7816164E-02  0.1266605E+00
        -11   -1    0    0    0    0  0.00000000000E+00  0.00000000000E+00  0.45593999997E+02  0.45594000000E+02  0.51100000000E-03 0. -1.
         11   -1    0    0    0    0 -0.00000000000E+00 -0.00000000000E+00 -0.45593999997E+02  0.45594000000E+02  0.51100000000E-03 0.  1.
    9900012    2    1    2    0    0  0.22851243570E+02 -0.20221390546E+02  0.92540168558E+01  0.59301940408E+02  0.49999993399E+02 0.  0.
         12    1    1    2    0    0 -0.22851243570E+02  0.20221390546E+02 -0.92540168558E+01  0.31886059592E+02  0.00000000000E+00 0. -1.
         11    1    3    3    0    0 -0.47371706116E+01  0.68967512567E+01 -0.21114640672E+01  0.86292667167E+01  0.51100000000E-03 0. -1.
        -11    1    3    3    0    0 -0.35628364488E+01 -0.15455530493E+02  0.61108312361E+01  0.16997337587E+02  0.51100000000E-03 0.  1.
         12    1    3    3    0    0  0.31151250631E+02 -0.11662611310E+02  0.52546496869E+01  0.33675336105E+02  0.00000000000E+00 0. -1.
</event>
<event>
 7    1  0.4313727E-013  0.5930199E+02  0.7816164E-02  0.1266605E+00
        -11   -1    0    0    0    0  0.00000000000E+00  0.00000000000E+00  0.45593999997E+02  0.45594000000E+02  0.51100000000E-03 0. -1.
         11   -1    0    0    0    0 -0.00000000000E+00 -0.00000000000E+00 -0.45593999997E+02  0.45594000000E+02  0.51100000000E-03 0.  1.
    9900012    2    1    2    0    0  0.94586934130E+01  0.26462599424E+02 -0.15065904022E+02  0.59301991887E+02  0.50000087285E+02 0.  0.
         12    1    1    2    0    0 -0.94586934130E+01 -0.26462599424E+02  0.15065904022E+02  0.31886008113E+02  0.00000000000E+00 0. -1.
         11    1    3    3    0    0  0.47478226955E+01  0.14263166384E+02  0.11601244468E+02  0.18988644215E+02  0.51100000000E-03 0. -1.
        -11    1    3    3    0    0  0.11312160083E+02  0.17851422237E+02 -0.15736728950E+02  0.26349248185E+02  0.51100000000E-03 0.  1.
         12    1    3    3    0    0 -0.66012893656E+01 -0.56519891972E+01 -0.10930419540E+02  0.13964099487E+02  0.00000000000E+00 0. -1.
</event>
<event>
 7    1  0.3220798E-013  0.5930194E+02  0.7816164E-02  0.1266605E+00
        -11   -1    0    0    0    0  0.00000000000E+00  0.00000000000E+00  0.45593999997E+02  0.45594000000E+02  0.51100000000E-03 0.  1.
         11   -1    0    0    0    0 -0.00000000000E+00 -0.00000000000E+00 -0.45593999997E+02  0.45594000000E+02  0.51100000000E-03 0. -1.
    9900012    2    1    2    0    0  0.22425234901E+02 -0.13864387454E+02  0.17933444079E+02  0.59301940093E+02  0.49999992825E+02 0.  0.
         12    1    1    2    0    0 -0.22425234901E+02  0.13864387454E+02 -0.17933444079E+02  0.31886059907E+02  0.00000000000E+00 0. -1.
         11    1    3    3    0    0 -0.52538965283E+01 -0.50964191493E+01 -0.81053590040E+01  0.10921252754E+02  0.51100000000E-03 0. -1.
        -11    1    3    3    0    0  0.59179211458E+01  0.37077696692E+01 -0.49147363674E+01  0.85395538777E+01  0.51100000000E-03 0.  1.
         12    1    3    3    0    0  0.21761210284E+02 -0.12475737974E+02  0.30953539450E+02  0.39841133461E+02  0.00000000000E+00 0. -1.
</event>
<event>
 7    1  0.3220798E-013  0.5930193E+02  0.7816164E-02  0.1266605E+00
        -11   -1    0    0    0    0  0.00000000000E+00  0.00000000000E+00  0.45593999997E+02  0.45594000000E+02  0.51100000000E-03 0.  1.
         11   -1    0    0    0    0 -0.00000000000E+00 -0.00000000000E+00 -0.45593999997E+02  0.45594000000E+02  0.51100000000E-03 0. -1.
    9900012    2    1    2    0    0  0.15049912942E+02 -0.12148870881E+02  0.25350080612E+02  0.59301928898E+02  0.49999972408E+02 0.  0.
         12    1    1    2    0    0 -0.15049912942E+02  0.12148870881E+02 -0.25350080612E+02  0.31886071102E+02  0.00000000000E+00 0. -1.
         11    1    3    3    0    0  0.77237157464E+01 -0.92359937708E+01 -0.94363802797E+01  0.15297210167E+02  0.51100000000E-03 0. -1.
        -11    1    3    3    0    0  0.23953355979E+01  0.74936492187E+01  0.55330655352E+00  0.78866063451E+01  0.51100000000E-03 0.  1.
        -12    1    3    3    0    0  0.49308615976E+01 -0.10406526329E+02  0.34233154339E+02  0.36118112386E+02  0.00000000000E+00 0.  1.
</event>
<event>
 7    1  0.3220798E-013  0.5930194E+02  0.7816164E-02  0.1266605E+00
        -11   -1    0    0    0    0  0.00000000000E+00  0.00000000000E+00  0.45593999997E+02  0.45594000000E+02  0.51100000000E-03 0.  1.
         11   -1    0    0    0    0 -0.00000000000E+00 -0.00000000000E+00 -0.45593999997E+02  0.45594000000E+02  0.51100000000E-03 0. -1.
    9900012    2    1    2    0    0 -0.27422478569E+02 -0.12637686502E+02 -0.10247810495E+02  0.59301936102E+02  0.49999985545E+02 0.  0.
         12    1    1    2    0    0  0.27422478569E+02  0.12637686502E+02  0.10247810495E+02  0.31886063898E+02  0.00000000000E+00 0. -1.
         11    1    3    3    0    0 -0.24536357839E+01  0.50480898731E+01 -0.22429434232E+01  0.60443639357E+01  0.51100000000E-03 0. -1.
        -11    1    3    3    0    0 -0.21031553682E+02 -0.39794863078E+01  0.15037781823E+02  0.26159079570E+02  0.51100000000E-03 0.  1.
        -12    1    3    3    0    0 -0.39372891031E+01 -0.13706290067E+02 -0.23042648895E+02  0.27098492596E+02  0.00000000000E+00 0.  1.
</event>
<event>
 7    1  0.3220798E-013  0.5930194E+02  0.7816164E-02  0.1266605E+00
        -11   -1    0    0    0    0  0.00000000000E+00  0.00000000000E+00  0.45593999997E+02  0.45594000000E+02  0.51100000000E-03 0.  1.
         11   -1    0    0    0    0 -0.00000000000E+00 -0.00000000000E+00 -0.45593999997E+02  0.45594000000E+02  0.51100000000E-03 0. -1.
    9900012    2    1    2    0    0 -0.19002232636E+01 -0.15745700526E+02  0.27661944755E+02  0.59301935314E+02  0.49999984108E+02 0.  0.
         12    1    1    2    0    0  0.19002232636E+01  0.15745700526E+02 -0.27661944755E+02  0.31886064686E+02  0.00000000000E+00 0. -1.
         11    1    3    3    0    0  0.26111528136E-01 -0.99907758690E+01  0.72355407431E+01  0.12335693510E+02  0.51100000000E-03 0. -1.
        -11    1    3    3    0    0  0.34796308975E+01 -0.11493496008E+02  0.31306130254E+02  0.33530315737E+02  0.51100000000E-03 0.  1.
         12    1    3    3    0    0 -0.54059656892E+01  0.57385713510E+01 -0.10879726241E+02  0.13435926067E+02  0.00000000000E+00 0. -1.
</event>
<event>
 7    1  0.3220798E-013  0.5930195E+02  0.7816164E-02  0.1266605E+00
        -11   -1    0    0    0    0  0.00000000000E+00  0.00000000000E+00  0.45593999997E+02  0.45594000000E+02  0.51100000000E-03 0.  1.
         11   -1    0    0    0    0 -0.00000000000E+00 -0.00000000000E+00 -0.45593999997E+02  0.45594000000E+02  0.51100000000E-03 0. -1.
    9900012    2    1    2    0    0 -0.31442795544E+02  0.49718274884E+01 -0.18307690159E+01  0.59301950145E+02  0.50000011156E+02 0.  0.
         12    1    1    2    0    0  0.31442795544E+02 -0.49718274884E+01  0.18307690159E+01  0.31886049855E+02  0.00000000000E+00 0. -1.
         11    1    3    3    0    0  0.60030331913E+01  0.12865238638E+01 -0.15942729692E+01  0.63429691556E+01  0.51100000000E-03 0. -1.
        -11    1    3    3    0    0 -0.58945612940E+01 -0.67921717088E+01  0.14124329494E+02  0.16744435890E+02  0.51100000000E-03 0.  1.
         12    1    3    3    0    0 -0.31551267441E+02  0.10477475333E+02 -0.14360825541E+02  0.36214545099E+02  0.00000000000E+00 0. -1.
</event>
<event>
 7    1  0.3220798E-013  0.5930196E+02  0.7816164E-02  0.1266605E+00
        -11   -1    0    0    0    0  0.00000000000E+00  0.00000000000E+00  0.45593999997E+02  0.45594000000E+02  0.51100000000E-03 0. -1.
         11   -1    0    0    0    0 -0.00000000000E+00 -0.00000000000E+00 -0.45593999997E+02  0.45594000000E+02  0.51100000000E-03 0.  1.
    9900012    2    1    2    0    0 -0.20442114742E+02 -0.14053784384E+02 -0.20033236438E+02  0.59301961162E+02  0.50000031248E+02 0.  0.
         12    1    1    2    0    0  0.20442114742E+02  0.14053784384E+02  0.20033236438E+02  0.31886038838E+02  0.00000000000E+00 0. -1.
         11    1    3    3    0    0 -0.54010349877E+01  0.28403238670E+00  0.40328816007E+01  0.67465537574E+01  0.51100000000E-03 0. -1.
        -11    1    3    3    0    0 -0.77145054884E+01 -0.24439740310E+02 -0.20627989126E+00  0.25629222638E+02  0.51100000000E-03 0.  1.
        -12    1    3    3    0    0 -0.73265742657E+01  0.10101923540E+02 -0.23859838147E+02  0.26926184767E+02  0.00000000000E+00 0.  1.
</event>
<event>
 7    1  0.3220798E-013  0.5930177E+02  0.7816164E-02  0.1266605E+00
        -11   -1    0    0    0    0  0.00000000000E+00  0.00000000000E+00  0.45593999997E+02  0.45594000000E+02  0.51100000000E-03 0. -1.
         11   -1    0    0    0    0 -0.00000000000E+00 -0.00000000000E+00 -0.45593999997E+02  0.45594000000E+02  0.51100000000E-03 0.  1.
    9900012    2    1    2    0    0  0.22581327177E+02 -0.19750956576E+01 -0.22425748824E+02  0.59301771777E+02  0.49999685855E+02 0.  0.
         12    1    1    2    0    0 -0.22581327177E+02  0.19750956576E+01  0.22425748824E+02  0.31886228223E+02  0.00000000000E+00 0. -1.
         11    1    3    3    0    0  0.12198429688E+02  0.26722639218E+01  0.36711286858E+01  0.13016138729E+02  0.51100000000E-03 0. -1.
        -11    1    3    3    0    0 -0.97735148961E+01  0.17847475800E+01 -0.22802483139E+02  0.24872879908E+02  0.51100000000E-03 0.  1.
         12    1    3    3    0    0  0.20156412385E+02 -0.64321071595E+01 -0.32943943714E+01  0.21412753140E+02  0.00000000000E+00 0. -1.
</event>
<event>
 7    1  0.3220798E-013  0.5930195E+02  0.7816164E-02  0.1266605E+00
        -11   -1    0    0    0    0  0.00000000000E+00  0.00000000000E+00  0.45593999997E+02  0.45594000000E+02  0.51100000000E-03 0.  1.
         11   -1    0    0    0    0 -0.00000000000E+00 -0.00000000000E+00 -0.45593999997E+02  0.45594000000E+02  0.51100000000E-03 0. -1.
    9900012    2    1    2    0    0 -0.20873133028E+02  0.22217750135E+01  0.24002008901E+02  0.59301946655E+02  0.50000004792E+02 0.  0.
         12    1    1    2    0    0  0.20873133028E+02 -0.22217750135E+01 -0.24002008901E+02  0.31886053345E+02  0.00000000000E+00 0. -1.
         11    1    3    3    0    0 -0.14192714205E+02 -0.13746707478E+02  0.28231861325E+02  0.34459296237E+02  0.51100000000E-03 0. -1.
        -11    1    3    3    0    0 -0.38646377359E+01 -0.32447689849E+01 -0.12286861330E+01  0.51936134309E+01  0.51100000000E-03 0.  1.
        -12    1    3    3    0    0 -0.28157810870E+01  0.19213251476E+02 -0.30011662918E+01  0.19649036987E+02  0.00000000000E+00 0.  1.
</event>
<event>
 7    1  0.3220798E-013  0.5930195E+02  0.7816164E-02  0.1266605E+00
        -11   -1    0    0    0    0  0.00000000000E+00  0.00000000000E+00  0.45593999997E+02  0.45594000000E+02  0.51100000000E-03 0. -1.
         11   -1    0    0    0    0 -0.00000000000E+00 -0.00000000000E+00 -0.45593999997E+02  0.45594000000E+02  0.51100000000E-03 0.  1.
    9900012    2    1    2    0    0  0.17513365796E+01  0.26159723685E+02 -0.18147231754E+02  0.59301947509E+02  0.50000006350E+02 0.  0.
         12    1    1    2    0    0 -0.17513365796E+01 -0.26159723685E+02  0.18147231754E+02  0.31886052491E+02  0.00000000000E+00 0. -1.
         11    1    3    3    0    0 -0.34529135296E+01  0.13670354204E+02 -0.16936761384E+01  0.14201046970E+02  0.51100000000E-03 0. -1.
        -11    1    3    3    0    0 -0.16608228744E+02  0.10964529859E+02 -0.10176278504E+02  0.22351975785E+02  0.51100000000E-03 0.  1.
         12    1    3    3    0    0  0.21812478853E+02  0.15248396217E+01 -0.62772771119E+01  0.22748924755E+02  0.00000000000E+00 0. -1.
</event>
<event>
 7    1  0.3220798E-013  0.5930193E+02  0.7816164E-02  0.1266605E+00
        -11   -1    0    0    0    0  0.00000000000E+00  0.00000000000E+00  0.45593999997E+02  0.45594000000E+02  0.51100000000E-03 0.  1.
         11   -1    0    0    0    0 -0.00000000000E+00 -0.00000000000E+00 -0.45593999997E+02  0.45594000000E+02  0.51100000000E-03 0. -1.
    9900012    2    1    2    0    0  0.20977385855E+02  0.24671217701E+01  0.23886906852E+02  0.59301925828E+02  0.49999966809E+02 0.  0.
         12    1    1    2    0    0 -0.20977385855E+02 -0.24671217701E+01 -0.23886906852E+02  0.31886074172E+02  0.00000000000E+00 0. -1.
         11    1    3    3    0    0 -0.70893551209E+01  0.14488166700E+02  0.10511523464E+02  0.19252481818E+02  0.51100000000E-03 0. -1.
        -11    1    3    3    0    0  0.15825710806E+01  0.16831204370E+01  0.97384760985E+01  0.10008763291E+02  0.51100000000E-03 0.  1.
         12    1    3    3    0    0  0.26484169895E+02 -0.13704165367E+02  0.36369072891E+01  0.30040680719E+02  0.00000000000E+00 0. -1.
</event>
<event>
 7    1  0.3220798E-013  0.5930193E+02  0.7816164E-02  0.1266605E+00
        -11   -1    0    0    0    0  0.00000000000E+00  0.00000000000E+00  0.45593999997E+02  0.45594000000E+02  0.51100000000E-03 0.  1.
         11   -1    0    0    0    0 -0.00000000000E+00 -0.00000000000E+00 -0.45593999997E+02  0.45594000000E+02  0.51100000000E-03 0. -1.
    9900012    2    1    2    0    0 -0.24062507737E+02 -0.17444208097E+02  0.11550606815E+02  0.59301934195E+02  0.49999982067E+02 0.  0.
         12    1    1    2    0    0  0.24062507737E+02  0.17444208097E+02 -0.11550606815E+02  0.31886065805E+02  0.00000000000E+00 0. -1.
         11    1    3    3    0    0 -0.23708019133E+02  0.78534090130E+00 -0.35066689096E+01  0.23978816873E+02  0.51100000000E-03 0.  1.
        -11    1    3    3    0    0 -0.11272678975E+02 -0.12729710928E+02  0.15025668442E+01  0.17069755094E+02  0.51100000000E-03 0. -1.
        -12    1    3    3    0    0  0.10918190371E+02 -0.54998380707E+01  0.13554708881E+02  0.18253362228E+02  0.00000000000E+00 0.  1.
</event>
<event>
 7    1  0.3220798E-013  0.5930194E+02  0.7816164E-02  0.1266605E+00
        -11   -1    0    0    0    0  0.00000000000E+00  0.00000000000E+00  0.45593999997E+02  0.45594000000E+02  0.51100000000E-03 0.  1.
         11   -1    0    0    0    0 -0.00000000000E+00 -0.00000000000E+00 -0.45593999997E+02  0.45594000000E+02  0.51100000000E-03 0. -1.
    9900012    2    1    2    0    0  0.10191992517E+02 -0.80378872116E+01  0.29124504201E+02  0.59301935846E+02  0.49999985078E+02 0.  0.
         12    1    1    2    0    0 -0.10191992517E+02  0.80378872116E+01 -0.29124504201E+02  0.31886064154E+02  0.00000000000E+00 0. -1.
         11    1    3    3    0    0  0.12597390456E+02 -0.23923959214E+02  0.12968991023E+02  0.29987410678E+02  0.51100000000E-03 0. -1.
        -11    1    3    3    0    0 -0.26249417905E+01 -0.33050151226E+01 -0.11071012251E-01  0.42206121822E+01  0.51100000000E-03 0.  1.
         12    1    3    3    0    0  0.21954385170E+00  0.19191087125E+02  0.16166584190E+02  0.25093912986E+02  0.00000000000E+00 0. -1.
</event>
<event>
 7    1  0.3220798E-013  0.5930193E+02  0.7816164E-02  0.1266605E+00
        -11   -1    0    0    0    0  0.00000000000E+00  0.00000000000E+00  0.45593999997E+02  0.45594000000E+02  0.51100000000E-03 0. -1.
         11   -1    0    0    0    0 -0.00000000000E+00 -0.00000000000E+00 -0.45593999997E+02  0.45594000000E+02  0.51100000000E-03 0.  1.
    9900012    2    1    2    0    0 -0.55046288735E+01 -0.90215578434E+00 -0.31394373339E+02  0.59301929351E+02  0.49999973233E+02 0.  0.
         12    1    1    2    0    0  0.55046288735E+01  0.90215578434E+00  0.31394373339E+02  0.31886070649E+02  0.00000000000E+00 0. -1.
         11    1    3    3    0    0 -0.39242263232E+01  0.84578567447E+01  0.74931118606E+01  0.11961672900E+02  0.51100000000E-03 0. -1.
        -11    1    3    3    0    0 -0.56531867647E+00  0.80576947736E+01 -0.58320465553E+01  0.99628709494E+01  0.51100000000E-03 0.  1.
        -12    1    3    3    0    0 -0.10150838738E+01 -0.17417707303E+02 -0.33055438644E+02  0.37377385501E+02  0.00000000000E+00 0.  1.
</event>
<event>
 7    1  0.3220798E-013  0.5930195E+02  0.7816164E-02  0.1266605E+00
        -11   -1    0    0    0    0  0.00000000000E+00  0.00000000000E+00  0.45593999997E+02  0.45594000000E+02  0.51100000000E-03 0.  1.
         11   -1    0    0    0    0 -0.00000000000E+00 -0.00000000000E+00 -0.45593999997E+02  0.45594000000E+02  0.51100000000E-03 0. -1.
    9900012    2    1    2    0    0 -0.24304615532E+02 -0.20600321421E+02  0.12778482802E+01  0.59301945446E+02  0.50000002587E+02 0.  0.
         12    1    1    2    0    0  0.24304615532E+02  0.20600321421E+02 -0.12778482802E+01  0.31886054554E+02  0.00000000000E+00 0. -1.
         11    1    3    3    0    0  0.43670229683E+01  0.46287770302E+00  0.11895976266E+02  0.12680670209E+02  0.51100000000E-03 0. -1.
        -11    1    3    3    0    0 -0.31755496191E+01 -0.22235585737E+00 -0.13211133261E+02  0.13589245741E+02  0.51100000000E-03 0.  1.
        -12    1    3    3    0    0 -0.25496088881E+02 -0.20840843266E+02  0.25930052747E+01  0.33032029496E+02  0.00000000000E+00 0.  1.
</event>
<event>
 7    1  0.3220798E-013  0.5930196E+02  0.7816164E-02  0.1266605E+00
        -11   -1    0    0    0    0  0.00000000000E+00  0.00000000000E+00  0.45593999997E+02  0.45594000000E+02  0.51100000000E-03 0.  1.
         11   -1    0    0    0    0 -0.00000000000E+00 -0.00000000000E+00 -0.45593999997E+02  0.45594000000E+02  0.51100000000E-03 0. -1.
    9900012    2    1    2    0    0  0.25873366898E+02 -0.13132806774E+02 -0.13221861465E+02  0.59301963103E+02  0.50000034789E+02 0.  0.
         12    1    1    2    0    0 -0.25873366898E+02  0.13132806774E+02  0.13221861465E+02  0.31886036897E+02  0.00000000000E+00 0. -1.
         11    1    3    3    0    0 -0.22957722391E+01 -0.14991265806E+02  0.10373103732E+02  0.18374163979E+02  0.51100000000E-03 0. -1.
        -11    1    3    3    0    0  0.10197767040E+02 -0.22026597048E+01  0.67714622399E+00  0.10454888313E+02  0.51100000000E-03 0.  1.
        -12    1    3    3    0    0  0.17971372097E+02  0.40611187361E+01 -0.24272111421E+02  0.30472910811E+02  0.00000000000E+00 0.  1.
</event>
<event>
 7    1  0.3220798E-013  0.5930196E+02  0.7816164E-02  0.1266605E+00
        -11   -1    0    0    0    0  0.00000000000E+00  0.00000000000E+00  0.45593999997E+02  0.45594000000E+02  0.51100000000E-03 0. -1.
         11   -1    0    0    0    0 -0.00000000000E+00 -0.00000000000E+00 -0.45593999997E+02  0.45594000000E+02  0.51100000000E-03 0.  1.
    9900012    2    1    2    0    0 -0.67683712624E+01 -0.28024749871E+02 -0.13620640616E+02  0.59301963782E+02  0.50000036028E+02 0.  0.
         12    1    1    2    0    0  0.67683712624E+01  0.28024749871E+02  0.13620640616E+02  0.31886036218E+02  0.00000000000E+00 0. -1.
         11    1    3    3    0    0  0.17445134240E+02 -0.18706622335E+02 -0.12545929495E+02  0.28489836345E+02  0.51100000000E-03 0. -1.
        -11    1    3    3    0    0 -0.15424873263E+01  0.40439701771E+00 -0.55210875509E+01  0.57467566596E+01  0.51100000000E-03 0.  1.
         12    1    3    3    0    0 -0.22671018176E+02 -0.97225245539E+01  0.44463764300E+01  0.25065370777E+02  0.00000000000E+00 0. -1.
</event>
<event>
 7    1  0.3220798E-013  0.5930193E+02  0.7816164E-02  0.1266605E+00
        -11   -1    0    0    0    0  0.00000000000E+00  0.00000000000E+00  0.45593999997E+02  0.45594000000E+02  0.51100000000E-03 0.  1.
         11   -1    0    0    0    0 -0.00000000000E+00 -0.00000000000E+00 -0.45593999997E+02  0.45594000000E+02  0.51100000000E-03 0. -1.
    9900012    2    1    2    0    0 -0.13465135699E+02  0.35339765210E+01  0.28686628388E+02  0.59301929096E+02  0.49999972767E+02 0.  0.
         12    1    1    2    0    0  0.13465135699E+02 -0.35339765210E+01 -0.28686628388E+02  0.31886070904E+02  0.00000000000E+00 0. -1.
         11    1    3    3    0    0  0.85176821719E+01  0.43175204643E+01  0.22461199923E+02  0.24406912848E+02  0.51100000000E-03 0. -1.
        -11    1    3    3    0    0 -0.20167240972E+01 -0.69105948467E+01  0.11303736002E+02  0.13401415786E+02  0.51100000000E-03 0.  1.
         12    1    3    3    0    0 -0.19966093774E+02  0.61270509034E+01 -0.50783075363E+01  0.21493600461E+02  0.00000000000E+00 0. -1.
</event>
<event>
 7    1  0.3220798E-013  0.5930195E+02  0.7816164E-02  0.1266605E+00
        -11   -1    0    0    0    0  0.00000000000E+00  0.00000000000E+00  0.45593999997E+02  0.45594000000E+02  0.51100000000E-03 0. -1.
         11   -1    0    0    0    0 -0.00000000000E+00 -0.00000000000E+00 -0.45593999997E+02  0.45594000000E+02  0.51100000000E-03 0.  1.
    9900012    2    1    2    0    0  0.17076386263E+02 -0.25829176530E+02 -0.76138660675E+01  0.59301948433E+02  0.50000008035E+02 0.  0.
         12    1    1    2    0    0 -0.17076386263E+02  0.25829176530E+02  0.76138660675E+01  0.31886051567E+02  0.00000000000E+00 0. -1.
         11    1    3    3    0    0  0.41694538966E+01  0.24207683508E+01  0.39079970491E+01  0.62061990301E+01  0.51100000000E-03 0. -1.
        -11    1    3    3    0    0  0.13479279864E+02  0.36119967085E+01 -0.15643511444E+02  0.20963228674E+02  0.51100000000E-03 0.  1.
        -12    1    3    3    0    0 -0.57234749757E+00 -0.31861941589E+02  0.41216483273E+01  0.32132520729E+02  0.00000000000E+00 0.  1.
</event>
<event>
 7    1  0.3220798E-013  0.5930193E+02  0.7816164E-02  0.1266605E+00
        -11   -1    0    0    0    0  0.00000000000E+00  0.00000000000E+00  0.45593999997E+02  0.45594000000E+02  0.51100000000E-03 0.  1.
         11   -1    0    0    0    0 -0.00000000000E+00 -0.00000000000E+00 -0.45593999997E+02  0.45594000000E+02  0.51100000000E-03 0. -1.
    9900012    2    1    2    0    0 -0.23820774164E+02  0.19542156468E+02  0.82095156983E+01  0.59301932365E+02  0.49999978730E+02 0.  0.
         12    1    1    2    0    0  0.23820774164E+02 -0.19542156468E+02 -0.82095156983E+01  0.31886067635E+02  0.00000000000E+00 0. -1.
         11    1    3    3    0    0  0.13057320219E+02  0.80662306123E+00 -0.30075998702E+01  0.13423483501E+02  0.51100000000E-03 0. -1.
        -11    1    3    3    0    0 -0.10813661193E+02  0.14308500093E+02  0.29340231555E+01  0.18173522923E+02  0.51100000000E-03 0.  1.
        -12    1    3    3    0    0 -0.26064433190E+02  0.44270333142E+01  0.82830924131E+01  0.27704925941E+02  0.00000000000E+00 0.  1.
</event>
<event>
 7    1  0.3220798E-013  0.5930195E+02  0.7816164E-02  0.1266605E+00
        -11   -1    0    0    0    0  0.00000000000E+00  0.00000000000E+00  0.45593999997E+02  0.45594000000E+02  0.51100000000E-03 0.  1.
         11   -1    0    0    0    0 -0.00000000000E+00 -0.00000000000E+00 -0.45593999997E+02  0.45594000000E+02  0.51100000000E-03 0. -1.
    9900012    2    1    2    0    0  0.17818017841E+02 -0.53447357243E+01  0.25897335427E+02  0.59301953805E+02  0.50000017831E+02 0.  0.
         12    1    1    2    0    0 -0.17818017841E+02  0.53447357243E+01 -0.25897335427E+02  0.31886046195E+02  0.00000000000E+00 0. -1.
         11    1    3    3    0    0 -0.10349563888E+02 -0.72682872901E+01  0.17003598513E+02  0.21191126338E+02  0.51100000000E-03 0.  1.
        -11    1    3    3    0    0  0.16169867980E+01  0.17494332214E+01  0.11208578466E+02  0.11458943860E+02  0.51100000000E-03 0. -1.
        -12    1    3    3    0    0  0.26550594931E+02  0.17411834450E+00 -0.23148415524E+01  0.26651883607E+02  0.00000000000E+00 0.  1.
</event>
<event>
 7    1  0.3220798E-013  0.5930197E+02  0.7816164E-02  0.1266605E+00
        -11   -1    0    0    0    0  0.00000000000E+00  0.00000000000E+00  0.45593999997E+02  0.45594000000E+02  0.51100000000E-03 0.  1.
         11   -1    0    0    0    0 -0.00000000000E+00 -0.00000000000E+00 -0.45593999997E+02  0.45594000000E+02  0.51100000000E-03 0. -1.
    9900012    2    1    2    0    0  0.23648059700E+02 -0.37747418979E+01 -0.21053257698E+02  0.59301967577E+02  0.50000042949E+02 0.  0.
         12    1    1    2    0    0 -0.23648059700E+02  0.37747418979E+01  0.21053257698E+02  0.31886032423E+02  0.00000000000E+00 0. -1.
         11    1    3    3    0    0  0.33514673351E+01 -0.13886388124E+02 -0.86904854646E+01  0.16720904470E+02  0.51100000000E-03 0. -1.
        -11    1    3    3    0    0  0.22833861144E+02 -0.43474659785E+01 -0.15003085241E+02  0.27665470214E+02  0.51100000000E-03 0.  1.
         12    1    3    3    0    0 -0.25372687793E+01  0.14459112204E+02  0.26403130071E+01  0.14915592894E+02  0.00000000000E+00 0. -1.
</event>
<event>
 7    1  0.3220798E-013  0.5930197E+02  0.7816164E-02  0.1266605E+00
        -11   -1    0    0    0    0  0.00000000000E+00  0.00000000000E+00  0.45593999997E+02  0.45594000000E+02  0.51100000000E-03 0.  1.
         11   -1    0    0    0    0 -0.00000000000E+00 -0.00000000000E+00 -0.45593999997E+02  0.45594000000E+02  0.51100000000E-03 0. -1.
    9900012    2    1    2    0    0  0.18949856282E+01  0.24470386394E+02  0.20355045349E+02  0.59301974033E+02  0.50000054722E+02 0.  0.
         12    1    1    2    0    0 -0.18949856282E+01 -0.24470386394E+02 -0.20355045349E+02  0.31886025967E+02  0.00000000000E+00 0. -1.
         11    1    3    3    0    0  0.47464620913E+01 -0.24262399898E+01  0.21398194814E+01  0.57440726447E+01  0.51100000000E-03 0. -1.
        -11    1    3    3    0    0  0.18315900538E+02  0.20809337602E+02  0.59694801564E+01  0.28357281914E+02  0.51100000000E-03 0.  1.
         12    1    3    3    0    0 -0.21167377002E+02  0.60872887825E+01  0.12245745711E+02  0.25200619474E+02  0.00000000000E+00 0. -1.
</event>
<event>
 7    1  0.3220798E-013  0.5930194E+02  0.7816164E-02  0.1266605E+00
        -11   -1    0    0    0    0  0.00000000000E+00  0.00000000000E+00  0.45593999997E+02  0.45594000000E+02  0.51100000000E-03 0.  1.
         11   -1    0    0    0    0 -0.00000000000E+00 -0.00000000000E+00 -0.45593999997E+02  0.45594000000E+02  0.51100000000E-03 0. -1.
    9900012    2    1    2    0    0  0.23566125919E+02  0.20378299036E+02  0.67884774254E+01  0.59301940536E+02  0.49999993631E+02 0.  0.
         12    1    1    2    0    0 -0.23566125919E+02 -0.20378299036E+02 -0.67884774254E+01  0.31886059464E+02  0.00000000000E+00 0. -1.
         11    1    3    3    0    0 -0.59527865112E+01  0.91081293775E+01 -0.10430483348E+02  0.15072779144E+02  0.51100000000E-03 0. -1.
        -11    1    3    3    0    0  0.13448157446E+02  0.28066603921E+01 -0.57959068178E+01  0.14910493532E+02  0.51100000000E-03 0.  1.
        -12    1    3    3    0    0  0.16070754983E+02  0.84635092663E+01  0.23014867591E+02  0.29318667860E+02  0.00000000000E+00 0.  1.
</event>
<event>
 7    1  0.3220798E-013  0.5930194E+02  0.7816164E-02  0.1266605E+00
        -11   -1    0    0    0    0  0.00000000000E+00  0.00000000000E+00  0.45593999997E+02  0.45594000000E+02  0.51100000000E-03 0. -1.
         11   -1    0    0    0    0 -0.00000000000E+00 -0.00000000000E+00 -0.45593999997E+02  0.45594000000E+02  0.51100000000E-03 0.  1.
    9900012    2    1    2    0    0  0.41924418424E+01 -0.26084258389E+02 -0.17853735421E+02  0.59301937641E+02  0.49999988352E+02 0.  0.
         12    1    1    2    0    0 -0.41924418424E+01  0.26084258389E+02  0.17853735421E+02  0.31886062359E+02  0.00000000000E+00 0. -1.
         11    1    3    3    0    0  0.35175891890E+01  0.71298671126E-01  0.50148249286E+01  0.61259274015E+01  0.51100000000E-03 0. -1.
        -11    1    3    3    0    0  0.10753312202E+02 -0.33726559469E+02 -0.17112868904E+02  0.39318759128E+02  0.51100000000E-03 0.  1.
         12    1    3    3    0    0 -0.10078459549E+02  0.75710024092E+01 -0.57556914452E+01  0.13857251112E+02  0.00000000000E+00 0. -1.
</event>
<event>
 7    1  0.3220798E-013  0.5930193E+02  0.7816164E-02  0.1266605E+00
        -11   -1    0    0    0    0  0.00000000000E+00  0.00000000000E+00  0.45593999997E+02  0.45594000000E+02  0.51100000000E-03 0.  1.
         11   -1    0    0    0    0 -0.00000000000E+00 -0.00000000000E+00 -0.45593999997E+02  0.45594000000E+02  0.51100000000E-03 0. -1.
    9900012    2    1    2    0    0  0.26329506399E+02 -0.10263201791E+02  0.14769741483E+02  0.59301929660E+02  0.49999973797E+02 0.  0.
         12    1    1    2    0    0 -0.26329506399E+02  0.10263201791E+02 -0.14769741483E+02  0.31886070340E+02  0.00000000000E+00 0. -1.
         11    1    3    3    0    0 -0.50559167155E+01 -0.87294821849E+01 -0.56873796268E+01  0.11580692567E+02  0.51100000000E-03 0. -1.
        -11    1    3    3    0    0  0.51548089465E+01 -0.12301631797E+02  0.10877973676E+01  0.13382283195E+02  0.51100000000E-03 0.  1.
        -12    1    3    3    0    0  0.26230614169E+02  0.10767912191E+02  0.19369323742E+02  0.34338953898E+02  0.00000000000E+00 0.  1.
</event>
<event>
 7    1  0.3220798E-013  0.5930195E+02  0.7816164E-02  0.1266605E+00
        -11   -1    0    0    0    0  0.00000000000E+00  0.00000000000E+00  0.45593999997E+02  0.45594000000E+02  0.51100000000E-03 0.  1.
         11   -1    0    0    0    0 -0.00000000000E+00 -0.00000000000E+00 -0.45593999997E+02  0.45594000000E+02  0.51100000000E-03 0. -1.
    9900012    2    1    2    0    0  0.23825705740E+02 -0.15438263321E+02  0.14516053078E+02  0.59301952497E+02  0.50000015446E+02 0.  0.
         12    1    1    2    0    0 -0.23825705740E+02  0.15438263321E+02 -0.14516053078E+02  0.31886047503E+02  0.00000000000E+00 0. -1.
         11    1    3    3    0    0  0.55596803779E+00 -0.30335822834E+01 -0.11059729435E+02  0.11481695753E+02  0.51100000000E-03 0. -1.
        -11    1    3    3    0    0  0.99866654401E+01 -0.12218075867E+02 -0.32222977643E+01  0.16105839551E+02  0.51100000000E-03 0.  1.
        -12    1    3    3    0    0  0.13283072262E+02 -0.18660517066E+00  0.28798080278E+02  0.31714417193E+02  0.00000000000E+00 0.  1.
</event>
<event>
 7    1  0.3220798E-013  0.5930194E+02  0.7816164E-02  0.1266605E+00
        -11   -1    0    0    0    0  0.00000000000E+00  0.00000000000E+00  0.45593999997E+02  0.45594000000E+02  0.51100000000E-03 0. -1.
         11   -1    0    0    0    0 -0.00000000000E+00 -0.00000000000E+00 -0.45593999997E+02  0.45594000000E+02  0.51100000000E-03 0.  1.
    9900012    2    1    2    0    0  0.27471735097E+02 -0.15497480285E+02  0.46747111307E+01  0.59301936452E+02  0.49999986184E+02 0.  0.
         12    1    1    2    0    0 -0.27471735097E+02  0.15497480285E+02 -0.46747111307E+01  0.31886063548E+02  0.00000000000E+00 0. -1.
         11    1    3    3    0    0 -0.62257825822E-01  0.28000115925E+01 -0.64668081530E+01  0.70472369695E+01  0.51100000000E-03 0. -1.
        -11    1    3    3    0    0 -0.92147823281E+01 -0.40014195172E+01 -0.28034729579E+01  0.10429910469E+02  0.51100000000E-03 0.  1.
        -12    1    3    3    0    0  0.36748775251E+02 -0.14296072360E+02  0.13944992242E+02  0.41824789013E+02  0.00000000000E+00 0.  1.
</event>
<event>
 7    1  0.3435957E-013  0.5930193E+02  0.7816164E-02  0.1266605E+00
        -11   -1    0    0    0    0  0.00000000000E+00  0.00000000000E+00  0.45593999997E+02  0.45594000000E+02  0.51100000000E-03 0. -1.
         11   -1    0    0    0    0 -0.00000000000E+00 -0.00000000000E+00 -0.45593999997E+02  0.45594000000E+02  0.51100000000E-03 0.  1.
    9900012    2    1    2    0    0 -0.30797733921E+02 -0.23849128002E+01 -0.79077938868E+01  0.59301930505E+02  0.49999975337E+02 0.  0.
         12    1    1    2    0    0  0.30797733921E+02  0.23849128002E+01  0.79077938868E+01  0.31886069495E+02  0.00000000000E+00 0. -1.
         11    1    3    3    0    0 -0.91312592831E+01 -0.10886968862E+02  0.74713385864E+01  0.16053874536E+02  0.51100000000E-03 0. -1.
        -11    1    3    3    0    0 -0.25898982574E+02  0.92007923516E+01 -0.21161620525E+00  0.27485571850E+02  0.51100000000E-03 0.  1.
         12    1    3    3    0    0  0.42325079365E+01 -0.69873629018E+00 -0.15167516268E+02  0.15762484118E+02  0.00000000000E+00 0. -1.
</event>
<event>
 7    1  0.3220798E-013  0.5930195E+02  0.7816164E-02  0.1266605E+00
        -11   -1    0    0    0    0  0.00000000000E+00  0.00000000000E+00  0.45593999997E+02  0.45594000000E+02  0.51100000000E-03 0.  1.
         11   -1    0    0    0    0 -0.00000000000E+00 -0.00000000000E+00 -0.45593999997E+02  0.45594000000E+02  0.51100000000E-03 0. -1.
    9900012    2    1    2    0    0  0.19092495042E+01 -0.97279253069E+01  0.30305815966E+02  0.59301949040E+02  0.50000009141E+02 0.  0.
         12    1    1    2    0    0 -0.19092495042E+01  0.97279253069E+01 -0.30305815966E+02  0.31886050960E+02  0.00000000000E+00 0. -1.
         11    1    3    3    0    0 -0.14575300269E+02 -0.10906503975E+01  0.80843614398E+01  0.16702867908E+02  0.51100000000E-03 0. -1.
        -11    1    3    3    0    0  0.25537771506E+01 -0.11998447709E+02  0.25141007993E+02  0.27974181102E+02  0.51100000000E-03 0.  1.
         12    1    3    3    0    0  0.13930772622E+02  0.33611727998E+01 -0.29195534662E+01  0.14624900030E+02  0.00000000000E+00 0. -1.
</event>
<event>
 7    1  0.3220798E-013  0.5930189E+02  0.7816164E-02  0.1266605E+00
        -11   -1    0    0    0    0  0.00000000000E+00  0.00000000000E+00  0.45593999997E+02  0.45594000000E+02  0.51100000000E-03 0.  1.
         11   -1    0    0    0    0 -0.00000000000E+00 -0.00000000000E+00 -0.45593999997E+02  0.45594000000E+02  0.51100000000E-03 0. -1.
    9900012    2    1    2    0    0 -0.10496398352E+02 -0.29857861542E+02 -0.38803944749E+01  0.59301894319E+02  0.49999909343E+02 0.  0.
         12    1    1    2    0    0  0.10496398352E+02  0.29857861542E+02  0.38803944749E+01  0.31886105681E+02  0.00000000000E+00 0. -1.
         11    1    3    3    0    0  0.81209516212E+01 -0.21679288173E+02 -0.49198258709E+01  0.23667405388E+02  0.51100000000E-03 0. -1.
        -11    1    3    3    0    0 -0.16294121320E+02 -0.18467925835E+02  0.32941949403E+01  0.24847824749E+02  0.51100000000E-03 0.  1.
         12    1    3    3    0    0 -0.23232286535E+01  0.10289352466E+02 -0.22547635443E+01  0.10786664182E+02  0.00000000000E+00 0. -1.
</event>
<event>
 7    1  0.3220798E-013  0.5930193E+02  0.7816164E-02  0.1266605E+00
        -11   -1    0    0    0    0  0.00000000000E+00  0.00000000000E+00  0.45593999997E+02  0.45594000000E+02  0.51100000000E-03 0. -1.
         11   -1    0    0    0    0 -0.00000000000E+00 -0.00000000000E+00 -0.45593999997E+02  0.45594000000E+02  0.51100000000E-03 0.  1.
    9900012    2    1    2    0    0  0.14920038227E+02 -0.76454703369E+01 -0.27123061859E+02  0.59301933420E+02  0.49999980654E+02 0.  0.
         12    1    1    2    0    0 -0.14920038227E+02  0.76454703369E+01  0.27123061859E+02  0.31886066580E+02  0.00000000000E+00 0. -1.
         11    1    3    3    0    0 -0.11493816372E+02 -0.12512192260E+01  0.48340565991E+01  0.12531618722E+02  0.51100000000E-03 0. -1.
        -11    1    3    3    0    0 -0.16470238424E+01  0.11550357134E+01  0.14602033573E+01  0.24857572574E+01  0.51100000000E-03 0.  1.
        -12    1    3    3    0    0  0.28060878441E+02 -0.75492868243E+01 -0.33417321815E+02  0.44284557440E+02  0.00000000000E+00 0.  1.
</event>
<event>
 7    1  0.3220798E-013  0.5930195E+02  0.7816164E-02  0.1266605E+00
        -11   -1    0    0    0    0  0.00000000000E+00  0.00000000000E+00  0.45593999997E+02  0.45594000000E+02  0.51100000000E-03 0. -1.
         11   -1    0    0    0    0 -0.00000000000E+00 -0.00000000000E+00 -0.45593999997E+02  0.45594000000E+02  0.51100000000E-03 0.  1.
    9900012    2    1    2    0    0 -0.15712437600E+02  0.22155754781E+02 -0.16702149215E+02  0.59301953622E+02  0.50000017497E+02 0.  0.
         12    1    1    2    0    0  0.15712437600E+02 -0.22155754781E+02  0.16702149215E+02  0.31886046378E+02  0.00000000000E+00 0. -1.
         11    1    3    3    0    0 -0.94002506443E+01 -0.10933213093E+02 -0.85066332077E+01  0.16741047443E+02  0.51100000000E-03 0. -1.
        -11    1    3    3    0    0  0.75167937836E+01  0.11726979316E+02 -0.98493574135E+01  0.17059720818E+02  0.51100000000E-03 0.  1.
        -12    1    3    3    0    0 -0.13828980739E+02  0.21361988558E+02  0.16538414059E+01  0.25501185361E+02  0.00000000000E+00 0.  1.
</event>
<event>
 7    1  0.3220798E-013  0.5930196E+02  0.7816164E-02  0.1266605E+00
        -11   -1    0    0    0    0  0.00000000000E+00  0.00000000000E+00  0.45593999997E+02  0.45594000000E+02  0.51100000000E-03 0. -1.
         11   -1    0    0    0    0 -0.00000000000E+00 -0.00000000000E+00 -0.45593999997E+02  0.45594000000E+02  0.51100000000E-03 0.  1.
    9900012    2    1    2    0    0 -0.28428141328E+02 -0.89718565648E+01 -0.11316626822E+02  0.59301961171E+02  0.50000031265E+02 0.  0.
         12    1    1    2    0    0  0.28428141328E+02  0.89718565648E+01  0.11316626822E+02  0.31886038829E+02  0.00000000000E+00 0. -1.
         11    1    3    3    0    0 -0.20804552202E+02  0.11990059068E+02 -0.59871152726E+01  0.24747453572E+02  0.51100000000E-03 0. -1.
        -11    1    3    3    0    0  0.38243341912E+01 -0.84405928958E+01 -0.12976074034E+02  0.15945144654E+02  0.51100000000E-03 0.  1.
         12    1    3    3    0    0 -0.11447923318E+02 -0.12521322737E+02  0.76465624852E+01  0.18609362945E+02  0.00000000000E+00 0. -1.
</event>
<event>
 7    1  0.3220798E-013  0.5930196E+02  0.7816164E-02  0.1266605E+00
        -11   -1    0    0    0    0  0.00000000000E+00  0.00000000000E+00  0.45593999997E+02  0.45594000000E+02  0.51100000000E-03 0. -1.
         11   -1    0    0    0    0 -0.00000000000E+00 -0.00000000000E+00 -0.45593999997E+02  0.45594000000E+02  0.51100000000E-03 0.  1.
    9900012    2    1    2    0    0  0.73181329792E+01  0.18772238787E+02 -0.24713707415E+02  0.59301963032E+02  0.50000034659E+02 0.  0.
         12    1    1    2    0    0 -0.73181329792E+01 -0.18772238787E+02  0.24713707415E+02  0.31886036968E+02  0.00000000000E+00 0. -1.
         11    1    3    3    0    0 -0.34940992490E+01  0.23574306838E+01  0.56285021947E+01  0.70318024864E+01  0.51100000000E-03 0. -1.
        -11    1    3    3    0    0  0.44616870493E+01  0.27642589924E+02 -0.13581478254E+02  0.31120346734E+02  0.51100000000E-03 0.  1.
         12    1    3    3    0    0  0.63505451788E+01 -0.11227781821E+02 -0.16760731355E+02  0.21149813811E+02  0.00000000000E+00 0. -1.
</event>
<event>
 7    1  0.3220798E-013  0.5930194E+02  0.7816164E-02  0.1266605E+00
        -11   -1    0    0    0    0  0.00000000000E+00  0.00000000000E+00  0.45593999997E+02  0.45594000000E+02  0.51100000000E-03 0.  1.
         11   -1    0    0    0    0 -0.00000000000E+00 -0.00000000000E+00 -0.45593999997E+02  0.45594000000E+02  0.51100000000E-03 0. -1.
    9900012    2    1    2    0    0  0.17933170435E+02 -0.22010934717E+02 -0.14513477313E+02  0.59301939210E+02  0.49999991214E+02 0.  0.
         12    1    1    2    0    0 -0.17933170435E+02  0.22010934717E+02  0.14513477313E+02  0.31886060790E+02  0.00000000000E+00 0. -1.
         11    1    3    3    0    0  0.67253813495E+01 -0.20087012603E+02 -0.16026295865E+02  0.26562398029E+02  0.51100000000E-03 0. -1.
        -11    1    3    3    0    0 -0.99373363050E+01 -0.32648198546E+01 -0.33835254389E+01  0.10993541112E+02  0.51100000000E-03 0.  1.
        -12    1    3    3    0    0  0.21145125391E+02  0.13408977403E+01  0.48963439913E+01  0.21746000069E+02  0.00000000000E+00 0.  1.
</event>
<event>
 7    1  0.3220798E-013  0.5930193E+02  0.7816164E-02  0.1266605E+00
        -11   -1    0    0    0    0  0.00000000000E+00  0.00000000000E+00  0.45593999997E+02  0.45594000000E+02  0.51100000000E-03 0.  1.
         11   -1    0    0    0    0 -0.00000000000E+00 -0.00000000000E+00 -0.45593999997E+02  0.45594000000E+02  0.51100000000E-03 0. -1.
    9900012    2    1    2    0    0  0.12305672083E+02 -0.80826078854E+01  0.28283626798E+02  0.59301926856E+02  0.49999968683E+02 0.  0.
         12    1    1    2    0    0 -0.12305672083E+02  0.80826078854E+01 -0.28283626798E+02  0.31886073144E+02  0.00000000000E+00 0. -1.
         11    1    3    3    0    0  0.87977952956E+01  0.10198165645E+02  0.71853830754E+01  0.15265435296E+02  0.51100000000E-03 0. -1.
        -11    1    3    3    0    0 -0.65569892265E+01 -0.31392090177E+01 -0.73091996563E+01  0.10308886499E+02  0.51100000000E-03 0.  1.
        -12    1    3    3    0    0  0.10064866014E+02 -0.15141564513E+02  0.28407443379E+02  0.33727605061E+02  0.00000000000E+00 0.  1.
</event>
<event>
 7    1  0.3220798E-013  0.5930194E+02  0.7816164E-02  0.1266605E+00
        -11   -1    0    0    0    0  0.00000000000E+00  0.00000000000E+00  0.45593999997E+02  0.45594000000E+02  0.51100000000E-03 0. -1.
         11   -1    0    0    0    0 -0.00000000000E+00 -0.00000000000E+00 -0.45593999997E+02  0.45594000000E+02  0.51100000000E-03 0.  1.
    9900012    2    1    2    0    0  0.17171559228E+02 -0.39472973209E+01  0.26575877605E+02  0.59301939206E+02  0.49999991207E+02 0.  0.
         12    1    1    2    0    0 -0.17171559228E+02  0.39472973209E+01 -0.26575877605E+02  0.31886060794E+02  0.00000000000E+00 0. -1.
         11    1    3    3    0    0  0.84994167965E+01 -0.93603410660E+01  0.86426474289E+01  0.15315071844E+02  0.51100000000E-03 0. -1.
        -11    1    3    3    0    0  0.14565586429E+02 -0.10217997963E+02 -0.20850711333E+01  0.17913997663E+02  0.51100000000E-03 0.  1.
         12    1    3    3    0    0 -0.58934439971E+01  0.15631041708E+02  0.20018301309E+02  0.26072869699E+02  0.00000000000E+00 0. -1.
</event>
<event>
 7    1  0.3220798E-013  0.5930194E+02  0.7816164E-02  0.1266605E+00
        -11   -1    0    0    0    0  0.00000000000E+00  0.00000000000E+00  0.45593999997E+02  0.45594000000E+02  0.51100000000E-03 0.  1.
         11   -1    0    0    0    0 -0.00000000000E+00 -0.00000000000E+00 -0.45593999997E+02  0.45594000000E+02  0.51100000000E-03 0. -1.
    9900012    2    1    2    0    0 -0.14601767175E+02  0.26035922813E+02  0.11208912489E+02  0.59301943477E+02  0.49999998996E+02 0.  0.
         12    1    1    2    0    0  0.14601767175E+02 -0.26035922813E+02 -0.11208912489E+02  0.31886056523E+02  0.00000000000E+00 0. -1.
         11    1    3    3    0    0 -0.15205390504E+02 -0.81811766111E+00 -0.17020702066E+01  0.15322214597E+02  0.51100000000E-03 0.  1.
        -11    1    3    3    0    0 -0.14509813268E+02  0.17900980242E+02  0.16246425201E+01  0.23100199962E+02  0.51100000000E-03 0. -1.
         12    1    3    3    0    0  0.15113436597E+02  0.89530602318E+01  0.11286340175E+02  0.20879528918E+02  0.00000000000E+00 0. -1.
</event>
<event>
 7    1  0.3220798E-013  0.5930198E+02  0.7816164E-02  0.1266605E+00
        -11   -1    0    0    0    0  0.00000000000E+00  0.00000000000E+00  0.45593999997E+02  0.45594000000E+02  0.51100000000E-03 0. -1.
         11   -1    0    0    0    0 -0.00000000000E+00 -0.00000000000E+00 -0.45593999997E+02  0.45594000000E+02  0.51100000000E-03 0.  1.
    9900012    2    1    2    0    0 -0.99457664775E+01 -0.17310934019E+00 -0.30294724314E+02  0.59301975492E+02  0.50000057384E+02 0.  0.
         12    1    1    2    0    0  0.99457664775E+01  0.17310934019E+00  0.30294724314E+02  0.31886024508E+02  0.00000000000E+00 0. -1.
         11    1    3    3    0    0  0.12065140133E+02 -0.81465555787E+01 -0.91750774711E+01  0.17208021998E+02  0.51100000000E-03 0. -1.
        -11    1    3    3    0    0 -0.12176268488E+02 -0.79603870065E+01 -0.17947157046E+02  0.23102591237E+02  0.51100000000E-03 0.  1.
        -12    1    3    3    0    0 -0.98346381226E+01  0.15933833245E+02 -0.31724897967E+01  0.18991362257E+02  0.00000000000E+00 0.  1.
</event>
<event>
 7    1  0.3220798E-013  0.5930194E+02  0.7816164E-02  0.1266605E+00
        -11   -1    0    0    0    0  0.00000000000E+00  0.00000000000E+00  0.45593999997E+02  0.45594000000E+02  0.51100000000E-03 0.  1.
         11   -1    0    0    0    0 -0.00000000000E+00 -0.00000000000E+00 -0.45593999997E+02  0.45594000000E+02  0.51100000000E-03 0. -1.
    9900012    2    1    2    0    0  0.43151101029E+01  0.88035760618E+01  0.30341351054E+02  0.59301941754E+02  0.49999995853E+02 0.  0.
         12    1    1    2    0    0 -0.43151101029E+01 -0.88035760618E+01 -0.30341351054E+02  0.31886058246E+02  0.00000000000E+00 0. -1.
         11    1    3    3    0    0  0.10329979028E+02  0.14259604752E+02  0.66037891420E+01  0.18805712582E+02  0.51100000000E-03 0. -1.
        -11    1    3    3    0    0  0.11951586845E+02 -0.35457063527E+01  0.17283469497E+02  0.21310344431E+02  0.51100000000E-03 0.  1.
         12    1    3    3    0    0 -0.17966455771E+02 -0.19103223375E+01  0.64540924153E+01  0.19185884741E+02  0.00000000000E+00 0. -1.
</event>
<event>
 7    1  0.3220798E-013  0.5930193E+02  0.7816164E-02  0.1266605E+00
        -11   -1    0    0    0    0  0.00000000000E+00  0.00000000000E+00  0.45593999997E+02  0.45594000000E+02  0.51100000000E-03 0. -1.
         11   -1    0    0    0    0 -0.00000000000E+00 -0.00000000000E+00 -0.45593999997E+02  0.45594000000E+02  0.51100000000E-03 0.  1.
    9900012    2    1    2    0    0  0.16897717169E+02  0.25167182031E+02 -0.98894629914E+01  0.59301931331E+02  0.49999976844E+02 0.  0.
         12    1    1    2    0    0 -0.16897717169E+02 -0.25167182031E+02  0.98894629914E+01  0.31886068669E+02  0.00000000000E+00 0. -1.
         11    1    3    3    0    0 -0.79510211594E+01 -0.17125513817E+01 -0.86476564496E+01  0.11871542951E+02  0.51100000000E-03 0. -1.
        -11    1    3    3    0    0  0.93407347712E+01 -0.47825437826E+01 -0.56189132952E+01  0.11903538885E+02  0.51100000000E-03 0.  1.
         12    1    3    3    0    0  0.15508003557E+02  0.31662277195E+02  0.43771067535E+01  0.35526849495E+02  0.00000000000E+00 0. -1.
</event>
<event>
 7    1  0.3358409E-013  0.5930194E+02  0.7816164E-02  0.1266605E+00
        -11   -1    0    0    0    0  0.00000000000E+00  0.00000000000E+00  0.45593999997E+02  0.45594000000E+02  0.51100000000E-03 0.  1.
         11   -1    0    0    0    0 -0.00000000000E+00 -0.00000000000E+00 -0.45593999997E+02  0.45594000000E+02  0.51100000000E-03 0. -1.
    9900012    2    1    2    0    0  0.41149179141E+01  0.21210539802E+02 -0.23449970052E+02  0.59301942803E+02  0.49999997767E+02 0.  0.
         12    1    1    2    0    0 -0.41149179141E+01 -0.21210539802E+02  0.23449970052E+02  0.31886057197E+02  0.00000000000E+00 0. -1.
         11    1    3    3    0    0 -0.80362042490E+01 -0.47170071816E+01 -0.60969416595E+01  0.11135682886E+02  0.51100000000E-03 0. -1.
        -11    1    3    3    0    0  0.15508992402E+02  0.27558876476E+02 -0.24566420943E+02  0.40044095147E+02  0.51100000000E-03 0.  1.
         12    1    3    3    0    0 -0.33578702385E+01 -0.16313294931E+01  0.72133925509E+01  0.81221647698E+01  0.00000000000E+00 0. -1.
</event>
<event>
 7    1  0.3220798E-013  0.5930197E+02  0.7816164E-02  0.1266605E+00
        -11   -1    0    0    0    0  0.00000000000E+00  0.00000000000E+00  0.45593999997E+02  0.45594000000E+02  0.51100000000E-03 0. -1.
         11   -1    0    0    0    0 -0.00000000000E+00 -0.00000000000E+00 -0.45593999997E+02  0.45594000000E+02  0.51100000000E-03 0.  1.
    9900012    2    1    2    0    0  0.22827772685E+02 -0.14860472406E+02 -0.16576422609E+02  0.59301974340E+02  0.50000055282E+02 0.  0.
         12    1    1    2    0    0 -0.22827772685E+02  0.14860472406E+02  0.16576422609E+02  0.31886025660E+02  0.00000000000E+00 0. -1.
         11    1    3    3    0    0 -0.44009438367E+01  0.57527153907E+00 -0.16856722990E+02  0.17431246491E+02  0.51100000000E-03 0. -1.
        -11    1    3    3    0    0  0.19415499356E+02 -0.18893485141E+02 -0.96611205594E+01  0.28762173887E+02  0.51100000000E-03 0.  1.
         12    1    3    3    0    0  0.78132171658E+01  0.34577411953E+01  0.99414209408E+01  0.13108553962E+02  0.00000000000E+00 0. -1.
</event>
<event>
 7    1  0.3220798E-013  0.5930198E+02  0.7816164E-02  0.1266605E+00
        -11   -1    0    0    0    0  0.00000000000E+00  0.00000000000E+00  0.45593999997E+02  0.45594000000E+02  0.51100000000E-03 0. -1.
         11   -1    0    0    0    0 -0.00000000000E+00 -0.00000000000E+00 -0.45593999997E+02  0.45594000000E+02  0.51100000000E-03 0.  1.
    9900012    2    1    2    0    0 -0.17246676217E+02 -0.22798069636E+02 -0.14125101990E+02  0.59301979146E+02  0.50000064048E+02 0.  0.
         12    1    1    2    0    0  0.17246676217E+02  0.22798069636E+02  0.14125101990E+02  0.31886020854E+02  0.00000000000E+00 0. -1.
         11    1    3    3    0    0  0.14054737454E+01  0.74524173836E+01  0.71390435027E+00  0.76173184909E+01  0.51100000000E-03 0. -1.
        -11    1    3    3    0    0 -0.26548827367E+02 -0.16493796837E+02 -0.20735212577E+01  0.31323873632E+02  0.51100000000E-03 0.  1.
         12    1    3    3    0    0  0.78966774043E+01 -0.13756690182E+02 -0.12765485083E+02  0.20360787023E+02  0.00000000000E+00 0. -1.
</event>
<event>
 7    1  0.3220798E-013  0.5930197E+02  0.7816164E-02  0.1266605E+00
        -11   -1    0    0    0    0  0.00000000000E+00  0.00000000000E+00  0.45593999997E+02  0.45594000000E+02  0.51100000000E-03 0.  1.
         11   -1    0    0    0    0 -0.00000000000E+00 -0.00000000000E+00 -0.45593999997E+02  0.45594000000E+02  0.51100000000E-03 0. -1.
    9900012    2    1    2    0    0 -0.20576878720E+01  0.35092840010E+01  0.31625457056E+02  0.59301973475E+02  0.50000053704E+02 0.  0.
         12    1    1    2    0    0  0.20576878720E+01 -0.35092840010E+01 -0.31625457056E+02  0.31886026525E+02  0.00000000000E+00 0. -1.
         11    1    3    3    0    0 -0.11888798413E+02 -0.23240675574E+00  0.49170431077E+01  0.12867589276E+02  0.51100000000E-03 0. -1.
        -11    1    3    3    0    0 -0.54619498434E+01  0.16141037190E+02  0.65470973436E+01  0.18254601106E+02  0.51100000000E-03 0.  1.
        -12    1    3    3    0    0  0.15293060384E+02 -0.12399346433E+02  0.20161316605E+02  0.28179783092E+02  0.00000000000E+00 0.  1.
</event>
<event>
 7    1  0.3220798E-013  0.5930196E+02  0.7816164E-02  0.1266605E+00
        -11   -1    0    0    0    0  0.00000000000E+00  0.00000000000E+00  0.45593999997E+02  0.45594000000E+02  0.51100000000E-03 0.  1.
         11   -1    0    0    0    0 -0.00000000000E+00 -0.00000000000E+00 -0.45593999997E+02  0.45594000000E+02  0.51100000000E-03 0. -1.
    9900012    2    1    2    0    0  0.13790021282E+02  0.19615950956E+02  0.21018315823E+02  0.59301955734E+02  0.50000021350E+02 0.  0.
         12    1    1    2    0    0 -0.13790021282E+02 -0.19615950956E+02 -0.21018315823E+02  0.31886044266E+02  0.00000000000E+00 0. -1.
         11    1    3    3    0    0  0.12870555670E+02  0.41313494108E+01  0.47390541223E+01  0.14324031745E+02  0.51100000000E-03 0. -1.
        -11    1    3    3    0    0  0.10464293625E+02 -0.66439063440E+01 -0.44702413047E+01  0.13176721525E+02  0.51100000000E-03 0.  1.
        -12    1    3    3    0    0 -0.95448280123E+01  0.22128507889E+02  0.20749503005E+02  0.31801202464E+02  0.00000000000E+00 0.  1.
</event>
<event>
 7    1  0.3220798E-013  0.5930197E+02  0.7816164E-02  0.1266605E+00
        -11   -1    0    0    0    0  0.00000000000E+00  0.00000000000E+00  0.45593999997E+02  0.45594000000E+02  0.51100000000E-03 0.  1.
         11   -1    0    0    0    0 -0.00000000000E+00 -0.00000000000E+00 -0.45593999997E+02  0.45594000000E+02  0.51100000000E-03 0. -1.
    9900012    2    1    2    0    0 -0.18500975406E+02 -0.13557039073E+02  0.22150380913E+02  0.59301972120E+02  0.50000051233E+02 0.  0.
         12    1    1    2    0    0  0.18500975406E+02  0.13557039073E+02 -0.22150380913E+02  0.31886027880E+02  0.00000000000E+00 0. -1.
         11    1    3    3    0    0 -0.13324117434E+02 -0.11529770220E+02 -0.54434427914E+01  0.18441767172E+02  0.51100000000E-03 0. -1.
        -11    1    3    3    0    0 -0.30823369640E+01 -0.54010858865E+01 -0.50282987233E+01  0.79972694231E+01  0.51100000000E-03 0.  1.
        -12    1    3    3    0    0 -0.20945210078E+01  0.33738170334E+01  0.32622122428E+02  0.32862935525E+02  0.00000000000E+00 0.  1.
</event>
<event>
 7    1  0.3220798E-013  0.5930195E+02  0.7816164E-02  0.1266605E+00
        -11   -1    0    0    0    0  0.00000000000E+00  0.00000000000E+00  0.45593999997E+02  0.45594000000E+02  0.51100000000E-03 0.  1.
         11   -1    0    0    0    0 -0.00000000000E+00 -0.00000000000E+00 -0.45593999997E+02  0.45594000000E+02  0.51100000000E-03 0. -1.
    9900012    2    1    2    0    0 -0.26132689969E+02  0.11078092610E+02 -0.14528552341E+02  0.59301945775E+02  0.50000003187E+02 0.  0.
         12    1    1    2    0    0  0.26132689969E+02 -0.11078092610E+02  0.14528552341E+02  0.31886054225E+02  0.00000000000E+00 0. -1.
         11    1    3    3    0    0 -0.10851102958E+02 -0.18011728887E+02 -0.10382852477E+02  0.23451491183E+02  0.51100000000E-03 0.  1.
        -11    1    3    3    0    0  0.26263823378E+01  0.39635851086E+01 -0.50363976126E+00  0.47813747362E+01  0.51100000000E-03 0. -1.
        -12    1    3    3    0    0 -0.17907969349E+02  0.25126236389E+02 -0.36420601026E+01  0.31069079855E+02  0.00000000000E+00 0.  1.
</event>
<event>
 7    1  0.3220798E-013  0.5930196E+02  0.7816164E-02  0.1266605E+00
        -11   -1    0    0    0    0  0.00000000000E+00  0.00000000000E+00  0.45593999997E+02  0.45594000000E+02  0.51100000000E-03 0.  1.
         11   -1    0    0    0    0 -0.00000000000E+00 -0.00000000000E+00 -0.45593999997E+02  0.45594000000E+02  0.51100000000E-03 0. -1.
    9900012    2    1    2    0    0  0.55339836863E+01  0.47551433317E+00  0.31398545706E+02  0.59301956630E+02  0.50000022984E+02 0.  0.
         12    1    1    2    0    0 -0.55339836863E+01 -0.47551433317E+00 -0.31398545706E+02  0.31886043370E+02  0.00000000000E+00 0. -1.
         11    1    3    3    0    0  0.84479800678E+01  0.49033139616E+01  0.10446666784E+02  0.14301877575E+02  0.51100000000E-03 0. -1.
        -11    1    3    3    0    0  0.37198055387E+01  0.79093769901E+01  0.27990545959E+02  0.29323469457E+02  0.51100000000E-03 0.  1.
         12    1    3    3    0    0 -0.66338019203E+01 -0.12337176619E+02 -0.70386670367E+01  0.15676609598E+02  0.00000000000E+00 0. -1.
</event>
<event>
 7    1  0.3220798E-013  0.5930193E+02  0.7816164E-02  0.1266605E+00
        -11   -1    0    0    0    0  0.00000000000E+00  0.00000000000E+00  0.45593999997E+02  0.45594000000E+02  0.51100000000E-03 0.  1.
         11   -1    0    0    0    0 -0.00000000000E+00 -0.00000000000E+00 -0.45593999997E+02  0.45594000000E+02  0.51100000000E-03 0. -1.
    9900012    2    1    2    0    0 -0.12289541727E+02 -0.26110054078E+02  0.13562947805E+02  0.59301932306E+02  0.49999978623E+02 0.  0.
         12    1    1    2    0    0  0.12289541727E+02  0.26110054078E+02 -0.13562947805E+02  0.31886067694E+02  0.00000000000E+00 0. -1.
         11    1    3    3    0    0 -0.11333273470E+02 -0.73595418794E+01 -0.77911339212E+01  0.15598324021E+02  0.51100000000E-03 0. -1.
        -11    1    3    3    0    0 -0.62386932969E+00 -0.14412289364E+02 -0.62768574637E+01  0.15732203836E+02  0.51100000000E-03 0.  1.
        -12    1    3    3    0    0 -0.33239892731E+00 -0.43382228352E+01  0.27630939189E+02  0.27971404450E+02  0.00000000000E+00 0.  1.
</event>
<event>
 7    1  0.3220798E-013  0.5930195E+02  0.7816164E-02  0.1266605E+00
        -11   -1    0    0    0    0  0.00000000000E+00  0.00000000000E+00  0.45593999997E+02  0.45594000000E+02  0.51100000000E-03 0.  1.
         11   -1    0    0    0    0 -0.00000000000E+00 -0.00000000000E+00 -0.45593999997E+02  0.45594000000E+02  0.51100000000E-03 0. -1.
    9900012    2    1    2    0    0  0.12911356128E+02  0.56525361380E+01  0.28601852040E+02  0.59301949414E+02  0.50000009824E+02 0.  0.
         12    1    1    2    0    0 -0.12911356128E+02 -0.56525361380E+01 -0.28601852040E+02  0.31886050586E+02  0.00000000000E+00 0. -1.
         11    1    3    3    0    0 -0.93086035386E+01  0.14960632517E+02  0.13278069276E+02  0.22063040341E+02  0.51100000000E-03 0. -1.
        -11    1    3    3    0    0 -0.25334479906E+01 -0.85325339531E+01  0.61953313971E+01  0.10844566647E+02  0.51100000000E-03 0.  1.
         12    1    3    3    0    0  0.24753407658E+02 -0.77556242560E+00  0.91284513663E+01  0.26394342426E+02  0.00000000000E+00 0. -1.
</event>
<event>
 7    1  0.3220798E-013  0.5930195E+02  0.7816164E-02  0.1266605E+00
        -11   -1    0    0    0    0  0.00000000000E+00  0.00000000000E+00  0.45593999997E+02  0.45594000000E+02  0.51100000000E-03 0. -1.
         11   -1    0    0    0    0 -0.00000000000E+00 -0.00000000000E+00 -0.45593999997E+02  0.45594000000E+02  0.51100000000E-03 0.  1.
    9900012    2    1    2    0    0 -0.22607093839E+02  0.12657973203E+02  0.18585357365E+02  0.59301945276E+02  0.50000002277E+02 0.  0.
         12    1    1    2    0    0  0.22607093839E+02 -0.12657973203E+02 -0.18585357365E+02  0.31886054724E+02  0.00000000000E+00 0. -1.
         11    1    3    3    0    0 -0.83938128038E+01  0.69833001708E+01  0.19296604260E+00  0.10920614031E+02  0.51100000000E-03 0. -1.
        -11    1    3    3    0    0 -0.28407410204E+02 -0.22222016191E+01  0.12248442973E+02  0.31015213848E+02  0.51100000000E-03 0.  1.
         12    1    3    3    0    0  0.14194129169E+02  0.78968746509E+01  0.61439483500E+01  0.17366117397E+02  0.00000000000E+00 0. -1.
</event>
<event>
 7    1  0.3220798E-013  0.5930199E+02  0.7816164E-02  0.1266605E+00
        -11   -1    0    0    0    0  0.00000000000E+00  0.00000000000E+00  0.45593999997E+02  0.45594000000E+02  0.51100000000E-03 0.  1.
         11   -1    0    0    0    0 -0.00000000000E+00 -0.00000000000E+00 -0.45593999997E+02  0.45594000000E+02  0.51100000000E-03 0. -1.
    9900012    2    1    2    0    0  0.24924106887E+02 -0.16702850867E+02  0.10794513659E+02  0.59301986509E+02  0.50000077476E+02 0.  0.
         12    1    1    2    0    0 -0.24924106887E+02  0.16702850867E+02 -0.10794513659E+02  0.31886013491E+02  0.00000000000E+00 0. -1.
         11    1    3    3    0    0  0.74213236556E+01  0.12447453342E+02 -0.48007662934E+01  0.15266384535E+02  0.51100000000E-03 0. -1.
        -11    1    3    3    0    0  0.58811228550E+01 -0.47595801571E+01  0.15240721797E+02  0.17015311060E+02  0.51100000000E-03 0.  1.
        -12    1    3    3    0    0  0.11621660376E+02 -0.24390724051E+02  0.35455815528E+00  0.27020290915E+02  0.00000000000E+00 0.  1.
</event>
<event>
 7    1  0.3220798E-013  0.5930194E+02  0.7816164E-02  0.1266605E+00
        -11   -1    0    0    0    0  0.00000000000E+00  0.00000000000E+00  0.45593999997E+02  0.45594000000E+02  0.51100000000E-03 0.  1.
         11   -1    0    0    0    0 -0.00000000000E+00 -0.00000000000E+00 -0.45593999997E+02  0.45594000000E+02  0.51100000000E-03 0. -1.
    9900012    2    1    2    0    0 -0.16954512399E+01 -0.10191469137E+02  0.30165882336E+02  0.59301936348E+02  0.49999985995E+02 0.  0.
         12    1    1    2    0    0  0.16954512399E+01  0.10191469137E+02 -0.30165882336E+02  0.31886063652E+02  0.00000000000E+00 0. -1.
         11    1    3    3    0    0  0.14679442877E+02 -0.48926287326E+01  0.16006394817E+01  0.15555896185E+02  0.51100000000E-03 0. -1.
        -11    1    3    3    0    0 -0.46994019533E+01 -0.10308734941E+02  0.28895122117E+02  0.31036792315E+02  0.51100000000E-03 0.  1.
         12    1    3    3    0    0 -0.11675492164E+02  0.50098945365E+01 -0.32987926289E+00  0.12709247848E+02  0.00000000000E+00 0. -1.
</event>
<event>
 7    1  0.3220798E-013  0.5930195E+02  0.7816164E-02  0.1266605E+00
        -11   -1    0    0    0    0  0.00000000000E+00  0.00000000000E+00  0.45593999997E+02  0.45594000000E+02  0.51100000000E-03 0. -1.
         11   -1    0    0    0    0 -0.00000000000E+00 -0.00000000000E+00 -0.45593999997E+02  0.45594000000E+02  0.51100000000E-03 0.  1.
    9900012    2    1    2    0    0  0.48828999791E+01 -0.20187490487E+02 -0.24193854036E+02  0.59301951993E+02  0.50000014527E+02 0.  0.
         12    1    1    2    0    0 -0.48828999791E+01  0.20187490487E+02  0.24193854036E+02  0.31886048007E+02  0.00000000000E+00 0. -1.
         11    1    3    3    0    0 -0.11417508770E+02  0.12912562830E+01  0.54241203217E+01  0.12706216228E+02  0.51100000000E-03 0. -1.
        -11    1    3    3    0    0  0.55092693134E+01 -0.11356433613E+02  0.92677602614E+00  0.12656205863E+02  0.51100000000E-03 0.  1.
        -12    1    3    3    0    0  0.10791139436E+02 -0.10122313157E+02 -0.30544750384E+02  0.33939529902E+02  0.00000000000E+00 0.  1.
</event>
<event>
 7    1  0.3220798E-013  0.5930189E+02  0.7816164E-02  0.1266605E+00
        -11   -1    0    0    0    0  0.00000000000E+00  0.00000000000E+00  0.45593999997E+02  0.45594000000E+02  0.51100000000E-03 0. -1.
         11   -1    0    0    0    0 -0.00000000000E+00 -0.00000000000E+00 -0.45593999997E+02  0.45594000000E+02  0.51100000000E-03 0.  1.
    9900012    2    1    2    0    0  0.27505352091E+02 -0.78918966517E+01 -0.14067604392E+02  0.59301891430E+02  0.49999904074E+02 0.  0.
         12    1    1    2    0    0 -0.27505352091E+02  0.78918966517E+01  0.14067604392E+02  0.31886108570E+02  0.00000000000E+00 0. -1.
         11    1    3    3    0    0 -0.58671055941E+00 -0.91277067042E+01  0.95393597034E+01  0.13215848167E+02  0.51100000000E-03 0. -1.
        -11    1    3    3    0    0  0.69340813666E+01  0.13084520771E+02 -0.12649628092E+02  0.19475606777E+02  0.51100000000E-03 0.  1.
        -12    1    3    3    0    0  0.21157981284E+02 -0.11848710718E+02 -0.10957336004E+02  0.26610436486E+02  0.00000000000E+00 0.  1.
</event>
<event>
 7    1  0.3220798E-013  0.5930181E+02  0.7816164E-02  0.1266605E+00
        -11   -1    0    0    0    0  0.00000000000E+00  0.00000000000E+00  0.45593999997E+02  0.45594000000E+02  0.51100000000E-03 0.  1.
         11   -1    0    0    0    0 -0.00000000000E+00 -0.00000000000E+00 -0.45593999997E+02  0.45594000000E+02  0.51100000000E-03 0. -1.
    9900012    2    1    2    0    0  0.14838670289E+02 -0.27880463311E+02  0.43843582452E+01  0.59301812276E+02  0.49999759715E+02 0.  0.
         12    1    1    2    0    0 -0.14838670289E+02  0.27880463311E+02 -0.43843582452E+01  0.31886187724E+02  0.00000000000E+00 0. -1.
         11    1    3    3    0    0  0.39977461836E+01 -0.82060964057E+01 -0.77390932275E+01  0.11967270241E+02  0.51100000000E-03 0. -1.
        -11    1    3    3    0    0  0.16715418115E+02  0.70600462495E+01  0.72080200056E+01  0.19524472040E+02  0.51100000000E-03 0.  1.
         12    1    3    3    0    0 -0.58744940096E+01 -0.26734413155E+02  0.49154314671E+01  0.27810069995E+02  0.00000000000E+00 0. -1.
</event>
<event>
 7    1  0.3220798E-013  0.5930195E+02  0.7816164E-02  0.1266605E+00
        -11   -1    0    0    0    0  0.00000000000E+00  0.00000000000E+00  0.45593999997E+02  0.45594000000E+02  0.51100000000E-03 0. -1.
         11   -1    0    0    0    0 -0.00000000000E+00 -0.00000000000E+00 -0.45593999997E+02  0.45594000000E+02  0.51100000000E-03 0.  1.
    9900012    2    1    2    0    0 -0.16562001284E+01 -0.28516725959E+02 -0.14169459877E+02  0.59301948951E+02  0.50000008978E+02 0.  0.
         12    1    1    2    0    0  0.16562001284E+01  0.28516725959E+02  0.14169459877E+02  0.31886051049E+02  0.00000000000E+00 0. -1.
         11    1    3    3    0    0 -0.12618670965E+01 -0.82238798528E+00  0.13777521728E+02  0.13859608068E+02  0.51100000000E-03 0. -1.
        -11    1    3    3    0    0  0.21952841726E+01  0.18196086255E+01 -0.10887213713E+02  0.11254406729E+02  0.51100000000E-03 0.  1.
        -12    1    3    3    0    0 -0.25896172045E+01 -0.29513946600E+02 -0.17059767893E+02  0.34187934154E+02  0.00000000000E+00 0.  1.
</event>
<event>
 7    1  0.3220798E-013  0.5930195E+02  0.7816164E-02  0.1266605E+00
        -11   -1    0    0    0    0  0.00000000000E+00  0.00000000000E+00  0.45593999997E+02  0.45594000000E+02  0.51100000000E-03 0.  1.
         11   -1    0    0    0    0 -0.00000000000E+00 -0.00000000000E+00 -0.45593999997E+02  0.45594000000E+02  0.51100000000E-03 0. -1.
    9900012    2    1    2    0    0 -0.29999683189E+02  0.60904913412E+01 -0.89244268953E+01  0.59301945499E+02  0.50000002683E+02 0.  0.
         12    1    1    2    0    0  0.29999683189E+02 -0.60904913412E+01  0.89244268953E+01  0.31886054501E+02  0.00000000000E+00 0. -1.
         11    1    3    3    0    0 -0.93274428741E+01 -0.26591015409E+01 -0.12439528428E+02  0.15773835277E+02  0.51100000000E-03 0. -1.
        -11    1    3    3    0    0 -0.16774204747E+02 -0.11466850846E+02 -0.55027972173E+01  0.21050971254E+02  0.51100000000E-03 0.  1.
        -12    1    3    3    0    0 -0.38980355680E+01  0.20216443728E+02  0.90178987504E+01  0.22477138968E+02  0.00000000000E+00 0.  1.
</event>
<event>
 7    1  0.3220798E-013  0.5930195E+02  0.7816164E-02  0.1266605E+00
        -11   -1    0    0    0    0  0.00000000000E+00  0.00000000000E+00  0.45593999997E+02  0.45594000000E+02  0.51100000000E-03 0. -1.
         11   -1    0    0    0    0 -0.00000000000E+00 -0.00000000000E+00 -0.45593999997E+02  0.45594000000E+02  0.51100000000E-03 0.  1.
    9900012    2    1    2    0    0  0.34279960254E+00 -0.28470723807E+02 -0.14353412662E+02  0.59301951630E+02  0.50000013864E+02 0.  0.
         12    1    1    2    0    0 -0.34279960254E+00  0.28470723807E+02  0.14353412662E+02  0.31886048370E+02  0.00000000000E+00 0. -1.
         11    1    3    3    0    0 -0.47451760883E+01  0.80966045979E+01  0.79277804904E+01  0.12285007362E+02  0.51100000000E-03 0. -1.
        -11    1    3    3    0    0  0.67837041196E+01 -0.13121224424E+02 -0.21079030622E+00  0.14772596413E+02  0.51100000000E-03 0.  1.
        -12    1    3    3    0    0 -0.16957284287E+01 -0.23446103981E+02 -0.22070402846E+02  0.32244347854E+02  0.00000000000E+00 0.  1.
</event>
<event>
 7    1  0.3220798E-013  0.5930196E+02  0.7816164E-02  0.1266605E+00
        -11   -1    0    0    0    0  0.00000000000E+00  0.00000000000E+00  0.45593999997E+02  0.45594000000E+02  0.51100000000E-03 0. -1.
         11   -1    0    0    0    0 -0.00000000000E+00 -0.00000000000E+00 -0.45593999997E+02  0.45594000000E+02  0.51100000000E-03 0.  1.
    9900012    2    1    2    0    0  0.99061335075E+01 -0.26834237551E+02 -0.14089412837E+02  0.59301963243E+02  0.50000035044E+02 0.  0.
         12    1    1    2    0    0 -0.99061335075E+01  0.26834237551E+02  0.14089412837E+02  0.31886036757E+02  0.00000000000E+00 0. -1.
         11    1    3    3    0    0  0.30088309820E+01 -0.16496812225E+02 -0.36350531952E+01  0.17158423280E+02  0.51100000000E-03 0. -1.
        -11    1    3    3    0    0 -0.25921812825E+00 -0.20230342399E+02  0.64996362705E+01  0.21250393397E+02  0.51100000000E-03 0.  1.
         12    1    3    3    0    0  0.71565206538E+01  0.98929170722E+01 -0.16953995912E+02  0.20893146567E+02  0.00000000000E+00 0. -1.
</event>
<event>
 7    1  0.3220798E-013  0.5930193E+02  0.7816164E-02  0.1266605E+00
        -11   -1    0    0    0    0  0.00000000000E+00  0.00000000000E+00  0.45593999997E+02  0.45594000000E+02  0.51100000000E-03 0. -1.
         11   -1    0    0    0    0 -0.00000000000E+00 -0.00000000000E+00 -0.45593999997E+02  0.45594000000E+02  0.51100000000E-03 0.  1.
    9900012    2    1    2    0    0  0.25982054304E+02 -0.13807926138E+02  0.12288027062E+02  0.59301928132E+02  0.49999971010E+02 0.  0.
         12    1    1    2    0    0 -0.25982054304E+02  0.13807926138E+02 -0.12288027062E+02  0.31886071868E+02  0.00000000000E+00 0. -1.
         11    1    3    3    0    0  0.52878819986E+00  0.94787368309E+01  0.81519146444E+01  0.12513184307E+02  0.51100000000E-03 0. -1.
        -11    1    3    3    0    0  0.22233008650E+02 -0.16172270391E+01  0.95041303889E+01  0.24233253839E+02  0.51100000000E-03 0.  1.
        -12    1    3    3    0    0  0.32202574543E+01 -0.21669435929E+02 -0.53680179713E+01  0.22555489986E+02  0.00000000000E+00 0.  1.
</event>
<event>
 7    1  0.3220798E-013  0.5930212E+02  0.7816164E-02  0.1266604E+00
        -11   -1    0    0    0    0  0.00000000000E+00  0.00000000000E+00  0.45593999997E+02  0.45594000000E+02  0.51100000000E-03 0. -1.
         11   -1    0    0    0    0 -0.00000000000E+00 -0.00000000000E+00 -0.45593999997E+02  0.45594000000E+02  0.51100000000E-03 0.  1.
    9900012    2    1    2    0    0 -0.27339109357E+02 -0.60416254855E+01 -0.15257174186E+02  0.59302117495E+02  0.50000316362E+02 0.  0.
         12    1    1    2    0    0  0.27339109357E+02  0.60416254855E+01  0.15257174186E+02  0.31885882505E+02  0.00000000000E+00 0. -1.
         11    1    3    3    0    0  0.75326981535E+01  0.25882169551E+01  0.23413529378E+01  0.83019481039E+01  0.51100000000E-03 0. -1.
        -11    1    3    3    0    0 -0.97263633752E+01 -0.10226227373E+02 -0.21282001716E+02  0.25536277491E+02  0.51100000000E-03 0.  1.
         12    1    3    3    0    0 -0.25145444136E+02  0.15963849321E+01  0.36834745920E+01  0.25463891900E+02  0.00000000000E+00 0. -1.
</event>
<event>
 7    1  0.3220798E-013  0.5930193E+02  0.7816164E-02  0.1266605E+00
        -11   -1    0    0    0    0  0.00000000000E+00  0.00000000000E+00  0.45593999997E+02  0.45594000000E+02  0.51100000000E-03 0. -1.
         11   -1    0    0    0    0 -0.00000000000E+00 -0.00000000000E+00 -0.45593999997E+02  0.45594000000E+02  0.51100000000E-03 0.  1.
    9900012    2    1    2    0    0  0.10684628552E+02 -0.21147215648E+02 -0.21339053864E+02  0.59301933501E+02  0.49999980801E+02 0.  0.
         12    1    1    2    0    0 -0.10684628552E+02  0.21147215648E+02  0.21339053864E+02  0.31886066499E+02  0.00000000000E+00 0. -1.
         11    1    3    3    0    0  0.13272510487E+02 -0.11121107881E+02  0.60958041681E+01  0.18357489040E+02  0.51100000000E-03 0. -1.
        -11    1    3    3    0    0  0.12751962357E+02 -0.31978292988E+01 -0.15604540129E+02  0.20404419352E+02  0.51100000000E-03 0.  1.
        -12    1    3    3    0    0 -0.15339844293E+02 -0.68282784683E+01 -0.11830317904E+02  0.20540025109E+02  0.00000000000E+00 0.  1.
</event>
<event>
 7    1  0.3220798E-013  0.5930194E+02  0.7816164E-02  0.1266605E+00
        -11   -1    0    0    0    0  0.00000000000E+00  0.00000000000E+00  0.45593999997E+02  0.45594000000E+02  0.51100000000E-03 0. -1.
         11   -1    0    0    0    0 -0.00000000000E+00 -0.00000000000E+00 -0.45593999997E+02  0.45594000000E+02  0.51100000000E-03 0.  1.
    9900012    2    1    2    0    0  0.21466527915E+02 -0.23520364289E+01 -0.23460111473E+02  0.59301941504E+02  0.49999995397E+02 0.  0.
         12    1    1    2    0    0 -0.21466527915E+02  0.23520364289E+01  0.23460111473E+02  0.31886058496E+02  0.00000000000E+00 0. -1.
         11    1    3    3    0    0 -0.84796684049E+00  0.10162594475E+00  0.23722968331E+01  0.25213425235E+01  0.51100000000E-03 0. -1.
        -11    1    3    3    0    0 -0.70081890479E+01  0.14882731379E+02 -0.95997031864E+01  0.19046383084E+02  0.51100000000E-03 0.  1.
         12    1    3    3    0    0  0.29322683804E+02 -0.17336393753E+02 -0.16232705120E+02  0.37734215897E+02  0.00000000000E+00 0. -1.
</event>
<event>
 7    1  0.3220798E-013  0.5930193E+02  0.7816164E-02  0.1266605E+00
        -11   -1    0    0    0    0  0.00000000000E+00  0.00000000000E+00  0.45593999997E+02  0.45594000000E+02  0.51100000000E-03 0.  1.
         11   -1    0    0    0    0 -0.00000000000E+00 -0.00000000000E+00 -0.45593999997E+02  0.45594000000E+02  0.51100000000E-03 0. -1.
    9900012    2    1    2    0    0  0.20743432003E+02 -0.15498830606E+01  0.24166696566E+02  0.59301932013E+02  0.49999978088E+02 0.  0.
         12    1    1    2    0    0 -0.20743432003E+02  0.15498830606E+01 -0.24166696566E+02  0.31886067987E+02  0.00000000000E+00 0. -1.
         11    1    3    3    0    0  0.68225899684E+01  0.13200133093E+02  0.67032087320E+01  0.16301050737E+02  0.51100000000E-03 0. -1.
        -11    1    3    3    0    0  0.12949127077E+02  0.60902261500E+01  0.16880757799E+02  0.22129860613E+02  0.51100000000E-03 0.  1.
         12    1    3    3    0    0  0.97171495740E+00 -0.20840242304E+02  0.58273003503E+00  0.20871020663E+02  0.00000000000E+00 0. -1.
</event>
<event>
 7    1  0.3220798E-013  0.5930200E+02  0.7816164E-02  0.1266605E+00
        -11   -1    0    0    0    0  0.00000000000E+00  0.00000000000E+00  0.45593999997E+02  0.45594000000E+02  0.51100000000E-03 0.  1.
         11   -1    0    0    0    0 -0.00000000000E+00 -0.00000000000E+00 -0.45593999997E+02  0.45594000000E+02  0.51100000000E-03 0. -1.
    9900012    2    1    2    0    0  0.64728645080E+01  0.28244255346E+02  0.13307191445E+02  0.59301995560E+02  0.50000093983E+02 0.  0.
         12    1    1    2    0    0 -0.64728645080E+01 -0.28244255346E+02 -0.13307191445E+02  0.31886004440E+02  0.00000000000E+00 0. -1.
         11    1    3    3    0    0  0.31866391938E+01  0.49586172323E+01  0.19288542183E+01  0.62018572270E+01  0.51100000000E-03 0. -1.
        -11    1    3    3    0    0  0.24270160940E+02  0.69592375423E+01  0.46193473754E+01  0.25667295722E+02  0.51100000000E-03 0.  1.
         12    1    3    3    0    0 -0.20983935626E+02  0.16326400571E+02  0.67589898508E+01  0.27432842612E+02  0.00000000000E+00 0. -1.
</event>
<event>
 7    1  0.3220798E-013  0.5930194E+02  0.7816164E-02  0.1266605E+00
        -11   -1    0    0    0    0  0.00000000000E+00  0.00000000000E+00  0.45593999997E+02  0.45594000000E+02  0.51100000000E-03 0.  1.
         11   -1    0    0    0    0 -0.00000000000E+00 -0.00000000000E+00 -0.45593999997E+02  0.45594000000E+02  0.51100000000E-03 0. -1.
    9900012    2    1    2    0    0 -0.27874905229E+02 -0.14563313991E+02  0.52555234658E+01  0.59301937483E+02  0.49999988064E+02 0.  0.
         12    1    1    2    0    0  0.27874905229E+02  0.14563313991E+02 -0.52555234658E+01  0.31886062517E+02  0.00000000000E+00 0. -1.
         11    1    3    3    0    0 -0.74925092814E+00  0.61729365161E+01  0.17762731146E+01  0.64669674983E+01  0.51100000000E-03 0. -1.
        -11    1    3    3    0    0 -0.35940011495E+01 -0.67022516547E+01  0.19615125537E+02  0.21037827160E+02  0.51100000000E-03 0.  1.
         12    1    3    3    0    0 -0.23531653151E+02 -0.14033998853E+02 -0.16135875186E+02  0.31797142825E+02  0.00000000000E+00 0. -1.
</event>
<event>
 7    1  0.3220798E-013  0.5930189E+02  0.7816164E-02  0.1266605E+00
        -11   -1    0    0    0    0  0.00000000000E+00  0.00000000000E+00  0.45593999997E+02  0.45594000000E+02  0.51100000000E-03 0. -1.
         11   -1    0    0    0    0 -0.00000000000E+00 -0.00000000000E+00 -0.45593999997E+02  0.45594000000E+02  0.51100000000E-03 0.  1.
    9900012    2    1    2    0    0 -0.11229782914E+02 -0.13369439825E+02 -0.26680966390E+02  0.59301891535E+02  0.49999904266E+02 0.  0.
         12    1    1    2    0    0  0.11229782914E+02  0.13369439825E+02  0.26680966390E+02  0.31886108465E+02  0.00000000000E+00 0. -1.
         11    1    3    3    0    0  0.69764436919E+01  0.66162592897E+01 -0.17999351051E+02  0.20406427715E+02  0.51100000000E-03 0. -1.
        -11    1    3    3    0    0 -0.53170285396E+00 -0.10387812152E+02  0.77117613383E+01  0.12948382618E+02  0.51100000000E-03 0.  1.
        -12    1    3    3    0    0 -0.17674523752E+02 -0.95978869626E+01 -0.16393376678E+02  0.25947081202E+02  0.00000000000E+00 0.  1.
</event>
<event>
 7    1  0.3220798E-013  0.5930194E+02  0.7816164E-02  0.1266605E+00
        -11   -1    0    0    0    0  0.00000000000E+00  0.00000000000E+00  0.45593999997E+02  0.45594000000E+02  0.51100000000E-03 0.  1.
         11   -1    0    0    0    0 -0.00000000000E+00 -0.00000000000E+00 -0.45593999997E+02  0.45594000000E+02  0.51100000000E-03 0. -1.
    9900012    2    1    2    0    0 -0.25970232646E+02  0.18500309252E+02  0.79948656297E-01  0.59301940069E+02  0.49999992781E+02 0.  0.
         12    1    1    2    0    0  0.25970232646E+02 -0.18500309252E+02 -0.79948656297E-01  0.31886059931E+02  0.00000000000E+00 0. -1.
         11    1    3    3    0    0 -0.22605525031E+02  0.85141476603E+01  0.13216400299E+02  0.27534954320E+02  0.51100000000E-03 0.  1.
        -11    1    3    3    0    0 -0.14680996072E+02  0.37017269209E+01 -0.10839242548E+02  0.18620515759E+02  0.51100000000E-03 0. -1.
        -12    1    3    3    0    0  0.11316288457E+02  0.62844346710E+01 -0.22972090946E+01  0.13146469990E+02  0.00000000000E+00 0.  1.
</event>
<event>
 7    1  0.3220798E-013  0.5930189E+02  0.7816164E-02  0.1266605E+00
        -11   -1    0    0    0    0  0.00000000000E+00  0.00000000000E+00  0.45593999997E+02  0.45594000000E+02  0.51100000000E-03 0.  1.
         11   -1    0    0    0    0 -0.00000000000E+00 -0.00000000000E+00 -0.45593999997E+02  0.45594000000E+02  0.51100000000E-03 0. -1.
    9900012    2    1    2    0    0 -0.17304650337E+02  0.43680665120E+01 -0.26423348132E+02  0.59301886176E+02  0.49999894491E+02 0.  0.
         12    1    1    2    0    0  0.17304650337E+02 -0.43680665120E+01  0.26423348132E+02  0.31886113824E+02  0.00000000000E+00 0. -1.
         11    1    3    3    0    0  0.28566563541E+00  0.19736147123E+02 -0.27877747159E+02  0.34157955077E+02  0.51100000000E-03 0. -1.
        -11    1    3    3    0    0 -0.21661172408E+01 -0.43141989949E+01  0.36348947804E+01  0.60429162822E+01  0.51100000000E-03 0.  1.
        -12    1    3    3    0    0 -0.15424198732E+02 -0.11053881616E+02 -0.21804957531E+01  0.19101014817E+02  0.00000000000E+00 0.  1.
</event>
<event>
 7    1  0.3220798E-013  0.5930193E+02  0.7816164E-02  0.1266605E+00
        -11   -1    0    0    0    0  0.00000000000E+00  0.00000000000E+00  0.45593999997E+02  0.45594000000E+02  0.51100000000E-03 0.  1.
         11   -1    0    0    0    0 -0.00000000000E+00 -0.00000000000E+00 -0.45593999997E+02  0.45594000000E+02  0.51100000000E-03 0. -1.
    9900012    2    1    2    0    0 -0.23313815204E+00  0.86466621082E+01  0.30690429150E+02  0.59301928426E+02  0.49999971547E+02 0.  0.
         12    1    1    2    0    0  0.23313815204E+00 -0.86466621082E+01 -0.30690429150E+02  0.31886071574E+02  0.00000000000E+00 0. -1.
         11    1    3    3    0    0  0.24397053353E+01  0.43948530443E+01  0.27758047067E+01  0.57421239480E+01  0.51100000000E-03 0. -1.
        -11    1    3    3    0    0 -0.11782025003E+02  0.14215638574E+02  0.34047759925E+02  0.38731775707E+02  0.51100000000E-03 0.  1.
        -12    1    3    3    0    0  0.91091815156E+01 -0.99638295100E+01 -0.61331354823E+01  0.14828028771E+02  0.00000000000E+00 0.  1.
</event>
<event>
 7    1  0.3220798E-013  0.5930195E+02  0.7816164E-02  0.1266605E+00
        -11   -1    0    0    0    0  0.00000000000E+00  0.00000000000E+00  0.45593999997E+02  0.45594000000E+02  0.51100000000E-03 0.  1.
         11   -1    0    0    0    0 -0.00000000000E+00 -0.00000000000E+00 -0.45593999997E+02  0.45594000000E+02  0.51100000000E-03 0. -1.
    9900012    2    1    2    0    0  0.22245396091E+02  0.22711386367E+02 -0.24607770400E+01  0.59301950674E+02  0.50000012122E+02 0.  0.
         12    1    1    2    0    0 -0.22245396091E+02 -0.22711386367E+02  0.24607770400E+01  0.31886049326E+02  0.00000000000E+00 0. -1.
         11    1    3    3    0    0  0.61435944404E+01 -0.11217301132E+02 -0.18567773613E+01  0.12923591597E+02  0.51100000000E-03 0. -1.
        -11    1    3    3    0    0  0.18297758380E+02  0.80979544384E+01 -0.34278430623E+01  0.20301106771E+02  0.51100000000E-03 0.  1.
         12    1    3    3    0    0 -0.21959567292E+01  0.25830733061E+02  0.28238433836E+01  0.26077252307E+02  0.00000000000E+00 0. -1.
</event>
<event>
 7    1  0.3220798E-013  0.5930195E+02  0.7816164E-02  0.1266605E+00
        -11   -1    0    0    0    0  0.00000000000E+00  0.00000000000E+00  0.45593999997E+02  0.45594000000E+02  0.51100000000E-03 0. -1.
         11   -1    0    0    0    0 -0.00000000000E+00 -0.00000000000E+00 -0.45593999997E+02  0.45594000000E+02  0.51100000000E-03 0.  1.
    9900012    2    1    2    0    0  0.13511266444E+02 -0.27095258655E+02 -0.10000625198E+02  0.59301954983E+02  0.50000019980E+02 0.  0.
         12    1    1    2    0    0 -0.13511266444E+02  0.27095258655E+02  0.10000625198E+02  0.31886045017E+02  0.00000000000E+00 0. -1.
         11    1    3    3    0    0 -0.53388630138E+00 -0.16322151402E+02 -0.23024563962E+02  0.28228145651E+02  0.51100000000E-03 0. -1.
        -11    1    3    3    0    0  0.46896317838E+01  0.35712527412E+01 -0.38430430659E+01  0.70367231490E+01  0.51100000000E-03 0.  1.
         12    1    3    3    0    0  0.93555209615E+01 -0.14344359994E+02  0.16866981831E+02  0.24037086183E+02  0.00000000000E+00 0. -1.
</event>
<event>
 7    1  0.3220798E-013  0.5930196E+02  0.7816164E-02  0.1266605E+00
        -11   -1    0    0    0    0  0.00000000000E+00  0.00000000000E+00  0.45593999997E+02  0.45594000000E+02  0.51100000000E-03 0. -1.
         11   -1    0    0    0    0 -0.00000000000E+00 -0.00000000000E+00 -0.45593999997E+02  0.45594000000E+02  0.51100000000E-03 0.  1.
    9900012    2    1    2    0    0 -0.10298020720E+02 -0.29724632239E+02 -0.52073751251E+01  0.59301956843E+02  0.50000023373E+02 0.  0.
         12    1    1    2    0    0  0.10298020720E+02  0.29724632239E+02  0.52073751251E+01  0.31886043157E+02  0.00000000000E+00 0. -1.
         11    1    3    3    0    0  0.64026242556E+00  0.82304356380E+01 -0.10879638065E+02  0.13657105530E+02  0.51100000000E-03 0. -1.
        -11    1    3    3    0    0 -0.28316503395E+01 -0.26261496523E+01 -0.63703964024E+01  0.74496212136E+01  0.51100000000E-03 0.  1.
        -12    1    3    3    0    0 -0.81066328058E+01 -0.35328918225E+02  0.12042659342E+02  0.38195230100E+02  0.00000000000E+00 0.  1.
</event>
<event>
 7    1  0.3220798E-013  0.5930193E+02  0.7816164E-02  0.1266605E+00
        -11   -1    0    0    0    0  0.00000000000E+00  0.00000000000E+00  0.45593999997E+02  0.45594000000E+02  0.51100000000E-03 0.  1.
         11   -1    0    0    0    0 -0.00000000000E+00 -0.00000000000E+00 -0.45593999997E+02  0.45594000000E+02  0.51100000000E-03 0. -1.
    9900012    2    1    2    0    0  0.82968835152E+01  0.19227556923E+02  0.24045457000E+02  0.59301933708E+02  0.49999981179E+02 0.  0.
         12    1    1    2    0    0 -0.82968835152E+01 -0.19227556923E+02 -0.24045457000E+02  0.31886066292E+02  0.00000000000E+00 0. -1.
         11    1    3    3    0    0  0.15484652311E+01  0.18499650691E+01 -0.11497435275E+02  0.11747813988E+02  0.51100000000E-03 0. -1.
        -11    1    3    3    0    0  0.80061808468E+01 -0.38046474083E+01  0.44710983753E+01  0.99279904611E+01  0.51100000000E-03 0.  1.
        -12    1    3    3    0    0 -0.12577625627E+01  0.21182239262E+02  0.31071793900E+02  0.37626129258E+02  0.00000000000E+00 0.  1.
</event>
<event>
 7    1  0.3220798E-013  0.5930194E+02  0.7816164E-02  0.1266605E+00
        -11   -1    0    0    0    0  0.00000000000E+00  0.00000000000E+00  0.45593999997E+02  0.45594000000E+02  0.51100000000E-03 0. -1.
         11   -1    0    0    0    0 -0.00000000000E+00 -0.00000000000E+00 -0.45593999997E+02  0.45594000000E+02  0.51100000000E-03 0.  1.
    9900012    2    1    2    0    0  0.92752485972E+01 -0.21791550313E+02 -0.21349911700E+02  0.59301942997E+02  0.49999998120E+02 0.  0.
         12    1    1    2    0    0 -0.92752485972E+01  0.21791550313E+02  0.21349911700E+02  0.31886057003E+02  0.00000000000E+00 0. -1.
         11    1    3    3    0    0  0.17388165413E+00  0.15450200775E+02 -0.76749857568E+01  0.17252372168E+02  0.51100000000E-03 0. -1.
        -11    1    3    3    0    0  0.28812930338E+01 -0.16161611260E+02 -0.11328985222E+02  0.19946063132E+02  0.51100000000E-03 0.  1.
        -12    1    3    3    0    0  0.62200739092E+01 -0.21080139828E+02 -0.23459407216E+01  0.22103507696E+02  0.00000000000E+00 0.  1.
</event>
<event>
 7    1  0.3220798E-013  0.5930196E+02  0.7816164E-02  0.1266605E+00
        -11   -1    0    0    0    0  0.00000000000E+00  0.00000000000E+00  0.45593999997E+02  0.45594000000E+02  0.51100000000E-03 0. -1.
         11   -1    0    0    0    0 -0.00000000000E+00 -0.00000000000E+00 -0.45593999997E+02  0.45594000000E+02  0.51100000000E-03 0.  1.
    9900012    2    1    2    0    0  0.27352544728E+02 -0.11716285713E+02 -0.11458041662E+02  0.59301956458E+02  0.50000022671E+02 0.  0.
         12    1    1    2    0    0 -0.27352544728E+02  0.11716285713E+02  0.11458041662E+02  0.31886043542E+02  0.00000000000E+00 0. -1.
         11    1    3    3    0    0  0.37506607498E+01 -0.13767179029E+02  0.19526510303E+01  0.14401927676E+02  0.51100000000E-03 0. -1.
        -11    1    3    3    0    0  0.17403195521E+02 -0.15885663917E+02 -0.47384252600E+01  0.24034937209E+02  0.51100000000E-03 0.  1.
         12    1    3    3    0    0  0.61986884576E+01  0.17936557233E+02 -0.86722674321E+01  0.20865091574E+02  0.00000000000E+00 0. -1.
</event>
<event>
 7    1  0.3220798E-013  0.5930195E+02  0.7816164E-02  0.1266605E+00
        -11   -1    0    0    0    0  0.00000000000E+00  0.00000000000E+00  0.45593999997E+02  0.45594000000E+02  0.51100000000E-03 0.  1.
         11   -1    0    0    0    0 -0.00000000000E+00 -0.00000000000E+00 -0.45593999997E+02  0.45594000000E+02  0.51100000000E-03 0. -1.
    9900012    2    1    2    0    0  0.27293611840E+02  0.13145280955E+02  0.99488912872E+01  0.59301951382E+02  0.50000013412E+02 0.  0.
         12    1    1    2    0    0 -0.27293611840E+02 -0.13145280955E+02 -0.99488912872E+01  0.31886048618E+02  0.00000000000E+00 0. -1.
         11    1    3    3    0    0 -0.89837059136E+01  0.10117267207E+02 -0.59289692925E+01  0.14772228837E+02  0.51100000000E-03 0. -1.
        -11    1    3    3    0    0  0.81507702888E+01  0.96611259214E+01  0.59823905678E+01  0.13984327211E+02  0.51100000000E-03 0.  1.
        -12    1    3    3    0    0  0.28126547464E+02 -0.66331121733E+01  0.98954700120E+01  0.30545395334E+02  0.00000000000E+00 0.  1.
</event>
<event>
 7    1  0.3220798E-013  0.5930193E+02  0.7816164E-02  0.1266605E+00
        -11   -1    0    0    0    0  0.00000000000E+00  0.00000000000E+00  0.45593999997E+02  0.45594000000E+02  0.51100000000E-03 0.  1.
         11   -1    0    0    0    0 -0.00000000000E+00 -0.00000000000E+00 -0.45593999997E+02  0.45594000000E+02  0.51100000000E-03 0. -1.
    9900012    2    1    2    0    0 -0.27079597273E+01  0.24941451795E+02  0.19680251663E+02  0.59301931426E+02  0.49999977018E+02 0.  0.
         12    1    1    2    0    0  0.27079597273E+01 -0.24941451795E+02 -0.19680251663E+02  0.31886068574E+02  0.00000000000E+00 0. -1.
         11    1    3    3    0    0 -0.12238164973E+01  0.25300004233E+02  0.65497270831E+01  0.26162699901E+02  0.51100000000E-03 0. -1.
        -11    1    3    3    0    0 -0.73147724444E+01  0.13177668676E+02  0.99544362794E+01  0.18062326804E+02  0.51100000000E-03 0.  1.
         12    1    3    3    0    0  0.58306292145E+01 -0.13536221114E+02  0.31760883009E+01  0.15076904721E+02  0.00000000000E+00 0. -1.
</event>
<event>
 7    1  0.3220798E-013  0.5930194E+02  0.7816164E-02  0.1266605E+00
        -11   -1    0    0    0    0  0.00000000000E+00  0.00000000000E+00  0.45593999997E+02  0.45594000000E+02  0.51100000000E-03 0. -1.
         11   -1    0    0    0    0 -0.00000000000E+00 -0.00000000000E+00 -0.45593999997E+02  0.45594000000E+02  0.51100000000E-03 0.  1.
    9900012    2    1    2    0    0  0.11486255861E+02 -0.84582102850E+00 -0.29733332514E+02  0.59301944281E+02  0.50000000462E+02 0.  0.
         12    1    1    2    0    0 -0.11486255861E+02  0.84582102850E+00  0.29733332514E+02  0.31886055719E+02  0.00000000000E+00 0. -1.
         11    1    3    3    0    0 -0.33805789701E+01 -0.88236843716E+01 -0.87031645253E+01  0.12846431142E+02  0.51100000000E-03 0. -1.
        -11    1    3    3    0    0  0.14277055475E+02 -0.71369235348E+01 -0.26021617226E+02  0.30526947996E+02  0.51100000000E-03 0.  1.
        -12    1    3    3    0    0  0.58977935560E+00  0.15114786878E+02  0.49914492378E+01  0.15928565144E+02  0.00000000000E+00 0.  1.
</event>
<event>
 7    1  0.3220798E-013  0.5930195E+02  0.7816164E-02  0.1266605E+00
        -11   -1    0    0    0    0  0.00000000000E+00  0.00000000000E+00  0.45593999997E+02  0.45594000000E+02  0.51100000000E-03 0.  1.
         11   -1    0    0    0    0 -0.00000000000E+00 -0.00000000000E+00 -0.45593999997E+02  0.45594000000E+02  0.51100000000E-03 0. -1.
    9900012    2    1    2    0    0  0.29037399557E+02  0.84013345923E+01 -0.10147277734E+02  0.59301949110E+02  0.50000009269E+02 0.  0.
         12    1    1    2    0    0 -0.29037399557E+02 -0.84013345923E+01  0.10147277734E+02  0.31886050890E+02  0.00000000000E+00 0. -1.
         11    1    3    3    0    0  0.21766331942E+02  0.36670258909E+01 -0.90986055677E+01  0.23874775572E+02  0.51100000000E-03 0. -1.
        -11    1    3    3    0    0  0.14293737959E+02  0.10578164193E+02  0.10539260920E+02  0.20670861703E+02  0.51100000000E-03 0.  1.
         12    1    3    3    0    0 -0.70226703437E+01 -0.58438554919E+01 -0.11587933086E+02  0.14756311835E+02  0.00000000000E+00 0. -1.
</event>
<event>
 7    1  0.3220798E-013  0.5930208E+02  0.7816164E-02  0.1266604E+00
        -11   -1    0    0    0    0  0.00000000000E+00  0.00000000000E+00  0.45593999997E+02  0.45594000000E+02  0.51100000000E-03 0.  1.
         11   -1    0    0    0    0 -0.00000000000E+00 -0.00000000000E+00 -0.45593999997E+02  0.45594000000E+02  0.51100000000E-03 0. -1.
    9900012    2    1    2    0    0  0.94001339185E+01  0.23089943080E+02  0.19879738748E+02  0.59302078313E+02  0.50000244904E+02 0.  0.
         12    1    1    2    0    0 -0.94001339185E+01 -0.23089943080E+02 -0.19879738748E+02  0.31885921687E+02  0.00000000000E+00 0. -1.
         11    1    3    3    0    0 -0.41352843533E+00 -0.15105662557E+02  0.59880885122E+01  0.16254514799E+02  0.51100000000E-03 0. -1.
        -11    1    3    3    0    0 -0.20530539232E+01  0.70164600493E+01  0.35019079091E+01  0.81061150560E+01  0.51100000000E-03 0.  1.
        -12    1    3    3    0    0  0.11866716277E+02  0.31179145588E+02  0.10389742326E+02  0.34941448459E+02  0.00000000000E+00 0.  1.
</event>
<event>
 7    1  0.3220798E-013  0.5930195E+02  0.7816164E-02  0.1266605E+00
        -11   -1    0    0    0    0  0.00000000000E+00  0.00000000000E+00  0.45593999997E+02  0.45594000000E+02  0.51100000000E-03 0. -1.
         11   -1    0    0    0    0 -0.00000000000E+00 -0.00000000000E+00 -0.45593999997E+02  0.45594000000E+02  0.51100000000E-03 0.  1.
    9900012    2    1    2    0    0  0.23001542187E+02  0.18001749946E+02 -0.12790094655E+02  0.59301945597E+02  0.50000002862E+02 0.  0.
         12    1    1    2    0    0 -0.23001542187E+02 -0.18001749946E+02  0.12790094655E+02  0.31886054403E+02  0.00000000000E+00 0. -1.
         11    1    3    3    0    0  0.16010819958E+02  0.11460354357E+01 -0.71451104839E+01  0.17570212208E+02  0.51100000000E-03 0. -1.
        -11    1    3    3    0    0  0.20687677431E+02  0.92351502247E+01  0.44495833610E+01  0.23088239203E+02  0.51100000000E-03 0.  1.
        -12    1    3    3    0    0 -0.13696955201E+02  0.76205642851E+01 -0.10094567532E+02  0.18643494186E+02  0.00000000000E+00 0.  1.
</event>
<event>
 7    1  0.3220798E-013  0.5930194E+02  0.7816164E-02  0.1266605E+00
        -11   -1    0    0    0    0  0.00000000000E+00  0.00000000000E+00  0.45593999997E+02  0.45594000000E+02  0.51100000000E-03 0.  1.
         11   -1    0    0    0    0 -0.00000000000E+00 -0.00000000000E+00 -0.45593999997E+02  0.45594000000E+02  0.51100000000E-03 0. -1.
    9900012    2    1    2    0    0 -0.15884106220E+02 -0.27092253801E+02 -0.55159384690E+01  0.59301943116E+02  0.49999998338E+02 0.  0.
         12    1    1    2    0    0  0.15884106220E+02  0.27092253801E+02  0.55159384690E+01  0.31886056884E+02  0.00000000000E+00 0. -1.
         11    1    3    3    0    0 -0.14448040909E+02  0.63612886136E+00  0.58319217898E+01  0.15593648004E+02  0.51100000000E-03 0. -1.
        -11    1    3    3    0    0 -0.16988540533E+01 -0.17808860789E+02  0.97639233698E+01  0.20380771024E+02  0.51100000000E-03 0.  1.
         12    1    3    3    0    0  0.26278874296E+00 -0.99195218726E+01 -0.21111783629E+02  0.23327524088E+02  0.00000000000E+00 0. -1.
</event>
<event>
 7    1  0.3220798E-013  0.5930187E+02  0.7816164E-02  0.1266605E+00
        -11   -1    0    0    0    0  0.00000000000E+00  0.00000000000E+00  0.45593999997E+02  0.45594000000E+02  0.51100000000E-03 0.  1.
         11   -1    0    0    0    0 -0.00000000000E+00 -0.00000000000E+00 -0.45593999997E+02  0.45594000000E+02  0.51100000000E-03 0. -1.
    9900012    2    1    2    0    0  0.26276622439E+02 -0.15401272639E+02  0.94374495246E+01  0.59301866035E+02  0.49999857760E+02 0.  0.
         12    1    1    2    0    0 -0.26276622439E+02  0.15401272639E+02 -0.94374495246E+01  0.31886133965E+02  0.00000000000E+00 0. -1.
         11    1    3    3    0    0  0.17137953964E+01  0.26942330259E+01 -0.18511421705E+01  0.36908960775E+01  0.51100000000E-03 0. -1.
        -11    1    3    3    0    0  0.15989003994E+02 -0.33921165178E+01  0.27574008060E+02  0.32054338613E+02  0.51100000000E-03 0.  1.
         12    1    3    3    0    0  0.85738230486E+01 -0.14703389148E+02 -0.16285416365E+02  0.23556631344E+02  0.00000000000E+00 0. -1.
</event>
<event>
 7    1  0.3220798E-013  0.5930197E+02  0.7816164E-02  0.1266605E+00
        -11   -1    0    0    0    0  0.00000000000E+00  0.00000000000E+00  0.45593999997E+02  0.45594000000E+02  0.51100000000E-03 0.  1.
         11   -1    0    0    0    0 -0.00000000000E+00 -0.00000000000E+00 -0.45593999997E+02  0.45594000000E+02  0.51100000000E-03 0. -1.
    9900012    2    1    2    0    0 -0.18178034254E+02  0.89982899077E+01  0.24603029383E+02  0.59301965354E+02  0.50000038894E+02 0.  0.
         12    1    1    2    0    0  0.18178034254E+02 -0.89982899077E+01 -0.24603029383E+02  0.31886034646E+02  0.00000000000E+00 0. -1.
         11    1    3    3    0    0 -0.45554202843E+01 -0.72032479517E+00 -0.26677939992E+01  0.53280246678E+01  0.51100000000E-03 0. -1.
        -11    1    3    3    0    0  0.14204485490E+02  0.69860118969E+01  0.19174722021E+02  0.24864467319E+02  0.51100000000E-03 0.  1.
         12    1    3    3    0    0 -0.27827099460E+02  0.27326028059E+01  0.80961013621E+01  0.29109473367E+02  0.00000000000E+00 0. -1.
</event>
<event>
 7    1  0.3220798E-013  0.5930195E+02  0.7816164E-02  0.1266605E+00
        -11   -1    0    0    0    0  0.00000000000E+00  0.00000000000E+00  0.45593999997E+02  0.45594000000E+02  0.51100000000E-03 0.  1.
         11   -1    0    0    0    0 -0.00000000000E+00 -0.00000000000E+00 -0.45593999997E+02  0.45594000000E+02  0.51100000000E-03 0. -1.
    9900012    2    1    2    0    0 -0.85087722101E+00 -0.19495806319E+02  0.25217250616E+02  0.59301949999E+02  0.50000010890E+02 0.  0.
         12    1    1    2    0    0  0.85087722101E+00  0.19495806319E+02 -0.25217250616E+02  0.31886050001E+02  0.00000000000E+00 0. -1.
         11    1    3    3    0    0 -0.92700721947E+01  0.19927169268E+01  0.24610355035E+02  0.26373750861E+02  0.51100000000E-03 0. -1.
        -11    1    3    3    0    0  0.50395211927E+01  0.44612619239E+01  0.62277981906E+00  0.67592519385E+01  0.51100000000E-03 0.  1.
        -12    1    3    3    0    0  0.33796737810E+01 -0.25949785170E+02 -0.15884238805E-01  0.26168947199E+02  0.00000000000E+00 0.  1.
</event>
<event>
 7    1  0.3220798E-013  0.5930194E+02  0.7816164E-02  0.1266605E+00
        -11   -1    0    0    0    0  0.00000000000E+00  0.00000000000E+00  0.45593999997E+02  0.45594000000E+02  0.51100000000E-03 0.  1.
         11   -1    0    0    0    0 -0.00000000000E+00 -0.00000000000E+00 -0.45593999997E+02  0.45594000000E+02  0.51100000000E-03 0. -1.
    9900012    2    1    2    0    0  0.20905711656E+02  0.81964701180E+01  0.22638239197E+02  0.59301940724E+02  0.49999993974E+02 0.  0.
         12    1    1    2    0    0 -0.20905711656E+02 -0.81964701180E+01 -0.22638239197E+02  0.31886059276E+02  0.00000000000E+00 0. -1.
         11    1    3    3    0    0  0.71370941942E+01 -0.42091151835E+00 -0.41612813113E+01  0.82723359733E+01  0.51100000000E-03 0. -1.
        -11    1    3    3    0    0  0.41391933732E+01 -0.13829633549E+02 -0.44056030485E+00  0.14442499075E+02  0.51100000000E-03 0.  1.
        -12    1    3    3    0    0  0.96294240886E+01  0.22447015186E+02  0.27240080813E+02  0.36587105676E+02  0.00000000000E+00 0.  1.
</event>
<event>
 7    1  0.3220798E-013  0.5930192E+02  0.7816164E-02  0.1266605E+00
        -11   -1    0    0    0    0  0.00000000000E+00  0.00000000000E+00  0.45593999997E+02  0.45594000000E+02  0.51100000000E-03 0.  1.
         11   -1    0    0    0    0 -0.00000000000E+00 -0.00000000000E+00 -0.45593999997E+02  0.45594000000E+02  0.51100000000E-03 0. -1.
    9900012    2    1    2    0    0  0.30612257227E+02  0.44310273671E+01 -0.77445307343E+01  0.59301920712E+02  0.49999957477E+02 0.  0.
         12    1    1    2    0    0 -0.30612257227E+02 -0.44310273671E+01  0.77445307343E+01  0.31886079288E+02  0.00000000000E+00 0. -1.
         11    1    3    3    0    0 -0.60384829566E+00  0.51746625791E+01 -0.89980056803E+01  0.10397397369E+02  0.51100000000E-03 0. -1.
        -11    1    3    3    0    0 -0.58991364522E+01 -0.81304808243E+01 -0.37701979358E+01  0.10729348631E+02  0.51100000000E-03 0.  1.
         12    1    3    3    0    0  0.37115241975E+02  0.73868456123E+01  0.50236728817E+01  0.38175174711E+02  0.00000000000E+00 0. -1.
</event>
<event>
 7    1  0.3220798E-013  0.5930198E+02  0.7816164E-02  0.1266605E+00
        -11   -1    0    0    0    0  0.00000000000E+00  0.00000000000E+00  0.45593999997E+02  0.45594000000E+02  0.51100000000E-03 0. -1.
         11   -1    0    0    0    0 -0.00000000000E+00 -0.00000000000E+00 -0.45593999997E+02  0.45594000000E+02  0.51100000000E-03 0.  1.
    9900012    2    1    2    0    0  0.19470498862E+02  0.24863133880E+02 -0.44093785189E+01  0.59301978436E+02  0.50000062752E+02 0.  0.
         12    1    1    2    0    0 -0.19470498862E+02 -0.24863133880E+02  0.44093785189E+01  0.31886021564E+02  0.00000000000E+00 0. -1.
         11    1    3    3    0    0 -0.79260193275E+01 -0.94449020381E+01 -0.21014985041E+00  0.12331752516E+02  0.51100000000E-03 0.  1.
        -11    1    3    3    0    0  0.55366702675E+01  0.89956281989E+01  0.58154200363E+01  0.12057991325E+02  0.51100000000E-03 0. -1.
        -12    1    3    3    0    0  0.21859847922E+02  0.25312407719E+02 -0.10014648705E+02  0.34912234595E+02  0.00000000000E+00 0.  1.
</event>
<event>
 7    1  0.3220798E-013  0.5930194E+02  0.7816164E-02  0.1266605E+00
        -11   -1    0    0    0    0  0.00000000000E+00  0.00000000000E+00  0.45593999997E+02  0.45594000000E+02  0.51100000000E-03 0.  1.
         11   -1    0    0    0    0 -0.00000000000E+00 -0.00000000000E+00 -0.45593999997E+02  0.45594000000E+02  0.51100000000E-03 0. -1.
    9900012    2    1    2    0    0 -0.75645238060E+01  0.99891004660E+01  0.29320923106E+02  0.59301942227E+02  0.49999996716E+02 0.  0.
         12    1    1    2    0    0  0.75645238060E+01 -0.99891004660E+01 -0.29320923106E+02  0.31886057773E+02  0.00000000000E+00 0. -1.
         11    1    3    3    0    0 -0.50874704110E+01  0.93260893605E+01  0.16082732086E+02  0.19274661334E+02  0.51100000000E-03 0. -1.
        -11    1    3    3    0    0  0.16824453601E+02 -0.88310250613E+00  0.51026026966E+00  0.16855339653E+02  0.51100000000E-03 0.  1.
         12    1    3    3    0    0 -0.19301506996E+02  0.15461136117E+01  0.12727930751E+02  0.23171941240E+02  0.00000000000E+00 0. -1.
</event>
<event>
 7    1  0.3220798E-013  0.5930198E+02  0.7816164E-02  0.1266605E+00
        -11   -1    0    0    0    0  0.00000000000E+00  0.00000000000E+00  0.45593999997E+02  0.45594000000E+02  0.51100000000E-03 0.  1.
         11   -1    0    0    0    0 -0.00000000000E+00 -0.00000000000E+00 -0.45593999997E+02  0.45594000000E+02  0.51100000000E-03 0. -1.
    9900012    2    1    2    0    0  0.61382601145E+01 -0.99881148889E+01  0.29652620522E+02  0.59301975160E+02  0.50000056778E+02 0.  0.
         12    1    1    2    0    0 -0.61382601145E+01  0.99881148889E+01 -0.29652620522E+02  0.31886024840E+02  0.00000000000E+00 0. -1.
         11    1    3    3    0    0  0.80471387394E+01  0.11551842704E+02  0.95595564329E+00  0.14110824327E+02  0.51100000000E-03 0. -1.
        -11    1    3    3    0    0  0.11889788609E+02 -0.56423577668E+01  0.67878448164E+01  0.14808042134E+02  0.51100000000E-03 0.  1.
        -12    1    3    3    0    0 -0.13798667234E+02 -0.15897599826E+02  0.21908820062E+02  0.30383108698E+02  0.00000000000E+00 0.  1.
</event>
<event>
 7    1  0.3220798E-013  0.5930199E+02  0.7816164E-02  0.1266605E+00
        -11   -1    0    0    0    0  0.00000000000E+00  0.00000000000E+00  0.45593999997E+02  0.45594000000E+02  0.51100000000E-03 0.  1.
         11   -1    0    0    0    0 -0.00000000000E+00 -0.00000000000E+00 -0.45593999997E+02  0.45594000000E+02  0.51100000000E-03 0. -1.
    9900012    2    1    2    0    0 -0.11005201923E+02  0.21579998466E+02  0.20734189514E+02  0.59301993383E+02  0.50000090012E+02 0.  0.
         12    1    1    2    0    0  0.11005201923E+02 -0.21579998466E+02 -0.20734189514E+02  0.31886006617E+02  0.00000000000E+00 0. -1.
         11    1    3    3    0    0 -0.16601951103E+01  0.24012923481E+02  0.11409427428E+02  0.26637413095E+02  0.51100000000E-03 0. -1.
        -11    1    3    3    0    0 -0.19968183998E+02 -0.44584109018E+01  0.54070426700E+01  0.21162275649E+02  0.51100000000E-03 0.  1.
         12    1    3    3    0    0  0.10623177185E+02  0.20254858870E+01  0.39177194160E+01  0.11502304639E+02  0.00000000000E+00 0. -1.
</event>
<event>
 7    1  0.3220798E-013  0.5930196E+02  0.7816164E-02  0.1266605E+00
        -11   -1    0    0    0    0  0.00000000000E+00  0.00000000000E+00  0.45593999997E+02  0.45594000000E+02  0.51100000000E-03 0.  1.
         11   -1    0    0    0    0 -0.00000000000E+00 -0.00000000000E+00 -0.45593999997E+02  0.45594000000E+02  0.51100000000E-03 0. -1.
    9900012    2    1    2    0    0  0.61973940782E+01 -0.19318351056E+02  0.24599051829E+02  0.59301957100E+02  0.50000023841E+02 0.  0.
         12    1    1    2    0    0 -0.61973940782E+01  0.19318351056E+02 -0.24599051829E+02  0.31886042900E+02  0.00000000000E+00 0. -1.
         11    1    3    3    0    0  0.80146203895E+01 -0.66372468445E+00  0.26950089004E+00  0.80465707874E+01  0.51100000000E-03 0. -1.
        -11    1    3    3    0    0  0.76102084590E+01  0.11348326390E+02  0.73489954586E+01  0.15514751663E+02  0.51100000000E-03 0.  1.
         12    1    3    3    0    0 -0.94274347703E+01 -0.30002952762E+02  0.16980555481E+02  0.35740634650E+02  0.00000000000E+00 0. -1.
</event>
<event>
 7    1  0.3220798E-013  0.5930228E+02  0.7816164E-02  0.1266604E+00
        -11   -1    0    0    0    0  0.00000000000E+00  0.00000000000E+00  0.45593999997E+02  0.45594000000E+02  0.51100000000E-03 0.  1.
         11   -1    0    0    0    0 -0.00000000000E+00 -0.00000000000E+00 -0.45593999997E+02  0.45594000000E+02  0.51100000000E-03 0. -1.
    9900012    2    1    2    0    0 -0.20399252348E+02  0.85131951584E+01  0.22980317404E+02  0.59302282568E+02  0.50000617413E+02 0.  0.
         12    1    1    2    0    0  0.20399252348E+02 -0.85131951584E+01 -0.22980317404E+02  0.31885717432E+02  0.00000000000E+00 0. -1.
         11    1    3    3    0    0 -0.11011395339E+02 -0.62330770951E+01  0.15397255419E+02  0.19929313889E+02  0.51100000000E-03 0. -1.
        -11    1    3    3    0    0 -0.16973001995E+02  0.17791300229E+02  0.14603322892E+02  0.28598430033E+02  0.51100000000E-03 0.  1.
         12    1    3    3    0    0  0.75851449865E+01 -0.30450279754E+01 -0.70202609076E+01  0.10774538647E+02  0.00000000000E+00 0. -1.
</event>
<event>
 7    1  0.3220798E-013  0.5930195E+02  0.7816164E-02  0.1266605E+00
        -11   -1    0    0    0    0  0.00000000000E+00  0.00000000000E+00  0.45593999997E+02  0.45594000000E+02  0.51100000000E-03 0. -1.
         11   -1    0    0    0    0 -0.00000000000E+00 -0.00000000000E+00 -0.45593999997E+02  0.45594000000E+02  0.51100000000E-03 0.  1.
    9900012    2    1    2    0    0 -0.25009987901E+02  0.12419732776E+02  0.15393854564E+02  0.59301952653E+02  0.50000015731E+02 0.  0.
         12    1    1    2    0    0  0.25009987901E+02 -0.12419732776E+02 -0.15393854564E+02  0.31886047347E+02  0.00000000000E+00 0. -1.
         11    1    3    3    0    0  0.70439801376E+01 -0.10326867952E-01  0.47154845089E+01  0.84766477595E+01  0.51100000000E-03 0. -1.
        -11    1    3    3    0    0 -0.25973984088E+02  0.12666532882E+01 -0.88970140602E+01  0.27484707010E+02  0.51100000000E-03 0.  1.
         12    1    3    3    0    0 -0.60799839506E+01  0.11163406356E+02  0.19575384116E+02  0.23340597884E+02  0.00000000000E+00 0. -1.
</event>
<event>
 7    1  0.3220798E-013  0.5930194E+02  0.7816164E-02  0.1266605E+00
        -11   -1    0    0    0    0  0.00000000000E+00  0.00000000000E+00  0.45593999997E+02  0.45594000000E+02  0.51100000000E-03 0. -1.
         11   -1    0    0    0    0 -0.00000000000E+00 -0.00000000000E+00 -0.45593999997E+02  0.45594000000E+02  0.51100000000E-03 0.  1.
    9900012    2    1    2    0    0 -0.25421177278E+02  0.10125171983E+02  0.16369657775E+02  0.59301936311E+02  0.49999985926E+02 0.  0.
         12    1    1    2    0    0  0.25421177278E+02 -0.10125171983E+02 -0.16369657775E+02  0.31886063689E+02  0.00000000000E+00 0. -1.
         11    1    3    3    0    0 -0.95498227280E+01  0.61653065482E+01  0.20160215108E+02  0.23143992577E+02  0.51100000000E-03 0. -1.
        -11    1    3    3    0    0 -0.64054623964E+01  0.17738965470E+02 -0.46285736825E+01  0.19419694618E+02  0.51100000000E-03 0.  1.
        -12    1    3    3    0    0 -0.94658921540E+01 -0.13779100035E+02  0.83801635010E+00  0.16738249116E+02  0.00000000000E+00 0.  1.
</event>
<event>
 7    1  0.3220798E-013  0.5930211E+02  0.7816164E-02  0.1266604E+00
        -11   -1    0    0    0    0  0.00000000000E+00  0.00000000000E+00  0.45593999997E+02  0.45594000000E+02  0.51100000000E-03 0. -1.
         11   -1    0    0    0    0 -0.00000000000E+00 -0.00000000000E+00 -0.45593999997E+02  0.45594000000E+02  0.51100000000E-03 0.  1.
    9900012    2    1    2    0    0  0.17767705744E+02  0.11926474566E+02 -0.23638480273E+02  0.59302111074E+02  0.50000304652E+02 0.  0.
         12    1    1    2    0    0 -0.17767705744E+02 -0.11926474566E+02  0.23638480273E+02  0.31885888926E+02  0.00000000000E+00 0. -1.
         11    1    3    3    0    0 -0.96583571411E+01  0.10198070456E+02 -0.25723783908E+02  0.29308660196E+02  0.51100000000E-03 0. -1.
        -11    1    3    3    0    0  0.18203543803E+01 -0.17021573222E+01 -0.27490080780E+01  0.37105357152E+01  0.51100000000E-03 0.  1.
         12    1    3    3    0    0  0.25605708504E+02  0.34305614320E+01  0.48343117124E+01  0.26282915163E+02  0.00000000000E+00 0. -1.
</event>
<event>
 7    1  0.3220798E-013  0.5930192E+02  0.7816164E-02  0.1266605E+00
        -11   -1    0    0    0    0  0.00000000000E+00  0.00000000000E+00  0.45593999997E+02  0.45594000000E+02  0.51100000000E-03 0.  1.
         11   -1    0    0    0    0 -0.00000000000E+00 -0.00000000000E+00 -0.45593999997E+02  0.45594000000E+02  0.51100000000E-03 0. -1.
    9900012    2    1    2    0    0 -0.31661919029E+02  0.34917145664E+01  0.14327958088E+01  0.59301920105E+02  0.49999956371E+02 0.  0.
         12    1    1    2    0    0  0.31661919029E+02 -0.34917145664E+01 -0.14327958088E+01  0.31886079895E+02  0.00000000000E+00 0. -1.
         11    1    3    3    0    0 -0.24357866629E+00  0.14949510512E+02 -0.18214036302E+01  0.15062028634E+02  0.51100000000E-03 0. -1.
        -11    1    3    3    0    0  0.44546261868E+01 -0.22311320224E+01 -0.41289559073E+01  0.64706971581E+01  0.51100000000E-03 0.  1.
        -12    1    3    3    0    0 -0.35872966550E+02 -0.92266639234E+01  0.73831553463E+01  0.37769194313E+02  0.00000000000E+00 0.  1.
</event>
<event>
 7    1  0.3220798E-013  0.5930194E+02  0.7816164E-02  0.1266605E+00
        -11   -1    0    0    0    0  0.00000000000E+00  0.00000000000E+00  0.45593999997E+02  0.45594000000E+02  0.51100000000E-03 0.  1.
         11   -1    0    0    0    0 -0.00000000000E+00 -0.00000000000E+00 -0.45593999997E+02  0.45594000000E+02  0.51100000000E-03 0. -1.
    9900012    2    1    2    0    0  0.28775485361E+02  0.64785565961E+01  0.12112830184E+02  0.59301938650E+02  0.49999990192E+02 0.  0.
         12    1    1    2    0    0 -0.28775485361E+02 -0.64785565961E+01 -0.12112830184E+02  0.31886061350E+02  0.00000000000E+00 0. -1.
         11    1    3    3    0    0 -0.56947828180E+01  0.10677240678E+01  0.14320113884E+02  0.15447855772E+02  0.51100000000E-03 0. -1.
        -11    1    3    3    0    0  0.63860565469E+01 -0.44527313745E+01  0.91331973368E+01  0.12000992824E+02  0.51100000000E-03 0.  1.
        -12    1    3    3    0    0  0.28084211632E+02  0.98635639028E+01 -0.11340481036E+02  0.31853090054E+02  0.00000000000E+00 0.  1.
</event>
<event>
 7    1  0.3220798E-013  0.5930199E+02  0.7816164E-02  0.1266605E+00
        -11   -1    0    0    0    0  0.00000000000E+00  0.00000000000E+00  0.45593999997E+02  0.45594000000E+02  0.51100000000E-03 0.  1.
         11   -1    0    0    0    0 -0.00000000000E+00 -0.00000000000E+00 -0.45593999997E+02  0.45594000000E+02  0.51100000000E-03 0. -1.
    9900012    2    1    2    0    0 -0.24364459393E+02  0.10730089503E+02  0.17548666841E+02  0.59301993506E+02  0.50000090236E+02 0.  0.
         12    1    1    2    0    0  0.24364459393E+02 -0.10730089503E+02 -0.17548666841E+02  0.31886006494E+02  0.00000000000E+00 0. -1.
         11    1    3    3    0    0 -0.47235175925E+01  0.99609251526E+00 -0.49031985893E+01  0.68807830523E+01  0.51100000000E-03 0. -1.
        -11    1    3    3    0    0 -0.12560996664E+02  0.23912323183E+02  0.27703408176E+01  0.27152396316E+02  0.51100000000E-03 0.  1.
         12    1    3    3    0    0 -0.70799451365E+01 -0.14178326195E+02  0.19681524613E+02  0.25268814138E+02  0.00000000000E+00 0. -1.
</event>
<event>
 7    1  0.3220798E-013  0.5930193E+02  0.7816164E-02  0.1266605E+00
        -11   -1    0    0    0    0  0.00000000000E+00  0.00000000000E+00  0.45593999997E+02  0.45594000000E+02  0.51100000000E-03 0.  1.
         11   -1    0    0    0    0 -0.00000000000E+00 -0.00000000000E+00 -0.45593999997E+02  0.45594000000E+02  0.51100000000E-03 0. -1.
    9900012    2    1    2    0    0 -0.14186991855E+02  0.28248106891E+02 -0.41827427895E+01  0.59301927522E+02  0.49999969898E+02 0.  0.
         12    1    1    2    0    0  0.14186991855E+02 -0.28248106891E+02  0.41827427895E+01  0.31886072478E+02  0.00000000000E+00 0. -1.
         11    1    3    3    0    0 -0.12914130395E+02  0.43720588493E+01 -0.14589855584E+02  0.19968814403E+02  0.51100000000E-03 0. -1.
        -11    1    3    3    0    0  0.90770814779E+01  0.64410201211E+01 -0.65384871594E+01  0.12908600348E+02  0.51100000000E-03 0.  1.
        -12    1    3    3    0    0 -0.10349942938E+02  0.17435027920E+02  0.16945599954E+02  0.26424512771E+02  0.00000000000E+00 0.  1.
</event>
<event>
 7    1  0.3220798E-013  0.5930193E+02  0.7816164E-02  0.1266605E+00
        -11   -1    0    0    0    0  0.00000000000E+00  0.00000000000E+00  0.45593999997E+02  0.45594000000E+02  0.51100000000E-03 0.  1.
         11   -1    0    0    0    0 -0.00000000000E+00 -0.00000000000E+00 -0.45593999997E+02  0.45594000000E+02  0.51100000000E-03 0. -1.
    9900012    2    1    2    0    0  0.96599916486E+01 -0.76346859252E+01  0.29412886251E+02  0.59301925525E+02  0.49999966255E+02 0.  0.
         12    1    1    2    0    0 -0.96599916486E+01  0.76346859252E+01 -0.29412886251E+02  0.31886074475E+02  0.00000000000E+00 0. -1.
         11    1    3    3    0    0 -0.41021660776E+01  0.33323699839E+01 -0.76292941433E+01  0.92810875238E+01  0.51100000000E-03 0. -1.
        -11    1    3    3    0    0 -0.37064668483E+01 -0.13955851551E+01  0.27767382103E+02  0.28048405721E+02  0.51100000000E-03 0.  1.
         12    1    3    3    0    0  0.17468624574E+02 -0.95714707540E+01  0.92747982919E+01  0.21972432279E+02  0.00000000000E+00 0. -1.
</event>
<event>
 7    1  0.3234924E-013  0.5930196E+02  0.7816164E-02  0.1266605E+00
        -11   -1    0    0    0    0  0.00000000000E+00  0.00000000000E+00  0.45593999997E+02  0.45594000000E+02  0.51100000000E-03 0. -1.
         11   -1    0    0    0    0 -0.00000000000E+00 -0.00000000000E+00 -0.45593999997E+02  0.45594000000E+02  0.51100000000E-03 0.  1.
    9900012    2    1    2    0    0  0.29787281857E+02 -0.15000507267E+01 -0.11277726923E+02  0.59301961720E+02  0.50000032267E+02 0.  0.
         12    1    1    2    0    0 -0.29787281857E+02  0.15000507267E+01  0.11277726923E+02  0.31886038280E+02  0.00000000000E+00 0. -1.
         11    1    3    3    0    0 -0.10068349029E+01  0.10760184807E+02  0.88047325453E+00  0.10842994375E+02  0.51100000000E-03 0. -1.
        -11    1    3    3    0    0  0.22849073475E+02  0.12959044117E+01 -0.20450990167E+02  0.30692059657E+02  0.51100000000E-03 0.  1.
         12    1    3    3    0    0  0.79450432852E+01 -0.13556139945E+02  0.82927899892E+01  0.17766907689E+02  0.00000000000E+00 0. -1.
</event>
<event>
 7    1  0.3220798E-013  0.5930194E+02  0.7816164E-02  0.1266605E+00
        -11   -1    0    0    0    0  0.00000000000E+00  0.00000000000E+00  0.45593999997E+02  0.45594000000E+02  0.51100000000E-03 0. -1.
         11   -1    0    0    0    0 -0.00000000000E+00 -0.00000000000E+00 -0.45593999997E+02  0.45594000000E+02  0.51100000000E-03 0.  1.
    9900012    2    1    2    0    0 -0.18958714765E+02  0.16769289357E+02 -0.19392749765E+02  0.59301942318E+02  0.49999996882E+02 0.  0.
         12    1    1    2    0    0  0.18958714765E+02 -0.16769289357E+02  0.19392749765E+02  0.31886057682E+02  0.00000000000E+00 0. -1.
         11    1    3    3    0    0  0.80253495242E+00 -0.27241899065E+01 -0.73283207256E+01  0.78593611645E+01  0.51100000000E-03 0. -1.
        -11    1    3    3    0    0  0.13044688482E+02  0.74763188866E+01 -0.45150313775E+01  0.15698558860E+02  0.51100000000E-03 0.  1.
         12    1    3    3    0    0 -0.32805938199E+02  0.12017160377E+02 -0.75493976617E+01  0.35744022293E+02  0.00000000000E+00 0. -1.
</event>
<event>
 7    1  0.3220798E-013  0.5930194E+02  0.7816164E-02  0.1266605E+00
        -11   -1    0    0    0    0  0.00000000000E+00  0.00000000000E+00  0.45593999997E+02  0.45594000000E+02  0.51100000000E-03 0.  1.
         11   -1    0    0    0    0 -0.00000000000E+00 -0.00000000000E+00 -0.45593999997E+02  0.45594000000E+02  0.51100000000E-03 0. -1.
    9900012    2    1    2    0    0  0.22915978734E+02  0.99713703721E+01  0.19802784842E+02  0.59301943550E+02  0.49999999128E+02 0.  0.
         12    1    1    2    0    0 -0.22915978734E+02 -0.99713703721E+01 -0.19802784842E+02  0.31886056450E+02  0.00000000000E+00 0. -1.
         11    1    3    3    0    0  0.14838250991E+02 -0.28830262602E+01  0.52792806732E+01  0.16011131677E+02  0.51100000000E-03 0. -1.
        -11    1    3    3    0    0  0.21875768149E+02  0.74370278309E+01  0.16421317716E+02  0.28346398199E+02  0.51100000000E-03 0.  1.
         12    1    3    3    0    0 -0.13798040406E+02  0.54173688014E+01 -0.18978135473E+01  0.14944413673E+02  0.00000000000E+00 0. -1.
</event>
<event>
 7    1  0.3220798E-013  0.5930179E+02  0.7816164E-02  0.1266605E+00
        -11   -1    0    0    0    0  0.00000000000E+00  0.00000000000E+00  0.45593999997E+02  0.45594000000E+02  0.51100000000E-03 0.  1.
         11   -1    0    0    0    0 -0.00000000000E+00 -0.00000000000E+00 -0.45593999997E+02  0.45594000000E+02  0.51100000000E-03 0. -1.
    9900012    2    1    2    0    0  0.25565958410E+02 -0.46656589818E+01  0.18475494399E+02  0.59301788302E+02  0.49999715993E+02 0.  0.
         12    1    1    2    0    0 -0.25565958410E+02  0.46656589818E+01 -0.18475494399E+02  0.31886211698E+02  0.00000000000E+00 0. -1.
         11    1    3    3    0    0 -0.86452774349E+01  0.76163971165E+01  0.68549108340E+01  0.13406719575E+02  0.51100000000E-03 0. -1.
        -11    1    3    3    0    0  0.24190404661E+01  0.60137433374E+01 -0.19742507269E+01  0.67760262616E+01  0.51100000000E-03 0.  1.
         12    1    3    3    0    0  0.31792195379E+02 -0.18295799436E+02  0.13594834292E+02  0.39119042465E+02  0.00000000000E+00 0. -1.
</event>
<event>
 7    1  0.3220798E-013  0.5930235E+02  0.7816164E-02  0.1266603E+00
        -11   -1    0    0    0    0  0.00000000000E+00  0.00000000000E+00  0.45593999997E+02  0.45594000000E+02  0.51100000000E-03 0.  1.
         11   -1    0    0    0    0 -0.00000000000E+00 -0.00000000000E+00 -0.45593999997E+02  0.45594000000E+02  0.51100000000E-03 0. -1.
    9900012    2    1    2    0    0  0.47437629866E+01 -0.59760458716E+00  0.31525135301E+02  0.59302351594E+02  0.50000743297E+02 0.  0.
         12    1    1    2    0    0 -0.47437629866E+01  0.59760458716E+00 -0.31525135301E+02  0.31885648406E+02  0.00000000000E+00 0. -1.
         11    1    3    3    0    0  0.19587281351E+02 -0.40547713348E+01  0.61025833194E+00  0.20011875894E+02  0.51100000000E-03 0. -1.
        -11    1    3    3    0    0 -0.42346990355E+01 -0.13360310197E+01 -0.16268901456E+01  0.47291042084E+01  0.51100000000E-03 0.  1.
        -12    1    3    3    0    0 -0.10608819329E+02  0.47931977674E+01  0.32541767115E+02  0.34561371491E+02  0.00000000000E+00 0.  1.
</event>
<event>
 7    1  0.3220798E-013  0.5930198E+02  0.7816164E-02  0.1266605E+00
        -11   -1    0    0    0    0  0.00000000000E+00  0.00000000000E+00  0.45593999997E+02  0.45594000000E+02  0.51100000000E-03 0.  1.
         11   -1    0    0    0    0 -0.00000000000E+00 -0.00000000000E+00 -0.45593999997E+02  0.45594000000E+02  0.51100000000E-03 0. -1.
    9900012    2    1    2    0    0  0.24553229771E+02 -0.13108507099E+02  0.15557125530E+02  0.59301981037E+02  0.50000067496E+02 0.  0.
         12    1    1    2    0    0 -0.24553229771E+02  0.13108507099E+02 -0.15557125530E+02  0.31886018963E+02  0.00000000000E+00 0. -1.
         11    1    3    3    0    0 -0.87589149824E+01 -0.34361290435E+01 -0.64700846804E+01  0.11418737693E+02  0.51100000000E-03 0. -1.
        -11    1    3    3    0    0  0.21503055013E+02 -0.75537969498E+01 -0.10594993830E-01  0.22791255686E+02  0.51100000000E-03 0.  1.
        -12    1    3    3    0    0  0.11809089740E+02 -0.21185811057E+01  0.22037805204E+02  0.25091987658E+02  0.00000000000E+00 0.  1.
</event>
<event>
 7    1  0.3220798E-013  0.5930195E+02  0.7816164E-02  0.1266605E+00
        -11   -1    0    0    0    0  0.00000000000E+00  0.00000000000E+00  0.45593999997E+02  0.45594000000E+02  0.51100000000E-03 0. -1.
         11   -1    0    0    0    0 -0.00000000000E+00 -0.00000000000E+00 -0.45593999997E+02  0.45594000000E+02  0.51100000000E-03 0.  1.
    9900012    2    1    2    0    0  0.27416516517E+02 -0.10762288720E+02  0.12215900480E+02  0.59301945667E+02  0.50000002989E+02 0.  0.
         12    1    1    2    0    0 -0.27416516517E+02  0.10762288720E+02 -0.12215900480E+02  0.31886054333E+02  0.00000000000E+00 0. -1.
         11    1    3    3    0    0  0.26807515552E+01 -0.13899484744E+02  0.77716168813E+01  0.16148688314E+02  0.51100000000E-03 0. -1.
        -11    1    3    3    0    0 -0.66057602589E+00 -0.12176779978E+02 -0.30385894668E+01  0.12567551772E+02  0.51100000000E-03 0.  1.
        -12    1    3    3    0    0  0.25396340987E+02  0.15313976003E+02  0.74828730656E+01  0.30585705581E+02  0.00000000000E+00 0.  1.
</event>
<event>
 7    1  0.3220798E-013  0.5930193E+02  0.7816164E-02  0.1266605E+00
        -11   -1    0    0    0    0  0.00000000000E+00  0.00000000000E+00  0.45593999997E+02  0.45594000000E+02  0.51100000000E-03 0. -1.
         11   -1    0    0    0    0 -0.00000000000E+00 -0.00000000000E+00 -0.45593999997E+02  0.45594000000E+02  0.51100000000E-03 0.  1.
    9900012    2    1    2    0    0  0.22450530926E+02 -0.21905712782E+02 -0.57301580506E+01  0.59301932468E+02  0.49999978919E+02 0.  0.
         12    1    1    2    0    0 -0.22450530926E+02  0.21905712782E+02  0.57301580506E+01  0.31886067532E+02  0.00000000000E+00 0. -1.
         11    1    3    3    0    0  0.55771428091E+01 -0.14754977768E+00  0.87662027144E+01  0.10390986630E+02  0.51100000000E-03 0. -1.
        -11    1    3    3    0    0  0.10831337563E+01 -0.17908881884E+02  0.92106641588E+01  0.20167735707E+02  0.51100000000E-03 0.  1.
         12    1    3    3    0    0  0.15790254360E+02 -0.38492811208E+01 -0.23707024924E+02  0.28743210131E+02  0.00000000000E+00 0. -1.
</event>
<event>
 7    1  0.3220798E-013  0.5930196E+02  0.7816164E-02  0.1266605E+00
        -11   -1    0    0    0    0  0.00000000000E+00  0.00000000000E+00  0.45593999997E+02  0.45594000000E+02  0.51100000000E-03 0.  1.
         11   -1    0    0    0    0 -0.00000000000E+00 -0.00000000000E+00 -0.45593999997E+02  0.45594000000E+02  0.51100000000E-03 0. -1.
    9900012    2    1    2    0    0 -0.56293287197E+01 -0.41525481299E+01  0.31109268584E+02  0.59301959329E+02  0.50000027906E+02 0.  0.
         12    1    1    2    0    0  0.56293287197E+01  0.41525481299E+01 -0.31109268584E+02  0.31886040671E+02  0.00000000000E+00 0. -1.
         11    1    3    3    0    0 -0.65363807606E+01 -0.13973140695E+01  0.19010537743E+02  0.20151359895E+02  0.51100000000E-03 0. -1.
        -11    1    3    3    0    0 -0.12022966048E+02 -0.13313570953E+02  0.13423031421E+02  0.22404924836E+02  0.51100000000E-03 0.  1.
         12    1    3    3    0    0  0.12930018089E+02  0.10558336892E+02 -0.13243005800E+01  0.16745674598E+02  0.00000000000E+00 0. -1.
</event>
<event>
 7    1  0.3220798E-013  0.5930194E+02  0.7816164E-02  0.1266605E+00
        -11   -1    0    0    0    0  0.00000000000E+00  0.00000000000E+00  0.45593999997E+02  0.45594000000E+02  0.51100000000E-03 0. -1.
         11   -1    0    0    0    0 -0.00000000000E+00 -0.00000000000E+00 -0.45593999997E+02  0.45594000000E+02  0.51100000000E-03 0.  1.
    9900012    2    1    2    0    0 -0.23444343800E+01  0.30591213369E+02 -0.86834301341E+01  0.59301942438E+02  0.49999997101E+02 0.  0.
         12    1    1    2    0    0  0.23444343800E+01 -0.30591213369E+02  0.86834301341E+01  0.31886057562E+02  0.00000000000E+00 0. -1.
         11    1    3    3    0    0  0.92796716268E+01  0.31933186353E+01  0.10621596571E+01  0.98710573297E+01  0.51100000000E-03 0. -1.
        -11    1    3    3    0    0 -0.67216555949E+01  0.61004404264E+00  0.12540578825E+02  0.14241450952E+02  0.51100000000E-03 0.  1.
        -12    1    3    3    0    0 -0.49024504120E+01  0.26787850691E+02 -0.22286168617E+02  0.35189434157E+02  0.00000000000E+00 0.  1.
</event>
<event>
 7    1  0.3220798E-013  0.5930193E+02  0.7816164E-02  0.1266605E+00
        -11   -1    0    0    0    0  0.00000000000E+00  0.00000000000E+00  0.45593999997E+02  0.45594000000E+02  0.51100000000E-03 0.  1.
         11   -1    0    0    0    0 -0.00000000000E+00 -0.00000000000E+00 -0.45593999997E+02  0.45594000000E+02  0.51100000000E-03 0. -1.
    9900012    2    1    2    0    0 -0.25933121252E+02 -0.35524086853E+01  0.18209200676E+02  0.59301931340E+02  0.49999976860E+02 0.  0.
         12    1    1    2    0    0  0.25933121252E+02  0.35524086853E+01 -0.18209200676E+02  0.31886068660E+02  0.00000000000E+00 0. -1.
         11    1    3    3    0    0 -0.30280197743E+02 -0.38049352053E+01  0.17770802469E+02  0.35315284622E+02  0.51100000000E-03 0. -1.
        -11    1    3    3    0    0 -0.22323533978E+01 -0.21935052005E+01  0.10926753279E+02  0.11366125296E+02  0.51100000000E-03 0.  1.
        -12    1    3    3    0    0  0.65794298884E+01  0.24460317205E+01 -0.10488355072E+02  0.12620521422E+02  0.00000000000E+00 0.  1.
</event>
<event>
 7    1  0.3220798E-013  0.5930197E+02  0.7816164E-02  0.1266605E+00
        -11   -1    0    0    0    0  0.00000000000E+00  0.00000000000E+00  0.45593999997E+02  0.45594000000E+02  0.51100000000E-03 0. -1.
         11   -1    0    0    0    0 -0.00000000000E+00 -0.00000000000E+00 -0.45593999997E+02  0.45594000000E+02  0.51100000000E-03 0.  1.
    9900012    2    1    2    0    0  0.50045609527E+01 -0.13652445177E+02 -0.28377521466E+02  0.59301974625E+02  0.50000055802E+02 0.  0.
         12    1    1    2    0    0 -0.50045609527E+01  0.13652445177E+02  0.28377521466E+02  0.31886025375E+02  0.00000000000E+00 0. -1.
         11    1    3    3    0    0 -0.98206756776E+01  0.28660763374E+01 -0.56790992222E+01  0.11700950071E+02  0.51100000000E-03 0. -1.
        -11    1    3    3    0    0  0.13228679673E+02 -0.26558075786E+02 -0.22825726728E+02  0.37434518245E+02  0.51100000000E-03 0.  1.
         12    1    3    3    0    0  0.15965569573E+01  0.10039554271E+02  0.12730448390E+00  0.10166506308E+02  0.00000000000E+00 0. -1.
</event>
<event>
 7    1  0.3220798E-013  0.5930195E+02  0.7816164E-02  0.1266605E+00
        -11   -1    0    0    0    0  0.00000000000E+00  0.00000000000E+00  0.45593999997E+02  0.45594000000E+02  0.51100000000E-03 0.  1.
         11   -1    0    0    0    0 -0.00000000000E+00 -0.00000000000E+00 -0.45593999997E+02  0.45594000000E+02  0.51100000000E-03 0. -1.
    9900012    2    1    2    0    0  0.21424012903E+02  0.34507285226E+01  0.23362882047E+02  0.59301951111E+02  0.50000012918E+02 0.  0.
         12    1    1    2    0    0 -0.21424012903E+02 -0.34507285226E+01 -0.23362882047E+02  0.31886048889E+02  0.00000000000E+00 0. -1.
         11    1    3    3    0    0  0.14289271150E+01  0.15748653864E+02  0.23523970730E+02  0.28345001860E+02  0.51100000000E-03 0. -1.
        -11    1    3    3    0    0 -0.40703584440E+01 -0.16386581999E+01 -0.14045735851E+01  0.46071515903E+01  0.51100000000E-03 0.  1.
         12    1    3    3    0    0  0.24065444232E+02 -0.10659267142E+02  0.12434849018E+01  0.26349797661E+02  0.00000000000E+00 0. -1.
</event>
<event>
 7    1  0.3220798E-013  0.5930189E+02  0.7816164E-02  0.1266605E+00
        -11   -1    0    0    0    0  0.00000000000E+00  0.00000000000E+00  0.45593999997E+02  0.45594000000E+02  0.51100000000E-03 0.  1.
         11   -1    0    0    0    0 -0.00000000000E+00 -0.00000000000E+00 -0.45593999997E+02  0.45594000000E+02  0.51100000000E-03 0. -1.
    9900012    2    1    2    0    0  0.93768735432E+01  0.30202728461E+02 -0.40735379982E+01  0.59301885848E+02  0.49999893894E+02 0.  0.
         12    1    1    2    0    0 -0.93768735432E+01 -0.30202728461E+02  0.40735379982E+01  0.31886114152E+02  0.00000000000E+00 0. -1.
         11    1    3    3    0    0 -0.33994209810E+01 -0.80868772044E+01 -0.50458533555E+01  0.10119994183E+02  0.51100000000E-03 0. -1.
        -11    1    3    3    0    0 -0.58588893934E+01  0.25965602712E+02 -0.17451416684E+01  0.26675543646E+02  0.51100000000E-03 0.  1.
        -12    1    3    3    0    0  0.18635183918E+02  0.12324002953E+02  0.27174570257E+01  0.22506348018E+02  0.00000000000E+00 0.  1.
</event>
<event>
 7    1  0.4027836E-013  0.5930191E+02  0.7816164E-02  0.1266605E+00
        -11   -1    0    0    0    0  0.00000000000E+00  0.00000000000E+00  0.45593999997E+02  0.45594000000E+02  0.51100000000E-03 0. -1.
         11   -1    0    0    0    0 -0.00000000000E+00 -0.00000000000E+00 -0.45593999997E+02  0.45594000000E+02  0.51100000000E-03 0.  1.
    9900012    2    1    2    0    0  0.22123437993E+02  0.83085561817E+01 -0.21406644260E+02  0.59301905336E+02  0.49999929435E+02 0.  0.
         12    1    1    2    0    0 -0.22123437993E+02 -0.83085561817E+01  0.21406644260E+02  0.31886094664E+02  0.00000000000E+00 0. -1.
         11    1    3    3    0    0  0.11865363674E+02 -0.84023307252E+01  0.43415151586E+00  0.14545600865E+02  0.51100000000E-03 0. -1.
        -11    1    3    3    0    0  0.22563676417E+02  0.10794034943E+02 -0.17114033779E+02  0.30307108675E+02  0.51100000000E-03 0.  1.
         12    1    3    3    0    0 -0.12305602098E+02  0.59168519643E+01 -0.47267619969E+01  0.14449195796E+02  0.00000000000E+00 0. -1.
</event>
<event>
 7    1  0.3220798E-013  0.5930188E+02  0.7816164E-02  0.1266605E+00
        -11   -1    0    0    0    0  0.00000000000E+00  0.00000000000E+00  0.45593999997E+02  0.45594000000E+02  0.51100000000E-03 0.  1.
         11   -1    0    0    0    0 -0.00000000000E+00 -0.00000000000E+00 -0.45593999997E+02  0.45594000000E+02  0.51100000000E-03 0. -1.
    9900012    2    1    2    0    0 -0.12996142799E+02  0.15577571639E+02  0.24600083541E+02  0.59301881138E+02  0.49999885305E+02 0.  0.
         12    1    1    2    0    0  0.12996142799E+02 -0.15577571639E+02 -0.24600083541E+02  0.31886118862E+02  0.00000000000E+00 0. -1.
         11    1    3    3    0    0  0.48672154113E+01 -0.49131994964E+01  0.22951867954E+02  0.23971181823E+02  0.51100000000E-03 0. -1.
        -11    1    3    3    0    0 -0.43936855253E+01  0.73518301203E+01  0.11303278553E+02  0.14181607276E+02  0.51100000000E-03 0.  1.
         12    1    3    3    0    0 -0.13469672685E+02  0.13138941015E+02 -0.96550629655E+01  0.21149092040E+02  0.00000000000E+00 0. -1.
</event>
<event>
 7    1  0.3220798E-013  0.5930192E+02  0.7816164E-02  0.1266605E+00
        -11   -1    0    0    0    0  0.00000000000E+00  0.00000000000E+00  0.45593999997E+02  0.45594000000E+02  0.51100000000E-03 0.  1.
         11   -1    0    0    0    0 -0.00000000000E+00 -0.00000000000E+00 -0.45593999997E+02  0.45594000000E+02  0.51100000000E-03 0. -1.
    9900012    2    1    2    0    0 -0.70822979979E+00 -0.31363970901E+02 -0.57027795897E+01  0.59301922235E+02  0.49999960256E+02 0.  0.
         12    1    1    2    0    0  0.70822979979E+00  0.31363970901E+02  0.57027795897E+01  0.31886077765E+02  0.00000000000E+00 0. -1.
         11    1    3    3    0    0 -0.57536932213E+01  0.77139048565E+01  0.22471649987E+01  0.98822600963E+01  0.51100000000E-03 0. -1.
        -11    1    3    3    0    0  0.95613167257E+01 -0.50019189488E+01  0.59725741150E+01  0.12333272579E+02  0.51100000000E-03 0.  1.
         12    1    3    3    0    0 -0.45158533042E+01 -0.34075956809E+02 -0.13922518703E+02  0.37086389560E+02  0.00000000000E+00 0. -1.
</event>
<event>
 7    1  0.3220798E-013  0.5930194E+02  0.7816164E-02  0.1266605E+00
        -11   -1    0    0    0    0  0.00000000000E+00  0.00000000000E+00  0.45593999997E+02  0.45594000000E+02  0.51100000000E-03 0.  1.
         11   -1    0    0    0    0 -0.00000000000E+00 -0.00000000000E+00 -0.45593999997E+02  0.45594000000E+02  0.51100000000E-03 0. -1.
    9900012    2    1    2    0    0  0.29378409773E+02  0.24101319766E+01  0.12158177438E+02  0.59301937597E+02  0.49999988272E+02 0.  0.
         12    1    1    2    0    0 -0.29378409773E+02 -0.24101319766E+01 -0.12158177438E+02  0.31886062403E+02  0.00000000000E+00 0. -1.
         11    1    3    3    0    0  0.79917864072E+01  0.28051775361E+01 -0.17139196256E+02  0.19117785424E+02  0.51100000000E-03 0. -1.
        -11    1    3    3    0    0  0.78848816010E+01 -0.26074394039E+00 -0.39345073433E-01  0.78892898008E+01  0.51100000000E-03 0.  1.
         12    1    3    3    0    0  0.13501741765E+02 -0.13430161907E+00  0.29336718767E+02  0.32294862372E+02  0.00000000000E+00 0. -1.
</event>
<event>
 7    1  0.3220798E-013  0.5930193E+02  0.7816164E-02  0.1266605E+00
        -11   -1    0    0    0    0  0.00000000000E+00  0.00000000000E+00  0.45593999997E+02  0.45594000000E+02  0.51100000000E-03 0.  1.
         11   -1    0    0    0    0 -0.00000000000E+00 -0.00000000000E+00 -0.45593999997E+02  0.45594000000E+02  0.51100000000E-03 0. -1.
    9900012    2    1    2    0    0  0.31708491648E+02  0.17210929827E+01  0.28863297584E+01  0.59301929325E+02  0.49999973186E+02 0.  0.
         12    1    1    2    0    0 -0.31708491648E+02 -0.17210929827E+01 -0.28863297584E+01  0.31886070675E+02  0.00000000000E+00 0. -1.
         11    1    3    3    0    0  0.16574057924E+02  0.76982335510E+01 -0.82763125003E+01  0.20061394387E+02  0.51100000000E-03 0. -1.
        -11    1    3    3    0    0  0.12999121964E+02  0.13048036818E+02  0.43984469317E+01  0.18936070667E+02  0.51100000000E-03 0.  1.
        -12    1    3    3    0    0  0.21353117594E+01 -0.19025177387E+02  0.67641953269E+01  0.20304464271E+02  0.00000000000E+00 0.  1.
</event>
<event>
 7    1  0.3220798E-013  0.5930196E+02  0.7816164E-02  0.1266605E+00
        -11   -1    0    0    0    0  0.00000000000E+00  0.00000000000E+00  0.45593999997E+02  0.45594000000E+02  0.51100000000E-03 0.  1.
         11   -1    0    0    0    0 -0.00000000000E+00 -0.00000000000E+00 -0.45593999997E+02  0.45594000000E+02  0.51100000000E-03 0. -1.
    9900012    2    1    2    0    0  0.65333588542E+01  0.29799958722E+02  0.92734661700E+01  0.59301960852E+02  0.50000030683E+02 0.  0.
         12    1    1    2    0    0 -0.65333588542E+01 -0.29799958722E+02 -0.92734661700E+01  0.31886039148E+02  0.00000000000E+00 0. -1.
         11    1    3    3    0    0  0.67492476477E+01  0.22746278267E+02 -0.54293003023E+01  0.24339737486E+02  0.51100000000E-03 0. -1.
        -11    1    3    3    0    0  0.13773724119E+02  0.11486733526E+01 -0.60785298255E-02  0.13821539848E+02  0.51100000000E-03 0.  1.
        -12    1    3    3    0    0 -0.13989612912E+02  0.59050071019E+01  0.14708845002E+02  0.21140683518E+02  0.00000000000E+00 0.  1.
</event>
<event>
 7    1  0.3220798E-013  0.5930192E+02  0.7816164E-02  0.1266605E+00
        -11   -1    0    0    0    0  0.00000000000E+00  0.00000000000E+00  0.45593999997E+02  0.45594000000E+02  0.51100000000E-03 0.  1.
         11   -1    0    0    0    0 -0.00000000000E+00 -0.00000000000E+00 -0.45593999997E+02  0.45594000000E+02  0.51100000000E-03 0. -1.
    9900012    2    1    2    0    0  0.12687815538E+02  0.17091680683E+02  0.23740590641E+02  0.59301923796E+02  0.49999963103E+02 0.  0.
         12    1    1    2    0    0 -0.12687815538E+02 -0.17091680683E+02 -0.23740590641E+02  0.31886076204E+02  0.00000000000E+00 0. -1.
         11    1    3    3    0    0 -0.18529134475E+02  0.42269191341E+01  0.92536038729E+01  0.21138232061E+02  0.51100000000E-03 0. -1.
        -11    1    3    3    0    0  0.11339403738E+02  0.10192709977E+02  0.65316924591E+01  0.16587236673E+02  0.51100000000E-03 0.  1.
        -12    1    3    3    0    0  0.19877546275E+02  0.26720515716E+01  0.79552943091E+01  0.21576455063E+02  0.00000000000E+00 0.  1.
</event>
<event>
 7    1  0.3220798E-013  0.5930187E+02  0.7816164E-02  0.1266605E+00
        -11   -1    0    0    0    0  0.00000000000E+00  0.00000000000E+00  0.45593999997E+02  0.45594000000E+02  0.51100000000E-03 0.  1.
         11   -1    0    0    0    0 -0.00000000000E+00 -0.00000000000E+00 -0.45593999997E+02  0.45594000000E+02  0.51100000000E-03 0. -1.
    9900012    2    1    2    0    0  0.11079534459E+02  0.22272317895E+02  0.19947758056E+02  0.59301870105E+02  0.49999865182E+02 0.  0.
         12    1    1    2    0    0 -0.11079534459E+02 -0.22272317895E+02 -0.19947758056E+02  0.31886129895E+02  0.00000000000E+00 0. -1.
         11    1    3    3    0    0 -0.24179814004E+01  0.38840710899E+01 -0.69697976086E+01  0.83373089933E+01  0.51100000000E-03 0. -1.
        -11    1    3    3    0    0  0.94755351077E+01  0.68120042724E+01 -0.78738470799E+01  0.14077877535E+02  0.51100000000E-03 0.  1.
        -12    1    3    3    0    0  0.40219807517E+01  0.11576242532E+02  0.34791402745E+02  0.36886683577E+02  0.00000000000E+00 0.  1.
</event>
<event>
 7    1  0.3220798E-013  0.5930194E+02  0.7816164E-02  0.1266605E+00
        -11   -1    0    0    0    0  0.00000000000E+00  0.00000000000E+00  0.45593999997E+02  0.45594000000E+02  0.51100000000E-03 0. -1.
         11   -1    0    0    0    0 -0.00000000000E+00 -0.00000000000E+00 -0.45593999997E+02  0.45594000000E+02  0.51100000000E-03 0.  1.
    9900012    2    1    2    0    0  0.18699697009E+02  0.13191852749E+02 -0.22203985201E+02  0.59301943393E+02  0.49999998842E+02 0.  0.
         12    1    1    2    0    0 -0.18699697009E+02 -0.13191852749E+02  0.22203985201E+02  0.31886056607E+02  0.00000000000E+00 0. -1.
         11    1    3    3    0    0  0.38115612879E+01  0.84500230770E+01  0.47906096864E+01  0.10434597782E+02  0.51100000000E-03 0. -1.
        -11    1    3    3    0    0  0.61389742111E+00 -0.48470998301E+01  0.82859635960E+01  0.96191704311E+01  0.51100000000E-03 0.  1.
        -12    1    3    3    0    0  0.14274238300E+02  0.95889295019E+01 -0.35280558483E+02  0.39248175179E+02  0.00000000000E+00 0.  1.
</event>
<event>
 7    1  0.3220798E-013  0.5930192E+02  0.7816164E-02  0.1266605E+00
        -11   -1    0    0    0    0  0.00000000000E+00  0.00000000000E+00  0.45593999997E+02  0.45594000000E+02  0.51100000000E-03 0. -1.
         11   -1    0    0    0    0 -0.00000000000E+00 -0.00000000000E+00 -0.45593999997E+02  0.45594000000E+02  0.51100000000E-03 0.  1.
    9900012    2    1    2    0    0  0.13683658012E+02 -0.27205522060E+01 -0.28671911406E+02  0.59301915189E+02  0.49999947405E+02 0.  0.
         12    1    1    2    0    0 -0.13683658012E+02  0.27205522060E+01  0.28671911406E+02  0.31886084811E+02  0.00000000000E+00 0. -1.
         11    1    3    3    0    0  0.15472793512E+02 -0.25169697631E+01  0.26333177643E+01  0.15895811982E+02  0.51100000000E-03 0. -1.
        -11    1    3    3    0    0  0.13662361701E+02 -0.20318270584E+01 -0.10129962327E+02  0.17129056759E+02  0.51100000000E-03 0.  1.
        -12    1    3    3    0    0 -0.15451497201E+02  0.18282446155E+01 -0.21175266844E+02  0.26277046448E+02  0.00000000000E+00 0.  1.
</event>
<event>
 7    1  0.3220798E-013  0.5930199E+02  0.7816164E-02  0.1266605E+00
        -11   -1    0    0    0    0  0.00000000000E+00  0.00000000000E+00  0.45593999997E+02  0.45594000000E+02  0.51100000000E-03 0.  1.
         11   -1    0    0    0    0 -0.00000000000E+00 -0.00000000000E+00 -0.45593999997E+02  0.45594000000E+02  0.51100000000E-03 0. -1.
    9900012    2    1    2    0    0  0.22069861698E+01  0.30749505563E+02 -0.81433882710E+01  0.59301989700E+02  0.50000083294E+02 0.  0.
         12    1    1    2    0    0 -0.22069861698E+01 -0.30749505563E+02  0.81433882710E+01  0.31886010300E+02  0.00000000000E+00 0. -1.
         11    1    3    3    0    0  0.68281694343E+01  0.11849388172E+02  0.11410966358E+01  0.13723483511E+02  0.51100000000E-03 0.  1.
        -11    1    3    3    0    0  0.52694508156E+01 -0.93125808186E+01 -0.11365745360E+02  0.15609978900E+02  0.51100000000E-03 0. -1.
         12    1    3    3    0    0 -0.98906340801E+01  0.28212698210E+02  0.20812604537E+01  0.29968527289E+02  0.00000000000E+00 0. -1.
</event>
<event>
 7    1  0.3220798E-013  0.5930204E+02  0.7816164E-02  0.1266604E+00
        -11   -1    0    0    0    0  0.00000000000E+00  0.00000000000E+00  0.45593999997E+02  0.45594000000E+02  0.51100000000E-03 0.  1.
         11   -1    0    0    0    0 -0.00000000000E+00 -0.00000000000E+00 -0.45593999997E+02  0.45594000000E+02  0.51100000000E-03 0. -1.
    9900012    2    1    2    0    0 -0.27317078654E+02  0.73303695872E+01  0.14722673039E+02  0.59302043752E+02  0.50000181872E+02 0.  0.
         12    1    1    2    0    0  0.27317078654E+02 -0.73303695872E+01 -0.14722673039E+02  0.31885956248E+02  0.00000000000E+00 0. -1.
         11    1    3    3    0    0 -0.74855996965E+01  0.74015116426E+01  0.22429441372E+02  0.24776933182E+02  0.51100000000E-03 0. -1.
        -11    1    3    3    0    0 -0.66930123689E+01  0.10453878664E+02  0.50525176790E+01  0.13401788270E+02  0.51100000000E-03 0.  1.
         12    1    3    3    0    0 -0.13138466588E+02 -0.10525020719E+02 -0.12759286012E+02  0.21123322299E+02  0.00000000000E+00 0. -1.
</event>
<event>
 7    1  0.3220798E-013  0.5930194E+02  0.7816164E-02  0.1266605E+00
        -11   -1    0    0    0    0  0.00000000000E+00  0.00000000000E+00  0.45593999997E+02  0.45594000000E+02  0.51100000000E-03 0. -1.
         11   -1    0    0    0    0 -0.00000000000E+00 -0.00000000000E+00 -0.45593999997E+02  0.45594000000E+02  0.51100000000E-03 0.  1.
    9900012    2    1    2    0    0  0.10960784677E+02  0.26017812496E+02 -0.14820768710E+02  0.59301944224E+02  0.50000000358E+02 0.  0.
         12    1    1    2    0    0 -0.10960784677E+02 -0.26017812496E+02  0.14820768710E+02  0.31886055776E+02  0.00000000000E+00 0. -1.
         11    1    3    3    0    0 -0.72458199470E+01 -0.43887107132E+01 -0.12443512757E+02  0.15053361698E+02  0.51100000000E-03 0. -1.
        -11    1    3    3    0    0  0.76300097751E+01 -0.33722077538E+01  0.20131621518E+01  0.85814716928E+01  0.51100000000E-03 0.  1.
        -12    1    3    3    0    0  0.10576594849E+02  0.33778730963E+02 -0.43904181046E+01  0.35667110833E+02  0.00000000000E+00 0.  1.
</event>
<event>
 7    1  0.3220798E-013  0.5930191E+02  0.7816164E-02  0.1266605E+00
        -11   -1    0    0    0    0  0.00000000000E+00  0.00000000000E+00  0.45593999997E+02  0.45594000000E+02  0.51100000000E-03 0. -1.
         11   -1    0    0    0    0 -0.00000000000E+00 -0.00000000000E+00 -0.45593999997E+02  0.45594000000E+02  0.51100000000E-03 0.  1.
    9900012    2    1    2    0    0 -0.30139794036E+02  0.75444214689E+01 -0.71691786264E+01  0.59301912093E+02  0.49999941759E+02 0.  0.
         12    1    1    2    0    0  0.30139794036E+02 -0.75444214689E+01  0.71691786264E+01  0.31886087907E+02  0.00000000000E+00 0. -1.
         11    1    3    3    0    0 -0.80526628540E+01  0.13956133937E+02 -0.87290790041E+00  0.16136326161E+02  0.51100000000E-03 0. -1.
        -11    1    3    3    0    0 -0.24340272530E+02  0.96482507967E+01 -0.13782511586E+01  0.26219023376E+02  0.51100000000E-03 0.  1.
        -12    1    3    3    0    0  0.22531413487E+01 -0.16059963265E+02 -0.49180195675E+01  0.16946562556E+02  0.00000000000E+00 0.  1.
</event>
<event>
 7    1  0.3220798E-013  0.5930199E+02  0.7816164E-02  0.1266605E+00
        -11   -1    0    0    0    0  0.00000000000E+00  0.00000000000E+00  0.45593999997E+02  0.45594000000E+02  0.51100000000E-03 0.  1.
         11   -1    0    0    0    0 -0.00000000000E+00 -0.00000000000E+00 -0.45593999997E+02  0.45594000000E+02  0.51100000000E-03 0. -1.
    9900012    2    1    2    0    0 -0.13059206653E+02 -0.23527894650E+02  0.17105936692E+02  0.59301987782E+02  0.50000079797E+02 0.  0.
         12    1    1    2    0    0  0.13059206653E+02  0.23527894650E+02 -0.17105936692E+02  0.31886012218E+02  0.00000000000E+00 0. -1.
         11    1    3    3    0    0 -0.16769788407E+02  0.10284394894E+02  0.56543873754E-01  0.19672259123E+02  0.51100000000E-03 0. -1.
        -11    1    3    3    0    0  0.17534441789E+01  0.20221133089E-01  0.14779575297E+00  0.17597781759E+01  0.51100000000E-03 0.  1.
         12    1    3    3    0    0  0.19571375747E+01 -0.33832510677E+02  0.16901597066E+02  0.37869950483E+02  0.00000000000E+00 0. -1.
</event>
<event>
 7    1  0.3220798E-013  0.5930195E+02  0.7816164E-02  0.1266605E+00
        -11   -1    0    0    0    0  0.00000000000E+00  0.00000000000E+00  0.45593999997E+02  0.45594000000E+02  0.51100000000E-03 0. -1.
         11   -1    0    0    0    0 -0.00000000000E+00 -0.00000000000E+00 -0.45593999997E+02  0.45594000000E+02  0.51100000000E-03 0.  1.
    9900012    2    1    2    0    0  0.87574720445E+01 -0.29581730745E+02 -0.80590464059E+01  0.59301947571E+02  0.50000006463E+02 0.  0.
         12    1    1    2    0    0 -0.87574720445E+01  0.29581730745E+02  0.80590464059E+01  0.31886052429E+02  0.00000000000E+00 0. -1.
         11    1    3    3    0    0  0.15443266532E+01  0.57239029891E+01  0.26344850684E+01  0.64875667301E+01  0.51100000000E-03 0. -1.
        -11    1    3    3    0    0 -0.49446274803E+00  0.66228728253E+01 -0.75680919007E+01  0.10068910226E+02  0.51100000000E-03 0.  1.
        -12    1    3    3    0    0  0.77076081393E+01 -0.41928506560E+02 -0.31254395736E+01  0.42745470615E+02  0.00000000000E+00 0.  1.
</event>
<event>
 7    1  0.3220798E-013  0.5930194E+02  0.7816164E-02  0.1266605E+00
        -11   -1    0    0    0    0  0.00000000000E+00  0.00000000000E+00  0.45593999997E+02  0.45594000000E+02  0.51100000000E-03 0. -1.
         11   -1    0    0    0    0 -0.00000000000E+00 -0.00000000000E+00 -0.45593999997E+02  0.45594000000E+02  0.51100000000E-03 0.  1.
    9900012    2    1    2    0    0 -0.20060427381E+02  0.31662524635E+00 -0.24783051337E+02  0.59301942987E+02  0.49999998102E+02 0.  0.
         12    1    1    2    0    0  0.20060427381E+02 -0.31662524635E+00  0.24783051337E+02  0.31886057013E+02  0.00000000000E+00 0. -1.
         11    1    3    3    0    0  0.39676894235E+01 -0.31450612060E+01 -0.14763442298E+02  0.15607472508E+02  0.51100000000E-03 0. -1.
        -11    1    3    3    0    0 -0.73872754930E-01  0.11504610134E+02 -0.13993202815E+02  0.18115497145E+02  0.51100000000E-03 0.  1.
         12    1    3    3    0    0 -0.23954244050E+02 -0.80429236819E+01  0.39735937750E+01  0.25578973334E+02  0.00000000000E+00 0. -1.
</event>
<event>
 7    1  0.3220798E-013  0.5930193E+02  0.7816164E-02  0.1266605E+00
        -11   -1    0    0    0    0  0.00000000000E+00  0.00000000000E+00  0.45593999997E+02  0.45594000000E+02  0.51100000000E-03 0.  1.
         11   -1    0    0    0    0 -0.00000000000E+00 -0.00000000000E+00 -0.45593999997E+02  0.45594000000E+02  0.51100000000E-03 0. -1.
    9900012    2    1    2    0    0 -0.29148670436E+02 -0.42004781704E+01  0.12224260591E+02  0.59301928557E+02  0.49999971786E+02 0.  0.
         12    1    1    2    0    0  0.29148670436E+02  0.42004781704E+01 -0.12224260591E+02  0.31886071443E+02  0.00000000000E+00 0. -1.
         11    1    3    3    0    0  0.60514217148E+01 -0.14161152183E+02  0.58954704631E-01  0.15400045839E+02  0.51100000000E-03 0. -1.
        -11    1    3    3    0    0 -0.18102893823E+02 -0.52584758341E+01  0.86607809032E+01  0.20745492498E+02  0.51100000000E-03 0.  1.
        -12    1    3    3    0    0 -0.17097198328E+02  0.15219149846E+02  0.35045249831E+01  0.23156390221E+02  0.00000000000E+00 0.  1.
</event>
<event>
 7    1  0.3220798E-013  0.5930199E+02  0.7816164E-02  0.1266605E+00
        -11   -1    0    0    0    0  0.00000000000E+00  0.00000000000E+00  0.45593999997E+02  0.45594000000E+02  0.51100000000E-03 0.  1.
         11   -1    0    0    0    0 -0.00000000000E+00 -0.00000000000E+00 -0.45593999997E+02  0.45594000000E+02  0.51100000000E-03 0. -1.
    9900012    2    1    2    0    0  0.10795612546E+02 -0.18476664512E+02  0.23638644806E+02  0.59301985667E+02  0.50000075941E+02 0.  0.
         12    1    1    2    0    0 -0.10795612546E+02  0.18476664512E+02 -0.23638644806E+02  0.31886014333E+02  0.00000000000E+00 0. -1.
         11    1    3    3    0    0 -0.33898970665E+00 -0.13637847982E+02 -0.51168839719E+01  0.14570117139E+02  0.51100000000E-03 0. -1.
        -11    1    3    3    0    0  0.21791340862E+01 -0.10186481274E+02 -0.33754969177E+01  0.10950205743E+02  0.51100000000E-03 0.  1.
        -12    1    3    3    0    0  0.89554681663E+01  0.53476647435E+01  0.32131025696E+02  0.33781662786E+02  0.00000000000E+00 0.  1.
</event>
<event>
 7    1  0.3220798E-013  0.5930192E+02  0.7816164E-02  0.1266605E+00
        -11   -1    0    0    0    0  0.00000000000E+00  0.00000000000E+00  0.45593999997E+02  0.45594000000E+02  0.51100000000E-03 0. -1.
         11   -1    0    0    0    0 -0.00000000000E+00 -0.00000000000E+00 -0.45593999997E+02  0.45594000000E+02  0.51100000000E-03 0.  1.
    9900012    2    1    2    0    0 -0.13796275060E+02  0.28387377172E+02  0.45323076498E+01  0.59301918383E+02  0.49999953230E+02 0.  0.
         12    1    1    2    0    0  0.13796275060E+02 -0.28387377172E+02 -0.45323076498E+01  0.31886081617E+02  0.00000000000E+00 0. -1.
         11    1    3    3    0    0 -0.33123663136E+01 -0.98224593444E+00  0.11203211917E+02  0.11723844728E+02  0.51100000000E-03 0. -1.
        -11    1    3    3    0    0  0.18692468907E+01  0.11707239069E+02  0.13563661773E+02  0.18014617717E+02  0.51100000000E-03 0.  1.
        -12    1    3    3    0    0 -0.12353155638E+02  0.17662384038E+02 -0.20234566041E+02  0.29563455938E+02  0.00000000000E+00 0.  1.
</event>
<event>
 7    1  0.3220798E-013  0.5930194E+02  0.7816164E-02  0.1266605E+00
        -11   -1    0    0    0    0  0.00000000000E+00  0.00000000000E+00  0.45593999997E+02  0.45594000000E+02  0.51100000000E-03 0.  1.
         11   -1    0    0    0    0 -0.00000000000E+00 -0.00000000000E+00 -0.45593999997E+02  0.45594000000E+02  0.51100000000E-03 0. -1.
    9900012    2    1    2    0    0 -0.19693955819E+02  0.73035961514E+01  0.23990127052E+02  0.59301943353E+02  0.49999998769E+02 0.  0.
         12    1    1    2    0    0  0.19693955819E+02 -0.73035961514E+01 -0.23990127052E+02  0.31886056647E+02  0.00000000000E+00 0. -1.
         11    1    3    3    0    0 -0.57546480444E+01  0.98458153107E+01 -0.63307132134E+01  0.13043541823E+02  0.51100000000E-03 0. -1.
        -11    1    3    3    0    0 -0.10377488696E+02  0.11678234776E+02  0.39941829880E+01  0.16125350760E+02  0.51100000000E-03 0.  1.
        -12    1    3    3    0    0 -0.35618190785E+01 -0.14220453936E+02  0.26326657277E+02  0.30133050769E+02  0.00000000000E+00 0.  1.
</event>
<event>
 7    1  0.3220798E-013  0.5930196E+02  0.7816164E-02  0.1266605E+00
        -11   -1    0    0    0    0  0.00000000000E+00  0.00000000000E+00  0.45593999997E+02  0.45594000000E+02  0.51100000000E-03 0.  1.
         11   -1    0    0    0    0 -0.00000000000E+00 -0.00000000000E+00 -0.45593999997E+02  0.45594000000E+02  0.51100000000E-03 0. -1.
    9900012    2    1    2    0    0  0.83174736880E+01 -0.94277255384E+01  0.29302857829E+02  0.59301955179E+02  0.50000020337E+02 0.  0.
         12    1    1    2    0    0 -0.83174736880E+01  0.94277255384E+01 -0.29302857829E+02  0.31886044821E+02  0.00000000000E+00 0. -1.
         11    1    3    3    0    0 -0.10577028986E+02 -0.67360131577E+01  0.19587270567E+02  0.23257441475E+02  0.51100000000E-03 0. -1.
        -11    1    3    3    0    0  0.79138333805E+01 -0.15763383231E+02  0.50142392244E+01  0.18337273650E+02  0.51100000000E-03 0.  1.
        -12    1    3    3    0    0  0.10980669294E+02  0.13071670850E+02  0.47013480379E+01  0.17707240054E+02  0.00000000000E+00 0.  1.
</event>
<event>
 7    1  0.3220798E-013  0.5930196E+02  0.7816164E-02  0.1266605E+00
        -11   -1    0    0    0    0  0.00000000000E+00  0.00000000000E+00  0.45593999997E+02  0.45594000000E+02  0.51100000000E-03 0.  1.
         11   -1    0    0    0    0 -0.00000000000E+00 -0.00000000000E+00 -0.45593999997E+02  0.45594000000E+02  0.51100000000E-03 0. -1.
    9900012    2    1    2    0    0  0.18287452187E+02  0.20626687778E+02  0.16025876012E+02  0.59301955119E+02  0.50000020227E+02 0.  0.
         12    1    1    2    0    0 -0.18287452187E+02 -0.20626687778E+02 -0.16025876012E+02  0.31886044881E+02  0.00000000000E+00 0. -1.
         11    1    3    3    0    0  0.20404877413E+02  0.24787018251E+02  0.10836824080E+02  0.33884982698E+02  0.51100000000E-03 0.  1.
        -11    1    3    3    0    0 -0.47178295842E+01  0.24822989819E+01  0.13470353280E+02  0.14486895526E+02  0.51100000000E-03 0. -1.
        -12    1    3    3    0    0  0.26004043588E+01 -0.66426294550E+01 -0.82813013484E+01  0.10930076895E+02  0.00000000000E+00 0.  1.
</event>
<event>
 7    1  0.3220798E-013  0.5930194E+02  0.7816164E-02  0.1266605E+00
        -11   -1    0    0    0    0  0.00000000000E+00  0.00000000000E+00  0.45593999997E+02  0.45594000000E+02  0.51100000000E-03 0.  1.
         11   -1    0    0    0    0 -0.00000000000E+00 -0.00000000000E+00 -0.45593999997E+02  0.45594000000E+02  0.51100000000E-03 0. -1.
    9900012    2    1    2    0    0  0.57407834771E+00 -0.42348685349E+01  0.31598373776E+02  0.59301938739E+02  0.49999990354E+02 0.  0.
         12    1    1    2    0    0 -0.57407834771E+00  0.42348685349E+01 -0.31598373776E+02  0.31886061261E+02  0.00000000000E+00 0. -1.
         11    1    3    3    0    0  0.23952146923E+01 -0.11631270627E+02 -0.29622213334E+01  0.12239210159E+02  0.51100000000E-03 0. -1.
        -11    1    3    3    0    0 -0.52690263514E+01 -0.11521369590E+02  0.14975893689E+02  0.19615860622E+02  0.51100000000E-03 0.  1.
        -12    1    3    3    0    0  0.34478900068E+01  0.18917771682E+02  0.19584701421E+02  0.27446867957E+02  0.00000000000E+00 0.  1.
</event>
<event>
 7    1  0.3220798E-013  0.5930194E+02  0.7816164E-02  0.1266605E+00
        -11   -1    0    0    0    0  0.00000000000E+00  0.00000000000E+00  0.45593999997E+02  0.45594000000E+02  0.51100000000E-03 0.  1.
         11   -1    0    0    0    0 -0.00000000000E+00 -0.00000000000E+00 -0.45593999997E+02  0.45594000000E+02  0.51100000000E-03 0. -1.
    9900012    2    1    2    0    0  0.17842669721E+01 -0.30305785244E+02 -0.97517591319E+01  0.59301936680E+02  0.49999986599E+02 0.  0.
         12    1    1    2    0    0 -0.17842669721E+01  0.30305785244E+02  0.97517591319E+01  0.31886063320E+02  0.00000000000E+00 0. -1.
         11    1    3    3    0    0 -0.18245947643E+01 -0.48427548645E+01 -0.13738978483E+02  0.14681312977E+02  0.51100000000E-03 0. -1.
        -11    1    3    3    0    0  0.18249027453E+02 -0.12014756545E+02 -0.55924757208E+01  0.22553429069E+02  0.51100000000E-03 0.  1.
         12    1    3    3    0    0 -0.14640165717E+02 -0.13448273834E+02  0.95796950714E+01  0.22067194634E+02  0.00000000000E+00 0. -1.
</event>
<event>
 7    1  0.3220798E-013  0.5930196E+02  0.7816164E-02  0.1266605E+00
        -11   -1    0    0    0    0  0.00000000000E+00  0.00000000000E+00  0.45593999997E+02  0.45594000000E+02  0.51100000000E-03 0. -1.
         11   -1    0    0    0    0 -0.00000000000E+00 -0.00000000000E+00 -0.45593999997E+02  0.45594000000E+02  0.51100000000E-03 0.  1.
    9900012    2    1    2    0    0 -0.44215744875E+01 -0.12455832068E+02 -0.29017609008E+02  0.59301957505E+02  0.50000024579E+02 0.  0.
         12    1    1    2    0    0  0.44215744875E+01  0.12455832068E+02  0.29017609008E+02  0.31886042495E+02  0.00000000000E+00 0. -1.
         11    1    3    3    0    0  0.20009328979E+02  0.36787102683E+01 -0.15141950078E+02  0.25361088460E+02  0.51100000000E-03 0. -1.
        -11    1    3    3    0    0 -0.97569099970E+01 -0.12364861935E+02 -0.82419107125E+01  0.17776844372E+02  0.51100000000E-03 0.  1.
        -12    1    3    3    0    0 -0.14673993470E+02 -0.37696804006E+01 -0.56337482177E+01  0.16164024674E+02  0.00000000000E+00 0.  1.
</event>
<event>
 7    1  0.3220798E-013  0.5930193E+02  0.7816164E-02  0.1266605E+00
        -11   -1    0    0    0    0  0.00000000000E+00  0.00000000000E+00  0.45593999997E+02  0.45594000000E+02  0.51100000000E-03 0.  1.
         11   -1    0    0    0    0 -0.00000000000E+00 -0.00000000000E+00 -0.45593999997E+02  0.45594000000E+02  0.51100000000E-03 0. -1.
    9900012    2    1    2    0    0  0.26245179005E+02  0.14794394889E+02 -0.10442133693E+02  0.59301926281E+02  0.49999967635E+02 0.  0.
         12    1    1    2    0    0 -0.26245179005E+02 -0.14794394889E+02  0.10442133693E+02  0.31886073719E+02  0.00000000000E+00 0. -1.
         11    1    3    3    0    0  0.10729748300E+02 -0.11330192122E+01 -0.63334059914E+00  0.10807976300E+02  0.51100000000E-03 0. -1.
        -11    1    3    3    0    0 -0.51253197875E+01  0.14216804330E+01  0.13273598803E+02  0.14299598023E+02  0.51100000000E-03 0.  1.
         12    1    3    3    0    0  0.20640750492E+02  0.14505733668E+02 -0.23082391897E+02  0.34194351958E+02  0.00000000000E+00 0. -1.
</event>
<event>
 7    1  0.3220798E-013  0.5930191E+02  0.7816164E-02  0.1266605E+00
        -11   -1    0    0    0    0  0.00000000000E+00  0.00000000000E+00  0.45593999997E+02  0.45594000000E+02  0.51100000000E-03 0.  1.
         11   -1    0    0    0    0 -0.00000000000E+00 -0.00000000000E+00 -0.45593999997E+02  0.45594000000E+02  0.51100000000E-03 0. -1.
    9900012    2    1    2    0    0 -0.44667284754E+01 -0.13343495450E+01  0.31543470513E+02  0.59301910808E+02  0.49999939415E+02 0.  0.
         12    1    1    2    0    0  0.44667284754E+01  0.13343495450E+01 -0.31543470513E+02  0.31886089192E+02  0.00000000000E+00 0. -1.
         11    1    3    3    0    0  0.14116281272E+02  0.79105235316E+01  0.12277105812E+02  0.20311895699E+02  0.51100000000E-03 0. -1.
        -11    1    3    3    0    0  0.25872597174E+01 -0.57281788419E+01  0.16117699523E+02  0.17299889707E+02  0.51100000000E-03 0.  1.
         12    1    3    3    0    0 -0.21170269465E+02 -0.35166942347E+01  0.31486651771E+01  0.21690125402E+02  0.00000000000E+00 0. -1.
</event>
<event>
 7    1  0.3220798E-013  0.5930178E+02  0.7816164E-02  0.1266605E+00
        -11   -1    0    0    0    0  0.00000000000E+00  0.00000000000E+00  0.45593999997E+02  0.45594000000E+02  0.51100000000E-03 0. -1.
         11   -1    0    0    0    0 -0.00000000000E+00 -0.00000000000E+00 -0.45593999997E+02  0.45594000000E+02  0.51100000000E-03 0.  1.
    9900012    2    1    2    0    0  0.26380074760E+02  0.17810137140E+02  0.19030862770E+01  0.59301779360E+02  0.49999699685E+02 0.  0.
         12    1    1    2    0    0 -0.26380074760E+02 -0.17810137140E+02 -0.19030862770E+01  0.31886220640E+02  0.00000000000E+00 0. -1.
         11    1    3    3    0    0 -0.47390945680E+01 -0.87018518223E+01 -0.93950944588E+01  0.13654634474E+02  0.51100000000E-03 0. -1.
        -11    1    3    3    0    0  0.74179331369E+01  0.23748000170E+01 -0.37241215936E+01  0.86333359166E+01  0.51100000000E-03 0.  1.
        -12    1    3    3    0    0  0.23701236191E+02  0.24137188946E+02  0.15022302329E+02  0.37013808970E+02  0.00000000000E+00 0.  1.
</event>
<event>
 7    1  0.3220798E-013  0.5930200E+02  0.7816164E-02  0.1266605E+00
        -11   -1    0    0    0    0  0.00000000000E+00  0.00000000000E+00  0.45593999997E+02  0.45594000000E+02  0.51100000000E-03 0.  1.
         11   -1    0    0    0    0 -0.00000000000E+00 -0.00000000000E+00 -0.45593999997E+02  0.45594000000E+02  0.51100000000E-03 0. -1.
    9900012    2    1    2    0    0  0.15140378657E+02 -0.18306106651E+02  0.21269044832E+02  0.59302001902E+02  0.50000105549E+02 0.  0.
         12    1    1    2    0    0 -0.15140378657E+02  0.18306106651E+02 -0.21269044832E+02  0.31885998098E+02  0.00000000000E+00 0. -1.
         11    1    3    3    0    0 -0.16366952444E+01 -0.10119956307E+02 -0.15957338219E+01  0.10374904995E+02  0.51100000000E-03 0. -1.
        -11    1    3    3    0    0  0.20271592609E+02 -0.80674354948E+01  0.32235715682E+02  0.38925086360E+02  0.51100000000E-03 0.  1.
         12    1    3    3    0    0 -0.34945187077E+01 -0.11871484982E+00 -0.93709370273E+01  0.10002010547E+02  0.00000000000E+00 0. -1.
</event>
<event>
 7    1  0.3220798E-013  0.5930200E+02  0.7816164E-02  0.1266605E+00
        -11   -1    0    0    0    0  0.00000000000E+00  0.00000000000E+00  0.45593999997E+02  0.45594000000E+02  0.51100000000E-03 0.  1.
         11   -1    0    0    0    0 -0.00000000000E+00 -0.00000000000E+00 -0.45593999997E+02  0.45594000000E+02  0.51100000000E-03 0. -1.
    9900012    2    1    2    0    0 -0.26755111576E+02 -0.11919269740E+02  0.12602051284E+02  0.59302004905E+02  0.50000111026E+02 0.  0.
         12    1    1    2    0    0  0.26755111576E+02  0.11919269740E+02 -0.12602051284E+02  0.31885995095E+02  0.00000000000E+00 0. -1.
         11    1    3    3    0    0  0.52248488736E+01 -0.14424361731E+02  0.34286758110E+01  0.15719957862E+02  0.51100000000E-03 0. -1.
        -11    1    3    3    0    0  0.38182505792E+01 -0.83440352428E+00 -0.37109849964E+01  0.53894968811E+01  0.51100000000E-03 0.  1.
        -12    1    3    3    0    0 -0.35798211029E+02  0.33394955156E+01  0.12884360470E+02  0.38192550162E+02  0.00000000000E+00 0.  1.
</event>
<event>
 7    1  0.3220798E-013  0.5930190E+02  0.7816164E-02  0.1266605E+00
        -11   -1    0    0    0    0  0.00000000000E+00  0.00000000000E+00  0.45593999997E+02  0.45594000000E+02  0.51100000000E-03 0.  1.
         11   -1    0    0    0    0 -0.00000000000E+00 -0.00000000000E+00 -0.45593999997E+02  0.45594000000E+02  0.51100000000E-03 0. -1.
    9900012    2    1    2    0    0  0.29005922575E+02 -0.84298140424E+01  0.10213616064E+02  0.59301901739E+02  0.49999922876E+02 0.  0.
         12    1    1    2    0    0 -0.29005922575E+02  0.84298140424E+01 -0.10213616064E+02  0.31886098261E+02  0.00000000000E+00 0. -1.
         11    1    3    3    0    0 -0.22739040160E+01 -0.75149647270E+00 -0.23126458802E+01  0.33292217785E+01  0.51100000000E-03 0. -1.
        -11    1    3    3    0    0  0.67058477683E+00 -0.12415112567E+02  0.20512206122E+02  0.23986148175E+02  0.51100000000E-03 0.  1.
        -12    1    3    3    0    0  0.30609241814E+02  0.47367949976E+01 -0.79859441779E+01  0.31986531786E+02  0.00000000000E+00 0.  1.
</event>
<event>
 7    1  0.3220798E-013  0.5930197E+02  0.7816164E-02  0.1266605E+00
        -11   -1    0    0    0    0  0.00000000000E+00  0.00000000000E+00  0.45593999997E+02  0.45594000000E+02  0.51100000000E-03 0.  1.
         11   -1    0    0    0    0 -0.00000000000E+00 -0.00000000000E+00 -0.45593999997E+02  0.45594000000E+02  0.51100000000E-03 0. -1.
    9900012    2    1    2    0    0  0.72347212594E+01  0.83053223070E+01  0.29923225053E+02  0.59301969079E+02  0.50000045688E+02 0.  0.
         12    1    1    2    0    0 -0.72347212594E+01 -0.83053223070E+01 -0.29923225053E+02  0.31886030921E+02  0.00000000000E+00 0. -1.
         11    1    3    3    0    0  0.75238177003E+01  0.10752502563E+01  0.44769919987E+01  0.88208533328E+01  0.51100000000E-03 0. -1.
        -11    1    3    3    0    0  0.32503443323E+01  0.65180750157E+01 -0.11362071945E+02  0.13496174248E+02  0.51100000000E-03 0.  1.
        -12    1    3    3    0    0 -0.35394407733E+01  0.71199703500E+00  0.36808304999E+02  0.36984941499E+02  0.00000000000E+00 0.  1.
</event>
<event>
 7    1  0.3220798E-013  0.5930194E+02  0.7816164E-02  0.1266605E+00
        -11   -1    0    0    0    0  0.00000000000E+00  0.00000000000E+00  0.45593999997E+02  0.45594000000E+02  0.51100000000E-03 0. -1.
         11   -1    0    0    0    0 -0.00000000000E+00 -0.00000000000E+00 -0.45593999997E+02  0.45594000000E+02  0.51100000000E-03 0.  1.
    9900012    2    1    2    0    0  0.31043456498E+02 -0.41077609204E+01 -0.60125520855E+01  0.59301942330E+02  0.49999996905E+02 0.  0.
         12    1    1    2    0    0 -0.31043456498E+02  0.41077609204E+01  0.60125520855E+01  0.31886057670E+02  0.00000000000E+00 0. -1.
         11    1    3    3    0    0 -0.84026028056E+01 -0.12388388089E+01  0.49657396636E+01  0.98385479707E+01  0.51100000000E-03 0. -1.
        -11    1    3    3    0    0  0.10720334576E+02  0.10734799835E+02 -0.89507609356E+01  0.17614699047E+02  0.51100000000E-03 0.  1.
        -12    1    3    3    0    0  0.28725724728E+02 -0.13603721947E+02 -0.20275308135E+01  0.31848695313E+02  0.00000000000E+00 0.  1.
</event>
<event>
 7    1  0.3220798E-013  0.5930194E+02  0.7816164E-02  0.1266605E+00
        -11   -1    0    0    0    0  0.00000000000E+00  0.00000000000E+00  0.45593999997E+02  0.45594000000E+02  0.51100000000E-03 0. -1.
         11   -1    0    0    0    0 -0.00000000000E+00 -0.00000000000E+00 -0.45593999997E+02  0.45594000000E+02  0.51100000000E-03 0.  1.
    9900012    2    1    2    0    0 -0.10372908802E+02 -0.22831494877E+02  0.19693810829E+02  0.59301943795E+02  0.49999999576E+02 0.  0.
         12    1    1    2    0    0  0.10372908802E+02  0.22831494877E+02 -0.19693810829E+02  0.31886056205E+02  0.00000000000E+00 0. -1.
         11    1    3    3    0    0 -0.27218720082E+02 -0.14550449917E+02  0.15231021967E+02  0.34417413414E+02  0.51100000000E-03 0. -1.
        -11    1    3    3    0    0 -0.28205607011E+00 -0.19988823549E+01  0.62363294558E+01  0.65549135492E+01  0.51100000000E-03 0.  1.
        -12    1    3    3    0    0  0.17127867350E+02 -0.62821626047E+01 -0.17735405938E+01  0.18329616831E+02  0.00000000000E+00 0.  1.
</event>
<event>
 7    1  0.3220798E-013  0.5930194E+02  0.7816164E-02  0.1266605E+00
        -11   -1    0    0    0    0  0.00000000000E+00  0.00000000000E+00  0.45593999997E+02  0.45594000000E+02  0.51100000000E-03 0.  1.
         11   -1    0    0    0    0 -0.00000000000E+00 -0.00000000000E+00 -0.45593999997E+02  0.45594000000E+02  0.51100000000E-03 0. -1.
    9900012    2    1    2    0    0 -0.20949981996E+02  0.85148699243E+01  0.22479229820E+02  0.59301944603E+02  0.50000001049E+02 0.  0.
         12    1    1    2    0    0  0.20949981996E+02 -0.85148699243E+01 -0.22479229820E+02  0.31886055397E+02  0.00000000000E+00 0. -1.
         11    1    3    3    0    0  0.23841983670E+01  0.14917480510E+02 -0.47881470261E+01  0.15847459696E+02  0.51100000000E-03 0. -1.
        -11    1    3    3    0    0 -0.14645408380E+02  0.44816973499E+01  0.31977874065E+01  0.15646067951E+02  0.51100000000E-03 0.  1.
        -12    1    3    3    0    0 -0.86887719830E+01 -0.10884307935E+02  0.24069589440E+02  0.27808416956E+02  0.00000000000E+00 0.  1.
</event>
<event>
 7    1  0.3220798E-013  0.5930193E+02  0.7816164E-02  0.1266605E+00
        -11   -1    0    0    0    0  0.00000000000E+00  0.00000000000E+00  0.45593999997E+02  0.45594000000E+02  0.51100000000E-03 0.  1.
         11   -1    0    0    0    0 -0.00000000000E+00 -0.00000000000E+00 -0.45593999997E+02  0.45594000000E+02  0.51100000000E-03 0. -1.
    9900012    2    1    2    0    0 -0.10298883455E+02 -0.28884801412E+02  0.87362694099E+01  0.59301934764E+02  0.49999983105E+02 0.  0.
         12    1    1    2    0    0  0.10298883455E+02  0.28884801412E+02 -0.87362694099E+01  0.31886065236E+02  0.00000000000E+00 0. -1.
         11    1    3    3    0    0 -0.27970017970E+01 -0.22341924303E+02  0.17756923513E+02  0.28675654020E+02  0.51100000000E-03 0. -1.
        -11    1    3    3    0    0 -0.15467303753E+02 -0.93945273584E+01  0.21917569315E+00  0.18098139902E+02  0.51100000000E-03 0.  1.
         12    1    3    3    0    0  0.79654220945E+01  0.28516502489E+01 -0.92398297961E+01  0.12528140842E+02  0.00000000000E+00 0. -1.
</event>
<event>
 7    1  0.3220798E-013  0.5930199E+02  0.7816164E-02  0.1266605E+00
        -11   -1    0    0    0    0  0.00000000000E+00  0.00000000000E+00  0.45593999997E+02  0.45594000000E+02  0.51100000000E-03 0.  1.
         11   -1    0    0    0    0 -0.00000000000E+00 -0.00000000000E+00 -0.45593999997E+02  0.45594000000E+02  0.51100000000E-03 0. -1.
    9900012    2    1    2    0    0  0.21439459399E+02 -0.62922297801E-01  0.23602191423E+02  0.59301987102E+02  0.50000078557E+02 0.  0.
         12    1    1    2    0    0 -0.21439459399E+02  0.62922297801E-01 -0.23602191423E+02  0.31886012898E+02  0.00000000000E+00 0. -1.
         11    1    3    3    0    0  0.49774149217E+01 -0.16475746669E+02  0.23809542637E+02  0.29378890525E+02  0.51100000000E-03 0. -1.
        -11    1    3    3    0    0  0.20959777075E+01 -0.42583953801E+01  0.12308116966E+00  0.47478629929E+01  0.51100000000E-03 0.  1.
         12    1    3    3    0    0  0.14366066770E+02  0.20671219752E+02 -0.33043238363E+00  0.25175233584E+02  0.00000000000E+00 0. -1.
</event>
<event>
 7    1  0.3220798E-013  0.5930194E+02  0.7816164E-02  0.1266605E+00
        -11   -1    0    0    0    0  0.00000000000E+00  0.00000000000E+00  0.45593999997E+02  0.45594000000E+02  0.51100000000E-03 0.  1.
         11   -1    0    0    0    0 -0.00000000000E+00 -0.00000000000E+00 -0.45593999997E+02  0.45594000000E+02  0.51100000000E-03 0. -1.
    9900012    2    1    2    0    0 -0.90764232129E+01  0.86532568443E+01  0.29316554319E+02  0.59301942396E+02  0.49999997024E+02 0.  0.
         12    1    1    2    0    0  0.90764232129E+01 -0.86532568443E+01 -0.29316554319E+02  0.31886057604E+02  0.00000000000E+00 0. -1.
         11    1    3    3    0    0  0.20542857440E+01 -0.37934849732E+01  0.75414387834E+00  0.43794236391E+01  0.51100000000E-03 0. -1.
        -11    1    3    3    0    0 -0.11112097863E+00  0.61060592042E+00 -0.11605147856E+02  0.11621731561E+02  0.51100000000E-03 0.  1.
        -12    1    3    3    0    0 -0.11019587978E+02  0.11836135897E+02  0.40167558297E+02  0.43300787196E+02  0.00000000000E+00 0.  1.
</event>
<event>
 7    1  0.3220798E-013  0.5930194E+02  0.7816164E-02  0.1266605E+00
        -11   -1    0    0    0    0  0.00000000000E+00  0.00000000000E+00  0.45593999997E+02  0.45594000000E+02  0.51100000000E-03 0.  1.
         11   -1    0    0    0    0 -0.00000000000E+00 -0.00000000000E+00 -0.45593999997E+02  0.45594000000E+02  0.51100000000E-03 0. -1.
    9900012    2    1    2    0    0 -0.51870495921E+01  0.18376617761E+02  0.25536552426E+02  0.59301936059E+02  0.49999985468E+02 0.  0.
         12    1    1    2    0    0  0.51870495921E+01 -0.18376617761E+02 -0.25536552426E+02  0.31886063941E+02  0.00000000000E+00 0. -1.
         11    1    3    3    0    0 -0.11356827296E+02  0.17078531532E+01  0.42982141246E+01  0.12262501113E+02  0.51100000000E-03 0.  1.
        -11    1    3    3    0    0  0.18882385399E+02  0.21189612188E+02  0.15873826238E+02  0.32519571072E+02  0.51100000000E-03 0. -1.
         12    1    3    3    0    0 -0.12712607695E+02 -0.45208475797E+01  0.53645120634E+01  0.14519863874E+02  0.00000000000E+00 0. -1.
</event>
<event>
 7    1  0.3220798E-013  0.5930199E+02  0.7816164E-02  0.1266605E+00
        -11   -1    0    0    0    0  0.00000000000E+00  0.00000000000E+00  0.45593999997E+02  0.45594000000E+02  0.51100000000E-03 0.  1.
         11   -1    0    0    0    0 -0.00000000000E+00 -0.00000000000E+00 -0.45593999997E+02  0.45594000000E+02  0.51100000000E-03 0. -1.
    9900012    2    1    2    0    0  0.18294123944E+02 -0.22587562948E+02  0.13108957722E+02  0.59301988281E+02  0.50000080707E+02 0.  0.
         12    1    1    2    0    0 -0.18294123944E+02  0.22587562948E+02 -0.13108957722E+02  0.31886011719E+02  0.00000000000E+00 0. -1.
         11    1    3    3    0    0  0.17649161971E+02 -0.24481836547E+02 -0.25040434710E+01  0.30284046509E+02  0.51100000000E-03 0. -1.
        -11    1    3    3    0    0  0.59136907183E+01 -0.74520218663E+01 -0.64901431818E+00  0.95354909498E+01  0.51100000000E-03 0.  1.
         12    1    3    3    0    0 -0.52687287456E+01  0.93462954656E+01  0.16262015511E+02  0.19482450822E+02  0.00000000000E+00 0. -1.
</event>
<event>
 7    1  0.3220798E-013  0.5930196E+02  0.7816164E-02  0.1266605E+00
        -11   -1    0    0    0    0  0.00000000000E+00  0.00000000000E+00  0.45593999997E+02  0.45594000000E+02  0.51100000000E-03 0. -1.
         11   -1    0    0    0    0 -0.00000000000E+00 -0.00000000000E+00 -0.45593999997E+02  0.45594000000E+02  0.51100000000E-03 0.  1.
    9900012    2    1    2    0    0  0.10902665210E+02 -0.27105268854E+02  0.12773235714E+02  0.59301964516E+02  0.50000037365E+02 0.  0.
         12    1    1    2    0    0 -0.10902665210E+02  0.27105268854E+02 -0.12773235714E+02  0.31886035484E+02  0.00000000000E+00 0. -1.
         11    1    3    3    0    0  0.47200131719E+01 -0.15021345208E+02  0.12174650822E+02  0.19903302718E+02  0.51100000000E-03 0. -1.
        -11    1    3    3    0    0 -0.69670028300E+01 -0.14325245952E+02  0.13470493483E+02  0.20861591382E+02  0.51100000000E-03 0.  1.
        -12    1    3    3    0    0  0.13149654868E+02  0.22413223071E+01 -0.12871908591E+02  0.18537070416E+02  0.00000000000E+00 0.  1.
</event>
<event>
 7    1  0.3220798E-013  0.5930194E+02  0.7816164E-02  0.1266605E+00
        -11   -1    0    0    0    0  0.00000000000E+00  0.00000000000E+00  0.45593999997E+02  0.45594000000E+02  0.51100000000E-03 0.  1.
         11   -1    0    0    0    0 -0.00000000000E+00 -0.00000000000E+00 -0.45593999997E+02  0.45594000000E+02  0.51100000000E-03 0. -1.
    9900012    2    1    2    0    0  0.62682082075E+01 -0.30445116865E+02  0.71081163221E+01  0.59301938897E+02  0.49999990642E+02 0.  0.
         12    1    1    2    0    0 -0.62682082075E+01  0.30445116865E+02 -0.71081163221E+01  0.31886061103E+02  0.00000000000E+00 0. -1.
         11    1    3    3    0    0 -0.65189818243E+01 -0.12874125272E+02 -0.11217673990E+02  0.18277757947E+02  0.51100000000E-03 0. -1.
        -11    1    3    3    0    0 -0.43402508232E+00 -0.68701077675E+01 -0.74491714689E+01  0.10142825757E+02  0.51100000000E-03 0.  1.
        -12    1    3    3    0    0  0.13221215114E+02 -0.10700883825E+02  0.25774961781E+02  0.30881355193E+02  0.00000000000E+00 0.  1.
</event>
<event>
 7    1  0.3220798E-013  0.5930194E+02  0.7816164E-02  0.1266605E+00
        -11   -1    0    0    0    0  0.00000000000E+00  0.00000000000E+00  0.45593999997E+02  0.45594000000E+02  0.51100000000E-03 0.  1.
         11   -1    0    0    0    0 -0.00000000000E+00 -0.00000000000E+00 -0.45593999997E+02  0.45594000000E+02  0.51100000000E-03 0. -1.
    9900012    2    1    2    0    0 -0.84964751790E+01  0.30575977466E+02  0.31049054299E+01  0.59301938371E+02  0.49999989683E+02 0.  0.
         12    1    1    2    0    0  0.84964751790E+01 -0.30575977466E+02 -0.31049054299E+01  0.31886061629E+02  0.00000000000E+00 0. -1.
         11    1    3    3    0    0  0.83878484858E+01 -0.10708232658E+01 -0.10886087478E+02  0.13784395726E+02  0.51100000000E-03 0. -1.
        -11    1    3    3    0    0 -0.31091863983E+01  0.45908362626E+01 -0.67598181158E+01  0.87428804675E+01  0.51100000000E-03 0.  1.
        -12    1    3    3    0    0 -0.13775137267E+02  0.27055964469E+02  0.20750811024E+02  0.36774662177E+02  0.00000000000E+00 0.  1.
</event>
<event>
 7    1  0.3220798E-013  0.5930194E+02  0.7816164E-02  0.1266605E+00
        -11   -1    0    0    0    0  0.00000000000E+00  0.00000000000E+00  0.45593999997E+02  0.45594000000E+02  0.51100000000E-03 0. -1.
         11   -1    0    0    0    0 -0.00000000000E+00 -0.00000000000E+00 -0.45593999997E+02  0.45594000000E+02  0.51100000000E-03 0.  1.
    9900012    2    1    2    0    0  0.30874106299E+02  0.79606319366E+01 -0.37222007404E+00  0.59301942728E+02  0.49999997629E+02 0.  0.
         12    1    1    2    0    0 -0.30874106299E+02 -0.79606319366E+01  0.37222007404E+00  0.31886057272E+02  0.00000000000E+00 0. -1.
         11    1    3    3    0    0  0.79613412746E+00 -0.16704196158E+01 -0.25473343634E+01  0.31484986680E+01  0.51100000000E-03 0. -1.
        -11    1    3    3    0    0  0.34605064574E+02  0.53971351293E+01 -0.14845109810E+02  0.38039674648E+02  0.51100000000E-03 0.  1.
         12    1    3    3    0    0 -0.45270924024E+01  0.42339164231E+01  0.17020224100E+02  0.18113769412E+02  0.00000000000E+00 0. -1.
</event>
<event>
 7    1  0.3220798E-013  0.5930191E+02  0.7816164E-02  0.1266605E+00
        -11   -1    0    0    0    0  0.00000000000E+00  0.00000000000E+00  0.45593999997E+02  0.45594000000E+02  0.51100000000E-03 0.  1.
         11   -1    0    0    0    0 -0.00000000000E+00 -0.00000000000E+00 -0.45593999997E+02  0.45594000000E+02  0.51100000000E-03 0. -1.
    9900012    2    1    2    0    0 -0.30719840150E+02  0.84675644177E+01  0.11465308463E+01  0.59301909632E+02  0.49999937270E+02 0.  0.
         12    1    1    2    0    0  0.30719840150E+02 -0.84675644177E+01 -0.11465308463E+01  0.31886090368E+02  0.00000000000E+00 0. -1.
         11    1    3    3    0    0 -0.26658094344E+02 -0.87487588275E+01  0.11984606970E+02  0.30509434272E+02  0.51100000000E-03 0. -1.
        -11    1    3    3    0    0 -0.11073985445E+02  0.71403789953E+01 -0.12877854673E+01  0.13239205320E+02  0.51100000000E-03 0.  1.
        -12    1    3    3    0    0  0.70122396400E+01  0.10075944250E+02 -0.95502906564E+01  0.15553270039E+02  0.00000000000E+00 0.  1.
</event>
<event>
 7    1  0.3220798E-013  0.5930193E+02  0.7816164E-02  0.1266605E+00
        -11   -1    0    0    0    0  0.00000000000E+00  0.00000000000E+00  0.45593999997E+02  0.45594000000E+02  0.51100000000E-03 0.  1.
         11   -1    0    0    0    0 -0.00000000000E+00 -0.00000000000E+00 -0.45593999997E+02  0.45594000000E+02  0.51100000000E-03 0. -1.
    9900012    2    1    2    0    0  0.11016386149E+02  0.29545683148E+02 -0.47342773126E+01  0.59301928776E+02  0.49999972184E+02 0.  0.
         12    1    1    2    0    0 -0.11016386149E+02 -0.29545683148E+02  0.47342773126E+01  0.31886071224E+02  0.00000000000E+00 0. -1.
         11    1    3    3    0    0  0.14468654171E+02  0.34815548481E+00 -0.11841198089E+02  0.18699656098E+02  0.51100000000E-03 0. -1.
        -11    1    3    3    0    0 -0.50015641716E+01  0.59207282950E+01 -0.92820820513E+01  0.12092465223E+02  0.51100000000E-03 0.  1.
        -12    1    3    3    0    0  0.15492961495E+01  0.23276799368E+02  0.16389002827E+02  0.28509807454E+02  0.00000000000E+00 0.  1.
</event>
<event>
 7    1  0.3220798E-013  0.5930193E+02  0.7816164E-02  0.1266605E+00
        -11   -1    0    0    0    0  0.00000000000E+00  0.00000000000E+00  0.45593999997E+02  0.45594000000E+02  0.51100000000E-03 0.  1.
         11   -1    0    0    0    0 -0.00000000000E+00 -0.00000000000E+00 -0.45593999997E+02  0.45594000000E+02  0.51100000000E-03 0. -1.
    9900012    2    1    2    0    0  0.16571325523E+02  0.21028228297E+02  0.17318372620E+02  0.59301933370E+02  0.49999980563E+02 0.  0.
         12    1    1    2    0    0 -0.16571325523E+02 -0.21028228297E+02 -0.17318372620E+02  0.31886066630E+02  0.00000000000E+00 0. -1.
         11    1    3    3    0    0 -0.11535667384E+01  0.13229464232E+02  0.62956945743E+01  0.14696435300E+02  0.51100000000E-03 0. -1.
        -11    1    3    3    0    0 -0.50217376348E+01  0.38712047345E+01  0.19119458995E+02  0.20143430381E+02  0.51100000000E-03 0.  1.
         12    1    3    3    0    0  0.22746629896E+02  0.39275593307E+01 -0.80967809492E+01  0.24462067690E+02  0.00000000000E+00 0. -1.
</event>
<event>
 7    1  0.3220798E-013  0.5930195E+02  0.7816164E-02  0.1266605E+00
        -11   -1    0    0    0    0  0.00000000000E+00  0.00000000000E+00  0.45593999997E+02  0.45594000000E+02  0.51100000000E-03 0.  1.
         11   -1    0    0    0    0 -0.00000000000E+00 -0.00000000000E+00 -0.45593999997E+02  0.45594000000E+02  0.51100000000E-03 0. -1.
    9900012    2    1    2    0    0 -0.55510407667E+01 -0.57680643032E+01  0.30864798795E+02  0.59301946246E+02  0.50000004045E+02 0.  0.
         12    1    1    2    0    0  0.55510407667E+01  0.57680643032E+01 -0.30864798795E+02  0.31886053754E+02  0.00000000000E+00 0. -1.
         11    1    3    3    0    0  0.79163395297E+01  0.24064764207E+01  0.19059494456E+02  0.20777966443E+02  0.51100000000E-03 0. -1.
        -11    1    3    3    0    0 -0.21926737201E+02  0.85099414549E+00  0.13903445428E+02  0.25977139764E+02  0.51100000000E-03 0.  1.
         12    1    3    3    0    0  0.84593569043E+01 -0.90255348694E+01 -0.20981410897E+01  0.12546840038E+02  0.00000000000E+00 0. -1.
</event>
<event>
 7    1  0.3220798E-013  0.5930191E+02  0.7816164E-02  0.1266605E+00
        -11   -1    0    0    0    0  0.00000000000E+00  0.00000000000E+00  0.45593999997E+02  0.45594000000E+02  0.51100000000E-03 0.  1.
         11   -1    0    0    0    0 -0.00000000000E+00 -0.00000000000E+00 -0.45593999997E+02  0.45594000000E+02  0.51100000000E-03 0. -1.
    9900012    2    1    2    0    0  0.19470615052E+02  0.84719330404E+01  0.23787486381E+02  0.59301905722E+02  0.49999930140E+02 0.  0.
         12    1    1    2    0    0 -0.19470615052E+02 -0.84719330404E+01 -0.23787486381E+02  0.31886094278E+02  0.00000000000E+00 0. -1.
         11    1    3    3    0    0  0.16931363412E+01 -0.81868704239E+01  0.89021157859E+01  0.12212257111E+02  0.51100000000E-03 0.  1.
        -11    1    3    3    0    0  0.27950553247E+02  0.52631562822E+01  0.49560875208E+01  0.28870348883E+02  0.51100000000E-03 0. -1.
         12    1    3    3    0    0 -0.10173074536E+02  0.11395647182E+02  0.99292830746E+01  0.18219299728E+02  0.00000000000E+00 0. -1.
</event>
<event>
 7    1  0.3220798E-013  0.5930194E+02  0.7816164E-02  0.1266605E+00
        -11   -1    0    0    0    0  0.00000000000E+00  0.00000000000E+00  0.45593999997E+02  0.45594000000E+02  0.51100000000E-03 0.  1.
         11   -1    0    0    0    0 -0.00000000000E+00 -0.00000000000E+00 -0.45593999997E+02  0.45594000000E+02  0.51100000000E-03 0. -1.
    9900012    2    1    2    0    0  0.86904941507E+01 -0.18648737370E+02  0.24360226947E+02  0.59301941119E+02  0.49999994695E+02 0.  0.
         12    1    1    2    0    0 -0.86904941507E+01  0.18648737370E+02 -0.24360226947E+02  0.31886058881E+02  0.00000000000E+00 0. -1.
         11    1    3    3    0    0  0.97388648180E+01 -0.17595727032E+01  0.55174309727E+01  0.11330649974E+02  0.51100000000E-03 0. -1.
        -11    1    3    3    0    0 -0.36074032901E+01 -0.25985268251E+02  0.25363563589E+02  0.36490517710E+02  0.51100000000E-03 0.  1.
         12    1    3    3    0    0  0.25590326228E+01  0.90961035837E+01 -0.65207676148E+01  0.11480773435E+02  0.00000000000E+00 0. -1.
</event>
<event>
 7    1  0.3220798E-013  0.5930194E+02  0.7816164E-02  0.1266605E+00
        -11   -1    0    0    0    0  0.00000000000E+00  0.00000000000E+00  0.45593999997E+02  0.45594000000E+02  0.51100000000E-03 0. -1.
         11   -1    0    0    0    0 -0.00000000000E+00 -0.00000000000E+00 -0.45593999997E+02  0.45594000000E+02  0.51100000000E-03 0.  1.
    9900012    2    1    2    0    0  0.19208876196E+01  0.25137314016E+02 -0.19522974650E+02  0.59301938714E+02  0.49999990308E+02 0.  0.
         12    1    1    2    0    0 -0.19208876196E+01 -0.25137314016E+02  0.19522974650E+02  0.31886061286E+02  0.00000000000E+00 0. -1.
         11    1    3    3    0    0 -0.77885751137E+01  0.10531876988E+02 -0.13217393751E+01  0.13165459750E+02  0.51100000000E-03 0. -1.
        -11    1    3    3    0    0 -0.12341648153E+02  0.14434172154E+02 -0.27012245402E+01  0.19182237075E+02  0.51100000000E-03 0.  1.
         12    1    3    3    0    0  0.22051110887E+02  0.17126487320E+00 -0.15500010735E+02  0.26954241888E+02  0.00000000000E+00 0. -1.
</event>
<event>
 7    1  0.3220798E-013  0.5930187E+02  0.7816164E-02  0.1266605E+00
        -11   -1    0    0    0    0  0.00000000000E+00  0.00000000000E+00  0.45593999997E+02  0.45594000000E+02  0.51100000000E-03 0.  1.
         11   -1    0    0    0    0 -0.00000000000E+00 -0.00000000000E+00 -0.45593999997E+02  0.45594000000E+02  0.51100000000E-03 0. -1.
    9900012    2    1    2    0    0 -0.46767758934E+01  0.34936170734E+01  0.31347207015E+02  0.59301874794E+02  0.49999873734E+02 0.  0.
         12    1    1    2    0    0  0.46767758934E+01 -0.34936170734E+01 -0.31347207015E+02  0.31886125206E+02  0.00000000000E+00 0. -1.
         11    1    3    3    0    0  0.77934698866E+01  0.53956764462E+01  0.11615350519E+02  0.14992260174E+02  0.51100000000E-03 0. -1.
        -11    1    3    3    0    0  0.10940267187E+02 -0.60944108610E+01  0.15868623830E+02  0.20214957640E+02  0.51100000000E-03 0.  1.
         12    1    3    3    0    0 -0.23410512967E+02  0.41923514882E+01  0.38632326664E+01  0.24094656981E+02  0.00000000000E+00 0. -1.
</event>
<event>
 7    1  0.3220798E-013  0.5930191E+02  0.7816164E-02  0.1266605E+00
        -11   -1    0    0    0    0  0.00000000000E+00  0.00000000000E+00  0.45593999997E+02  0.45594000000E+02  0.51100000000E-03 0.  1.
         11   -1    0    0    0    0 -0.00000000000E+00 -0.00000000000E+00 -0.45593999997E+02  0.45594000000E+02  0.51100000000E-03 0. -1.
    9900012    2    1    2    0    0 -0.81893852182E+01 -0.25585564935E+02  0.17176601020E+02  0.59301909210E+02  0.49999936500E+02 0.  0.
         12    1    1    2    0    0  0.81893852182E+01  0.25585564935E+02 -0.17176601020E+02  0.31886090790E+02  0.00000000000E+00 0. -1.
         11    1    3    3    0    0  0.11825454705E+02 -0.39054576373E+01  0.10590890880E+01  0.12498625856E+02  0.51100000000E-03 0. -1.
        -11    1    3    3    0    0  0.24730522082E+01 -0.20551963923E+02  0.35037266163E+01  0.20994649527E+02  0.51100000000E-03 0.  1.
         12    1    3    3    0    0 -0.22487892131E+02 -0.11281433752E+01  0.12613785316E+02  0.25808633826E+02  0.00000000000E+00 0. -1.
</event>
<event>
 7    1  0.3220798E-013  0.5930195E+02  0.7816164E-02  0.1266605E+00
        -11   -1    0    0    0    0  0.00000000000E+00  0.00000000000E+00  0.45593999997E+02  0.45594000000E+02  0.51100000000E-03 0. -1.
         11   -1    0    0    0    0 -0.00000000000E+00 -0.00000000000E+00 -0.45593999997E+02  0.45594000000E+02  0.51100000000E-03 0.  1.
    9900012    2    1    2    0    0  0.19488721918E+02 -0.34190601477E+01 -0.25004394609E+02  0.59301952831E+02  0.50000016055E+02 0.  0.
         12    1    1    2    0    0 -0.19488721918E+02  0.34190601477E+01  0.25004394609E+02  0.31886047169E+02  0.00000000000E+00 0. -1.
         11    1    3    3    0    0  0.10889430594E+02 -0.14736390146E+02  0.12367488041E+01  0.18364924205E+02  0.51100000000E-03 0. -1.
        -11    1    3    3    0    0  0.14876841547E+02 -0.33664435734E+01 -0.10529249226E+02  0.18534250626E+02  0.51100000000E-03 0.  1.
        -12    1    3    3    0    0 -0.62775502229E+01  0.14683773572E+02 -0.15711894187E+02  0.22402777999E+02  0.00000000000E+00 0.  1.
</event>
<event>
 7    1  0.3220798E-013  0.5930211E+02  0.7816164E-02  0.1266604E+00
        -11   -1    0    0    0    0  0.00000000000E+00  0.00000000000E+00  0.45593999997E+02  0.45594000000E+02  0.51100000000E-03 0. -1.
         11   -1    0    0    0    0 -0.00000000000E+00 -0.00000000000E+00 -0.45593999997E+02  0.45594000000E+02  0.51100000000E-03 0.  1.
    9900012    2    1    2    0    0 -0.36637910746E+01 -0.28133883555E+02 -0.14552367509E+02  0.59302107053E+02  0.50000297318E+02 0.  0.
         12    1    1    2    0    0  0.36637910746E+01  0.28133883555E+02  0.14552367509E+02  0.31885892947E+02  0.00000000000E+00 0. -1.
         11    1    3    3    0    0  0.18067852746E+01 -0.90784556746E+01  0.28398535923E+00  0.92608573259E+01  0.51100000000E-03 0. -1.
        -11    1    3    3    0    0  0.15141112370E+02 -0.62570973391E+01  0.66033699198E+01  0.17663777780E+02  0.51100000000E-03 0.  1.
        -12    1    3    3    0    0 -0.20611688719E+02 -0.12798330541E+02 -0.21439722788E+02  0.32377471947E+02  0.00000000000E+00 0.  1.
</event>
<event>
 7    1  0.3220798E-013  0.5930189E+02  0.7816164E-02  0.1266605E+00
        -11   -1    0    0    0    0  0.00000000000E+00  0.00000000000E+00  0.45593999997E+02  0.45594000000E+02  0.51100000000E-03 0.  1.
         11   -1    0    0    0    0 -0.00000000000E+00 -0.00000000000E+00 -0.45593999997E+02  0.45594000000E+02  0.51100000000E-03 0. -1.
    9900012    2    1    2    0    0 -0.16791309074E+02  0.18138059560E+02  0.20144151244E+02  0.59301888692E+02  0.49999899081E+02 0.  0.
         12    1    1    2    0    0  0.16791309074E+02 -0.18138059560E+02 -0.20144151244E+02  0.31886111308E+02  0.00000000000E+00 0. -1.
         11    1    3    3    0    0 -0.12780327877E+02 -0.98312459198E+01  0.14508806409E+02  0.21690911476E+02  0.51100000000E-03 0. -1.
        -11    1    3    3    0    0 -0.13856846409E+02  0.11548474404E+02  0.25528495549E+01  0.18218026637E+02  0.51100000000E-03 0.  1.
         12    1    3    3    0    0  0.98458652122E+01  0.16420831076E+02  0.30824952794E+01  0.19392950578E+02  0.00000000000E+00 0. -1.
</event>
<event>
 7    1  0.3220798E-013  0.5930191E+02  0.7816164E-02  0.1266605E+00
        -11   -1    0    0    0    0  0.00000000000E+00  0.00000000000E+00  0.45593999997E+02  0.45594000000E+02  0.51100000000E-03 0.  1.
         11   -1    0    0    0    0 -0.00000000000E+00 -0.00000000000E+00 -0.45593999997E+02  0.45594000000E+02  0.51100000000E-03 0. -1.
    9900012    2    1    2    0    0 -0.21819281229E+01  0.21549724293E+02  0.23400239554E+02  0.59301911519E+02  0.49999940712E+02 0.  0.
         12    1    1    2    0    0  0.21819281229E+01 -0.21549724293E+02 -0.23400239554E+02  0.31886088481E+02  0.00000000000E+00 0. -1.
         11    1    3    3    0    0 -0.48233272704E+01  0.32340388238E+01 -0.48088422784E+01  0.75397916013E+01  0.51100000000E-03 0. -1.
        -11    1    3    3    0    0  0.13698371923E+01 -0.11286971756E+02  0.16198383746E+02  0.19790397207E+02  0.51100000000E-03 0.  1.
         12    1    3    3    0    0  0.12715619552E+01  0.29602657225E+02  0.12010698086E+02  0.31971722711E+02  0.00000000000E+00 0. -1.
</event>
<event>
 7    1  0.3220798E-013  0.5930194E+02  0.7816164E-02  0.1266605E+00
        -11   -1    0    0    0    0  0.00000000000E+00  0.00000000000E+00  0.45593999997E+02  0.45594000000E+02  0.51100000000E-03 0.  1.
         11   -1    0    0    0    0 -0.00000000000E+00 -0.00000000000E+00 -0.45593999997E+02  0.45594000000E+02  0.51100000000E-03 0. -1.
    9900012    2    1    2    0    0 -0.71011858496E+01 -0.15928867111E+02 -0.26693916917E+02  0.59301939593E+02  0.49999991912E+02 0.  0.
         12    1    1    2    0    0  0.71011858496E+01  0.15928867111E+02  0.26693916917E+02  0.31886060407E+02  0.00000000000E+00 0. -1.
         11    1    3    3    0    0  0.38504633445E+01 -0.12287375004E+02  0.19726732465E+01  0.13026783658E+02  0.51100000000E-03 0. -1.
        -11    1    3    3    0    0 -0.94626042174E+01 -0.14267664370E+02 -0.16427116860E+01  0.17199000759E+02  0.51100000000E-03 0.  1.
         12    1    3    3    0    0 -0.14890449766E+01  0.10626172263E+02 -0.27023878477E+02  0.29076155177E+02  0.00000000000E+00 0. -1.
</event>
<event>
 7    1  0.3220798E-013  0.5930194E+02  0.7816164E-02  0.1266605E+00
        -11   -1    0    0    0    0  0.00000000000E+00  0.00000000000E+00  0.45593999997E+02  0.45594000000E+02  0.51100000000E-03 0. -1.
         11   -1    0    0    0    0 -0.00000000000E+00 -0.00000000000E+00 -0.45593999997E+02  0.45594000000E+02  0.51100000000E-03 0.  1.
    9900012    2    1    2    0    0 -0.14135216765E+02 -0.10192422429E+02 -0.26702645602E+02  0.59301935487E+02  0.49999984424E+02 0.  0.
         12    1    1    2    0    0  0.14135216765E+02  0.10192422429E+02  0.26702645602E+02  0.31886064513E+02  0.00000000000E+00 0. -1.
         11    1    3    3    0    0  0.97735024365E+01 -0.26823382191E+01  0.21522843583E+00  0.10137189538E+02  0.51100000000E-03 0. -1.
        -11    1    3    3    0    0 -0.11388396946E+02 -0.56563103569E+01  0.58800157293E+01  0.14009426009E+02  0.51100000000E-03 0.  1.
        -12    1    3    3    0    0 -0.12520322255E+02 -0.18537738526E+01 -0.32797889767E+02  0.35155319940E+02  0.00000000000E+00 0.  1.
</event>
<event>
 7    1  0.3220798E-013  0.5930200E+02  0.7816164E-02  0.1266605E+00
        -11   -1    0    0    0    0  0.00000000000E+00  0.00000000000E+00  0.45593999997E+02  0.45594000000E+02  0.51100000000E-03 0. -1.
         11   -1    0    0    0    0 -0.00000000000E+00 -0.00000000000E+00 -0.45593999997E+02  0.45594000000E+02  0.51100000000E-03 0.  1.
    9900012    2    1    2    0    0  0.21566067812E+02 -0.18482978942E+02  0.14491410075E+02  0.59302003742E+02  0.50000108904E+02 0.  0.
         12    1    1    2    0    0 -0.21566067812E+02  0.18482978942E+02 -0.14491410075E+02  0.31885996258E+02  0.00000000000E+00 0. -1.
         11    1    3    3    0    0  0.26457071123E+02 -0.19393102973E+02 -0.28162956066E+01  0.32924164022E+02  0.51100000000E-03 0. -1.
        -11    1    3    3    0    0  0.18514288559E+01  0.48901020824E+01 -0.19568625553E+01  0.55830277186E+01  0.51100000000E-03 0.  1.
         12    1    3    3    0    0 -0.67424321674E+01 -0.39799780517E+01  0.19264568237E+02  0.20794812001E+02  0.00000000000E+00 0. -1.
</event>
<event>
 7    1  0.3220798E-013  0.5930207E+02  0.7816164E-02  0.1266604E+00
        -11   -1    0    0    0    0  0.00000000000E+00  0.00000000000E+00  0.45593999997E+02  0.45594000000E+02  0.51100000000E-03 0.  1.
         11   -1    0    0    0    0 -0.00000000000E+00 -0.00000000000E+00 -0.45593999997E+02  0.45594000000E+02  0.51100000000E-03 0. -1.
    9900012    2    1    2    0    0  0.30752601903E+02 -0.78310914755E+01 -0.31087393437E+01  0.59302066145E+02  0.50000222712E+02 0.  0.
         12    1    1    2    0    0 -0.30752601903E+02  0.78310914755E+01  0.31087393437E+01  0.31885933855E+02  0.00000000000E+00 0. -1.
         11    1    3    3    0    0 -0.66431986849E-01  0.56494879556E+01 -0.10951811920E+01  0.57550455666E+01  0.51100000000E-03 0. -1.
        -11    1    3    3    0    0  0.23064474043E+02  0.90061626157E+01  0.10234829289E+02  0.26792399272E+02  0.51100000000E-03 0.  1.
        -12    1    3    3    0    0  0.77545598474E+01 -0.22486742047E+02 -0.12248387441E+02  0.26754621306E+02  0.00000000000E+00 0.  1.
</event>
<event>
 7    1  0.3220798E-013  0.5930192E+02  0.7816164E-02  0.1266605E+00
        -11   -1    0    0    0    0  0.00000000000E+00  0.00000000000E+00  0.45593999997E+02  0.45594000000E+02  0.51100000000E-03 0.  1.
         11   -1    0    0    0    0 -0.00000000000E+00 -0.00000000000E+00 -0.45593999997E+02  0.45594000000E+02  0.51100000000E-03 0. -1.
    9900012    2    1    2    0    0  0.19350506827E+01 -0.26118707816E+02  0.18187652435E+02  0.59301921216E+02  0.49999958397E+02 0.  0.
         12    1    1    2    0    0 -0.19350506827E+01  0.26118707816E+02 -0.18187652435E+02  0.31886078784E+02  0.00000000000E+00 0. -1.
         11    1    3    3    0    0  0.39399803306E+01  0.68289165835E+01  0.13813778130E+02  0.15905282557E+02  0.51100000000E-03 0. -1.
        -11    1    3    3    0    0 -0.35886371696E+01 -0.23546691893E+02  0.15749299795E+02  0.28554604884E+02  0.51100000000E-03 0.  1.
        -12    1    3    3    0    0  0.15837075216E+01 -0.94009325066E+01 -0.11375425489E+02  0.14842033775E+02  0.00000000000E+00 0.  1.
</event>
<event>
 7    1  0.3220798E-013  0.5930194E+02  0.7816164E-02  0.1266605E+00
        -11   -1    0    0    0    0  0.00000000000E+00  0.00000000000E+00  0.45593999997E+02  0.45594000000E+02  0.51100000000E-03 0.  1.
         11   -1    0    0    0    0 -0.00000000000E+00 -0.00000000000E+00 -0.45593999997E+02  0.45594000000E+02  0.51100000000E-03 0. -1.
    9900012    2    1    2    0    0  0.12522553366E+02  0.29298896848E+02  0.12170224821E+01  0.59301939675E+02  0.49999992062E+02 0.  0.
         12    1    1    2    0    0 -0.12522553366E+02 -0.29298896848E+02 -0.12170224821E+01  0.31886060325E+02  0.00000000000E+00 0. -1.
         11    1    3    3    0    0 -0.56045350299E+01 -0.88818802325E+00 -0.92461534604E+01  0.10848550361E+02  0.51100000000E-03 0. -1.
        -11    1    3    3    0    0  0.11601348167E+02  0.66759263487E+01 -0.99195759806E+01  0.16660049814E+02  0.51100000000E-03 0.  1.
        -12    1    3    3    0    0  0.65257402288E+01  0.23511158523E+02  0.20382751923E+02  0.31793339500E+02  0.00000000000E+00 0.  1.
</event>
<event>
 7    1  0.3220798E-013  0.5930194E+02  0.7816164E-02  0.1266605E+00
        -11   -1    0    0    0    0  0.00000000000E+00  0.00000000000E+00  0.45593999997E+02  0.45594000000E+02  0.51100000000E-03 0.  1.
         11   -1    0    0    0    0 -0.00000000000E+00 -0.00000000000E+00 -0.45593999997E+02  0.45594000000E+02  0.51100000000E-03 0. -1.
    9900012    2    1    2    0    0 -0.11557925542E+02  0.93500057360E+00  0.29702881720E+02  0.59301936408E+02  0.49999986104E+02 0.  0.
         12    1    1    2    0    0  0.11557925542E+02 -0.93500057360E+00 -0.29702881720E+02  0.31886063592E+02  0.00000000000E+00 0. -1.
         11    1    3    3    0    0 -0.74594714602E+01 -0.90316648193E+01 -0.14517651506E+01  0.11803487035E+02  0.51100000000E-03 0. -1.
        -11    1    3    3    0    0  0.53421139095E+01 -0.11075487337E+02  0.14712897548E+02  0.19174826083E+02  0.51100000000E-03 0.  1.
        -12    1    3    3    0    0 -0.94405679914E+01  0.21042152730E+02  0.16441749322E+02  0.28323623290E+02  0.00000000000E+00 0.  1.
</event>
<event>
 7    1  0.3220798E-013  0.5930228E+02  0.7816164E-02  0.1266604E+00
        -11   -1    0    0    0    0  0.00000000000E+00  0.00000000000E+00  0.45593999997E+02  0.45594000000E+02  0.51100000000E-03 0. -1.
         11   -1    0    0    0    0 -0.00000000000E+00 -0.00000000000E+00 -0.45593999997E+02  0.45594000000E+02  0.51100000000E-03 0.  1.
    9900012    2    1    2    0    0 -0.14361404978E+02  0.14095067837E+02 -0.24734151390E+02  0.59302280074E+02  0.50000612863E+02 0.  0.
         12    1    1    2    0    0  0.14361404978E+02 -0.14095067837E+02  0.24734151390E+02  0.31885719926E+02  0.00000000000E+00 0. -1.
         11    1    3    3    0    0 -0.28406207605E+02  0.12396667563E+02 -0.64483419083E+01  0.31657086265E+02  0.51100000000E-03 0. -1.
        -11    1    3    3    0    0 -0.21879104452E+01  0.23168907357E+00  0.98110712491E+00  0.24089838926E+01  0.51100000000E-03 0.  1.
        -12    1    3    3    0    0  0.16232713072E+02  0.14667111997E+01 -0.19266916606E+02  0.25236209916E+02  0.00000000000E+00 0.  1.
</event>
<event>
 7    1  0.3220798E-013  0.5930193E+02  0.7816164E-02  0.1266605E+00
        -11   -1    0    0    0    0  0.00000000000E+00  0.00000000000E+00  0.45593999997E+02  0.45594000000E+02  0.51100000000E-03 0.  1.
         11   -1    0    0    0    0 -0.00000000000E+00 -0.00000000000E+00 -0.45593999997E+02  0.45594000000E+02  0.51100000000E-03 0. -1.
    9900012    2    1    2    0    0 -0.25046152510E+02 -0.19184272737E+02 -0.46233297383E+01  0.59301933233E+02  0.49999980314E+02 0.  0.
         12    1    1    2    0    0  0.25046152510E+02  0.19184272737E+02  0.46233297383E+01  0.31886066767E+02  0.00000000000E+00 0. -1.
         11    1    3    3    0    0 -0.33511235047E+01 -0.32455842607E+01  0.15448498853E+02  0.16137532743E+02  0.51100000000E-03 0. -1.
        -11    1    3    3    0    0 -0.13988002214E+02 -0.20107525895E+02 -0.39438950575E+01  0.24809899477E+02  0.51100000000E-03 0.  1.
        -12    1    3    3    0    0 -0.77070267913E+01  0.41688374194E+01 -0.16127933534E+02  0.18354501014E+02  0.00000000000E+00 0.  1.
</event>
<event>
 7    1  0.3220798E-013  0.5930195E+02  0.7816164E-02  0.1266605E+00
        -11   -1    0    0    0    0  0.00000000000E+00  0.00000000000E+00  0.45593999997E+02  0.45594000000E+02  0.51100000000E-03 0.  1.
         11   -1    0    0    0    0 -0.00000000000E+00 -0.00000000000E+00 -0.45593999997E+02  0.45594000000E+02  0.51100000000E-03 0. -1.
    9900012    2    1    2    0    0  0.20555118844E+02  0.16215229886E+01  0.24322368822E+02  0.59301954892E+02  0.50000019815E+02 0.  0.
         12    1    1    2    0    0 -0.20555118844E+02 -0.16215229886E+01 -0.24322368822E+02  0.31886045108E+02  0.00000000000E+00 0. -1.
         11    1    3    3    0    0 -0.73006074390E+01  0.76071628948E+00  0.10020567080E+02  0.12421325336E+02  0.51100000000E-03 0. -1.
        -11    1    3    3    0    0  0.22141364089E+02  0.70918038275E+01  0.24405001892E+02  0.33706643304E+02  0.51100000000E-03 0.  1.
         12    1    3    3    0    0  0.57143621945E+01 -0.62309971284E+01 -0.10103200150E+02  0.13173986252E+02  0.00000000000E+00 0. -1.
</event>
<event>
 7    1  0.3220798E-013  0.5930195E+02  0.7816164E-02  0.1266605E+00
        -11   -1    0    0    0    0  0.00000000000E+00  0.00000000000E+00  0.45593999997E+02  0.45594000000E+02  0.51100000000E-03 0.  1.
         11   -1    0    0    0    0 -0.00000000000E+00 -0.00000000000E+00 -0.45593999997E+02  0.45594000000E+02  0.51100000000E-03 0. -1.
    9900012    2    1    2    0    0  0.22080913256E+02 -0.60721833435E+01  0.22187429214E+02  0.59301950450E+02  0.50000011713E+02 0.  0.
         12    1    1    2    0    0 -0.22080913256E+02  0.60721833435E+01 -0.22187429214E+02  0.31886049550E+02  0.00000000000E+00 0. -1.
         11    1    3    3    0    0  0.11369168034E+02 -0.97135374683E+01  0.83612063972E+01  0.17132441875E+02  0.51100000000E-03 0. -1.
        -11    1    3    3    0    0  0.23356424108E+02  0.77014714019E+01  0.15049652245E+02  0.28832745999E+02  0.51100000000E-03 0.  1.
         12    1    3    3    0    0 -0.12644678886E+02 -0.40601172771E+01 -0.12234294278E+01  0.13336762576E+02  0.00000000000E+00 0. -1.
</event>
<event>
 7    1  0.3220798E-013  0.5930194E+02  0.7816164E-02  0.1266605E+00
        -11   -1    0    0    0    0  0.00000000000E+00  0.00000000000E+00  0.45593999997E+02  0.45594000000E+02  0.51100000000E-03 0. -1.
         11   -1    0    0    0    0 -0.00000000000E+00 -0.00000000000E+00 -0.45593999997E+02  0.45594000000E+02  0.51100000000E-03 0.  1.
    9900012    2    1    2    0    0 -0.23823384993E+02 -0.20408062947E+02  0.57164770456E+01  0.59301940105E+02  0.49999992847E+02 0.  0.
         12    1    1    2    0    0  0.23823384993E+02  0.20408062947E+02 -0.57164770456E+01  0.31886059895E+02  0.00000000000E+00 0. -1.
         11    1    3    3    0    0 -0.26460777094E+02 -0.12332867082E+02  0.82525532535E+01  0.30337715312E+02  0.51100000000E-03 0. -1.
        -11    1    3    3    0    0 -0.16086843265E+01 -0.16868248285E+02 -0.68656199525E+01  0.18282844502E+02  0.51100000000E-03 0.  1.
         12    1    3    3    0    0  0.42460764276E+01  0.87930524204E+01  0.43295437446E+01  0.10681380292E+02  0.00000000000E+00 0. -1.
</event>
<event>
 7    1  0.3220798E-013  0.5930195E+02  0.7816164E-02  0.1266605E+00
        -11   -1    0    0    0    0  0.00000000000E+00  0.00000000000E+00  0.45593999997E+02  0.45594000000E+02  0.51100000000E-03 0.  1.
         11   -1    0    0    0    0 -0.00000000000E+00 -0.00000000000E+00 -0.45593999997E+02  0.45594000000E+02  0.51100000000E-03 0. -1.
    9900012    2    1    2    0    0  0.19503574686E+02  0.21031195349E+02 -0.13929089058E+02  0.59301950930E+02  0.50000012587E+02 0.  0.
         12    1    1    2    0    0 -0.19503574686E+02 -0.21031195349E+02  0.13929089058E+02  0.31886049070E+02  0.00000000000E+00 0. -1.
         11    1    3    3    0    0  0.60281413330E+01 -0.80899623274E+01 -0.21367963129E+01  0.10312704647E+02  0.51100000000E-03 0. -1.
        -11    1    3    3    0    0  0.21024876234E+02  0.10947734475E+02  0.36381074091E+01  0.23981954394E+02  0.51100000000E-03 0.  1.
         12    1    3    3    0    0 -0.75494428810E+01  0.18173423201E+02 -0.15430400154E+02  0.25007291888E+02  0.00000000000E+00 0. -1.
</event>
<event>
 7    1  0.3220798E-013  0.5930194E+02  0.7816164E-02  0.1266605E+00
        -11   -1    0    0    0    0  0.00000000000E+00  0.00000000000E+00  0.45593999997E+02  0.45594000000E+02  0.51100000000E-03 0.  1.
         11   -1    0    0    0    0 -0.00000000000E+00 -0.00000000000E+00 -0.45593999997E+02  0.45594000000E+02  0.51100000000E-03 0. -1.
    9900012    2    1    2    0    0 -0.77976987269E+01  0.30909536347E+02 -0.71911261140E+00  0.59301942458E+02  0.49999997138E+02 0.  0.
         12    1    1    2    0    0  0.77976987269E+01 -0.30909536347E+02  0.71911261140E+00  0.31886057542E+02  0.00000000000E+00 0. -1.
         11    1    3    3    0    0  0.13488132903E+02  0.84442113713E+01 -0.88631485779E+01  0.18215099172E+02  0.51100000000E-03 0. -1.
        -11    1    3    3    0    0 -0.11143397268E+02  0.13656434485E+02  0.17404334329E+02  0.24770635019E+02  0.51100000000E-03 0.  1.
         12    1    3    3    0    0 -0.10142434361E+02  0.88088904904E+01 -0.92602983629E+01  0.16316208267E+02  0.00000000000E+00 0. -1.
</event>
<event>
 7    1  0.3220798E-013  0.5930213E+02  0.7816164E-02  0.1266604E+00
        -11   -1    0    0    0    0  0.00000000000E+00  0.00000000000E+00  0.45593999997E+02  0.45594000000E+02  0.51100000000E-03 0.  1.
         11   -1    0    0    0    0 -0.00000000000E+00 -0.00000000000E+00 -0.45593999997E+02  0.45594000000E+02  0.51100000000E-03 0. -1.
    9900012    2    1    2    0    0  0.76454247541E+01 -0.50773066592E+01  0.30536490417E+02  0.59302128371E+02  0.50000336196E+02 0.  0.
         12    1    1    2    0    0 -0.76454247541E+01  0.50773066592E+01 -0.30536490417E+02  0.31885871629E+02  0.00000000000E+00 0. -1.
         11    1    3    3    0    0 -0.66719113657E+00  0.11932071569E+02  0.19672163781E+01  0.12111540632E+02  0.51100000000E-03 0. -1.
        -11    1    3    3    0    0 -0.10274136412E+02  0.99073611719E+00  0.14320013554E+02  0.17652258369E+02  0.51100000000E-03 0.  1.
        -12    1    3    3    0    0  0.18586752303E+02 -0.18000114345E+02  0.14249260485E+02  0.29538329370E+02  0.00000000000E+00 0.  1.
</event>
<event>
 7    1  0.3220798E-013  0.5930197E+02  0.7816164E-02  0.1266605E+00
        -11   -1    0    0    0    0  0.00000000000E+00  0.00000000000E+00  0.45593999997E+02  0.45594000000E+02  0.51100000000E-03 0.  1.
         11   -1    0    0    0    0 -0.00000000000E+00 -0.00000000000E+00 -0.45593999997E+02  0.45594000000E+02  0.51100000000E-03 0. -1.
    9900012    2    1    2    0    0  0.56494886033E+01  0.30919493439E+02 -0.53653805476E+01  0.59301966938E+02  0.50000041783E+02 0.  0.
         12    1    1    2    0    0 -0.56494886033E+01 -0.30919493439E+02  0.53653805476E+01  0.31886033062E+02  0.00000000000E+00 0. -1.
         11    1    3    3    0    0 -0.51893297917E+00  0.62639933669E+01 -0.84238255440E+01  0.10510363523E+02  0.51100000000E-03 0. -1.
        -11    1    3    3    0    0  0.55996662501E+01  0.31026401826E+02 -0.10963645970E+02  0.33379565689E+02  0.51100000000E-03 0.  1.
         12    1    3    3    0    0  0.56875533241E+00 -0.63709017539E+01  0.14022090966E+02  0.15412037725E+02  0.00000000000E+00 0. -1.
</event>
<event>
 7    1  0.3220798E-013  0.5930196E+02  0.7816164E-02  0.1266605E+00
        -11   -1    0    0    0    0  0.00000000000E+00  0.00000000000E+00  0.45593999997E+02  0.45594000000E+02  0.51100000000E-03 0.  1.
         11   -1    0    0    0    0 -0.00000000000E+00 -0.00000000000E+00 -0.45593999997E+02  0.45594000000E+02  0.51100000000E-03 0. -1.
    9900012    2    1    2    0    0 -0.64497936915E+01 -0.63128460045E+01  0.30582148703E+02  0.59301957871E+02  0.50000025247E+02 0.  0.
         12    1    1    2    0    0  0.64497936915E+01  0.63128460045E+01 -0.30582148703E+02  0.31886042129E+02  0.00000000000E+00 0. -1.
         11    1    3    3    0    0 -0.61924782710E+01 -0.14675491668E+02  0.48363778095E+01  0.16646542987E+02  0.51100000000E-03 0. -1.
        -11    1    3    3    0    0 -0.74074266203E+01 -0.95434333754E+00  0.29417243223E+02  0.30350534418E+02  0.51100000000E-03 0.  1.
        -12    1    3    3    0    0  0.71501111998E+01  0.93169890014E+01 -0.36714723291E+01  0.12304880466E+02  0.00000000000E+00 0.  1.
</event>
<event>
 7    1  0.3220798E-013  0.5930191E+02  0.7816164E-02  0.1266605E+00
        -11   -1    0    0    0    0  0.00000000000E+00  0.00000000000E+00  0.45593999997E+02  0.45594000000E+02  0.51100000000E-03 0. -1.
         11   -1    0    0    0    0 -0.00000000000E+00 -0.00000000000E+00 -0.45593999997E+02  0.45594000000E+02  0.51100000000E-03 0.  1.
    9900012    2    1    2    0    0 -0.25923605434E+02 -0.10019688484E+02 -0.15629955135E+02  0.59301906267E+02  0.49999931133E+02 0.  0.
         12    1    1    2    0    0  0.25923605434E+02  0.10019688484E+02  0.15629955135E+02  0.31886093733E+02  0.00000000000E+00 0. -1.
         11    1    3    3    0    0 -0.17352348153E+02 -0.16288389221E+02  0.15230845912E+01  0.23848173867E+02  0.51100000000E-03 0. -1.
        -11    1    3    3    0    0 -0.18052602859E+01 -0.96337918622E+01 -0.15166378025E+02  0.18057905000E+02  0.51100000000E-03 0.  1.
         12    1    3    3    0    0 -0.67659969953E+01  0.15902492599E+02 -0.19866617014E+01  0.17395827400E+02  0.00000000000E+00 0. -1.
</event>
<event>
 7    1  0.3220798E-013  0.5930201E+02  0.7816164E-02  0.1266605E+00
        -11   -1    0    0    0    0  0.00000000000E+00  0.00000000000E+00  0.45593999997E+02  0.45594000000E+02  0.51100000000E-03 0.  1.
         11   -1    0    0    0    0 -0.00000000000E+00 -0.00000000000E+00 -0.45593999997E+02  0.45594000000E+02  0.51100000000E-03 0. -1.
    9900012    2    1    2    0    0  0.82701272688E+01 -0.76583051494E+01  0.29827361393E+02  0.59302013572E+02  0.50000126833E+02 0.  0.
         12    1    1    2    0    0 -0.82701272688E+01  0.76583051494E+01 -0.29827361393E+02  0.31885986428E+02  0.00000000000E+00 0. -1.
         11    1    3    3    0    0  0.19401636134E+02 -0.91040351536E+01  0.51995132609E+01  0.22053160299E+02  0.51100000000E-03 0. -1.
        -11    1    3    3    0    0 -0.32742428946E+01 -0.11167249927E+02  0.50897201827E+01  0.12701708123E+02  0.51100000000E-03 0.  1.
        -12    1    3    3    0    0 -0.78572659705E+01  0.12612979931E+02  0.19538127949E+02  0.24547145150E+02  0.00000000000E+00 0.  1.
</event>
<event>
 7    1  0.3220798E-013  0.5930193E+02  0.7816164E-02  0.1266605E+00
        -11   -1    0    0    0    0  0.00000000000E+00  0.00000000000E+00  0.45593999997E+02  0.45594000000E+02  0.51100000000E-03 0.  1.
         11   -1    0    0    0    0 -0.00000000000E+00 -0.00000000000E+00 -0.45593999997E+02  0.45594000000E+02  0.51100000000E-03 0. -1.
    9900012    2    1    2    0    0  0.16770327293E+02  0.14336722475E+02  0.23020339663E+02  0.59301928949E+02  0.49999972500E+02 0.  0.
         12    1    1    2    0    0 -0.16770327293E+02 -0.14336722475E+02 -0.23020339663E+02  0.31886071051E+02  0.00000000000E+00 0. -1.
         11    1    3    3    0    0  0.71429498496E+01  0.83276362444E+00  0.41266461878E+01  0.82912264973E+01  0.51100000000E-03 0. -1.
        -11    1    3    3    0    0  0.20386436111E+02  0.24556879150E+02  0.11729594982E+02  0.34003389384E+02  0.51100000000E-03 0.  1.
         12    1    3    3    0    0 -0.10759058667E+02 -0.11052920299E+02  0.71640984935E+01  0.17007313067E+02  0.00000000000E+00 0. -1.
</event>
<event>
 7    1  0.3220798E-013  0.5930198E+02  0.7816164E-02  0.1266605E+00
        -11   -1    0    0    0    0  0.00000000000E+00  0.00000000000E+00  0.45593999997E+02  0.45594000000E+02  0.51100000000E-03 0.  1.
         11   -1    0    0    0    0 -0.00000000000E+00 -0.00000000000E+00 -0.45593999997E+02  0.45594000000E+02  0.51100000000E-03 0. -1.
    9900012    2    1    2    0    0  0.85676458374E+01 -0.15435216184E+02  0.26553111703E+02  0.59301981199E+02  0.50000067791E+02 0.  0.
         12    1    1    2    0    0 -0.85676458374E+01  0.15435216184E+02 -0.26553111703E+02  0.31886018801E+02  0.00000000000E+00 0. -1.
         11    1    3    3    0    0 -0.16330799666E+02 -0.38292874327E+01  0.12605980422E+02  0.20982592849E+02  0.51100000000E-03 0. -1.
        -11    1    3    3    0    0  0.56697256173E+01 -0.15113945897E+02  0.60792461288E+01  0.17249184992E+02  0.51100000000E-03 0.  1.
         12    1    3    3    0    0  0.19228719887E+02  0.35080171452E+01  0.78678851522E+01  0.21070203358E+02  0.00000000000E+00 0. -1.
</event>
<event>
 7    1  0.3220798E-013  0.5930193E+02  0.7816164E-02  0.1266605E+00
        -11   -1    0    0    0    0  0.00000000000E+00  0.00000000000E+00  0.45593999997E+02  0.45594000000E+02  0.51100000000E-03 0. -1.
         11   -1    0    0    0    0 -0.00000000000E+00 -0.00000000000E+00 -0.45593999997E+02  0.45594000000E+02  0.51100000000E-03 0.  1.
    9900012    2    1    2    0    0 -0.22431043379E+02  0.23010922117E+01 -0.22544955436E+02  0.59301925484E+02  0.49999966180E+02 0.  0.
         12    1    1    2    0    0  0.22431043379E+02 -0.23010922117E+01  0.22544955436E+02  0.31886074516E+02  0.00000000000E+00 0. -1.
         11    1    3    3    0    0 -0.16498289813E+02  0.14435705327E+01 -0.12230161404E+01  0.16606421390E+02  0.51100000000E-03 0. -1.
        -11    1    3    3    0    0 -0.20799508405E+02  0.42768857686E+01 -0.89065701141E+01  0.23026903683E+02  0.51100000000E-03 0.  1.
        -12    1    3    3    0    0  0.14866754839E+02 -0.34193640896E+01 -0.12415369181E+02  0.19668600411E+02  0.00000000000E+00 0.  1.
</event>
<event>
 7    1  0.3220798E-013  0.5930195E+02  0.7816164E-02  0.1266605E+00
        -11   -1    0    0    0    0  0.00000000000E+00  0.00000000000E+00  0.45593999997E+02  0.45594000000E+02  0.51100000000E-03 0.  1.
         11   -1    0    0    0    0 -0.00000000000E+00 -0.00000000000E+00 -0.45593999997E+02  0.45594000000E+02  0.51100000000E-03 0. -1.
    9900012    2    1    2    0    0 -0.22126898835E+01 -0.44776832288E+01  0.31492450298E+02  0.59301951807E+02  0.50000014187E+02 0.  0.
         12    1    1    2    0    0  0.22126898835E+01  0.44776832288E+01 -0.31492450298E+02  0.31886048193E+02  0.00000000000E+00 0. -1.
         11    1    3    3    0    0 -0.68846610478E+01  0.14588231308E+02  0.72032913530E+01  0.17666421738E+02  0.51100000000E-03 0. -1.
        -11    1    3    3    0    0  0.92118400162E+01  0.23558051133E+01  0.15194907837E+02  0.17924648913E+02  0.51100000000E-03 0.  1.
        -12    1    3    3    0    0 -0.45398688519E+01 -0.21421719650E+02  0.90942511075E+01  0.23710881156E+02  0.00000000000E+00 0.  1.
</event>
<event>
 7    1  0.3220798E-013  0.5930197E+02  0.7816164E-02  0.1266605E+00
        -11   -1    0    0    0    0  0.00000000000E+00  0.00000000000E+00  0.45593999997E+02  0.45594000000E+02  0.51100000000E-03 0. -1.
         11   -1    0    0    0    0 -0.00000000000E+00 -0.00000000000E+00 -0.45593999997E+02  0.45594000000E+02  0.51100000000E-03 0.  1.
    9900012    2    1    2    0    0  0.22622222494E+02  0.14666650351E+02 -0.17024781379E+02  0.59301972274E+02  0.50000051515E+02 0.  0.
         12    1    1    2    0    0 -0.22622222494E+02 -0.14666650351E+02  0.17024781379E+02  0.31886027726E+02  0.00000000000E+00 0. -1.
         11    1    3    3    0    0  0.20487104783E+02  0.78277334630E+01 -0.24446845264E+02  0.32842702648E+02  0.51100000000E-03 0. -1.
        -11    1    3    3    0    0 -0.58911612859E+01  0.48425204789E+00 -0.67526088215E+01  0.89742970476E+01  0.51100000000E-03 0.  1.
         12    1    3    3    0    0  0.80262789969E+01  0.63546648403E+01  0.14174672706E+02  0.17484972579E+02  0.00000000000E+00 0. -1.
</event>
<event>
 7    1  0.3220798E-013  0.5930212E+02  0.7816164E-02  0.1266604E+00
        -11   -1    0    0    0    0  0.00000000000E+00  0.00000000000E+00  0.45593999997E+02  0.45594000000E+02  0.51100000000E-03 0. -1.
         11   -1    0    0    0    0 -0.00000000000E+00 -0.00000000000E+00 -0.45593999997E+02  0.45594000000E+02  0.51100000000E-03 0.  1.
    9900012    2    1    2    0    0 -0.25199772196E+02 -0.66750783016E+01 -0.18360936947E+02  0.59302122333E+02  0.50000325185E+02 0.  0.
         12    1    1    2    0    0  0.25199772196E+02  0.66750783016E+01  0.18360936947E+02  0.31885877667E+02  0.00000000000E+00 0. -1.
         11    1    3    3    0    0 -0.72906933609E+01 -0.11360711431E+02  0.11305292380E+02  0.17607657708E+02  0.51100000000E-03 0.  1.
        -11    1    3    3    0    0 -0.73297532347E+01 -0.81401124260E-01  0.23038224315E+01  0.76837169835E+01  0.51100000000E-03 0. -1.
        -12    1    3    3    0    0 -0.10579325600E+02  0.47670342539E+01 -0.31970051758E+02  0.34010747641E+02  0.00000000000E+00 0.  1.
</event>
<event>
 7    1  0.3220798E-013  0.5930192E+02  0.7816164E-02  0.1266605E+00
        -11   -1    0    0    0    0  0.00000000000E+00  0.00000000000E+00  0.45593999997E+02  0.45594000000E+02  0.51100000000E-03 0.  1.
         11   -1    0    0    0    0 -0.00000000000E+00 -0.00000000000E+00 -0.45593999997E+02  0.45594000000E+02  0.51100000000E-03 0. -1.
    9900012    2    1    2    0    0 -0.23801979351E+02  0.64736170895E+01  0.20205937125E+02  0.59301924130E+02  0.49999963712E+02 0.  0.
         12    1    1    2    0    0  0.23801979351E+02 -0.64736170895E+01 -0.20205937125E+02  0.31886075870E+02  0.00000000000E+00 0. -1.
         11    1    3    3    0    0  0.22409694518E+01 -0.17436321286E+02  0.15523436781E+02  0.23452597592E+02  0.51100000000E-03 0. -1.
        -11    1    3    3    0    0 -0.73219755112E+01  0.54587471055E+01 -0.94707361870E-01  0.91333572739E+01  0.51100000000E-03 0.  1.
        -12    1    3    3    0    0 -0.18720973292E+02  0.18451191270E+02  0.47772077067E+01  0.26715969264E+02  0.00000000000E+00 0.  1.
</event>
<event>
 7    1  0.3220798E-013  0.5930188E+02  0.7816164E-02  0.1266605E+00
        -11   -1    0    0    0    0  0.00000000000E+00  0.00000000000E+00  0.45593999997E+02  0.45594000000E+02  0.51100000000E-03 0.  1.
         11   -1    0    0    0    0 -0.00000000000E+00 -0.00000000000E+00 -0.45593999997E+02  0.45594000000E+02  0.51100000000E-03 0. -1.
    9900012    2    1    2    0    0 -0.10137910073E+02  0.30184076692E+02 -0.16937710993E+01  0.59301881282E+02  0.49999885566E+02 0.  0.
         12    1    1    2    0    0  0.10137910073E+02 -0.30184076692E+02  0.16937710993E+01  0.31886118718E+02  0.00000000000E+00 0. -1.
         11    1    3    3    0    0 -0.22130454448E+02  0.41186515102E+01  0.12854669604E+02  0.25922245952E+02  0.51100000000E-03 0.  1.
        -11    1    3    3    0    0  0.22232146863E+01  0.15398148209E+02 -0.81430748935E+01  0.17560048998E+02  0.51100000000E-03 0. -1.
        -12    1    3    3    0    0  0.97693296884E+01  0.10667276972E+02 -0.64053658097E+01  0.15819586332E+02  0.00000000000E+00 0.  1.
</event>
<event>
 7    1  0.3220798E-013  0.5930197E+02  0.7816164E-02  0.1266605E+00
        -11   -1    0    0    0    0  0.00000000000E+00  0.00000000000E+00  0.45593999997E+02  0.45594000000E+02  0.51100000000E-03 0.  1.
         11   -1    0    0    0    0 -0.00000000000E+00 -0.00000000000E+00 -0.45593999997E+02  0.45594000000E+02  0.51100000000E-03 0. -1.
    9900012    2    1    2    0    0 -0.63339547485E+01  0.23273640590E+02  0.20855156508E+02  0.59301970425E+02  0.50000048143E+02 0.  0.
         12    1    1    2    0    0  0.63339547485E+01 -0.23273640590E+02 -0.20855156508E+02  0.31886029575E+02  0.00000000000E+00 0. -1.
         11    1    3    3    0    0  0.91782433622E+01 -0.83049563805E+00 -0.79662315175E+01  0.12181572931E+02  0.51100000000E-03 0. -1.
        -11    1    3    3    0    0  0.18475356044E+01 -0.15361529735E+01  0.11279225629E+02  0.11532306136E+02  0.51100000000E-03 0.  1.
         12    1    3    3    0    0 -0.17359733715E+02  0.25640289201E+02  0.17542162397E+02  0.35588091358E+02  0.00000000000E+00 0. -1.
</event>
<event>
 7    1  0.3220798E-013  0.5930194E+02  0.7816164E-02  0.1266605E+00
        -11   -1    0    0    0    0  0.00000000000E+00  0.00000000000E+00  0.45593999997E+02  0.45594000000E+02  0.51100000000E-03 0.  1.
         11   -1    0    0    0    0 -0.00000000000E+00 -0.00000000000E+00 -0.45593999997E+02  0.45594000000E+02  0.51100000000E-03 0. -1.
    9900012    2    1    2    0    0 -0.17873730257E+02 -0.83568711870E+01  0.25048222408E+02  0.59301937604E+02  0.49999988284E+02 0.  0.
         12    1    1    2    0    0  0.17873730257E+02  0.83568711870E+01 -0.25048222408E+02  0.31886062396E+02  0.00000000000E+00 0. -1.
         11    1    3    3    0    0  0.24386697758E+01  0.69124163924E+01 -0.10105506656E+02  0.12483984768E+02  0.51100000000E-03 0. -1.
        -11    1    3    3    0    0 -0.19616016426E+01 -0.28870848944E+01 -0.16566425538E+01  0.38636258882E+01  0.51100000000E-03 0.  1.
        -12    1    3    3    0    0 -0.18350798390E+02 -0.12382202685E+02  0.36810371618E+02  0.42954326947E+02  0.00000000000E+00 0.  1.
</event>
<event>
 7    1  0.3220798E-013  0.5930194E+02  0.7816164E-02  0.1266605E+00
        -11   -1    0    0    0    0  0.00000000000E+00  0.00000000000E+00  0.45593999997E+02  0.45594000000E+02  0.51100000000E-03 0.  1.
         11   -1    0    0    0    0 -0.00000000000E+00 -0.00000000000E+00 -0.45593999997E+02  0.45594000000E+02  0.51100000000E-03 0. -1.
    9900012    2    1    2    0    0  0.28097069115E+02 -0.14757689355E+02  0.30799943031E+01  0.59301936385E+02  0.49999986062E+02 0.  0.
         12    1    1    2    0    0 -0.28097069115E+02  0.14757689355E+02 -0.30799943031E+01  0.31886063615E+02  0.00000000000E+00 0. -1.
         11    1    3    3    0    0  0.18189077507E+02 -0.17655750014E+02  0.11635675344E+02  0.27891880362E+02  0.51100000000E-03 0. -1.
        -11    1    3    3    0    0  0.13642367083E+02  0.11618664229E+01  0.69585292721E+01  0.15358556023E+02  0.51100000000E-03 0.  1.
         12    1    3    3    0    0 -0.37343754752E+01  0.17361942369E+01 -0.15514210313E+02  0.16051500001E+02  0.00000000000E+00 0. -1.
</event>
<event>
 7    1  0.3220798E-013  0.5930185E+02  0.7816164E-02  0.1266605E+00
        -11   -1    0    0    0    0  0.00000000000E+00  0.00000000000E+00  0.45593999997E+02  0.45594000000E+02  0.51100000000E-03 0.  1.
         11   -1    0    0    0    0 -0.00000000000E+00 -0.00000000000E+00 -0.45593999997E+02  0.45594000000E+02  0.51100000000E-03 0. -1.
    9900012    2    1    2    0    0 -0.19192515913E+02 -0.21179127818E+02  0.14135713042E+02  0.59301850885E+02  0.49999830130E+02 0.  0.
         12    1    1    2    0    0  0.19192515913E+02  0.21179127818E+02 -0.14135713042E+02  0.31886149115E+02  0.00000000000E+00 0. -1.
         11    1    3    3    0    0 -0.82194847748E+01 -0.89068366940E+00  0.91619324809E+01  0.12340755828E+02  0.51100000000E-03 0.  1.
        -11    1    3    3    0    0 -0.43273623593E+01  0.12503544272E+02  0.10398782579E+01  0.13272001786E+02  0.51100000000E-03 0. -1.
         12    1    3    3    0    0 -0.66456687785E+01 -0.32791988420E+02  0.39339023036E+01  0.33689093271E+02  0.00000000000E+00 0. -1.
</event>
<event>
 7    1  0.3220798E-013  0.5930196E+02  0.7816164E-02  0.1266605E+00
        -11   -1    0    0    0    0  0.00000000000E+00  0.00000000000E+00  0.45593999997E+02  0.45594000000E+02  0.51100000000E-03 0.  1.
         11   -1    0    0    0    0 -0.00000000000E+00 -0.00000000000E+00 -0.45593999997E+02  0.45594000000E+02  0.51100000000E-03 0. -1.
    9900012    2    1    2    0    0 -0.25589538463E+02 -0.15015390010E+02  0.11680458718E+02  0.59301960237E+02  0.50000029562E+02 0.  0.
         12    1    1    2    0    0  0.25589538463E+02  0.15015390010E+02 -0.11680458718E+02  0.31886039763E+02  0.00000000000E+00 0. -1.
         11    1    3    3    0    0  0.81385271937E+01  0.70001189791E+01  0.99878847956E+01  0.14662712353E+02  0.51100000000E-03 0. -1.
        -11    1    3    3    0    0 -0.12615744125E+02 -0.19663346198E+02  0.68909295318E+00  0.23372612881E+02  0.51100000000E-03 0.  1.
        -12    1    3    3    0    0 -0.21112321532E+02 -0.23521627902E+01  0.10034809694E+01  0.21266635002E+02  0.00000000000E+00 0.  1.
</event>
<event>
 7    1  0.3220798E-013  0.5930196E+02  0.7816164E-02  0.1266605E+00
        -11   -1    0    0    0    0  0.00000000000E+00  0.00000000000E+00  0.45593999997E+02  0.45594000000E+02  0.51100000000E-03 0. -1.
         11   -1    0    0    0    0 -0.00000000000E+00 -0.00000000000E+00 -0.45593999997E+02  0.45594000000E+02  0.51100000000E-03 0.  1.
    9900012    2    1    2    0    0 -0.97164192067E+01  0.30027127863E+02  0.45478122565E+01  0.59301955934E+02  0.50000021713E+02 0.  0.
         12    1    1    2    0    0  0.97164192067E+01 -0.30027127863E+02 -0.45478122565E+01  0.31886044066E+02  0.00000000000E+00 0. -1.
         11    1    3    3    0    0  0.12320848707E+02  0.77120205159E+01  0.87429311192E+01  0.16962235057E+02  0.51100000000E-03 0. -1.
        -11    1    3    3    0    0 -0.85046418801E+01  0.95904934633E+01  0.12101990079E+02  0.17628518443E+02  0.51100000000E-03 0.  1.
        -12    1    3    3    0    0 -0.13532626034E+02  0.12724613884E+02 -0.16297108942E+02  0.24711202434E+02  0.00000000000E+00 0.  1.
</event>
<event>
 7    1  0.3220798E-013  0.5930195E+02  0.7816164E-02  0.1266605E+00
        -11   -1    0    0    0    0  0.00000000000E+00  0.00000000000E+00  0.45593999997E+02  0.45594000000E+02  0.51100000000E-03 0.  1.
         11   -1    0    0    0    0 -0.00000000000E+00 -0.00000000000E+00 -0.45593999997E+02  0.45594000000E+02  0.51100000000E-03 0. -1.
    9900012    2    1    2    0    0  0.23843234377E+02  0.14575173640E+02  0.15355291433E+02  0.59301945255E+02  0.50000002239E+02 0.  0.
         12    1    1    2    0    0 -0.23843234377E+02 -0.14575173640E+02 -0.15355291433E+02  0.31886054745E+02  0.00000000000E+00 0. -1.
         11    1    3    3    0    0  0.47021539260E+01  0.17522325823E+02 -0.94247869498E+01  0.20444284363E+02  0.51100000000E-03 0. -1.
        -11    1    3    3    0    0 -0.19231399208E+01 -0.58902787718E+01  0.13336541379E+02  0.14705685546E+02  0.51100000000E-03 0.  1.
        -12    1    3    3    0    0  0.21064220372E+02  0.29431265891E+01  0.11443537003E+02  0.24151975346E+02  0.00000000000E+00 0.  1.
</event>
<event>
 7    1  0.3220798E-013  0.5930193E+02  0.7816164E-02  0.1266605E+00
        -11   -1    0    0    0    0  0.00000000000E+00  0.00000000000E+00  0.45593999997E+02  0.45594000000E+02  0.51100000000E-03 0.  1.
         11   -1    0    0    0    0 -0.00000000000E+00 -0.00000000000E+00 -0.45593999997E+02  0.45594000000E+02  0.51100000000E-03 0. -1.
    9900012    2    1    2    0    0 -0.19480936839E+02 -0.21909674680E+02  0.12537174311E+02  0.59301929618E+02  0.49999973721E+02 0.  0.
         12    1    1    2    0    0  0.19480936839E+02  0.21909674680E+02 -0.12537174311E+02  0.31886070382E+02  0.00000000000E+00 0. -1.
         11    1    3    3    0    0  0.10223686708E+01 -0.23488683468E+02 -0.34563376532E+01  0.23763622598E+02  0.51100000000E-03 0. -1.
        -11    1    3    3    0    0  0.33640457089E+01  0.62862928278E+01  0.56779376251E+01  0.91144531918E+01  0.51100000000E-03 0.  1.
        -12    1    3    3    0    0 -0.23867351218E+02 -0.47072840399E+01  0.10315574339E+02  0.26423853829E+02  0.00000000000E+00 0.  1.
</event>
<event>
 7    1  0.3220798E-013  0.5930203E+02  0.7816164E-02  0.1266604E+00
        -11   -1    0    0    0    0  0.00000000000E+00  0.00000000000E+00  0.45593999997E+02  0.45594000000E+02  0.51100000000E-03 0. -1.
         11   -1    0    0    0    0 -0.00000000000E+00 -0.00000000000E+00 -0.45593999997E+02  0.45594000000E+02  0.51100000000E-03 0.  1.
    9900012    2    1    2    0    0  0.19177102308E+02  0.18522852543E+02 -0.17488782400E+02  0.59302033979E+02  0.50000164049E+02 0.  0.
         12    1    1    2    0    0 -0.19177102308E+02 -0.18522852543E+02  0.17488782400E+02  0.31885966021E+02  0.00000000000E+00 0. -1.
         11    1    3    3    0    0 -0.95108728326E+01 -0.61482968554E+00  0.60650307793E+01  0.11296871965E+02  0.51100000000E-03 0. -1.
        -11    1    3    3    0    0  0.58908776519E+01  0.49345414511E+01 -0.19348129360E+02  0.20818315226E+02  0.51100000000E-03 0.  1.
        -12    1    3    3    0    0  0.22797097489E+02  0.14203140778E+02 -0.42056838188E+01  0.27186846788E+02  0.00000000000E+00 0.  1.
</event>
<event>
 7    1  0.3220798E-013  0.5930195E+02  0.7816164E-02  0.1266605E+00
        -11   -1    0    0    0    0  0.00000000000E+00  0.00000000000E+00  0.45593999997E+02  0.45594000000E+02  0.51100000000E-03 0.  1.
         11   -1    0    0    0    0 -0.00000000000E+00 -0.00000000000E+00 -0.45593999997E+02  0.45594000000E+02  0.51100000000E-03 0. -1.
    9900012    2    1    2    0    0 -0.15851599014E+02 -0.22674179133E+02  0.15853338244E+02  0.59301954085E+02  0.50000018342E+02 0.  0.
         12    1    1    2    0    0  0.15851599014E+02  0.22674179133E+02 -0.15853338244E+02  0.31886045915E+02  0.00000000000E+00 0. -1.
         11    1    3    3    0    0  0.14573532004E+02 -0.98412820400E+01 -0.21767280175E+01  0.17719390858E+02  0.51100000000E-03 0. -1.
        -11    1    3    3    0    0 -0.23626070063E+01 -0.87750018042E+01  0.36883772383E+01  0.98074816056E+01  0.51100000000E-03 0.  1.
         12    1    3    3    0    0 -0.28062524011E+02 -0.40578952884E+01  0.14341689023E+02  0.31775081622E+02  0.00000000000E+00 0. -1.
</event>
<event>
 7    1  0.3536085E-013  0.5930196E+02  0.7816164E-02  0.1266605E+00
        -11   -1    0    0    0    0  0.00000000000E+00  0.00000000000E+00  0.45593999997E+02  0.45594000000E+02  0.51100000000E-03 0. -1.
         11   -1    0    0    0    0 -0.00000000000E+00 -0.00000000000E+00 -0.45593999997E+02  0.45594000000E+02  0.51100000000E-03 0.  1.
    9900012    2    1    2    0    0 -0.75096264128E+01  0.12927122851E+02 -0.28164064025E+02  0.59301960790E+02  0.50000030570E+02 0.  0.
         12    1    1    2    0    0  0.75096264128E+01 -0.12927122851E+02  0.28164064025E+02  0.31886039210E+02  0.00000000000E+00 0. -1.
         11    1    3    3    0    0  0.67754091098E+01 -0.48022589384E+01  0.25804698996E+01  0.86963604272E+01  0.51100000000E-03 0. -1.
        -11    1    3    3    0    0 -0.68195044773E+01 -0.89037277239E+01 -0.15160182425E+02  0.18857707711E+02  0.51100000000E-03 0.  1.
         12    1    3    3    0    0 -0.74655310453E+01  0.26633109514E+02 -0.15584351500E+02  0.31747892652E+02  0.00000000000E+00 0. -1.
</event>
<event>
 7    1  0.3220798E-013  0.5930200E+02  0.7816164E-02  0.1266605E+00
        -11   -1    0    0    0    0  0.00000000000E+00  0.00000000000E+00  0.45593999997E+02  0.45594000000E+02  0.51100000000E-03 0.  1.
         11   -1    0    0    0    0 -0.00000000000E+00 -0.00000000000E+00 -0.45593999997E+02  0.45594000000E+02  0.51100000000E-03 0. -1.
    9900012    2    1    2    0    0  0.19355479171E+02 -0.46107992967E+01  0.24916319515E+02  0.59301999588E+02  0.50000101329E+02 0.  0.
         12    1    1    2    0    0 -0.19355479171E+02  0.46107992967E+01 -0.24916319515E+02  0.31886000412E+02  0.00000000000E+00 0. -1.
         11    1    3    3    0    0  0.71305335110E+01 -0.16433998157E+02  0.39835515994E+01  0.18351825173E+02  0.51100000000E-03 0. -1.
        -11    1    3    3    0    0  0.14487117568E+02 -0.56443788340E+01  0.16736115761E+02  0.22843667807E+02  0.51100000000E-03 0.  1.
         12    1    3    3    0    0 -0.22621719084E+01  0.17467577694E+02  0.41966521545E+01  0.18106506608E+02  0.00000000000E+00 0. -1.
</event>
<event>
 7    1  0.3220798E-013  0.5930222E+02  0.7816164E-02  0.1266604E+00
        -11   -1    0    0    0    0  0.00000000000E+00  0.00000000000E+00  0.45593999997E+02  0.45594000000E+02  0.51100000000E-03 0.  1.
         11   -1    0    0    0    0 -0.00000000000E+00 -0.00000000000E+00 -0.45593999997E+02  0.45594000000E+02  0.51100000000E-03 0. -1.
    9900012    2    1    2    0    0 -0.40794375543E+01 -0.88482094300E+01  0.30360674522E+02  0.59302216675E+02  0.50000497240E+02 0.  0.
         12    1    1    2    0    0  0.40794375543E+01  0.88482094300E+01 -0.30360674522E+02  0.31885783325E+02  0.00000000000E+00 0. -1.
         11    1    3    3    0    0  0.45813120930E+01  0.85290812583E+01  0.94153271394E+01  0.13504889226E+02  0.51100000000E-03 0. -1.
        -11    1    3    3    0    0 -0.14212003882E+02  0.11516101641E+01 -0.34443092508E+01  0.14668692061E+02  0.51100000000E-03 0.  1.
        -12    1    3    3    0    0  0.55512542349E+01 -0.18528900852E+02  0.24389656633E+02  0.31128635387E+02  0.00000000000E+00 0.  1.
</event>
<event>
 7    1  0.3220798E-013  0.5930194E+02  0.7816164E-02  0.1266605E+00
        -11   -1    0    0    0    0  0.00000000000E+00  0.00000000000E+00  0.45593999997E+02  0.45594000000E+02  0.51100000000E-03 0.  1.
         11   -1    0    0    0    0 -0.00000000000E+00 -0.00000000000E+00 -0.45593999997E+02  0.45594000000E+02  0.51100000000E-03 0. -1.
    9900012    2    1    2    0    0 -0.27073249422E+02 -0.16447669110E+02  0.36378802031E+01  0.59301939946E+02  0.49999992556E+02 0.  0.
         12    1    1    2    0    0  0.27073249422E+02  0.16447669110E+02 -0.36378802031E+01  0.31886060054E+02  0.00000000000E+00 0. -1.
         11    1    3    3    0    0 -0.36505291533E+02 -0.51348056671E+01  0.93267562553E+01  0.38026187314E+02  0.51100000000E-03 0. -1.
        -11    1    3    3    0    0 -0.10154937512E+01 -0.31544332372E+00  0.34203989087E+01  0.35818795353E+01  0.51100000000E-03 0.  1.
         12    1    3    3    0    0  0.10447535862E+02 -0.10997420119E+02 -0.91092749610E+01  0.17693873097E+02  0.00000000000E+00 0. -1.
</event>
<event>
 7    1  0.3220798E-013  0.5930194E+02  0.7816164E-02  0.1266605E+00
        -11   -1    0    0    0    0  0.00000000000E+00  0.00000000000E+00  0.45593999997E+02  0.45594000000E+02  0.51100000000E-03 0. -1.
         11   -1    0    0    0    0 -0.00000000000E+00 -0.00000000000E+00 -0.45593999997E+02  0.45594000000E+02  0.51100000000E-03 0.  1.
    9900012    2    1    2    0    0  0.26436897166E+02  0.63816791653E+01 -0.16645876210E+02  0.59301944183E+02  0.50000000284E+02 0.  0.
         12    1    1    2    0    0 -0.26436897166E+02 -0.63816791653E+01  0.16645876210E+02  0.31886055817E+02  0.00000000000E+00 0. -1.
         11    1    3    3    0    0 -0.50867485031E+01 -0.67581004440E+00 -0.44671450779E+00  0.51508527122E+01  0.51100000000E-03 0. -1.
        -11    1    3    3    0    0  0.35763543524E+01 -0.68439213434E+01 -0.21178747636E+02  0.22542602368E+02  0.51100000000E-03 0.  1.
         12    1    3    3    0    0  0.27947291317E+02  0.13901410553E+02  0.49795859339E+01  0.31608489103E+02  0.00000000000E+00 0. -1.
</event>
<event>
 7    1  0.3220798E-013  0.5930194E+02  0.7816164E-02  0.1266605E+00
        -11   -1    0    0    0    0  0.00000000000E+00  0.00000000000E+00  0.45593999997E+02  0.45594000000E+02  0.51100000000E-03 0.  1.
         11   -1    0    0    0    0 -0.00000000000E+00 -0.00000000000E+00 -0.45593999997E+02  0.45594000000E+02  0.51100000000E-03 0. -1.
    9900012    2    1    2    0    0 -0.29295690895E+02  0.11547258438E+02  0.50143993835E+01  0.59301939039E+02  0.49999990902E+02 0.  0.
         12    1    1    2    0    0  0.29295690895E+02 -0.11547258438E+02 -0.50143993835E+01  0.31886060961E+02  0.00000000000E+00 0. -1.
         11    1    3    3    0    0 -0.34698895852E+01 -0.50037206760E+01 -0.88569794123E+01  0.10748183051E+02  0.51100000000E-03 0. -1.
        -11    1    3    3    0    0 -0.12160746978E+02 -0.91045045447E+01  0.12119103283E+02  0.19433178708E+02  0.51100000000E-03 0.  1.
         12    1    3    3    0    0 -0.13665054331E+02  0.25655483658E+02  0.17522755130E+01  0.29120577280E+02  0.00000000000E+00 0. -1.
</event>
<event>
 7    1  0.3220798E-013  0.5930196E+02  0.7816164E-02  0.1266605E+00
        -11   -1    0    0    0    0  0.00000000000E+00  0.00000000000E+00  0.45593999997E+02  0.45594000000E+02  0.51100000000E-03 0. -1.
         11   -1    0    0    0    0 -0.00000000000E+00 -0.00000000000E+00 -0.45593999997E+02  0.45594000000E+02  0.51100000000E-03 0.  1.
    9900012    2    1    2    0    0 -0.12315239061E+02  0.26830953711E+02  0.12048003212E+02  0.59301959612E+02  0.50000028423E+02 0.  0.
         12    1    1    2    0    0  0.12315239061E+02 -0.26830953711E+02 -0.12048003212E+02  0.31886040388E+02  0.00000000000E+00 0. -1.
         11    1    3    3    0    0  0.12920761856E+02  0.33036365252E+01 -0.58268297005E+01  0.14553763975E+02  0.51100000000E-03 0. -1.
        -11    1    3    3    0    0 -0.61326208664E+01 -0.26472043558E+01 -0.16971274208E+01  0.68918046502E+01  0.51100000000E-03 0.  1.
        -12    1    3    3    0    0 -0.19103380051E+02  0.26174521542E+02  0.19571960333E+02  0.37856390987E+02  0.00000000000E+00 0.  1.
</event>
<event>
 7    1  0.3220798E-013  0.5930198E+02  0.7816164E-02  0.1266605E+00
        -11   -1    0    0    0    0  0.00000000000E+00  0.00000000000E+00  0.45593999997E+02  0.45594000000E+02  0.51100000000E-03 0. -1.
         11   -1    0    0    0    0 -0.00000000000E+00 -0.00000000000E+00 -0.45593999997E+02  0.45594000000E+02  0.51100000000E-03 0.  1.
    9900012    2    1    2    0    0 -0.18842311250E+02  0.25599135867E+02  0.25238561294E+01  0.59301979550E+02  0.50000064783E+02 0.  0.
         12    1    1    2    0    0  0.18842311250E+02 -0.25599135867E+02 -0.25238561294E+01  0.31886020450E+02  0.00000000000E+00 0. -1.
         11    1    3    3    0    0 -0.20058175492E+02 -0.12819187686E+01  0.96395393949E+01  0.22291129173E+02  0.51100000000E-03 0. -1.
        -11    1    3    3    0    0 -0.86538003399E+01  0.10182490875E+02 -0.10903850778E+02  0.17247183619E+02  0.51100000000E-03 0.  1.
        -12    1    3    3    0    0  0.98696645812E+01  0.16698563761E+02  0.37881675120E+01  0.19763666758E+02  0.00000000000E+00 0.  1.
</event>
<event>
 7    1  0.3220798E-013  0.5930196E+02  0.7816164E-02  0.1266605E+00
        -11   -1    0    0    0    0  0.00000000000E+00  0.00000000000E+00  0.45593999997E+02  0.45594000000E+02  0.51100000000E-03 0. -1.
         11   -1    0    0    0    0 -0.00000000000E+00 -0.00000000000E+00 -0.45593999997E+02  0.45594000000E+02  0.51100000000E-03 0.  1.
    9900012    2    1    2    0    0 -0.20573455327E+02 -0.17407239693E+02 -0.17042316641E+02  0.59301958942E+02  0.50000027201E+02 0.  0.
         12    1    1    2    0    0  0.20573455327E+02  0.17407239693E+02  0.17042316641E+02  0.31886041058E+02  0.00000000000E+00 0. -1.
         11    1    3    3    0    0  0.53379339907E+01 -0.29036991306E+01 -0.22612266331E+01  0.64836836812E+01  0.51100000000E-03 0. -1.
        -11    1    3    3    0    0  0.48086839397E+01 -0.93124609365E+00 -0.18398534703E+02  0.19039347152E+02  0.51100000000E-03 0.  1.
         12    1    3    3    0    0 -0.30720073257E+02 -0.13572294469E+02  0.36174446944E+01  0.33778928109E+02  0.00000000000E+00 0. -1.
</event>
<event>
 7    1  0.3220798E-013  0.5930194E+02  0.7816164E-02  0.1266605E+00
        -11   -1    0    0    0    0  0.00000000000E+00  0.00000000000E+00  0.45593999997E+02  0.45594000000E+02  0.51100000000E-03 0.  1.
         11   -1    0    0    0    0 -0.00000000000E+00 -0.00000000000E+00 -0.45593999997E+02  0.45594000000E+02  0.51100000000E-03 0. -1.
    9900012    2    1    2    0    0  0.23007068193E+02  0.22076408205E+02 -0.16599261527E+00  0.59301944433E+02  0.50000000739E+02 0.  0.
         12    1    1    2    0    0 -0.23007068193E+02 -0.22076408205E+02  0.16599261527E+00  0.31886055567E+02  0.00000000000E+00 0. -1.
         11    1    3    3    0    0  0.56334410533E+01  0.16618756292E+02 -0.11727498331E+02  0.21105755996E+02  0.51100000000E-03 0. -1.
        -11    1    3    3    0    0  0.76415684750E+01  0.13366649555E+02 -0.60781702417E+01  0.16553097681E+02  0.51100000000E-03 0.  1.
        -12    1    3    3    0    0  0.97320586649E+01 -0.79089976417E+01  0.17639675958E+02  0.21643090756E+02  0.00000000000E+00 0.  1.
</event>
<event>
 7    1  0.3220798E-013  0.5930194E+02  0.7816164E-02  0.1266605E+00
        -11   -1    0    0    0    0  0.00000000000E+00  0.00000000000E+00  0.45593999997E+02  0.45594000000E+02  0.51100000000E-03 0.  1.
         11   -1    0    0    0    0 -0.00000000000E+00 -0.00000000000E+00 -0.45593999997E+02  0.45594000000E+02  0.51100000000E-03 0. -1.
    9900012    2    1    2    0    0  0.16897559998E+02 -0.25244054572E+02  0.96918120727E+01  0.59301936487E+02  0.49999986248E+02 0.  0.
         12    1    1    2    0    0 -0.16897559998E+02  0.25244054572E+02 -0.96918120727E+01  0.31886063513E+02  0.00000000000E+00 0. -1.
         11    1    3    3    0    0  0.88170202730E+01 -0.19845770261E+01  0.22396920796E+02  0.24151613898E+02  0.51100000000E-03 0. -1.
        -11    1    3    3    0    0 -0.10172292510E+01 -0.67727245138E+01  0.56317175446E+01  0.88668368346E+01  0.51100000000E-03 0.  1.
         12    1    3    3    0    0  0.90977689755E+01 -0.16486753032E+02 -0.18336826268E+02  0.26283485755E+02  0.00000000000E+00 0. -1.
</event>
<event>
 7    1  0.3220798E-013  0.5930195E+02  0.7816164E-02  0.1266605E+00
        -11   -1    0    0    0    0  0.00000000000E+00  0.00000000000E+00  0.45593999997E+02  0.45594000000E+02  0.51100000000E-03 0. -1.
         11   -1    0    0    0    0 -0.00000000000E+00 -0.00000000000E+00 -0.45593999997E+02  0.45594000000E+02  0.51100000000E-03 0.  1.
    9900012    2    1    2    0    0 -0.17036323121E+02  0.24415666205E+02 -0.11417503386E+02  0.59301945912E+02  0.50000003437E+02 0.  0.
         12    1    1    2    0    0  0.17036323121E+02 -0.24415666205E+02  0.11417503386E+02  0.31886054088E+02  0.00000000000E+00 0. -1.
         11    1    3    3    0    0  0.30989617044E+01  0.41662454898E+01  0.30670051147E+01  0.60305626405E+01  0.51100000000E-03 0. -1.
        -11    1    3    3    0    0 -0.11046746156E+02  0.18264118993E+02 -0.29013481311E+02  0.36019310672E+02  0.51100000000E-03 0.  1.
         12    1    3    3    0    0 -0.90885386698E+01  0.19853017218E+01  0.14528972810E+02  0.17252072600E+02  0.00000000000E+00 0. -1.
</event>
<event>
 7    1  0.3220798E-013  0.5930195E+02  0.7816164E-02  0.1266605E+00
        -11   -1    0    0    0    0  0.00000000000E+00  0.00000000000E+00  0.45593999997E+02  0.45594000000E+02  0.51100000000E-03 0. -1.
         11   -1    0    0    0    0 -0.00000000000E+00 -0.00000000000E+00 -0.45593999997E+02  0.45594000000E+02  0.51100000000E-03 0.  1.
    9900012    2    1    2    0    0  0.11555449878E+02  0.15779955141E+02 -0.25183029987E+02  0.59301946537E+02  0.50000004575E+02 0.  0.
         12    1    1    2    0    0 -0.11555449878E+02 -0.15779955141E+02  0.25183029987E+02  0.31886053463E+02  0.00000000000E+00 0. -1.
         11    1    3    3    0    0 -0.46270403280E+01  0.27283586813E+02 -0.87150847302E+01  0.29013036961E+02  0.51100000000E-03 0. -1.
        -11    1    3    3    0    0  0.18258828423E+01  0.11401367293E+01 -0.97938142079E+01  0.10027589786E+02  0.51100000000E-03 0.  1.
         12    1    3    3    0    0  0.14356607364E+02 -0.12643768401E+02 -0.66741310491E+01  0.20261319790E+02  0.00000000000E+00 0. -1.
</event>
<event>
 7    1  0.3220798E-013  0.5930195E+02  0.7816164E-02  0.1266605E+00
        -11   -1    0    0    0    0  0.00000000000E+00  0.00000000000E+00  0.45593999997E+02  0.45594000000E+02  0.51100000000E-03 0. -1.
         11   -1    0    0    0    0 -0.00000000000E+00 -0.00000000000E+00 -0.45593999997E+02  0.45594000000E+02  0.51100000000E-03 0.  1.
    9900012    2    1    2    0    0 -0.26130055888E+02 -0.18068823283E+02 -0.27309344754E+01  0.59301949780E+02  0.50000010491E+02 0.  0.
         12    1    1    2    0    0  0.26130055888E+02  0.18068823283E+02  0.27309344754E+01  0.31886050220E+02  0.00000000000E+00 0. -1.
         11    1    3    3    0    0 -0.76484398965E+00 -0.12291336694E+02  0.37030863003E+01  0.12859813080E+02  0.51100000000E-03 0. -1.
        -11    1    3    3    0    0  0.89208681119E+01 -0.75108830161E+01 -0.14115472130E+01  0.11746817328E+02  0.51100000000E-03 0.  1.
         12    1    3    3    0    0 -0.34286080010E+02  0.17333964271E+01 -0.50224735627E+01  0.34695319372E+02  0.00000000000E+00 0. -1.
</event>
<event>
 7    1  0.3220798E-013  0.5930195E+02  0.7816164E-02  0.1266605E+00
        -11   -1    0    0    0    0  0.00000000000E+00  0.00000000000E+00  0.45593999997E+02  0.45594000000E+02  0.51100000000E-03 0.  1.
         11   -1    0    0    0    0 -0.00000000000E+00 -0.00000000000E+00 -0.45593999997E+02  0.45594000000E+02  0.51100000000E-03 0. -1.
    9900012    2    1    2    0    0 -0.36311414722E+01  0.31270789531E+02 -0.50668143304E+01  0.59301951738E+02  0.50000014062E+02 0.  0.
         12    1    1    2    0    0  0.36311414722E+01 -0.31270789531E+02  0.50668143304E+01  0.31886048262E+02  0.00000000000E+00 0. -1.
         11    1    3    3    0    0  0.40406143232E+01  0.87792054131E+01 -0.18685071231E+01  0.98433902150E+01  0.51100000000E-03 0. -1.
        -11    1    3    3    0    0 -0.41841942228E+01  0.80107102102E+01  0.19967423516E+02  0.21917503541E+02  0.51100000000E-03 0.  1.
         12    1    3    3    0    0 -0.34875615726E+01  0.14480873908E+02 -0.23165730723E+02  0.27541057982E+02  0.00000000000E+00 0. -1.
</event>
<event>
 7    1  0.3220798E-013  0.5930198E+02  0.7816164E-02  0.1266605E+00
        -11   -1    0    0    0    0  0.00000000000E+00  0.00000000000E+00  0.45593999997E+02  0.45594000000E+02  0.51100000000E-03 0.  1.
         11   -1    0    0    0    0 -0.00000000000E+00 -0.00000000000E+00 -0.45593999997E+02  0.45594000000E+02  0.51100000000E-03 0. -1.
    9900012    2    1    2    0    0 -0.27430521608E+02  0.13604626166E+02  0.88993613401E+01  0.59301984240E+02  0.50000073337E+02 0.  0.
         12    1    1    2    0    0  0.27430521608E+02 -0.13604626166E+02 -0.88993613401E+01  0.31886015760E+02  0.00000000000E+00 0. -1.
         11    1    3    3    0    0 -0.20628840210E+01  0.16140654902E+02  0.30400562188E+01  0.16553494290E+02  0.51100000000E-03 0. -1.
        -11    1    3    3    0    0 -0.14654414531E+02 -0.19157337198E+01  0.20080425590E+02  0.24932817592E+02  0.51100000000E-03 0.  1.
         12    1    3    3    0    0 -0.10713223056E+02 -0.62029501584E+00 -0.14221120469E+02  0.17815672358E+02  0.00000000000E+00 0. -1.
</event>
<event>
 7    1  0.3220798E-013  0.5930195E+02  0.7816164E-02  0.1266605E+00
        -11   -1    0    0    0    0  0.00000000000E+00  0.00000000000E+00  0.45593999997E+02  0.45594000000E+02  0.51100000000E-03 0. -1.
         11   -1    0    0    0    0 -0.00000000000E+00 -0.00000000000E+00 -0.45593999997E+02  0.45594000000E+02  0.51100000000E-03 0.  1.
    9900012    2    1    2    0    0 -0.20228404849E+02 -0.13873877821E+02 -0.20372714772E+02  0.59301947317E+02  0.50000005999E+02 0.  0.
         12    1    1    2    0    0  0.20228404849E+02  0.13873877821E+02  0.20372714772E+02  0.31886052683E+02  0.00000000000E+00 0. -1.
         11    1    3    3    0    0 -0.19068293893E+01 -0.19075076195E+02 -0.10988405721E+01  0.19201614021E+02  0.51100000000E-03 0. -1.
        -11    1    3    3    0    0  0.69308894923E+01 -0.85496169574E-01  0.13606350463E+01  0.70637006406E+01  0.51100000000E-03 0.  1.
         12    1    3    3    0    0 -0.25252464952E+02  0.52866945434E+01 -0.20634509246E+02  0.33036632655E+02  0.00000000000E+00 0. -1.
</event>
<event>
 7    1  0.3220798E-013  0.5930195E+02  0.7816164E-02  0.1266605E+00
        -11   -1    0    0    0    0  0.00000000000E+00  0.00000000000E+00  0.45593999997E+02  0.45594000000E+02  0.51100000000E-03 0.  1.
         11   -1    0    0    0    0 -0.00000000000E+00 -0.00000000000E+00 -0.45593999997E+02  0.45594000000E+02  0.51100000000E-03 0. -1.
    9900012    2    1    2    0    0 -0.26783383347E+02 -0.16704578476E+02  0.45086366130E+01  0.59301947097E+02  0.50000005599E+02 0.  0.
         12    1    1    2    0    0  0.26783383347E+02  0.16704578476E+02 -0.45086366130E+01  0.31886052903E+02  0.00000000000E+00 0. -1.
         11    1    3    3    0    0 -0.52435344833E+00 -0.12147186375E+02  0.10430967543E+02  0.16019805476E+02  0.51100000000E-03 0. -1.
        -11    1    3    3    0    0 -0.94849141115E+01 -0.62232209035E+01  0.13454879407E+02  0.17599029923E+02  0.51100000000E-03 0.  1.
         12    1    3    3    0    0 -0.16774115787E+02  0.16658288023E+01 -0.19377210337E+02  0.25683111698E+02  0.00000000000E+00 0. -1.
</event>
<event>
 7    1  0.3220798E-013  0.5930195E+02  0.7816164E-02  0.1266605E+00
        -11   -1    0    0    0    0  0.00000000000E+00  0.00000000000E+00  0.45593999997E+02  0.45594000000E+02  0.51100000000E-03 0. -1.
         11   -1    0    0    0    0 -0.00000000000E+00 -0.00000000000E+00 -0.45593999997E+02  0.45594000000E+02  0.51100000000E-03 0.  1.
    9900012    2    1    2    0    0 -0.25808904552E+02  0.16500431502E+02 -0.88519086389E+01  0.59301951632E+02  0.50000013869E+02 0.  0.
         12    1    1    2    0    0  0.25808904552E+02 -0.16500431502E+02  0.88519086389E+01  0.31886048368E+02  0.00000000000E+00 0. -1.
         11    1    3    3    0    0 -0.28706708056E+02  0.44440486535E+01  0.38860208713E+00  0.29051259314E+02  0.51100000000E-03 0. -1.
        -11    1    3    3    0    0 -0.55731914434E+01 -0.57589459508E+01  0.91005659849E+00  0.80656137152E+01  0.51100000000E-03 0.  1.
        -12    1    3    3    0    0  0.84709949476E+01  0.17815328799E+02 -0.10150567325E+02  0.22185078603E+02  0.00000000000E+00 0.  1.
</event>
<event>
 7    1  0.3220798E-013  0.5930205E+02  0.7816164E-02  0.1266604E+00
        -11   -1    0    0    0    0  0.00000000000E+00  0.00000000000E+00  0.45593999997E+02  0.45594000000E+02  0.51100000000E-03 0.  1.
         11   -1    0    0    0    0 -0.00000000000E+00 -0.00000000000E+00 -0.45593999997E+02  0.45594000000E+02  0.51100000000E-03 0. -1.
    9900012    2    1    2    0    0  0.46790055918E+01 -0.37469721865E+01  0.31317425200E+02  0.59302046744E+02  0.50000187329E+02 0.  0.
         12    1    1    2    0    0 -0.46790055918E+01  0.37469721865E+01 -0.31317425200E+02  0.31885953256E+02  0.00000000000E+00 0. -1.
         11    1    3    3    0    0 -0.39188611387E+01  0.46096759946E+00  0.10634487830E+02  0.11342940334E+02  0.51100000000E-03 0. -1.
        -11    1    3    3    0    0 -0.14272129639E+02  0.66832096816E+01  0.15497833090E+02  0.22102981854E+02  0.51100000000E-03 0.  1.
         12    1    3    3    0    0  0.22869996369E+02 -0.10891149468E+02  0.51851042795E+01  0.25856124556E+02  0.00000000000E+00 0. -1.
</event>
<event>
 7    1  0.3220798E-013  0.5930192E+02  0.7816164E-02  0.1266605E+00
        -11   -1    0    0    0    0  0.00000000000E+00  0.00000000000E+00  0.45593999997E+02  0.45594000000E+02  0.51100000000E-03 0. -1.
         11   -1    0    0    0    0 -0.00000000000E+00 -0.00000000000E+00 -0.45593999997E+02  0.45594000000E+02  0.51100000000E-03 0.  1.
    9900012    2    1    2    0    0  0.22422643820E+02 -0.62492228900E+01 -0.21792067314E+02  0.59301922467E+02  0.49999960679E+02 0.  0.
         12    1    1    2    0    0 -0.22422643820E+02  0.62492228900E+01  0.21792067314E+02  0.31886077533E+02  0.00000000000E+00 0. -1.
         11    1    3    3    0    0  0.24031433054E+02 -0.15085999709E+02 -0.21424880490E+02  0.35554502755E+02  0.51100000000E-03 0. -1.
        -11    1    3    3    0    0 -0.34813758626E+01  0.59825164352E+01 -0.10767957559E+02  0.12800757440E+02  0.51100000000E-03 0.  1.
         12    1    3    3    0    0  0.18725866285E+01  0.28542603838E+01  0.10400770735E+02  0.10946662272E+02  0.00000000000E+00 0. -1.
</event>
<event>
 7    1  0.3220798E-013  0.5930193E+02  0.7816164E-02  0.1266605E+00
        -11   -1    0    0    0    0  0.00000000000E+00  0.00000000000E+00  0.45593999997E+02  0.45594000000E+02  0.51100000000E-03 0. -1.
         11   -1    0    0    0    0 -0.00000000000E+00 -0.00000000000E+00 -0.45593999997E+02  0.45594000000E+02  0.51100000000E-03 0.  1.
    9900012    2    1    2    0    0  0.14342093811E+02 -0.30201339735E+01 -0.28317917276E+02  0.59301932463E+02  0.49999978909E+02 0.  0.
         12    1    1    2    0    0 -0.14342093811E+02  0.30201339735E+01  0.28317917276E+02  0.31886067537E+02  0.00000000000E+00 0. -1.
         11    1    3    3    0    0  0.26171736183E+02  0.88173113564E+01 -0.87164904205E+01  0.28960006214E+02  0.51100000000E-03 0. -1.
        -11    1    3    3    0    0  0.62337808626E+00 -0.83975610157E+01 -0.22630029832E+01  0.87194503275E+01  0.51100000000E-03 0.  1.
        -12    1    3    3    0    0 -0.12453020458E+02 -0.34398843142E+01 -0.17338423872E+02  0.21622475922E+02  0.00000000000E+00 0.  1.
</event>
<event>
 7    1  0.3220798E-013  0.5930196E+02  0.7816164E-02  0.1266605E+00
        -11   -1    0    0    0    0  0.00000000000E+00  0.00000000000E+00  0.45593999997E+02  0.45594000000E+02  0.51100000000E-03 0.  1.
         11   -1    0    0    0    0 -0.00000000000E+00 -0.00000000000E+00 -0.45593999997E+02  0.45594000000E+02  0.51100000000E-03 0. -1.
    9900012    2    1    2    0    0 -0.27574988733E+02 -0.14936411669E+02  0.57657008087E+01  0.59301957552E+02  0.50000024664E+02 0.  0.
         12    1    1    2    0    0  0.27574988733E+02  0.14936411669E+02 -0.57657008087E+01  0.31886042448E+02  0.00000000000E+00 0. -1.
         11    1    3    3    0    0  0.46794749184E+01 -0.41496994628E+01 -0.33069836517E+00  0.62631344240E+01  0.51100000000E-03 0. -1.
        -11    1    3    3    0    0 -0.59195212180E+01 -0.22175772946E+02  0.79417510718E+01  0.24287384535E+02  0.51100000000E-03 0.  1.
        -12    1    3    3    0    0 -0.26334942434E+02  0.11389060740E+02 -0.18453518979E+01  0.28751438593E+02  0.00000000000E+00 0.  1.
</event>
<event>
 7    1  0.3220798E-013  0.5930195E+02  0.7816164E-02  0.1266605E+00
        -11   -1    0    0    0    0  0.00000000000E+00  0.00000000000E+00  0.45593999997E+02  0.45594000000E+02  0.51100000000E-03 0.  1.
         11   -1    0    0    0    0 -0.00000000000E+00 -0.00000000000E+00 -0.45593999997E+02  0.45594000000E+02  0.51100000000E-03 0. -1.
    9900012    2    1    2    0    0  0.16951141252E+02 -0.20420162447E+02  0.17674734491E+02  0.59301945628E+02  0.50000002918E+02 0.  0.
         12    1    1    2    0    0 -0.16951141252E+02  0.20420162447E+02 -0.17674734491E+02  0.31886054372E+02  0.00000000000E+00 0. -1.
         11    1    3    3    0    0  0.12999178737E+02 -0.17407671552E+02 -0.86822728454E+00  0.21743033265E+02  0.51100000000E-03 0. -1.
        -11    1    3    3    0    0 -0.56032390392E+01 -0.52330253467E+01 -0.68848343229E+01  0.10304454664E+02  0.51100000000E-03 0.  1.
        -12    1    3    3    0    0  0.95552015542E+01  0.22205344515E+01  0.25427796098E+02  0.27254457698E+02  0.00000000000E+00 0.  1.
</event>
<event>
 7    1  0.3220798E-013  0.5930192E+02  0.7816164E-02  0.1266605E+00
        -11   -1    0    0    0    0  0.00000000000E+00  0.00000000000E+00  0.45593999997E+02  0.45594000000E+02  0.51100000000E-03 0.  1.
         11   -1    0    0    0    0 -0.00000000000E+00 -0.00000000000E+00 -0.45593999997E+02  0.45594000000E+02  0.51100000000E-03 0. -1.
    9900012    2    1    2    0    0  0.22512717044E+02  0.18528964042E+02  0.12906486022E+02  0.59301916537E+02  0.49999949863E+02 0.  0.
         12    1    1    2    0    0 -0.22512717044E+02 -0.18528964042E+02 -0.12906486022E+02  0.31886083463E+02  0.00000000000E+00 0. -1.
         11    1    3    3    0    0  0.25296067485E+01  0.19457253912E+01  0.59984646355E+01  0.67945813591E+01  0.51100000000E-03 0. -1.
        -11    1    3    3    0    0  0.24943031575E+02  0.26273108856E+02  0.14725153530E+02  0.39105769649E+02  0.51100000000E-03 0.  1.
         12    1    3    3    0    0 -0.49599212797E+01 -0.96898702044E+01 -0.78171321430E+01  0.13401565529E+02  0.00000000000E+00 0. -1.
</event>
<event>
 7    1  0.3220798E-013  0.5930193E+02  0.7816164E-02  0.1266605E+00
        -11   -1    0    0    0    0  0.00000000000E+00  0.00000000000E+00  0.45593999997E+02  0.45594000000E+02  0.51100000000E-03 0.  1.
         11   -1    0    0    0    0 -0.00000000000E+00 -0.00000000000E+00 -0.45593999997E+02  0.45594000000E+02  0.51100000000E-03 0. -1.
    9900012    2    1    2    0    0 -0.14940546608E+02 -0.14610467344E+02  0.24083930662E+02  0.59301930862E+02  0.49999975988E+02 0.  0.
         12    1    1    2    0    0  0.14940546608E+02  0.14610467344E+02 -0.24083930662E+02  0.31886069138E+02  0.00000000000E+00 0. -1.
         11    1    3    3    0    0 -0.17229337532E+02  0.11910890990E+02  0.85593644607E+01  0.22627021814E+02  0.51100000000E-03 0. -1.
        -11    1    3    3    0    0 -0.69196844093E+01 -0.24051561887E+01  0.45550088749E+01  0.86264079853E+01  0.51100000000E-03 0.  1.
         12    1    3    3    0    0  0.92084753328E+01 -0.24116202145E+02  0.10969557327E+02  0.28048501062E+02  0.00000000000E+00 0. -1.
</event>
<event>
 7    1  0.3220798E-013  0.5930194E+02  0.7816164E-02  0.1266605E+00
        -11   -1    0    0    0    0  0.00000000000E+00  0.00000000000E+00  0.45593999997E+02  0.45594000000E+02  0.51100000000E-03 0.  1.
         11   -1    0    0    0    0 -0.00000000000E+00 -0.00000000000E+00 -0.45593999997E+02  0.45594000000E+02  0.51100000000E-03 0. -1.
    9900012    2    1    2    0    0 -0.34579198933E+01  0.14194493655E+02  0.28342190342E+02  0.59301943275E+02  0.49999998627E+02 0.  0.
         12    1    1    2    0    0  0.34579198933E+01 -0.14194493655E+02 -0.28342190342E+02  0.31886056725E+02  0.00000000000E+00 0. -1.
         11    1    3    3    0    0 -0.76645031488E+01  0.21444269421E+01  0.21254555725E+02  0.22695799496E+02  0.51100000000E-03 0.  1.
        -11    1    3    3    0    0 -0.14408152488E+02  0.17467031206E+01  0.43701596885E+01  0.15157312620E+02  0.51100000000E-03 0. -1.
         12    1    3    3    0    0  0.18614735743E+02  0.10303363592E+02  0.27174749281E+01  0.21448831159E+02  0.00000000000E+00 0. -1.
</event>
<event>
 7    1  0.3220798E-013  0.5930192E+02  0.7816164E-02  0.1266605E+00
        -11   -1    0    0    0    0  0.00000000000E+00  0.00000000000E+00  0.45593999997E+02  0.45594000000E+02  0.51100000000E-03 0. -1.
         11   -1    0    0    0    0 -0.00000000000E+00 -0.00000000000E+00 -0.45593999997E+02  0.45594000000E+02  0.51100000000E-03 0.  1.
    9900012    2    1    2    0    0 -0.29614898483E+02  0.11766155954E+02 -0.11123758799E+01  0.59301921248E+02  0.49999958456E+02 0.  0.
         12    1    1    2    0    0  0.29614898483E+02 -0.11766155954E+02  0.11123758799E+01  0.31886078752E+02  0.00000000000E+00 0. -1.
         11    1    3    3    0    0 -0.30022551264E+01  0.32895842775E+01  0.34439427473E+01  0.56298883178E+01  0.51100000000E-03 0. -1.
        -11    1    3    3    0    0 -0.22773903509E+02  0.25532253099E+02  0.35591465878E+01  0.34397880081E+02  0.51100000000E-03 0.  1.
        -12    1    3    3    0    0 -0.38387398471E+01 -0.17055681423E+02 -0.81154652150E+01  0.19274152850E+02  0.00000000000E+00 0.  1.
</event>
<event>
 7    1  0.3220798E-013  0.5930194E+02  0.7816164E-02  0.1266605E+00
        -11   -1    0    0    0    0  0.00000000000E+00  0.00000000000E+00  0.45593999997E+02  0.45594000000E+02  0.51100000000E-03 0.  1.
         11   -1    0    0    0    0 -0.00000000000E+00 -0.00000000000E+00 -0.45593999997E+02  0.45594000000E+02  0.51100000000E-03 0. -1.
    9900012    2    1    2    0    0  0.31804923825E+01 -0.27155810999E+02  0.16406311674E+02  0.59301942458E+02  0.49999997138E+02 0.  0.
         12    1    1    2    0    0 -0.31804923825E+01  0.27155810999E+02 -0.16406311674E+02  0.31886057542E+02  0.00000000000E+00 0. -1.
         11    1    3    3    0    0  0.34516707886E+01 -0.16369785784E+02  0.56755182467E+01  0.17666222728E+02  0.51100000000E-03 0.  1.
        -11    1    3    3    0    0 -0.12490594963E+02  0.93095076153E+01  0.91430839893E+01  0.18063163612E+02  0.51100000000E-03 0. -1.
         12    1    3    3    0    0  0.12219416557E+02 -0.20095532830E+02  0.15877094382E+01  0.23572556119E+02  0.00000000000E+00 0. -1.
</event>
<event>
 7    1  0.3220798E-013  0.5930206E+02  0.7816164E-02  0.1266604E+00
        -11   -1    0    0    0    0  0.00000000000E+00  0.00000000000E+00  0.45593999997E+02  0.45594000000E+02  0.51100000000E-03 0.  1.
         11   -1    0    0    0    0 -0.00000000000E+00 -0.00000000000E+00 -0.45593999997E+02  0.45594000000E+02  0.51100000000E-03 0. -1.
    9900012    2    1    2    0    0 -0.11667904795E+02  0.20699228930E+02  0.21262992524E+02  0.59302063732E+02  0.50000218312E+02 0.  0.
         12    1    1    2    0    0  0.11667904795E+02 -0.20699228930E+02 -0.21262992524E+02  0.31885936268E+02  0.00000000000E+00 0. -1.
         11    1    3    3    0    0  0.47923138189E+01  0.13914841937E+02 -0.40200592093E+01  0.15256145456E+02  0.51100000000E-03 0. -1.
        -11    1    3    3    0    0 -0.74398542021E+01  0.12998461156E+02 -0.15560639631E+01  0.15057647834E+02  0.51100000000E-03 0.  1.
        -12    1    3    3    0    0 -0.90203644118E+01 -0.62140741639E+01  0.26839115697E+02  0.28988270442E+02  0.00000000000E+00 0.  1.
</event>
<event>
 7    1  0.3220798E-013  0.5930199E+02  0.7816164E-02  0.1266605E+00
        -11   -1    0    0    0    0  0.00000000000E+00  0.00000000000E+00  0.45593999997E+02  0.45594000000E+02  0.51100000000E-03 0. -1.
         11   -1    0    0    0    0 -0.00000000000E+00 -0.00000000000E+00 -0.45593999997E+02  0.45594000000E+02  0.51100000000E-03 0.  1.
    9900012    2    1    2    0    0  0.29758699492E+01  0.19870414950E+02 -0.24759413838E+02  0.59301987928E+02  0.50000080063E+02 0.  0.
         12    1    1    2    0    0 -0.29758699492E+01 -0.19870414950E+02  0.24759413838E+02  0.31886012072E+02  0.00000000000E+00 0. -1.
         11    1    3    3    0    0 -0.89136318035E+01  0.12841229465E+02 -0.23223141978E+02  0.27994005245E+02  0.51100000000E-03 0. -1.
        -11    1    3    3    0    0  0.77804628583E+01  0.66471958059E+01 -0.14475049036E+02  0.17727037519E+02  0.51100000000E-03 0.  1.
         12    1    3    3    0    0  0.41090388944E+01  0.38198967935E+00  0.12938777175E+02  0.13580945163E+02  0.00000000000E+00 0. -1.
</event>
<event>
 7    1  0.3220798E-013  0.5930191E+02  0.7816164E-02  0.1266605E+00
        -11   -1    0    0    0    0  0.00000000000E+00  0.00000000000E+00  0.45593999997E+02  0.45594000000E+02  0.51100000000E-03 0. -1.
         11   -1    0    0    0    0 -0.00000000000E+00 -0.00000000000E+00 -0.45593999997E+02  0.45594000000E+02  0.51100000000E-03 0.  1.
    9900012    2    1    2    0    0 -0.69413267858E-01  0.28722819202E+02  0.13846219855E+02  0.59301906395E+02  0.49999931367E+02 0.  0.
         12    1    1    2    0    0  0.69413267858E-01 -0.28722819202E+02 -0.13846219855E+02  0.31886093605E+02  0.00000000000E+00 0. -1.
         11    1    3    3    0    0  0.67906607299E+01  0.62774973466E+01  0.10092605843E+02  0.13688708451E+02  0.51100000000E-03 0. -1.
        -11    1    3    3    0    0  0.95208844135E+01  0.23968697855E+02  0.10481600507E+02  0.27838995426E+02  0.51100000000E-03 0.  1.
         12    1    3    3    0    0 -0.16380958411E+02 -0.15233759995E+01 -0.67279864948E+01  0.17774202519E+02  0.00000000000E+00 0. -1.
</event>
<event>
 7    1  0.3220798E-013  0.5930199E+02  0.7816164E-02  0.1266605E+00
        -11   -1    0    0    0    0  0.00000000000E+00  0.00000000000E+00  0.45593999997E+02  0.45594000000E+02  0.51100000000E-03 0. -1.
         11   -1    0    0    0    0 -0.00000000000E+00 -0.00000000000E+00 -0.45593999997E+02  0.45594000000E+02  0.51100000000E-03 0.  1.
    9900012    2    1    2    0    0  0.54479364566E+01 -0.10929485230E+02 -0.29454780874E+02  0.59301987779E+02  0.50000079791E+02 0.  0.
         12    1    1    2    0    0 -0.54479364566E+01  0.10929485230E+02  0.29454780874E+02  0.31886012221E+02  0.00000000000E+00 0. -1.
         11    1    3    3    0    0 -0.80100001185E+01  0.31794606179E+01 -0.14844191790E+01  0.87448597632E+01  0.51100000000E-03 0. -1.
        -11    1    3    3    0    0  0.11631485825E+02  0.77056820854E+01  0.12926301634E+01  0.14012133738E+02  0.51100000000E-03 0.  1.
        -12    1    3    3    0    0  0.18264507501E+01 -0.21814627933E+02 -0.29262991859E+02  0.36544994277E+02  0.00000000000E+00 0.  1.
</event>
<event>
 7    1  0.3220798E-013  0.5930194E+02  0.7816164E-02  0.1266605E+00
        -11   -1    0    0    0    0  0.00000000000E+00  0.00000000000E+00  0.45593999997E+02  0.45594000000E+02  0.51100000000E-03 0. -1.
         11   -1    0    0    0    0 -0.00000000000E+00 -0.00000000000E+00 -0.45593999997E+02  0.45594000000E+02  0.51100000000E-03 0.  1.
    9900012    2    1    2    0    0 -0.10849313645E+02  0.60463382845E+01 -0.29367587612E+02  0.59301936973E+02  0.49999987133E+02 0.  0.
         12    1    1    2    0    0  0.10849313645E+02 -0.60463382845E+01  0.29367587612E+02  0.31886063027E+02  0.00000000000E+00 0. -1.
         11    1    3    3    0    0 -0.10481912676E+02  0.12418314659E+02 -0.30383796861E+01  0.16532295173E+02  0.51100000000E-03 0. -1.
        -11    1    3    3    0    0 -0.14627626408E+02  0.49905010651E+01 -0.11426832264E+02  0.19220953439E+02  0.51100000000E-03 0.  1.
         12    1    3    3    0    0  0.14260225439E+02 -0.11362477440E+02 -0.14902375662E+02  0.23548688361E+02  0.00000000000E+00 0. -1.
</event>
<event>
 7    1  0.3220798E-013  0.5930193E+02  0.7816164E-02  0.1266605E+00
        -11   -1    0    0    0    0  0.00000000000E+00  0.00000000000E+00  0.45593999997E+02  0.45594000000E+02  0.51100000000E-03 0.  1.
         11   -1    0    0    0    0 -0.00000000000E+00 -0.00000000000E+00 -0.45593999997E+02  0.45594000000E+02  0.51100000000E-03 0. -1.
    9900012    2    1    2    0    0 -0.76626896005E+01  0.93955045189E+01  0.29491174821E+02  0.59301926090E+02  0.49999967286E+02 0.  0.
         12    1    1    2    0    0  0.76626896005E+01 -0.93955045189E+01 -0.29491174821E+02  0.31886073910E+02  0.00000000000E+00 0. -1.
         11    1    3    3    0    0 -0.61638988856E+01 -0.52196122062E+01  0.64786385175E+01  0.10354262811E+02  0.51100000000E-03 0. -1.
        -11    1    3    3    0    0  0.94230683776E+01 -0.11320730996E+02  0.50927727276E+01  0.15584912648E+02  0.51100000000E-03 0.  1.
         12    1    3    3    0    0 -0.10921859093E+02  0.25935847721E+02  0.17919763575E+02  0.33362750631E+02  0.00000000000E+00 0. -1.
</event>
<event>
 7    1  0.3220798E-013  0.5930199E+02  0.7816164E-02  0.1266605E+00
        -11   -1    0    0    0    0  0.00000000000E+00  0.00000000000E+00  0.45593999997E+02  0.45594000000E+02  0.51100000000E-03 0.  1.
         11   -1    0    0    0    0 -0.00000000000E+00 -0.00000000000E+00 -0.45593999997E+02  0.45594000000E+02  0.51100000000E-03 0. -1.
    9900012    2    1    2    0    0 -0.16193129963E+02 -0.25603508780E+02  0.99479017857E+01  0.59301986299E+02  0.50000077092E+02 0.  0.
         12    1    1    2    0    0  0.16193129963E+02  0.25603508780E+02 -0.99479017857E+01  0.31886013701E+02  0.00000000000E+00 0. -1.
         11    1    3    3    0    0 -0.80566119971E+01 -0.77232167383E+01 -0.11149404467E+02  0.15775496629E+02  0.51100000000E-03 0. -1.
        -11    1    3    3    0    0  0.10725444331E+02 -0.78642985765E+01  0.17322311240E+02  0.21839066261E+02  0.51100000000E-03 0.  1.
         12    1    3    3    0    0 -0.18861962296E+02 -0.10015993465E+02  0.37749950131E+01  0.21687423409E+02  0.00000000000E+00 0. -1.
</event>
<event>
 7    1  0.3220798E-013  0.5930197E+02  0.7816164E-02  0.1266605E+00
        -11   -1    0    0    0    0  0.00000000000E+00  0.00000000000E+00  0.45593999997E+02  0.45594000000E+02  0.51100000000E-03 0. -1.
         11   -1    0    0    0    0 -0.00000000000E+00 -0.00000000000E+00 -0.45593999997E+02  0.45594000000E+02  0.51100000000E-03 0.  1.
    9900012    2    1    2    0    0 -0.26784038114E+02 -0.13315182739E+02 -0.11047166176E+02  0.59301973757E+02  0.50000054219E+02 0.  0.
         12    1    1    2    0    0  0.26784038114E+02  0.13315182739E+02  0.11047166176E+02  0.31886026243E+02  0.00000000000E+00 0. -1.
         11    1    3    3    0    0 -0.11412514028E+02 -0.13255813146E+02 -0.23553023083E+02  0.29337807608E+02  0.51100000000E-03 0. -1.
        -11    1    3    3    0    0 -0.30284824241E+01  0.10351896387E+02  0.28741637479E+01  0.11162180885E+02  0.51100000000E-03 0.  1.
         12    1    3    3    0    0 -0.12343041662E+02 -0.10411265979E+02  0.96316931598E+01  0.18801985264E+02  0.00000000000E+00 0. -1.
</event>
<event>
 7    1  0.3220798E-013  0.5930195E+02  0.7816164E-02  0.1266605E+00
        -11   -1    0    0    0    0  0.00000000000E+00  0.00000000000E+00  0.45593999997E+02  0.45594000000E+02  0.51100000000E-03 0. -1.
         11   -1    0    0    0    0 -0.00000000000E+00 -0.00000000000E+00 -0.45593999997E+02  0.45594000000E+02  0.51100000000E-03 0.  1.
    9900012    2    1    2    0    0 -0.20451153216E+02 -0.20472226354E+02 -0.13392474196E+02  0.59301951564E+02  0.50000013745E+02 0.  0.
         12    1    1    2    0    0  0.20451153216E+02  0.20472226354E+02  0.13392474196E+02  0.31886048436E+02  0.00000000000E+00 0. -1.
         11    1    3    3    0    0 -0.24777688062E+01  0.14938002070E+01 -0.18927272882E+02  0.19147126059E+02  0.51100000000E-03 0. -1.
        -11    1    3    3    0    0  0.51776756672E+01 -0.11541851619E+01 -0.50004053660E+01  0.72900289978E+01  0.51100000000E-03 0.  1.
        -12    1    3    3    0    0 -0.23151060077E+02 -0.20811841399E+02  0.10535204051E+02  0.32864796508E+02  0.00000000000E+00 0.  1.
</event>
<event>
 7    1  0.3220798E-013  0.5930193E+02  0.7816164E-02  0.1266605E+00
        -11   -1    0    0    0    0  0.00000000000E+00  0.00000000000E+00  0.45593999997E+02  0.45594000000E+02  0.51100000000E-03 0.  1.
         11   -1    0    0    0    0 -0.00000000000E+00 -0.00000000000E+00 -0.45593999997E+02  0.45594000000E+02  0.51100000000E-03 0. -1.
    9900012    2    1    2    0    0  0.31679598784E+02 -0.35328043196E+01 -0.80223666891E+00  0.59301932993E+02  0.49999979876E+02 0.  0.
         12    1    1    2    0    0 -0.31679598784E+02  0.35328043196E+01  0.80223666891E+00  0.31886067007E+02  0.00000000000E+00 0. -1.
         11    1    3    3    0    0  0.12262373700E+02  0.15171067991E+01 -0.16395079709E+01  0.12464164972E+02  0.51100000000E-03 0. -1.
        -11    1    3    3    0    0  0.19210387528E+02 -0.21276227467E+02  0.69515788746E+01  0.29496462387E+02  0.51100000000E-03 0.  1.
         12    1    3    3    0    0  0.20683755579E+00  0.16226316349E+02 -0.61143075726E+01  0.17341305635E+02  0.00000000000E+00 0. -1.
</event>
<event>
 7    1  0.3220798E-013  0.5930186E+02  0.7816164E-02  0.1266605E+00
        -11   -1    0    0    0    0  0.00000000000E+00  0.00000000000E+00  0.45593999997E+02  0.45594000000E+02  0.51100000000E-03 0.  1.
         11   -1    0    0    0    0 -0.00000000000E+00 -0.00000000000E+00 -0.45593999997E+02  0.45594000000E+02  0.51100000000E-03 0. -1.
    9900012    2    1    2    0    0 -0.94320192307E+01  0.12918674389E+02  0.27583885193E+02  0.59301861051E+02  0.49999848670E+02 0.  0.
         12    1    1    2    0    0  0.94320192307E+01 -0.12918674389E+02 -0.27583885193E+02  0.31886138949E+02  0.00000000000E+00 0. -1.
         11    1    3    3    0    0  0.77061937320E+01  0.56374496330E+01 -0.14999332298E+01  0.96651984022E+01  0.51100000000E-03 0. -1.
        -11    1    3    3    0    0 -0.12208818081E+02 -0.82416108853E+01 -0.16819053661E+01  0.14825929814E+02  0.51100000000E-03 0.  1.
        -12    1    3    3    0    0 -0.49293948818E+01  0.15522835641E+02  0.30765723789E+02  0.34810732835E+02  0.00000000000E+00 0.  1.
</event>
<event>
 7    1  0.3220798E-013  0.5930195E+02  0.7816164E-02  0.1266605E+00
        -11   -1    0    0    0    0  0.00000000000E+00  0.00000000000E+00  0.45593999997E+02  0.45594000000E+02  0.51100000000E-03 0. -1.
         11   -1    0    0    0    0 -0.00000000000E+00 -0.00000000000E+00 -0.45593999997E+02  0.45594000000E+02  0.51100000000E-03 0.  1.
    9900012    2    1    2    0    0 -0.18507242730E+02  0.24126225057E+02  0.95982902992E+01  0.59301953747E+02  0.50000017726E+02 0.  0.
         12    1    1    2    0    0  0.18507242730E+02 -0.24126225057E+02 -0.95982902992E+01  0.31886046253E+02  0.00000000000E+00 0. -1.
         11    1    3    3    0    0 -0.15225602733E+02  0.19511326572E+02 -0.48016284816E+01  0.25210443858E+02  0.51100000000E-03 0. -1.
        -11    1    3    3    0    0  0.10414254423E+02  0.55327539486E+01 -0.27654803785E+01  0.12112635693E+02  0.51100000000E-03 0.  1.
         12    1    3    3    0    0 -0.13695894420E+02 -0.91785546441E+00  0.17165399159E+02  0.21978874196E+02  0.00000000000E+00 0. -1.
</event>
<event>
 7    1  0.3220798E-013  0.5930197E+02  0.7816164E-02  0.1266605E+00
        -11   -1    0    0    0    0  0.00000000000E+00  0.00000000000E+00  0.45593999997E+02  0.45594000000E+02  0.51100000000E-03 0.  1.
         11   -1    0    0    0    0 -0.00000000000E+00 -0.00000000000E+00 -0.45593999997E+02  0.45594000000E+02  0.51100000000E-03 0. -1.
    9900012    2    1    2    0    0 -0.20990415172E+02  0.57832783504E+01  0.23295392824E+02  0.59301965998E+02  0.50000040068E+02 0.  0.
         12    1    1    2    0    0  0.20990415172E+02 -0.57832783504E+01 -0.23295392824E+02  0.31886034002E+02  0.00000000000E+00 0. -1.
         11    1    3    3    0    0  0.13010107395E+02 -0.30320734232E+00  0.61435137930E+01  0.14390885695E+02  0.51100000000E-03 0. -1.
        -11    1    3    3    0    0 -0.27026071975E+01  0.25937223959E+01  0.12534414481E+02  0.13082164507E+02  0.51100000000E-03 0.  1.
        -12    1    3    3    0    0 -0.31297915369E+02  0.34927632967E+01  0.46174645501E+01  0.31828915796E+02  0.00000000000E+00 0.  1.
</event>
<event>
 7    1  0.3220798E-013  0.5930195E+02  0.7816164E-02  0.1266605E+00
        -11   -1    0    0    0    0  0.00000000000E+00  0.00000000000E+00  0.45593999997E+02  0.45594000000E+02  0.51100000000E-03 0.  1.
         11   -1    0    0    0    0 -0.00000000000E+00 -0.00000000000E+00 -0.45593999997E+02  0.45594000000E+02  0.51100000000E-03 0. -1.
    9900012    2    1    2    0    0 -0.30604587288E+02  0.82641441110E+01  0.34326744693E+01  0.59301951406E+02  0.50000013456E+02 0.  0.
         12    1    1    2    0    0  0.30604587288E+02 -0.82641441110E+01 -0.34326744693E+01  0.31886048594E+02  0.00000000000E+00 0. -1.
         11    1    3    3    0    0 -0.16931553689E+02 -0.53469881958E+01  0.25808828306E+01  0.17942373019E+02  0.51100000000E-03 0. -1.
        -11    1    3    3    0    0 -0.25346365318E+02  0.70817546381E+01  0.60603649760E+01  0.27005879129E+02  0.51100000000E-03 0.  1.
         12    1    3    3    0    0  0.11673331720E+02  0.65293776687E+01 -0.52085733373E+01  0.14353699258E+02  0.00000000000E+00 0. -1.
</event>
<event>
 7    1  0.3220798E-013  0.5930195E+02  0.7816164E-02  0.1266605E+00
        -11   -1    0    0    0    0  0.00000000000E+00  0.00000000000E+00  0.45593999997E+02  0.45594000000E+02  0.51100000000E-03 0. -1.
         11   -1    0    0    0    0 -0.00000000000E+00 -0.00000000000E+00 -0.45593999997E+02  0.45594000000E+02  0.51100000000E-03 0.  1.
    9900012    2    1    2    0    0 -0.76904174504E+01  0.50844235672E+01 -0.30524194511E+02  0.59301947656E+02  0.50000006617E+02 0.  0.
         12    1    1    2    0    0  0.76904174504E+01 -0.50844235672E+01  0.30524194511E+02  0.31886052344E+02  0.00000000000E+00 0. -1.
         11    1    3    3    0    0 -0.94725897559E+01  0.11438311982E+02 -0.16057657239E+02  0.21872660880E+02  0.51100000000E-03 0. -1.
        -11    1    3    3    0    0 -0.11817764231E+02  0.79988524058E+01 -0.30336467167E+01  0.14589181056E+02  0.51100000000E-03 0.  1.
        -12    1    3    3    0    0  0.13599936536E+02 -0.14352740821E+02 -0.11432890554E+02  0.22840105720E+02  0.00000000000E+00 0.  1.
</event>
<event>
 7    1  0.3220798E-013  0.5930193E+02  0.7816164E-02  0.1266605E+00
        -11   -1    0    0    0    0  0.00000000000E+00  0.00000000000E+00  0.45593999997E+02  0.45594000000E+02  0.51100000000E-03 0.  1.
         11   -1    0    0    0    0 -0.00000000000E+00 -0.00000000000E+00 -0.45593999997E+02  0.45594000000E+02  0.51100000000E-03 0. -1.
    9900012    2    1    2    0    0  0.14711419945E+02 -0.27492270008E+02 -0.66686137792E+01  0.59301934129E+02  0.49999981948E+02 0.  0.
         12    1    1    2    0    0 -0.14711419945E+02  0.27492270008E+02  0.66686137792E+01  0.31886065871E+02  0.00000000000E+00 0. -1.
         11    1    3    3    0    0  0.13700938560E+02  0.49632490294E+01 -0.18794072212E+01  0.14692914283E+02  0.51100000000E-03 0. -1.
        -11    1    3    3    0    0 -0.17330321842E+01  0.24142190992E+00 -0.11064916696E+02  0.11202413438E+02  0.51100000000E-03 0.  1.
        -12    1    3    3    0    0  0.27435135688E+01 -0.32696940947E+02  0.62757101378E+01  0.33406606408E+02  0.00000000000E+00 0.  1.
</event>
<event>
 7    1  0.3220798E-013  0.5930195E+02  0.7816164E-02  0.1266605E+00
        -11   -1    0    0    0    0  0.00000000000E+00  0.00000000000E+00  0.45593999997E+02  0.45594000000E+02  0.51100000000E-03 0.  1.
         11   -1    0    0    0    0 -0.00000000000E+00 -0.00000000000E+00 -0.45593999997E+02  0.45594000000E+02  0.51100000000E-03 0. -1.
    9900012    2    1    2    0    0 -0.10165250540E+02  0.28472326048E+02  0.10134821915E+02  0.59301948436E+02  0.50000008039E+02 0.  0.
         12    1    1    2    0    0  0.10165250540E+02 -0.28472326048E+02 -0.10134821915E+02  0.31886051564E+02  0.00000000000E+00 0. -1.
         11    1    3    3    0    0  0.96102123688E+01  0.15094920550E+02 -0.30084324150E+01  0.18145618591E+02  0.51100000000E-03 0. -1.
        -11    1    3    3    0    0  0.36384157983E+01  0.14396008538E+02  0.13211273140E+01  0.14907330713E+02  0.51100000000E-03 0.  1.
        -12    1    3    3    0    0 -0.23413878707E+02 -0.10186030401E+01  0.11822127016E+02  0.26248999132E+02  0.00000000000E+00 0.  1.
</event>
<event>
 7    1  0.3220798E-013  0.5930166E+02  0.7816164E-02  0.1266606E+00
        -11   -1    0    0    0    0  0.00000000000E+00  0.00000000000E+00  0.45593999997E+02  0.45594000000E+02  0.51100000000E-03 0. -1.
         11   -1    0    0    0    0 -0.00000000000E+00 -0.00000000000E+00 -0.45593999997E+02  0.45594000000E+02  0.51100000000E-03 0.  1.
    9900012    2    1    2    0    0  0.14796088020E+01 -0.50917435511E+01 -0.31442381448E+02  0.59301663652E+02  0.49999488659E+02 0.  0.
         12    1    1    2    0    0 -0.14796088020E+01  0.50917435511E+01  0.31442381448E+02  0.31886336348E+02  0.00000000000E+00 0. -1.
         11    1    3    3    0    0 -0.11700912092E+02  0.17205637143E+01 -0.13392520132E+02  0.17867044496E+02  0.51100000000E-03 0. -1.
        -11    1    3    3    0    0  0.85883413085E+01 -0.16121779096E+02 -0.23456830621E+02  0.29730359411E+02  0.51100000000E-03 0.  1.
         12    1    3    3    0    0  0.45921795851E+01  0.93094718303E+01  0.54069693061E+01  0.11704259745E+02  0.00000000000E+00 0. -1.
</event>
<event>
 7    1  0.3220798E-013  0.5930201E+02  0.7816164E-02  0.1266605E+00
        -11   -1    0    0    0    0  0.00000000000E+00  0.00000000000E+00  0.45593999997E+02  0.45594000000E+02  0.51100000000E-03 0. -1.
         11   -1    0    0    0    0 -0.00000000000E+00 -0.00000000000E+00 -0.45593999997E+02  0.45594000000E+02  0.51100000000E-03 0.  1.
    9900012    2    1    2    0    0 -0.24613677933E+02  0.16851992843E+02 -0.11264709695E+02  0.59302007955E+02  0.50000116588E+02 0.  0.
         12    1    1    2    0    0  0.24613677933E+02 -0.16851992843E+02  0.11264709695E+02  0.31885992045E+02  0.00000000000E+00 0. -1.
         11    1    3    3    0    0 -0.16633207006E+02  0.23265342383E+01  0.27927328538E+01  0.17025736223E+02  0.51100000000E-03 0. -1.
        -11    1    3    3    0    0 -0.16285970599E+02  0.13596997626E+02 -0.22129978090E+02  0.30656926026E+02  0.51100000000E-03 0.  1.
         12    1    3    3    0    0  0.83054996719E+01  0.92846097845E+00  0.80725355418E+01  0.11619345707E+02  0.00000000000E+00 0. -1.
</event>
<event>
 7    1  0.3220798E-013  0.5930196E+02  0.7816164E-02  0.1266605E+00
        -11   -1    0    0    0    0  0.00000000000E+00  0.00000000000E+00  0.45593999997E+02  0.45594000000E+02  0.51100000000E-03 0. -1.
         11   -1    0    0    0    0 -0.00000000000E+00 -0.00000000000E+00 -0.45593999997E+02  0.45594000000E+02  0.51100000000E-03 0.  1.
    9900012    2    1    2    0    0 -0.20190274396E+02  0.24093446103E+02 -0.53458687265E+01  0.59301958575E+02  0.50000026531E+02 0.  0.
         12    1    1    2    0    0  0.20190274396E+02 -0.24093446103E+02  0.53458687265E+01  0.31886041425E+02  0.00000000000E+00 0. -1.
         11    1    3    3    0    0 -0.23058985510E+01 -0.12387211683E+02  0.86140497988E+01  0.15263093907E+02  0.51100000000E-03 0. -1.
        -11    1    3    3    0    0 -0.32882027431E+01  0.13693500232E+01 -0.87559580519E-01  0.35630132903E+01  0.51100000000E-03 0.  1.
        -12    1    3    3    0    0 -0.14596173102E+02  0.35111307763E+02 -0.13872358945E+02  0.40475851378E+02  0.00000000000E+00 0.  1.
</event>
<event>
 7    1  0.3220798E-013  0.5930197E+02  0.7816164E-02  0.1266605E+00
        -11   -1    0    0    0    0  0.00000000000E+00  0.00000000000E+00  0.45593999997E+02  0.45594000000E+02  0.51100000000E-03 0. -1.
         11   -1    0    0    0    0 -0.00000000000E+00 -0.00000000000E+00 -0.45593999997E+02  0.45594000000E+02  0.51100000000E-03 0.  1.
    9900012    2    1    2    0    0 -0.21490723286E+02 -0.21350270569E+02 -0.99515699379E+01  0.59301968812E+02  0.50000045200E+02 0.  0.
         12    1    1    2    0    0  0.21490723286E+02  0.21350270569E+02  0.99515699379E+01  0.31886031188E+02  0.00000000000E+00 0. -1.
         11    1    3    3    0    0  0.10507071132E+02 -0.16152827451E+02 -0.25639567086E+01  0.19439296610E+02  0.51100000000E-03 0. -1.
        -11    1    3    3    0    0 -0.31248014974E+01  0.16865254482E+01 -0.94636239337E+01  0.10107864795E+02  0.51100000000E-03 0.  1.
         12    1    3    3    0    0 -0.28872992920E+02 -0.68839685660E+01  0.20760107044E+01  0.29754807407E+02  0.00000000000E+00 0. -1.
</event>
<event>
 7    1  0.3220798E-013  0.5930195E+02  0.7816164E-02  0.1266605E+00
        -11   -1    0    0    0    0  0.00000000000E+00  0.00000000000E+00  0.45593999997E+02  0.45594000000E+02  0.51100000000E-03 0. -1.
         11   -1    0    0    0    0 -0.00000000000E+00 -0.00000000000E+00 -0.45593999997E+02  0.45594000000E+02  0.51100000000E-03 0.  1.
    9900012    2    1    2    0    0  0.46176859285E+01 -0.61276034313E+01 -0.30949150164E+02  0.59301945948E+02  0.50000003502E+02 0.  0.
         12    1    1    2    0    0 -0.46176859285E+01  0.61276034313E+01  0.30949150164E+02  0.31886054052E+02  0.00000000000E+00 0. -1.
         11    1    3    3    0    0 -0.10849598358E+02 -0.91446409063E+01 -0.12895118694E+02  0.19173479815E+02  0.51100000000E-03 0.  1.
        -11    1    3    3    0    0  0.36285890522E+01 -0.13180734837E+02 -0.84692157662E+00  0.13697288263E+02  0.51100000000E-03 0. -1.
        -12    1    3    3    0    0  0.11838695234E+02  0.16197772311E+02 -0.17207109894E+02  0.26431177870E+02  0.00000000000E+00 0.  1.
</event>
<event>
 7    1  0.3220798E-013  0.5930186E+02  0.7816164E-02  0.1266605E+00
        -11   -1    0    0    0    0  0.00000000000E+00  0.00000000000E+00  0.45593999997E+02  0.45594000000E+02  0.51100000000E-03 0. -1.
         11   -1    0    0    0    0 -0.00000000000E+00 -0.00000000000E+00 -0.45593999997E+02  0.45594000000E+02  0.51100000000E-03 0.  1.
    9900012    2    1    2    0    0  0.16784145288E+02  0.45639987203E+01 -0.26724300785E+02  0.59301860851E+02  0.49999848305E+02 0.  0.
         12    1    1    2    0    0 -0.16784145288E+02 -0.45639987203E+01  0.26724300785E+02  0.31886139149E+02  0.00000000000E+00 0. -1.
         11    1    3    3    0    0  0.46035708983E+01 -0.17302648670E+01  0.38771916766E+01  0.62625312043E+01  0.51100000000E-03 0. -1.
        -11    1    3    3    0    0 -0.87903226788E+01 -0.11468307254E+02 -0.17198131011E+02  0.22462581210E+02  0.51100000000E-03 0.  1.
        -12    1    3    3    0    0  0.20970897069E+02  0.17762570842E+02 -0.13403361450E+02  0.30576748436E+02  0.00000000000E+00 0.  1.
</event>
<event>
 7    1  0.3220798E-013  0.5930194E+02  0.7816164E-02  0.1266605E+00
        -11   -1    0    0    0    0  0.00000000000E+00  0.00000000000E+00  0.45593999997E+02  0.45594000000E+02  0.51100000000E-03 0.  1.
         11   -1    0    0    0    0 -0.00000000000E+00 -0.00000000000E+00 -0.45593999997E+02  0.45594000000E+02  0.51100000000E-03 0. -1.
    9900012    2    1    2    0    0  0.26302454756E+02  0.14192198071E+02  0.11112293756E+02  0.59301942156E+02  0.49999996587E+02 0.  0.
         12    1    1    2    0    0 -0.26302454756E+02 -0.14192198071E+02 -0.11112293756E+02  0.31886057844E+02  0.00000000000E+00 0. -1.
         11    1    3    3    0    0  0.49523230201E+01 -0.62340173086E+00 -0.67818954756E+01  0.84207030298E+01  0.51100000000E-03 0. -1.
        -11    1    3    3    0    0  0.29384911296E+02 -0.19926148642E+00  0.56930596658E+01  0.29931983657E+02  0.51100000000E-03 0.  1.
         12    1    3    3    0    0 -0.80347795595E+01  0.15014861288E+02  0.12201129566E+02  0.20949255470E+02  0.00000000000E+00 0. -1.
</event>
<event>
 7    1  0.3220798E-013  0.5930197E+02  0.7816164E-02  0.1266605E+00
        -11   -1    0    0    0    0  0.00000000000E+00  0.00000000000E+00  0.45593999997E+02  0.45594000000E+02  0.51100000000E-03 0.  1.
         11   -1    0    0    0    0 -0.00000000000E+00 -0.00000000000E+00 -0.45593999997E+02  0.45594000000E+02  0.51100000000E-03 0. -1.
    9900012    2    1    2    0    0 -0.16002480615E+02 -0.16335316222E+02  0.22221549649E+02  0.59301965271E+02  0.50000038743E+02 0.  0.
         12    1    1    2    0    0  0.16002480615E+02  0.16335316222E+02 -0.22221549649E+02  0.31886034729E+02  0.00000000000E+00 0. -1.
         11    1    3    3    0    0 -0.11252134767E+02  0.87019136200E+01  0.86416530261E+01  0.16643677621E+02  0.51100000000E-03 0. -1.
        -11    1    3    3    0    0 -0.61372124135E+01 -0.15324959464E+00  0.16462120063E+02  0.17569583344E+02  0.51100000000E-03 0.  1.
         12    1    3    3    0    0  0.13868665647E+01 -0.24883980248E+02 -0.28822234404E+01  0.25088704307E+02  0.00000000000E+00 0. -1.
</event>
<event>
 7    1  0.3220798E-013  0.5930200E+02  0.7816164E-02  0.1266605E+00
        -11   -1    0    0    0    0  0.00000000000E+00  0.00000000000E+00  0.45593999997E+02  0.45594000000E+02  0.51100000000E-03 0. -1.
         11   -1    0    0    0    0 -0.00000000000E+00 -0.00000000000E+00 -0.45593999997E+02  0.45594000000E+02  0.51100000000E-03 0.  1.
    9900012    2    1    2    0    0  0.11561866276E+01 -0.27190527474E+02 -0.16614924374E+02  0.59301995801E+02  0.50000094422E+02 0.  0.
         12    1    1    2    0    0 -0.11561866276E+01  0.27190527474E+02  0.16614924374E+02  0.31886004199E+02  0.00000000000E+00 0. -1.
         11    1    3    3    0    0  0.18813045799E+02 -0.21800727037E+02 -0.18957181632E+02  0.34475746942E+02  0.51100000000E-03 0. -1.
        -11    1    3    3    0    0 -0.71432036856E+01 -0.70882461331E+01  0.79181640352E+01  0.12804917574E+02  0.51100000000E-03 0.  1.
        -12    1    3    3    0    0 -0.10513655486E+02  0.16984456959E+01 -0.55759067777E+01  0.12021331284E+02  0.00000000000E+00 0.  1.
</event>
<event>
 7    1  0.3220798E-013  0.5930186E+02  0.7816164E-02  0.1266605E+00
        -11   -1    0    0    0    0  0.00000000000E+00  0.00000000000E+00  0.45593999997E+02  0.45594000000E+02  0.51100000000E-03 0. -1.
         11   -1    0    0    0    0 -0.00000000000E+00 -0.00000000000E+00 -0.45593999997E+02  0.45594000000E+02  0.51100000000E-03 0.  1.
    9900012    2    1    2    0    0  0.25217009251E+02 -0.52249334071E+01 -0.18802347002E+02  0.59301862927E+02  0.49999852091E+02 0.  0.
         12    1    1    2    0    0 -0.25217009251E+02  0.52249334071E+01  0.18802347002E+02  0.31886137073E+02  0.00000000000E+00 0. -1.
         11    1    3    3    0    0  0.15662103970E+02  0.11501998842E+02 -0.27832533914E+02  0.33944770178E+02  0.51100000000E-03 0. -1.
        -11    1    3    3    0    0  0.71860825238E+01 -0.65799377045E+01 -0.22509548912E+01  0.10000108020E+02  0.51100000000E-03 0.  1.
        -12    1    3    3    0    0  0.23688227573E+01 -0.10146994545E+02  0.11281141804E+02  0.15356984728E+02  0.00000000000E+00 0.  1.
</event>
<event>
 7    1  0.3220798E-013  0.5930194E+02  0.7816164E-02  0.1266605E+00
        -11   -1    0    0    0    0  0.00000000000E+00  0.00000000000E+00  0.45593999997E+02  0.45594000000E+02  0.51100000000E-03 0. -1.
         11   -1    0    0    0    0 -0.00000000000E+00 -0.00000000000E+00 -0.45593999997E+02  0.45594000000E+02  0.51100000000E-03 0.  1.
    9900012    2    1    2    0    0  0.60996268203E+01 -0.20563075295E+01 -0.31229587079E+02  0.59301937886E+02  0.49999988799E+02 0.  0.
         12    1    1    2    0    0 -0.60996268203E+01  0.20563075295E+01  0.31229587079E+02  0.31886062114E+02  0.00000000000E+00 0. -1.
         11    1    3    3    0    0  0.18995321407E+02 -0.58440520825E+01 -0.97186489614E+01  0.22123004271E+02  0.51100000000E-03 0. -1.
        -11    1    3    3    0    0 -0.18155612946E+02  0.22429109036E+00 -0.40571386475E+01  0.18604756441E+02  0.51100000000E-03 0.  1.
         12    1    3    3    0    0  0.52599183602E+01  0.35634534626E+01 -0.17453799470E+02  0.18574177174E+02  0.00000000000E+00 0. -1.
</event>
<event>
 7    1  0.3220798E-013  0.5930190E+02  0.7816164E-02  0.1266605E+00
        -11   -1    0    0    0    0  0.00000000000E+00  0.00000000000E+00  0.45593999997E+02  0.45594000000E+02  0.51100000000E-03 0.  1.
         11   -1    0    0    0    0 -0.00000000000E+00 -0.00000000000E+00 -0.45593999997E+02  0.45594000000E+02  0.51100000000E-03 0. -1.
    9900012    2    1    2    0    0  0.16037689725E+02  0.15891065522E+02  0.22516429835E+02  0.59301904792E+02  0.49999928443E+02 0.  0.
         12    1    1    2    0    0 -0.16037689725E+02 -0.15891065522E+02 -0.22516429835E+02  0.31886095208E+02  0.00000000000E+00 0. -1.
         11    1    3    3    0    0  0.13572507193E+02  0.54438891017E+01  0.56860098767E+01  0.15690111174E+02  0.51100000000E-03 0. -1.
        -11    1    3    3    0    0  0.83945549285E+01  0.13407715553E+02  0.27106077570E+02  0.31384308663E+02  0.51100000000E-03 0.  1.
         12    1    3    3    0    0 -0.59293723972E+01 -0.29605391330E+01 -0.10275657611E+02  0.12227484955E+02  0.00000000000E+00 0. -1.
</event>
<event>
 7    1  0.3220798E-013  0.5930195E+02  0.7816164E-02  0.1266605E+00
        -11   -1    0    0    0    0  0.00000000000E+00  0.00000000000E+00  0.45593999997E+02  0.45594000000E+02  0.51100000000E-03 0. -1.
         11   -1    0    0    0    0 -0.00000000000E+00 -0.00000000000E+00 -0.45593999997E+02  0.45594000000E+02  0.51100000000E-03 0.  1.
    9900012    2    1    2    0    0  0.15073762024E+02  0.43258508831E+01 -0.27763079654E+02  0.59301954788E+02  0.50000019623E+02 0.  0.
         12    1    1    2    0    0 -0.15073762024E+02 -0.43258508831E+01  0.27763079654E+02  0.31886045212E+02  0.00000000000E+00 0. -1.
         11    1    3    3    0    0  0.51510258520E+00  0.21158382100E+02 -0.16658842218E+02  0.26934355163E+02  0.51100000000E-03 0. -1.
        -11    1    3    3    0    0 -0.40189951645E+01 -0.96792365421E+01 -0.43233072786E+01  0.11337148154E+02  0.51100000000E-03 0.  1.
        -12    1    3    3    0    0  0.18577654604E+02 -0.71532946748E+01 -0.67809301576E+01  0.21030451471E+02  0.00000000000E+00 0.  1.
</event>
<event>
 7    1  0.3220798E-013  0.5930195E+02  0.7816164E-02  0.1266605E+00
        -11   -1    0    0    0    0  0.00000000000E+00  0.00000000000E+00  0.45593999997E+02  0.45594000000E+02  0.51100000000E-03 0.  1.
         11   -1    0    0    0    0 -0.00000000000E+00 -0.00000000000E+00 -0.45593999997E+02  0.45594000000E+02  0.51100000000E-03 0. -1.
    9900012    2    1    2    0    0 -0.91708753202E+01 -0.59948426378E+01  0.29944565415E+02  0.59301951479E+02  0.50000013590E+02 0.  0.
         12    1    1    2    0    0  0.91708753202E+01  0.59948426378E+01 -0.29944565415E+02  0.31886048521E+02  0.00000000000E+00 0. -1.
         11    1    3    3    0    0 -0.15934418598E+02 -0.25002921792E+01 -0.32788596947E+01  0.16459285471E+02  0.51100000000E-03 0. -1.
        -11    1    3    3    0    0 -0.74105316542E+01  0.59754909446E+01  0.81981439313E+01  0.12563122049E+02  0.51100000000E-03 0.  1.
        -12    1    3    3    0    0  0.14174074933E+02 -0.94700414032E+01  0.25025281178E+02  0.30279543960E+02  0.00000000000E+00 0.  1.
</event>
<event>
 7    1  0.3220798E-013  0.5930194E+02  0.7816164E-02  0.1266605E+00
        -11   -1    0    0    0    0  0.00000000000E+00  0.00000000000E+00  0.45593999997E+02  0.45594000000E+02  0.51100000000E-03 0.  1.
         11   -1    0    0    0    0 -0.00000000000E+00 -0.00000000000E+00 -0.45593999997E+02  0.45594000000E+02  0.51100000000E-03 0. -1.
    9900012    2    1    2    0    0 -0.31693202037E+02  0.32838044441E+01  0.12159540982E+01  0.59301937663E+02  0.49999988393E+02 0.  0.
         12    1    1    2    0    0  0.31693202037E+02 -0.32838044441E+01 -0.12159540982E+01  0.31886062337E+02  0.00000000000E+00 0. -1.
         11    1    3    3    0    0  0.20562045430E+01  0.35070520913E+01 -0.31844661523E+01  0.51641278480E+01  0.51100000000E-03 0. -1.
        -11    1    3    3    0    0  0.15892490192E+00 -0.12493702327E+02 -0.92861393152E+01  0.15567602211E+02  0.51100000000E-03 0.  1.
        -12    1    3    3    0    0 -0.33908331482E+02  0.12270454680E+02  0.13686559566E+02  0.38570207605E+02  0.00000000000E+00 0.  1.
</event>
<event>
 7    1  0.3220798E-013  0.5930195E+02  0.7816164E-02  0.1266605E+00
        -11   -1    0    0    0    0  0.00000000000E+00  0.00000000000E+00  0.45593999997E+02  0.45594000000E+02  0.51100000000E-03 0.  1.
         11   -1    0    0    0    0 -0.00000000000E+00 -0.00000000000E+00 -0.45593999997E+02  0.45594000000E+02  0.51100000000E-03 0. -1.
    9900012    2    1    2    0    0  0.13371191828E+02  0.22579627780E+02  0.18113308378E+02  0.59301948159E+02  0.50000007535E+02 0.  0.
         12    1    1    2    0    0 -0.13371191828E+02 -0.22579627780E+02 -0.18113308378E+02  0.31886051841E+02  0.00000000000E+00 0. -1.
         11    1    3    3    0    0 -0.69586179762E+01  0.49313397489E+01 -0.64080667964E+01  0.10667886210E+02  0.51100000000E-03 0. -1.
        -11    1    3    3    0    0 -0.57864678213E+01 -0.39447505614E+01  0.88862629061E+01  0.11314147583E+02  0.51100000000E-03 0.  1.
        -12    1    3    3    0    0  0.26116277626E+02  0.21593038592E+02  0.15635112268E+02  0.37319914366E+02  0.00000000000E+00 0.  1.
</event>
<event>
 7    1  0.3220798E-013  0.5930189E+02  0.7816164E-02  0.1266605E+00
        -11   -1    0    0    0    0  0.00000000000E+00  0.00000000000E+00  0.45593999997E+02  0.45594000000E+02  0.51100000000E-03 0.  1.
         11   -1    0    0    0    0 -0.00000000000E+00 -0.00000000000E+00 -0.45593999997E+02  0.45594000000E+02  0.51100000000E-03 0. -1.
    9900012    2    1    2    0    0  0.28837488950E+02  0.13549828785E+02 -0.12350791574E+01  0.59301889394E+02  0.49999900360E+02 0.  0.
         12    1    1    2    0    0 -0.28837488950E+02 -0.13549828785E+02  0.12350791574E+01  0.31886110606E+02  0.00000000000E+00 0. -1.
         11    1    3    3    0    0  0.99648456641E+01  0.20502844670E+01 -0.82653405650E+01  0.13107923955E+02  0.51100000000E-03 0. -1.
        -11    1    3    3    0    0  0.29361260370E+02  0.13220645610E+01  0.10433839793E+02  0.31188082313E+02  0.51100000000E-03 0.  1.
        -12    1    3    3    0    0 -0.10488617084E+02  0.10177479757E+02 -0.34035783858E+01  0.15005883126E+02  0.00000000000E+00 0.  1.
</event>
<event>
 7    1  0.3220798E-013  0.5930195E+02  0.7816164E-02  0.1266605E+00
        -11   -1    0    0    0    0  0.00000000000E+00  0.00000000000E+00  0.45593999997E+02  0.45594000000E+02  0.51100000000E-03 0.  1.
         11   -1    0    0    0    0 -0.00000000000E+00 -0.00000000000E+00 -0.45593999997E+02  0.45594000000E+02  0.51100000000E-03 0. -1.
    9900012    2    1    2    0    0 -0.95760350322E+01  0.10354026233E+01  0.30396507450E+02  0.59301950219E+02  0.50000011291E+02 0.  0.
         12    1    1    2    0    0  0.95760350322E+01 -0.10354026233E+01 -0.30396507450E+02  0.31886049781E+02  0.00000000000E+00 0. -1.
         11    1    3    3    0    0  0.60507903837E+01  0.58392569976E+01  0.13965685765E+02  0.16301820932E+02  0.51100000000E-03 0. -1.
        -11    1    3    3    0    0 -0.14064514297E+02  0.31685057261E+01  0.26436227425E+02  0.30111859984E+02  0.51100000000E-03 0.  1.
         12    1    3    3    0    0 -0.15623111192E+01 -0.79723601004E+01 -0.10005405740E+02  0.12888269303E+02  0.00000000000E+00 0. -1.
</event>
<event>
 7    1  0.3220798E-013  0.5930194E+02  0.7816164E-02  0.1266605E+00
        -11   -1    0    0    0    0  0.00000000000E+00  0.00000000000E+00  0.45593999997E+02  0.45594000000E+02  0.51100000000E-03 0.  1.
         11   -1    0    0    0    0 -0.00000000000E+00 -0.00000000000E+00 -0.45593999997E+02  0.45594000000E+02  0.51100000000E-03 0. -1.
    9900012    2    1    2    0    0  0.93832383251E+01 -0.23923434114E+02  0.18877103749E+02  0.59301938669E+02  0.49999990226E+02 0.  0.
         12    1    1    2    0    0 -0.93832383251E+01  0.23923434114E+02 -0.18877103749E+02  0.31886061331E+02  0.00000000000E+00 0. -1.
         11    1    3    3    0    0  0.52750497903E+01  0.52525000350E+01  0.23260714141E+02  0.24422852608E+02  0.51100000000E-03 0. -1.
        -11    1    3    3    0    0  0.63580600475E+01 -0.12899207332E+01 -0.20569861016E+01  0.68058809238E+01  0.51100000000E-03 0.  1.
        -12    1    3    3    0    0 -0.22498715127E+01 -0.27886013416E+02 -0.23266242905E+01  0.28073205137E+02  0.00000000000E+00 0.  1.
</event>
<event>
 7    1  0.3220798E-013  0.5930195E+02  0.7816164E-02  0.1266605E+00
        -11   -1    0    0    0    0  0.00000000000E+00  0.00000000000E+00  0.45593999997E+02  0.45594000000E+02  0.51100000000E-03 0.  1.
         11   -1    0    0    0    0 -0.00000000000E+00 -0.00000000000E+00 -0.45593999997E+02  0.45594000000E+02  0.51100000000E-03 0. -1.
    9900012    2    1    2    0    0  0.38649526901E+01 -0.10659276881E+02  0.29802054194E+02  0.59301945413E+02  0.50000002527E+02 0.  0.
         12    1    1    2    0    0 -0.38649526901E+01  0.10659276881E+02 -0.29802054194E+02  0.31886054587E+02  0.00000000000E+00 0. -1.
         11    1    3    3    0    0  0.20619871642E+01 -0.54303981423E+01 -0.76195976375E+01  0.95811942611E+01  0.51100000000E-03 0. -1.
        -11    1    3    3    0    0  0.46152890607E+01  0.90405097547E+01  0.64292930009E+00  0.10170794860E+02  0.51100000000E-03 0.  1.
        -12    1    3    3    0    0 -0.28123235348E+01 -0.14269388494E+02  0.36778722532E+02  0.39549956292E+02  0.00000000000E+00 0.  1.
</event>
<event>
 7    1  0.3220798E-013  0.5930196E+02  0.7816164E-02  0.1266605E+00
        -11   -1    0    0    0    0  0.00000000000E+00  0.00000000000E+00  0.45593999997E+02  0.45594000000E+02  0.51100000000E-03 0.  1.
         11   -1    0    0    0    0 -0.00000000000E+00 -0.00000000000E+00 -0.45593999997E+02  0.45594000000E+02  0.51100000000E-03 0. -1.
    9900012    2    1    2    0    0 -0.21027949922E+02 -0.21913290118E+02  0.97135421447E+01  0.59301955048E+02  0.50000020098E+02 0.  0.
         12    1    1    2    0    0  0.21027949922E+02  0.21913290118E+02 -0.97135421447E+01  0.31886044952E+02  0.00000000000E+00 0. -1.
         11    1    3    3    0    0  0.36848972714E+01  0.15233908172E+01  0.11721246513E+01  0.41560875763E+01  0.51100000000E-03 0. -1.
        -11    1    3    3    0    0  0.42238537511E+00 -0.21994904559E+02  0.17823155176E+02  0.28312878636E+02  0.51100000000E-03 0.  1.
         12    1    3    3    0    0 -0.25135232569E+02 -0.14417763755E+01 -0.92817376829E+01  0.26832988835E+02  0.00000000000E+00 0. -1.
</event>
<event>
 7    1  0.3220798E-013  0.5930195E+02  0.7816164E-02  0.1266605E+00
        -11   -1    0    0    0    0  0.00000000000E+00  0.00000000000E+00  0.45593999997E+02  0.45594000000E+02  0.51100000000E-03 0.  1.
         11   -1    0    0    0    0 -0.00000000000E+00 -0.00000000000E+00 -0.45593999997E+02  0.45594000000E+02  0.51100000000E-03 0. -1.
    9900012    2    1    2    0    0 -0.18975345024E+02 -0.86127863614E+01  0.24134544137E+02  0.59301952450E+02  0.50000015360E+02 0.  0.
         12    1    1    2    0    0  0.18975345024E+02  0.86127863614E+01 -0.24134544137E+02  0.31886047550E+02  0.00000000000E+00 0. -1.
         11    1    3    3    0    0 -0.24383208788E+01  0.91421832014E+01  0.15853778196E+02  0.18462589356E+02  0.51100000000E-03 0. -1.
        -11    1    3    3    0    0 -0.29412843699E+01 -0.87442240657E+01  0.19137968841E+02  0.21245575066E+02  0.51100000000E-03 0.  1.
         12    1    3    3    0    0 -0.13595739775E+02 -0.90107454971E+01 -0.10857202900E+02  0.19593788027E+02  0.00000000000E+00 0. -1.
</event>
<event>
 7    1  0.3220798E-013  0.5930210E+02  0.7816164E-02  0.1266604E+00
        -11   -1    0    0    0    0  0.00000000000E+00  0.00000000000E+00  0.45593999997E+02  0.45594000000E+02  0.51100000000E-03 0.  1.
         11   -1    0    0    0    0 -0.00000000000E+00 -0.00000000000E+00 -0.45593999997E+02  0.45594000000E+02  0.51100000000E-03 0. -1.
    9900012    2    1    2    0    0 -0.21100198288E+02 -0.13120259054E+02  0.19983774561E+02  0.59302096984E+02  0.50000278955E+02 0.  0.
         12    1    1    2    0    0  0.21100198288E+02  0.13120259054E+02 -0.19983774561E+02  0.31885903016E+02  0.00000000000E+00 0. -1.
         11    1    3    3    0    0  0.76074979289E+01 -0.46858511885E+01 -0.90966913180E+01  0.12750726226E+02  0.51100000000E-03 0. -1.
        -11    1    3    3    0    0 -0.20696507228E+02  0.31253243521E+01  0.11002302135E+02  0.23646642812E+02  0.51100000000E-03 0.  1.
        -12    1    3    3    0    0 -0.80111889890E+01 -0.11559732217E+02  0.18078163744E+02  0.22904727946E+02  0.00000000000E+00 0.  1.
</event>
<event>
 7    1  0.3220798E-013  0.5930193E+02  0.7816164E-02  0.1266605E+00
        -11   -1    0    0    0    0  0.00000000000E+00  0.00000000000E+00  0.45593999997E+02  0.45594000000E+02  0.51100000000E-03 0.  1.
         11   -1    0    0    0    0 -0.00000000000E+00 -0.00000000000E+00 -0.45593999997E+02  0.45594000000E+02  0.51100000000E-03 0. -1.
    9900012    2    1    2    0    0 -0.71597022668E+01  0.82798774458E+01  0.29948350433E+02  0.59301930930E+02  0.49999976114E+02 0.  0.
         12    1    1    2    0    0  0.71597022668E+01 -0.82798774458E+01 -0.29948350433E+02  0.31886069070E+02  0.00000000000E+00 0. -1.
         11    1    3    3    0    0  0.30491652011E+01 -0.49904233047E+01  0.55347077232E+01  0.80520011815E+01  0.51100000000E-03 0. -1.
        -11    1    3    3    0    0 -0.18261067177E+02 -0.96883879626E+01  0.99041341368E+01  0.22922113974E+02  0.51100000000E-03 0.  1.
        -12    1    3    3    0    0  0.80521997091E+01  0.22958688713E+02  0.14509508573E+02  0.28327815775E+02  0.00000000000E+00 0.  1.
</event>
<event>
 7    1  0.3220798E-013  0.5930199E+02  0.7816164E-02  0.1266605E+00
        -11   -1    0    0    0    0  0.00000000000E+00  0.00000000000E+00  0.45593999997E+02  0.45594000000E+02  0.51100000000E-03 0.  1.
         11   -1    0    0    0    0 -0.00000000000E+00 -0.00000000000E+00 -0.45593999997E+02  0.45594000000E+02  0.51100000000E-03 0. -1.
    9900012    2    1    2    0    0 -0.21989460389E+02  0.14011856502E+02  0.18353454457E+02  0.59301987685E+02  0.50000079621E+02 0.  0.
         12    1    1    2    0    0  0.21989460389E+02 -0.14011856502E+02 -0.18353454457E+02  0.31886012315E+02  0.00000000000E+00 0. -1.
         11    1    3    3    0    0 -0.24909739411E+01  0.13947122008E+00 -0.10575174975E+02  0.10865483395E+02  0.51100000000E-03 0. -1.
        -11    1    3    3    0    0 -0.49290905465E+01 -0.85544707689E+01  0.12557307515E+01  0.99524752566E+01  0.51100000000E-03 0.  1.
         12    1    3    3    0    0 -0.14569395901E+02  0.22426856050E+02  0.27672898681E+02  0.38484029033E+02  0.00000000000E+00 0. -1.
</event>
<event>
 7    1  0.3220798E-013  0.5930194E+02  0.7816164E-02  0.1266605E+00
        -11   -1    0    0    0    0  0.00000000000E+00  0.00000000000E+00  0.45593999997E+02  0.45594000000E+02  0.51100000000E-03 0. -1.
         11   -1    0    0    0    0 -0.00000000000E+00 -0.00000000000E+00 -0.45593999997E+02  0.45594000000E+02  0.51100000000E-03 0.  1.
    9900012    2    1    2    0    0 -0.10377011712E+02 -0.29691716666E+02 -0.52383484862E+01  0.59301941831E+02  0.49999995994E+02 0.  0.
         12    1    1    2    0    0  0.10377011712E+02  0.29691716666E+02  0.52383484862E+01  0.31886058169E+02  0.00000000000E+00 0. -1.
         11    1    3    3    0    0  0.43480665056E+01  0.85413355743E+01  0.60231942826E+00  0.96032746855E+01  0.51100000000E-03 0. -1.
        -11    1    3    3    0    0  0.54204980801E+00 -0.89288294820E+01 -0.13104923141E+02  0.15866846716E+02  0.51100000000E-03 0.  1.
        -12    1    3    3    0    0 -0.15267128026E+02 -0.29304222759E+02  0.72642552261E+01  0.33831820430E+02  0.00000000000E+00 0.  1.
</event>
<event>
 7    1  0.3220798E-013  0.5930203E+02  0.7816164E-02  0.1266604E+00
        -11   -1    0    0    0    0  0.00000000000E+00  0.00000000000E+00  0.45593999997E+02  0.45594000000E+02  0.51100000000E-03 0.  1.
         11   -1    0    0    0    0 -0.00000000000E+00 -0.00000000000E+00 -0.45593999997E+02  0.45594000000E+02  0.51100000000E-03 0. -1.
    9900012    2    1    2    0    0  0.13245800231E+02 -0.77770475808E+01  0.27942465231E+02  0.59302030421E+02  0.50000157560E+02 0.  0.
         12    1    1    2    0    0 -0.13245800231E+02  0.77770475808E+01 -0.27942465231E+02  0.31885969579E+02  0.00000000000E+00 0. -1.
         11    1    3    3    0    0  0.19359690504E+02 -0.59234742651E+01  0.14763461878E+02  0.25056834810E+02  0.51100000000E-03 0. -1.
        -11    1    3    3    0    0  0.25172190437E+01 -0.15209319397E+02  0.41771252220E+01  0.15972105798E+02  0.51100000000E-03 0.  1.
        -12    1    3    3    0    0 -0.86311093172E+01  0.13355746081E+02  0.90018781309E+01  0.18273089813E+02  0.00000000000E+00 0.  1.
</event>
<event>
 7    1  0.4946685E-013  0.5930195E+02  0.7816164E-02  0.1266605E+00
        -11   -1    0    0    0    0  0.00000000000E+00  0.00000000000E+00  0.45593999997E+02  0.45594000000E+02  0.51100000000E-03 0. -1.
         11   -1    0    0    0    0 -0.00000000000E+00 -0.00000000000E+00 -0.45593999997E+02  0.45594000000E+02  0.51100000000E-03 0.  1.
    9900012    2    1    2    0    0 -0.15600628484E+02 -0.25092226554E+01 -0.27695566226E+02  0.59301949821E+02  0.50000010566E+02 0.  0.
         12    1    1    2    0    0  0.15600628484E+02  0.25092226554E+01  0.27695566226E+02  0.31886050179E+02  0.00000000000E+00 0. -1.
         11    1    3    3    0    0 -0.74470515127E+01  0.46478567229E+01  0.57540646782E+01  0.10496209265E+02  0.51100000000E-03 0. -1.
        -11    1    3    3    0    0 -0.18925598624E+02 -0.46565766950E+01 -0.32250725546E+02  0.37682506396E+02  0.51100000000E-03 0.  1.
         12    1    3    3    0    0  0.10772021652E+02 -0.25005026832E+01 -0.11989053582E+01  0.11123234161E+02  0.00000000000E+00 0. -1.
</event>
<event>
 7    1  0.3220798E-013  0.5930194E+02  0.7816164E-02  0.1266605E+00
        -11   -1    0    0    0    0  0.00000000000E+00  0.00000000000E+00  0.45593999997E+02  0.45594000000E+02  0.51100000000E-03 0.  1.
         11   -1    0    0    0    0 -0.00000000000E+00 -0.00000000000E+00 -0.45593999997E+02  0.45594000000E+02  0.51100000000E-03 0. -1.
    9900012    2    1    2    0    0  0.27492671927E+02  0.47329153459E+01  0.15442583418E+02  0.59301939096E+02  0.49999991006E+02 0.  0.
         12    1    1    2    0    0 -0.27492671927E+02 -0.47329153459E+01 -0.15442583418E+02  0.31886060904E+02  0.00000000000E+00 0. -1.
         11    1    3    3    0    0  0.22489184814E+02 -0.30424847522E+01  0.11762021914E+02  0.25561011459E+02  0.51100000000E-03 0. -1.
        -11    1    3    3    0    0  0.66623930770E+01 -0.72827418392E+00  0.16761044960E+02  0.18051329403E+02  0.51100000000E-03 0.  1.
         12    1    3    3    0    0 -0.16589059644E+01  0.85036742820E+01 -0.13080483456E+02  0.15689598234E+02  0.00000000000E+00 0. -1.
</event>
<event>
 7    1  0.3220798E-013  0.5930190E+02  0.7816164E-02  0.1266605E+00
        -11   -1    0    0    0    0  0.00000000000E+00  0.00000000000E+00  0.45593999997E+02  0.45594000000E+02  0.51100000000E-03 0. -1.
         11   -1    0    0    0    0 -0.00000000000E+00 -0.00000000000E+00 -0.45593999997E+02  0.45594000000E+02  0.51100000000E-03 0.  1.
    9900012    2    1    2    0    0  0.33031345633E+01 -0.48126535379E+01 -0.31347266649E+02  0.59301898664E+02  0.49999917268E+02 0.  0.
         12    1    1    2    0    0 -0.33031345633E+01  0.48126535379E+01  0.31347266649E+02  0.31886101336E+02  0.00000000000E+00 0. -1.
         11    1    3    3    0    0  0.15374032504E+02  0.51190193454E+01  0.14299740137E+00  0.16204495766E+02  0.51100000000E-03 0. -1.
        -11    1    3    3    0    0  0.69337203919E+01  0.16522568995E+01 -0.86114595318E+01  0.11178714902E+02  0.51100000000E-03 0.  1.
        -12    1    3    3    0    0 -0.19004618333E+02 -0.11583929783E+02 -0.22878804519E+02  0.31918687996E+02  0.00000000000E+00 0.  1.
</event>
<event>
 7    1  0.3220798E-013  0.5930196E+02  0.7816164E-02  0.1266605E+00
        -11   -1    0    0    0    0  0.00000000000E+00  0.00000000000E+00  0.45593999997E+02  0.45594000000E+02  0.51100000000E-03 0. -1.
         11   -1    0    0    0    0 -0.00000000000E+00 -0.00000000000E+00 -0.45593999997E+02  0.45594000000E+02  0.51100000000E-03 0.  1.
    9900012    2    1    2    0    0 -0.40635153298E+01 -0.21348943711E+02 -0.23333018399E+02  0.59301963840E+02  0.50000036132E+02 0.  0.
         12    1    1    2    0    0  0.40635153298E+01  0.21348943711E+02  0.23333018399E+02  0.31886036160E+02  0.00000000000E+00 0. -1.
         11    1    3    3    0    0  0.62694975260E+01 -0.11774743165E+02 -0.81236093128E+01  0.15618713274E+02  0.51100000000E-03 0.  1.
        -11    1    3    3    0    0 -0.61249811594E+01  0.43552205222E+01  0.11224917226E+02  0.13508593820E+02  0.51100000000E-03 0. -1.
         12    1    3    3    0    0 -0.42080316964E+01 -0.13929421068E+02 -0.26434326313E+02  0.30174656745E+02  0.00000000000E+00 0. -1.
</event>
<event>
 7    1  0.3220798E-013  0.5930194E+02  0.7816164E-02  0.1266605E+00
        -11   -1    0    0    0    0  0.00000000000E+00  0.00000000000E+00  0.45593999997E+02  0.45594000000E+02  0.51100000000E-03 0.  1.
         11   -1    0    0    0    0 -0.00000000000E+00 -0.00000000000E+00 -0.45593999997E+02  0.45594000000E+02  0.51100000000E-03 0. -1.
    9900012    2    1    2    0    0 -0.22282750037E+02  0.22801582095E+02 -0.53612857643E+00  0.59301944598E+02  0.50000001040E+02 0.  0.
         12    1    1    2    0    0  0.22282750037E+02 -0.22801582095E+02  0.53612857643E+00  0.31886055402E+02  0.00000000000E+00 0. -1.
         11    1    3    3    0    0  0.12676281801E+01  0.24927766628E+02  0.69631645709E+01  0.25913048670E+02  0.51100000000E-03 0. -1.
        -11    1    3    3    0    0 -0.30394055203E+01 -0.10243815070E+01 -0.11948935326E+02  0.12371919781E+02  0.51100000000E-03 0.  1.
        -12    1    3    3    0    0 -0.20510972696E+02 -0.11018030252E+01  0.44496421786E+01  0.21016976147E+02  0.00000000000E+00 0.  1.
</event>
<event>
 7    1  0.3220798E-013  0.5930196E+02  0.7816164E-02  0.1266605E+00
        -11   -1    0    0    0    0  0.00000000000E+00  0.00000000000E+00  0.45593999997E+02  0.45594000000E+02  0.51100000000E-03 0.  1.
         11   -1    0    0    0    0 -0.00000000000E+00 -0.00000000000E+00 -0.45593999997E+02  0.45594000000E+02  0.51100000000E-03 0. -1.
    9900012    2    1    2    0    0  0.31355332345E+02 -0.22290527239E+01  0.53473502324E+01  0.59301957646E+02  0.50000024837E+02 0.  0.
         12    1    1    2    0    0 -0.31355332345E+02  0.22290527239E+01 -0.53473502324E+01  0.31886042354E+02  0.00000000000E+00 0. -1.
         11    1    3    3    0    0  0.10681665026E+02  0.52887651271E+01 -0.29194488805E+01  0.12271600805E+02  0.51100000000E-03 0. -1.
        -11    1    3    3    0    0  0.26079034890E+02  0.86705791796E+01  0.11265442228E+02  0.29701939212E+02  0.51100000000E-03 0.  1.
         12    1    3    3    0    0 -0.54053675712E+01 -0.16188397031E+02 -0.29986431147E+01  0.17328417629E+02  0.00000000000E+00 0. -1.
</event>
<event>
 7    1  0.3220798E-013  0.5930186E+02  0.7816164E-02  0.1266605E+00
        -11   -1    0    0    0    0  0.00000000000E+00  0.00000000000E+00  0.45593999997E+02  0.45594000000E+02  0.51100000000E-03 0. -1.
         11   -1    0    0    0    0 -0.00000000000E+00 -0.00000000000E+00 -0.45593999997E+02  0.45594000000E+02  0.51100000000E-03 0.  1.
    9900012    2    1    2    0    0 -0.12948697209E+02 -0.13824235533E+01 -0.29105774422E+02  0.59301859452E+02  0.49999845754E+02 0.  0.
         12    1    1    2    0    0  0.12948697209E+02  0.13824235533E+01  0.29105774422E+02  0.31886140548E+02  0.00000000000E+00 0. -1.
         11    1    3    3    0    0  0.15117505438E+02 -0.88925849145E+01 -0.88764389555E+01  0.19657268526E+02  0.51100000000E-03 0. -1.
        -11    1    3    3    0    0  0.13420251899E+01  0.43069580722E+01 -0.28082337202E+01  0.53138588930E+01  0.51100000000E-03 0.  1.
         12    1    3    3    0    0 -0.29408227837E+02  0.32032032890E+01 -0.17421101747E+02  0.34330732033E+02  0.00000000000E+00 0. -1.
</event>
<event>
 7    1  0.3220798E-013  0.5930192E+02  0.7816164E-02  0.1266605E+00
        -11   -1    0    0    0    0  0.00000000000E+00  0.00000000000E+00  0.45593999997E+02  0.45594000000E+02  0.51100000000E-03 0. -1.
         11   -1    0    0    0    0 -0.00000000000E+00 -0.00000000000E+00 -0.45593999997E+02  0.45594000000E+02  0.51100000000E-03 0.  1.
    9900012    2    1    2    0    0 -0.13071539419E+02 -0.24284792134E+02 -0.16003298497E+02  0.59301924127E+02  0.49999963706E+02 0.  0.
         12    1    1    2    0    0  0.13071539419E+02  0.24284792134E+02  0.16003298497E+02  0.31886075873E+02  0.00000000000E+00 0. -1.
         11    1    3    3    0    0 -0.13824294336E+01  0.37771909314E+01 -0.55489871785E+01  0.68534328216E+01  0.51100000000E-03 0. -1.
        -11    1    3    3    0    0 -0.18246192179E+02  0.32307579350E+01  0.81578363825E+00  0.18547960240E+02  0.51100000000E-03 0.  1.
        -12    1    3    3    0    0  0.65570821934E+01 -0.31292741001E+02 -0.11270094956E+02  0.33900531066E+02  0.00000000000E+00 0.  1.
</event>
<event>
 7    1  0.3220798E-013  0.5930191E+02  0.7816164E-02  0.1266605E+00
        -11   -1    0    0    0    0  0.00000000000E+00  0.00000000000E+00  0.45593999997E+02  0.45594000000E+02  0.51100000000E-03 0.  1.
         11   -1    0    0    0    0 -0.00000000000E+00 -0.00000000000E+00 -0.45593999997E+02  0.45594000000E+02  0.51100000000E-03 0. -1.
    9900012    2    1    2    0    0  0.74155576464E+01  0.29310124679E+02  0.10131575308E+02  0.59301910209E+02  0.49999938323E+02 0.  0.
         12    1    1    2    0    0 -0.74155576464E+01 -0.29310124679E+02 -0.10131575308E+02  0.31886089791E+02  0.00000000000E+00 0. -1.
         11    1    3    3    0    0  0.11504530427E+02  0.45749322056E+01 -0.15005342033E+02  0.19453650424E+02  0.51100000000E-03 0. -1.
        -11    1    3    3    0    0  0.16169785066E+01 -0.21172959310E+01  0.54514868209E+01  0.60676412526E+01  0.51100000000E-03 0.  1.
        -12    1    3    3    0    0 -0.57059512874E+01  0.26852488405E+02  0.19685430521E+02  0.33780618532E+02  0.00000000000E+00 0.  1.
</event>
<event>
 7    1  0.3220798E-013  0.5930193E+02  0.7816164E-02  0.1266605E+00
        -11   -1    0    0    0    0  0.00000000000E+00  0.00000000000E+00  0.45593999997E+02  0.45594000000E+02  0.51100000000E-03 0. -1.
         11   -1    0    0    0    0 -0.00000000000E+00 -0.00000000000E+00 -0.45593999997E+02  0.45594000000E+02  0.51100000000E-03 0.  1.
    9900012    2    1    2    0    0  0.33391381086E+01 -0.95944462642E+01 -0.30224467293E+02  0.59301926777E+02  0.49999968539E+02 0.  0.
         12    1    1    2    0    0 -0.33391381086E+01  0.95944462642E+01  0.30224467293E+02  0.31886073223E+02  0.00000000000E+00 0. -1.
         11    1    3    3    0    0  0.11892873759E+02  0.11729933955E+02 -0.13734991574E+02  0.21625951786E+02  0.51100000000E-03 0. -1.
        -11    1    3    3    0    0 -0.56613042837E+01 -0.19973000258E+02  0.12229504546E+00  0.20760203801E+02  0.51100000000E-03 0.  1.
         12    1    3    3    0    0 -0.28924313670E+01 -0.13513799613E+01 -0.16611770765E+02  0.16915771191E+02  0.00000000000E+00 0. -1.
</event>
<event>
 7    1  0.3220798E-013  0.5930195E+02  0.7816164E-02  0.1266605E+00
        -11   -1    0    0    0    0  0.00000000000E+00  0.00000000000E+00  0.45593999997E+02  0.45594000000E+02  0.51100000000E-03 0.  1.
         11   -1    0    0    0    0 -0.00000000000E+00 -0.00000000000E+00 -0.45593999997E+02  0.45594000000E+02  0.51100000000E-03 0. -1.
    9900012    2    1    2    0    0  0.41532918895E+01 -0.29226727645E+02 -0.12052754240E+02  0.59301947765E+02  0.50000006815E+02 0.  0.
         12    1    1    2    0    0 -0.41532918895E+01  0.29226727645E+02  0.12052754240E+02  0.31886052235E+02  0.00000000000E+00 0. -1.
         11    1    3    3    0    0 -0.28478187049E+01 -0.50093714280E+01  0.11776605076E+02  0.13110770414E+02  0.51100000000E-03 0. -1.
        -11    1    3    3    0    0 -0.97728392492E+01 -0.18709776482E+01 -0.80010345532E+00  0.99824400900E+01  0.51100000000E-03 0.  1.
         12    1    3    3    0    0  0.16773949844E+02 -0.22346378569E+02 -0.23029255861E+02  0.36208737261E+02  0.00000000000E+00 0. -1.
</event>
<event>
 7    1  0.3220798E-013  0.5930194E+02  0.7816164E-02  0.1266605E+00
        -11   -1    0    0    0    0  0.00000000000E+00  0.00000000000E+00  0.45593999997E+02  0.45594000000E+02  0.51100000000E-03 0. -1.
         11   -1    0    0    0    0 -0.00000000000E+00 -0.00000000000E+00 -0.45593999997E+02  0.45594000000E+02  0.51100000000E-03 0.  1.
    9900012    2    1    2    0    0 -0.17355497564E+02 -0.12275677180E+01 -0.26720785742E+02  0.59301943347E+02  0.49999998759E+02 0.  0.
         12    1    1    2    0    0  0.17355497564E+02  0.12275677180E+01  0.26720785742E+02  0.31886056653E+02  0.00000000000E+00 0. -1.
         11    1    3    3    0    0 -0.16863498065E+02 -0.11578043607E+02 -0.13859357532E+02  0.24708509713E+02  0.51100000000E-03 0. -1.
        -11    1    3    3    0    0  0.11568313130E+02 -0.10323987169E+01 -0.13734281136E+02  0.17986722725E+02  0.51100000000E-03 0.  1.
         12    1    3    3    0    0 -0.12060312628E+02  0.11382874606E+02  0.87285292626E+00  0.16606710909E+02  0.00000000000E+00 0. -1.
</event>
<event>
 7    1  0.3220798E-013  0.5930190E+02  0.7816164E-02  0.1266605E+00
        -11   -1    0    0    0    0  0.00000000000E+00  0.00000000000E+00  0.45593999997E+02  0.45594000000E+02  0.51100000000E-03 0.  1.
         11   -1    0    0    0    0 -0.00000000000E+00 -0.00000000000E+00 -0.45593999997E+02  0.45594000000E+02  0.51100000000E-03 0. -1.
    9900012    2    1    2    0    0  0.21010230682E+02  0.68828834423E+00  0.23975397368E+02  0.59301902510E+02  0.49999924282E+02 0.  0.
         12    1    1    2    0    0 -0.21010230682E+02 -0.68828834423E+00 -0.23975397368E+02  0.31886097490E+02  0.00000000000E+00 0. -1.
         11    1    3    3    0    0  0.12712489558E+01 -0.10401982409E+02  0.44052091650E+01  0.11367637397E+02  0.51100000000E-03 0. -1.
        -11    1    3    3    0    0  0.19175377546E+02  0.75936373020E+01 -0.65002617890E+01  0.21624334327E+02  0.51100000000E-03 0.  1.
         12    1    3    3    0    0  0.56360418024E+00  0.34966334515E+01  0.26070449992E+02  0.26309930786E+02  0.00000000000E+00 0. -1.
</event>
<event>
 7    1  0.3220798E-013  0.5930194E+02  0.7816164E-02  0.1266605E+00
        -11   -1    0    0    0    0  0.00000000000E+00  0.00000000000E+00  0.45593999997E+02  0.45594000000E+02  0.51100000000E-03 0. -1.
         11   -1    0    0    0    0 -0.00000000000E+00 -0.00000000000E+00 -0.45593999997E+02  0.45594000000E+02  0.51100000000E-03 0.  1.
    9900012    2    1    2    0    0 -0.14987125608E+02  0.17601679906E+02 -0.21961050920E+02  0.59301939927E+02  0.49999992521E+02 0.  0.
         12    1    1    2    0    0  0.14987125608E+02 -0.17601679906E+02  0.21961050920E+02  0.31886060073E+02  0.00000000000E+00 0. -1.
         11    1    3    3    0    0  0.33912496944E+01  0.90787063952E+01 -0.10218273298E+02  0.14083202539E+02  0.51100000000E-03 0. -1.
        -11    1    3    3    0    0 -0.87780401589E+01  0.20600464151E+02 -0.17838942200E+02  0.28629721817E+02  0.51100000000E-03 0.  1.
         12    1    3    3    0    0 -0.96003351433E+01 -0.12077490640E+02  0.60961645782E+01  0.16589015570E+02  0.00000000000E+00 0. -1.
</event>
<event>
 7    1  0.3220798E-013  0.5930175E+02  0.7816164E-02  0.1266605E+00
        -11   -1    0    0    0    0  0.00000000000E+00  0.00000000000E+00  0.45593999997E+02  0.45594000000E+02  0.51100000000E-03 0.  1.
         11   -1    0    0    0    0 -0.00000000000E+00 -0.00000000000E+00 -0.45593999997E+02  0.45594000000E+02  0.51100000000E-03 0. -1.
    9900012    2    1    2    0    0  0.19052995601E+02 -0.17066610518E+02 -0.19038045803E+02  0.59301748669E+02  0.49999643711E+02 0.  0.
         12    1    1    2    0    0 -0.19052995601E+02  0.17066610518E+02  0.19038045803E+02  0.31886251331E+02  0.00000000000E+00 0. -1.
         11    1    3    3    0    0  0.10554785763E+02  0.53238464981E+01 -0.30090951989E+01  0.12198421956E+02  0.51100000000E-03 0. -1.
        -11    1    3    3    0    0  0.21694493443E+02 -0.50975994440E+01 -0.55917640156E+01  0.22976170066E+02  0.51100000000E-03 0.  1.
         12    1    3    3    0    0 -0.13196283605E+02 -0.17292857572E+02 -0.10437186588E+02  0.24127156647E+02  0.00000000000E+00 0. -1.
</event>
<event>
 7    1  0.3220798E-013  0.5930197E+02  0.7816164E-02  0.1266605E+00
        -11   -1    0    0    0    0  0.00000000000E+00  0.00000000000E+00  0.45593999997E+02  0.45594000000E+02  0.51100000000E-03 0.  1.
         11   -1    0    0    0    0 -0.00000000000E+00 -0.00000000000E+00 -0.45593999997E+02  0.45594000000E+02  0.51100000000E-03 0. -1.
    9900012    2    1    2    0    0 -0.29326191232E+01 -0.10620432516E+02  0.29921983467E+02  0.59301969574E+02  0.50000046590E+02 0.  0.
         12    1    1    2    0    0  0.29326191232E+01  0.10620432516E+02 -0.29921983467E+02  0.31886030426E+02  0.00000000000E+00 0. -1.
         11    1    3    3    0    0 -0.95769188094E+01 -0.49860580503E+01 -0.39766349876E+01  0.11506162473E+02  0.51100000000E-03 0. -1.
        -11    1    3    3    0    0  0.14219958839E+02 -0.11070866227E+02  0.70108492441E+01  0.19337096881E+02  0.51100000000E-03 0.  1.
        -12    1    3    3    0    0 -0.75756591525E+01  0.54364917617E+01  0.26887769210E+02  0.28458710220E+02  0.00000000000E+00 0.  1.
</event>
<event>
 7    1  0.3220798E-013  0.5930196E+02  0.7816164E-02  0.1266605E+00
        -11   -1    0    0    0    0  0.00000000000E+00  0.00000000000E+00  0.45593999997E+02  0.45594000000E+02  0.51100000000E-03 0.  1.
         11   -1    0    0    0    0 -0.00000000000E+00 -0.00000000000E+00 -0.45593999997E+02  0.45594000000E+02  0.51100000000E-03 0. -1.
    9900012    2    1    2    0    0 -0.29189265731E+02  0.12663686618E+02 -0.20826968183E+01  0.59301955737E+02  0.50000021355E+02 0.  0.
         12    1    1    2    0    0  0.29189265731E+02 -0.12663686618E+02  0.20826968183E+01  0.31886044263E+02  0.00000000000E+00 0. -1.
         11    1    3    3    0    0 -0.29127217788E+01  0.39867474199E+01 -0.12632908100E+02  0.13563497723E+02  0.51100000000E-03 0. -1.
        -11    1    3    3    0    0 -0.93697117193E+01  0.19091939165E+02 -0.33088131263E+01  0.21523054693E+02  0.51100000000E-03 0.  1.
        -12    1    3    3    0    0 -0.16906832233E+02 -0.10414999966E+02  0.13859024408E+02  0.24215403321E+02  0.00000000000E+00 0.  1.
</event>
<event>
 7    1  0.3220798E-013  0.5930195E+02  0.7816164E-02  0.1266605E+00
        -11   -1    0    0    0    0  0.00000000000E+00  0.00000000000E+00  0.45593999997E+02  0.45594000000E+02  0.51100000000E-03 0.  1.
         11   -1    0    0    0    0 -0.00000000000E+00 -0.00000000000E+00 -0.45593999997E+02  0.45594000000E+02  0.51100000000E-03 0. -1.
    9900012    2    1    2    0    0  0.20709078882E+01 -0.26913990258E+02 -0.16972594355E+02  0.59301945207E+02  0.50000002151E+02 0.  0.
         12    1    1    2    0    0 -0.20709078882E+01  0.26913990258E+02  0.16972594355E+02  0.31886054793E+02  0.00000000000E+00 0. -1.
         11    1    3    3    0    0 -0.22866827356E+01 -0.83506460102E+00 -0.16950180715E+01  0.29663677023E+01  0.51100000000E-03 0. -1.
        -11    1    3    3    0    0 -0.14659771976E+02 -0.25851525615E+02 -0.21097784766E+02  0.36446218093E+02  0.51100000000E-03 0.  1.
        -12    1    3    3    0    0  0.19017362600E+02 -0.22740004167E+00  0.58202084822E+01  0.19889359412E+02  0.00000000000E+00 0.  1.
</event>
<event>
 7    1  0.3220798E-013  0.5930206E+02  0.7816164E-02  0.1266604E+00
        -11   -1    0    0    0    0  0.00000000000E+00  0.00000000000E+00  0.45593999997E+02  0.45594000000E+02  0.51100000000E-03 0.  1.
         11   -1    0    0    0    0 -0.00000000000E+00 -0.00000000000E+00 -0.45593999997E+02  0.45594000000E+02  0.51100000000E-03 0. -1.
    9900012    2    1    2    0    0 -0.25657529345E+01 -0.22102230767E+02  0.22839029448E+02  0.59302063301E+02  0.50000217526E+02 0.  0.
         12    1    1    2    0    0  0.25657529345E+01  0.22102230767E+02 -0.22839029448E+02  0.31885936699E+02  0.00000000000E+00 0. -1.
         11    1    3    3    0    0 -0.55147186097E+00  0.10703907872E+02  0.88112766794E+01  0.13875026556E+02  0.51100000000E-03 0.  1.
        -11    1    3    3    0    0 -0.13179089530E+02 -0.97060779000E+01  0.39269118748E+00  0.16372249561E+02  0.51100000000E-03 0. -1.
        -12    1    3    3    0    0  0.11164808457E+02 -0.23100060739E+02  0.13635061581E+02  0.29054787185E+02  0.00000000000E+00 0.  1.
</event>
<event>
 7    1  0.3220798E-013  0.5930195E+02  0.7816164E-02  0.1266605E+00
        -11   -1    0    0    0    0  0.00000000000E+00  0.00000000000E+00  0.45593999997E+02  0.45594000000E+02  0.51100000000E-03 0. -1.
         11   -1    0    0    0    0 -0.00000000000E+00 -0.00000000000E+00 -0.45593999997E+02  0.45594000000E+02  0.51100000000E-03 0.  1.
    9900012    2    1    2    0    0 -0.13871672367E+01 -0.13233688176E+02 -0.28976984054E+02  0.59301947555E+02  0.50000006432E+02 0.  0.
         12    1    1    2    0    0  0.13871672367E+01  0.13233688176E+02  0.28976984054E+02  0.31886052445E+02  0.00000000000E+00 0. -1.
         11    1    3    3    0    0 -0.26087738820E+01 -0.47831474697E+01 -0.21395305858E+01  0.58533573505E+01  0.51100000000E-03 0. -1.
        -11    1    3    3    0    0 -0.19059436830E+02  0.24465287079E+01 -0.15924480210E+01  0.19281688877E+02  0.51100000000E-03 0.  1.
         12    1    3    3    0    0  0.20281043475E+02 -0.10897069414E+02 -0.25245005447E+02  0.34166901327E+02  0.00000000000E+00 0. -1.
</event>
<event>
 7    1  0.3220798E-013  0.5930194E+02  0.7816164E-02  0.1266605E+00
        -11   -1    0    0    0    0  0.00000000000E+00  0.00000000000E+00  0.45593999997E+02  0.45594000000E+02  0.51100000000E-03 0. -1.
         11   -1    0    0    0    0 -0.00000000000E+00 -0.00000000000E+00 -0.45593999997E+02  0.45594000000E+02  0.51100000000E-03 0.  1.
    9900012    2    1    2    0    0 -0.23616858730E+02 -0.63004053049E+01 -0.20476073387E+02  0.59301941846E+02  0.49999996021E+02 0.  0.
         12    1    1    2    0    0  0.23616858730E+02  0.63004053049E+01  0.20476073387E+02  0.31886058154E+02  0.00000000000E+00 0. -1.
         11    1    3    3    0    0 -0.11527816556E+02  0.59154594636E+00 -0.21637959374E+02  0.24524309721E+02  0.51100000000E-03 0. -1.
        -11    1    3    3    0    0 -0.21060174898E+02 -0.14243804334E+01 -0.61402466535E+01  0.21983231236E+02  0.51100000000E-03 0.  1.
         12    1    3    3    0    0  0.89711327245E+01 -0.54675708178E+01  0.73021326403E+01  0.12794400889E+02  0.00000000000E+00 0. -1.
</event>
<event>
 7    1  0.3220798E-013  0.5930195E+02  0.7816164E-02  0.1266605E+00
        -11   -1    0    0    0    0  0.00000000000E+00  0.00000000000E+00  0.45593999997E+02  0.45594000000E+02  0.51100000000E-03 0.  1.
         11   -1    0    0    0    0 -0.00000000000E+00 -0.00000000000E+00 -0.45593999997E+02  0.45594000000E+02  0.51100000000E-03 0. -1.
    9900012    2    1    2    0    0  0.12695764594E+02 -0.29177669125E+02  0.20497656168E+01  0.59301947355E+02  0.50000006068E+02 0.  0.
         12    1    1    2    0    0 -0.12695764594E+02  0.29177669125E+02 -0.20497656168E+01  0.31886052645E+02  0.00000000000E+00 0. -1.
         11    1    3    3    0    0 -0.20219242022E+01  0.13005324526E+02 -0.15508981701E+01  0.13252619699E+02  0.51100000000E-03 0.  1.
        -11    1    3    3    0    0  0.35103404207E+01 -0.17313184590E+02  0.60219202846E+01  0.18663664557E+02  0.51100000000E-03 0. -1.
        -12    1    3    3    0    0  0.11207348375E+02 -0.24869809061E+02 -0.24212564977E+01  0.27385663099E+02  0.00000000000E+00 0.  1.
</event>
<event>
 7    1  0.3220798E-013  0.5930195E+02  0.7816164E-02  0.1266605E+00
        -11   -1    0    0    0    0  0.00000000000E+00  0.00000000000E+00  0.45593999997E+02  0.45594000000E+02  0.51100000000E-03 0.  1.
         11   -1    0    0    0    0 -0.00000000000E+00 -0.00000000000E+00 -0.45593999997E+02  0.45594000000E+02  0.51100000000E-03 0. -1.
    9900012    2    1    2    0    0  0.18223666981E+02  0.76279270789E+01  0.25028639229E+02  0.59301951462E+02  0.50000013558E+02 0.  0.
         12    1    1    2    0    0 -0.18223666981E+02 -0.76279270789E+01 -0.25028639229E+02  0.31886048538E+02  0.00000000000E+00 0. -1.
         11    1    3    3    0    0  0.12274452134E+01  0.35212292925E+01 -0.13047328440E+02  0.13569762606E+02  0.51100000000E-03 0. -1.
        -11    1    3    3    0    0  0.28514971093E+01 -0.67937864334E+01  0.92908136433E+01  0.11857731161E+02  0.51100000000E-03 0.  1.
        -12    1    3    3    0    0  0.14144724658E+02  0.10900484220E+02  0.28785154026E+02  0.33874457695E+02  0.00000000000E+00 0.  1.
</event>
<event>
 7    1  0.3220798E-013  0.5930192E+02  0.7816164E-02  0.1266605E+00
        -11   -1    0    0    0    0  0.00000000000E+00  0.00000000000E+00  0.45593999997E+02  0.45594000000E+02  0.51100000000E-03 0.  1.
         11   -1    0    0    0    0 -0.00000000000E+00 -0.00000000000E+00 -0.45593999997E+02  0.45594000000E+02  0.51100000000E-03 0. -1.
    9900012    2    1    2    0    0 -0.22308075194E+02  0.14931524913E+02  0.17208179253E+02  0.59301920148E+02  0.49999956449E+02 0.  0.
         12    1    1    2    0    0  0.22308075194E+02 -0.14931524913E+02 -0.17208179253E+02  0.31886079852E+02  0.00000000000E+00 0. -1.
         11    1    3    3    0    0  0.33553809172E+01 -0.40339615424E+01  0.23462117036E+01  0.57477070597E+01  0.51100000000E-03 0. -1.
        -11    1    3    3    0    0 -0.24365774172E+01  0.10627941730E+02  0.24690571464E+02  0.26991005435E+02  0.51100000000E-03 0.  1.
         12    1    3    3    0    0 -0.23226878694E+02  0.83375447249E+01 -0.98286039139E+01  0.26563207653E+02  0.00000000000E+00 0. -1.
</event>
<event>
 7    1  0.3220798E-013  0.5930194E+02  0.7816164E-02  0.1266605E+00
        -11   -1    0    0    0    0  0.00000000000E+00  0.00000000000E+00  0.45593999997E+02  0.45594000000E+02  0.51100000000E-03 0. -1.
         11   -1    0    0    0    0 -0.00000000000E+00 -0.00000000000E+00 -0.45593999997E+02  0.45594000000E+02  0.51100000000E-03 0.  1.
    9900012    2    1    2    0    0 -0.26481065516E+02 -0.10075415322E+02 -0.14627368152E+02  0.59301941545E+02  0.49999995471E+02 0.  0.
         12    1    1    2    0    0  0.26481065516E+02  0.10075415322E+02  0.14627368152E+02  0.31886058455E+02  0.00000000000E+00 0. -1.
         11    1    3    3    0    0 -0.14875850604E+01 -0.11617587317E+02  0.55212485687E-01  0.11712569874E+02  0.51100000000E-03 0. -1.
        -11    1    3    3    0    0 -0.16433055502E+02 -0.16100431110E+02 -0.15862149650E+02  0.27944176260E+02  0.51100000000E-03 0.  1.
        -12    1    3    3    0    0 -0.85604249531E+01  0.17642603104E+02  0.11795690123E+01  0.19645195411E+02  0.00000000000E+00 0.  1.
</event>
<event>
 7    1  0.3220798E-013  0.5930195E+02  0.7816164E-02  0.1266605E+00
        -11   -1    0    0    0    0  0.00000000000E+00  0.00000000000E+00  0.45593999997E+02  0.45594000000E+02  0.51100000000E-03 0.  1.
         11   -1    0    0    0    0 -0.00000000000E+00 -0.00000000000E+00 -0.45593999997E+02  0.45594000000E+02  0.51100000000E-03 0. -1.
    9900012    2    1    2    0    0 -0.31064720434E-01  0.28454287035E+02  0.14390027399E+02  0.59301948124E+02  0.50000007470E+02 0.  0.
         12    1    1    2    0    0  0.31064720434E-01 -0.28454287035E+02 -0.14390027399E+02  0.31886051876E+02  0.00000000000E+00 0. -1.
         11    1    3    3    0    0  0.58394965986E+01  0.37381508501E+00  0.36696337638E+01  0.69069291631E+01  0.51100000000E-03 0. -1.
        -11    1    3    3    0    0  0.64016862318E+01  0.23341396868E+02 -0.11325677398E+02  0.26722151170E+02  0.51100000000E-03 0.  1.
         12    1    3    3    0    0 -0.12272247551E+02  0.47390750825E+01  0.22046071034E+02  0.25672867791E+02  0.00000000000E+00 0. -1.
</event>
<event>
 7    1  0.3220798E-013  0.5930195E+02  0.7816164E-02  0.1266605E+00
        -11   -1    0    0    0    0  0.00000000000E+00  0.00000000000E+00  0.45593999997E+02  0.45594000000E+02  0.51100000000E-03 0. -1.
         11   -1    0    0    0    0 -0.00000000000E+00 -0.00000000000E+00 -0.45593999997E+02  0.45594000000E+02  0.51100000000E-03 0.  1.
    9900012    2    1    2    0    0 -0.14600816173E+02  0.24853236476E+02 -0.13632800783E+02  0.59301945784E+02  0.50000003203E+02 0.  0.
         12    1    1    2    0    0  0.14600816173E+02 -0.24853236476E+02  0.13632800783E+02  0.31886054216E+02  0.00000000000E+00 0. -1.
         11    1    3    3    0    0 -0.14494461219E+02 -0.53335994326E+01 -0.13302351158E+01  0.15501813270E+02  0.51100000000E-03 0. -1.
        -11    1    3    3    0    0 -0.12601218286E+02  0.49773274611E+01 -0.66875844138E+01  0.15109211644E+02  0.51100000000E-03 0.  1.
        -12    1    3    3    0    0  0.12494863332E+02  0.25209508448E+02 -0.56149812538E+01  0.28690920870E+02  0.00000000000E+00 0.  1.
</event>
<event>
 7    1  0.3220798E-013  0.5930194E+02  0.7816164E-02  0.1266605E+00
        -11   -1    0    0    0    0  0.00000000000E+00  0.00000000000E+00  0.45593999997E+02  0.45594000000E+02  0.51100000000E-03 0.  1.
         11   -1    0    0    0    0 -0.00000000000E+00 -0.00000000000E+00 -0.45593999997E+02  0.45594000000E+02  0.51100000000E-03 0. -1.
    9900012    2    1    2    0    0 -0.50412412998E+01  0.17675050869E+02  0.26055698794E+02  0.59301937579E+02  0.49999988240E+02 0.  0.
         12    1    1    2    0    0  0.50412412998E+01 -0.17675050869E+02 -0.26055698794E+02  0.31886062421E+02  0.00000000000E+00 0. -1.
         11    1    3    3    0    0 -0.39646458383E+01 -0.73984924916E+01 -0.50228123977E+00  0.84088283652E+01  0.51100000000E-03 0. -1.
        -11    1    3    3    0    0 -0.17365512558E+02  0.63670919575E+01  0.13175172194E+02  0.22708721871E+02  0.51100000000E-03 0.  1.
        -12    1    3    3    0    0  0.16288917096E+02  0.18706451403E+02  0.13382807839E+02  0.28184387343E+02  0.00000000000E+00 0.  1.
</event>
<event>
 7    1  0.3220798E-013  0.5930193E+02  0.7816164E-02  0.1266605E+00
        -11   -1    0    0    0    0  0.00000000000E+00  0.00000000000E+00  0.45593999997E+02  0.45594000000E+02  0.51100000000E-03 0.  1.
         11   -1    0    0    0    0 -0.00000000000E+00 -0.00000000000E+00 -0.45593999997E+02  0.45594000000E+02  0.51100000000E-03 0. -1.
    9900012    2    1    2    0    0 -0.30948558899E+02  0.10804783488E+01  0.75987471290E+01  0.59301926404E+02  0.49999967859E+02 0.  0.
         12    1    1    2    0    0  0.30948558899E+02 -0.10804783488E+01 -0.75987471290E+01  0.31886073596E+02  0.00000000000E+00 0. -1.
         11    1    3    3    0    0 -0.19727089881E+02 -0.69126042210E+01 -0.15592433244E+02  0.26078077901E+02  0.51100000000E-03 0. -1.
        -11    1    3    3    0    0 -0.74284380298E+01 -0.29679219154E+01  0.84125845096E+00  0.80435047150E+01  0.51100000000E-03 0.  1.
        -12    1    3    3    0    0 -0.37930309890E+01  0.10961004485E+02  0.22349921922E+02  0.25180343789E+02  0.00000000000E+00 0.  1.
</event>
<event>
 7    1  0.3220798E-013  0.5930187E+02  0.7816164E-02  0.1266605E+00
        -11   -1    0    0    0    0  0.00000000000E+00  0.00000000000E+00  0.45593999997E+02  0.45594000000E+02  0.51100000000E-03 0.  1.
         11   -1    0    0    0    0 -0.00000000000E+00 -0.00000000000E+00 -0.45593999997E+02  0.45594000000E+02  0.51100000000E-03 0. -1.
    9900012    2    1    2    0    0  0.10780537959E+02 -0.41175068430E+01  0.29724591923E+02  0.59301870942E+02  0.49999866709E+02 0.  0.
         12    1    1    2    0    0 -0.10780537959E+02  0.41175068430E+01 -0.29724591923E+02  0.31886129058E+02  0.00000000000E+00 0. -1.
         11    1    3    3    0    0  0.70267910741E+01 -0.10543773662E+00  0.42278860966E+01  0.82013371485E+01  0.51100000000E-03 0. -1.
        -11    1    3    3    0    0  0.14977458884E+02 -0.19803536112E+02  0.12773822272E+02  0.27922658413E+02  0.51100000000E-03 0.  1.
        -12    1    3    3    0    0 -0.11223711999E+02  0.15791467005E+02  0.12722883555E+02  0.23177875381E+02  0.00000000000E+00 0.  1.
</event>
<event>
 7    1  0.3220798E-013  0.5930215E+02  0.7816164E-02  0.1266604E+00
        -11   -1    0    0    0    0  0.00000000000E+00  0.00000000000E+00  0.45593999997E+02  0.45594000000E+02  0.51100000000E-03 0. -1.
         11   -1    0    0    0    0 -0.00000000000E+00 -0.00000000000E+00 -0.45593999997E+02  0.45594000000E+02  0.51100000000E-03 0.  1.
    9900012    2    1    2    0    0  0.11761600296E+02 -0.25331877020E+02 -0.15384030275E+02  0.59302146987E+02  0.50000370147E+02 0.  0.
         12    1    1    2    0    0 -0.11761600296E+02  0.25331877020E+02  0.15384030275E+02  0.31885853013E+02  0.00000000000E+00 0. -1.
         11    1    3    3    0    0  0.23709443545E+01 -0.52723551708E+01  0.30053229995E+01  0.65154487775E+01  0.51100000000E-03 0. -1.
        -11    1    3    3    0    0 -0.16474807155E+00 -0.32933527909E+02 -0.15866854214E+02  0.36556825154E+02  0.51100000000E-03 0.  1.
        -12    1    3    3    0    0  0.95554040132E+01  0.12874006059E+02 -0.25224990602E+01  0.16229873055E+02  0.00000000000E+00 0.  1.
</event>
<event>
 7    1  0.3220798E-013  0.5930195E+02  0.7816164E-02  0.1266605E+00
        -11   -1    0    0    0    0  0.00000000000E+00  0.00000000000E+00  0.45593999997E+02  0.45594000000E+02  0.51100000000E-03 0. -1.
         11   -1    0    0    0    0 -0.00000000000E+00 -0.00000000000E+00 -0.45593999997E+02  0.45594000000E+02  0.51100000000E-03 0.  1.
    9900012    2    1    2    0    0 -0.42669640523E+01 -0.22195305942E+02 -0.22491810177E+02  0.59301951121E+02  0.50000012936E+02 0.  0.
         12    1    1    2    0    0  0.42669640523E+01  0.22195305942E+02  0.22491810177E+02  0.31886048879E+02  0.00000000000E+00 0. -1.
         11    1    3    3    0    0 -0.85601432470E+01 -0.44553604356E+01  0.67182736618E+01  0.11758464622E+02  0.51100000000E-03 0. -1.
        -11    1    3    3    0    0  0.25049388528E+00  0.80417416949E+01 -0.16840319674E+02  0.18663566745E+02  0.51100000000E-03 0.  1.
        -12    1    3    3    0    0  0.40426853094E+01 -0.25781687202E+02 -0.12369764164E+02  0.28879919753E+02  0.00000000000E+00 0.  1.
</event>
<event>
 7    1  0.3220798E-013  0.5930195E+02  0.7816164E-02  0.1266605E+00
        -11   -1    0    0    0    0  0.00000000000E+00  0.00000000000E+00  0.45593999997E+02  0.45594000000E+02  0.51100000000E-03 0.  1.
         11   -1    0    0    0    0 -0.00000000000E+00 -0.00000000000E+00 -0.45593999997E+02  0.45594000000E+02  0.51100000000E-03 0. -1.
    9900012    2    1    2    0    0  0.10250290094E+02 -0.10144943265E+01  0.30176525195E+02  0.59301947899E+02  0.50000007061E+02 0.  0.
         12    1    1    2    0    0 -0.10250290094E+02  0.10144943265E+01 -0.30176525195E+02  0.31886052101E+02  0.00000000000E+00 0. -1.
         11    1    3    3    0    0 -0.56815795686E+01 -0.65992461720E+01  0.50483751439E+01  0.10065609186E+02  0.51100000000E-03 0. -1.
        -11    1    3    3    0    0  0.19083282584E+02 -0.70963860368E+01  0.29157369295E+02  0.35562375531E+02  0.51100000000E-03 0.  1.
         12    1    3    3    0    0 -0.31514129214E+01  0.12681137882E+02 -0.40292192444E+01  0.13673963182E+02  0.00000000000E+00 0. -1.
</event>
<event>
 7    1  0.3220798E-013  0.5930195E+02  0.7816164E-02  0.1266605E+00
        -11   -1    0    0    0    0  0.00000000000E+00  0.00000000000E+00  0.45593999997E+02  0.45594000000E+02  0.51100000000E-03 0. -1.
         11   -1    0    0    0    0 -0.00000000000E+00 -0.00000000000E+00 -0.45593999997E+02  0.45594000000E+02  0.51100000000E-03 0.  1.
    9900012    2    1    2    0    0 -0.22013355782E+02  0.22288114560E+02 -0.59474591122E+01  0.59301950491E+02  0.50000011787E+02 0.  0.
         12    1    1    2    0    0  0.22013355782E+02 -0.22288114560E+02  0.59474591122E+01  0.31886049509E+02  0.00000000000E+00 0. -1.
         11    1    3    3    0    0  0.13909876124E+02  0.59622677029E+00  0.58547569779E+00  0.13934953254E+02  0.51100000000E-03 0. -1.
        -11    1    3    3    0    0 -0.13743609136E+01  0.53628481500E+01  0.25404258698E+01  0.60912044837E+01  0.51100000000E-03 0.  1.
        -12    1    3    3    0    0 -0.34548870992E+02  0.16329039639E+02 -0.90733606798E+01  0.39275792753E+02  0.00000000000E+00 0.  1.
</event>
<event>
 7    1  0.3220798E-013  0.5930194E+02  0.7816164E-02  0.1266605E+00
        -11   -1    0    0    0    0  0.00000000000E+00  0.00000000000E+00  0.45593999997E+02  0.45594000000E+02  0.51100000000E-03 0.  1.
         11   -1    0    0    0    0 -0.00000000000E+00 -0.00000000000E+00 -0.45593999997E+02  0.45594000000E+02  0.51100000000E-03 0. -1.
    9900012    2    1    2    0    0 -0.10634270561E+02 -0.12551889821E+02  0.27314527132E+02  0.59301936572E+02  0.49999986403E+02 0.  0.
         12    1    1    2    0    0  0.10634270561E+02  0.12551889821E+02 -0.27314527132E+02  0.31886063428E+02  0.00000000000E+00 0. -1.
         11    1    3    3    0    0  0.56694215332E+01 -0.15188237258E+01 -0.50939193020E+01  0.77715622720E+01  0.51100000000E-03 0. -1.
        -11    1    3    3    0    0  0.55875625696E+01 -0.12991159771E+02  0.24156472863E+01  0.14346652562E+02  0.51100000000E-03 0.  1.
        -12    1    3    3    0    0 -0.21891254664E+02  0.19580936755E+01  0.29992799148E+02  0.37183721739E+02  0.00000000000E+00 0.  1.
</event>
<event>
 7    1  0.3220798E-013  0.5930190E+02  0.7816164E-02  0.1266605E+00
        -11   -1    0    0    0    0  0.00000000000E+00  0.00000000000E+00  0.45593999997E+02  0.45594000000E+02  0.51100000000E-03 0.  1.
         11   -1    0    0    0    0 -0.00000000000E+00 -0.00000000000E+00 -0.45593999997E+02  0.45594000000E+02  0.51100000000E-03 0. -1.
    9900012    2    1    2    0    0  0.11671760498E+02 -0.29628796413E+02  0.16210015036E+01  0.59301902467E+02  0.49999924203E+02 0.  0.
         12    1    1    2    0    0 -0.11671760498E+02  0.29628796413E+02 -0.16210015036E+01  0.31886097533E+02  0.00000000000E+00 0. -1.
         11    1    3    3    0    0  0.71872466346E+01  0.29416213870E+01 -0.13373838977E+02  0.15465096825E+02  0.51100000000E-03 0. -1.
        -11    1    3    3    0    0  0.64668988478E+01  0.18378236110E+01  0.22170859714E+01  0.70791134189E+01  0.51100000000E-03 0.  1.
         12    1    3    3    0    0 -0.19823849843E+01 -0.34408241411E+02  0.12777754510E+02  0.36757692223E+02  0.00000000000E+00 0. -1.
</event>
<event>
 7    1  0.3220798E-013  0.5930195E+02  0.7816164E-02  0.1266605E+00
        -11   -1    0    0    0    0  0.00000000000E+00  0.00000000000E+00  0.45593999997E+02  0.45594000000E+02  0.51100000000E-03 0. -1.
         11   -1    0    0    0    0 -0.00000000000E+00 -0.00000000000E+00 -0.45593999997E+02  0.45594000000E+02  0.51100000000E-03 0.  1.
    9900012    2    1    2    0    0 -0.16752746514E+00 -0.14056237176E+02 -0.28620168996E+02  0.59301953799E+02  0.50000017820E+02 0.  0.
         12    1    1    2    0    0  0.16752746514E+00  0.14056237176E+02  0.28620168996E+02  0.31886046201E+02  0.00000000000E+00 0. -1.
         11    1    3    3    0    0  0.91548429260E+01 -0.47103866709E+01 -0.38376651362E+00  0.10302726270E+02  0.51100000000E-03 0. -1.
        -11    1    3    3    0    0  0.85745769495E+01 -0.13596713316E+02 -0.25863661627E+02  0.30451978193E+02  0.51100000000E-03 0.  1.
         12    1    3    3    0    0 -0.17896947341E+02  0.42508628110E+01 -0.23727408550E+01  0.18547249336E+02  0.00000000000E+00 0. -1.
</event>
<event>
 7    1  0.3220798E-013  0.5930204E+02  0.7816164E-02  0.1266604E+00
        -11   -1    0    0    0    0  0.00000000000E+00  0.00000000000E+00  0.45593999997E+02  0.45594000000E+02  0.51100000000E-03 0.  1.
         11   -1    0    0    0    0 -0.00000000000E+00 -0.00000000000E+00 -0.45593999997E+02  0.45594000000E+02  0.51100000000E-03 0. -1.
    9900012    2    1    2    0    0  0.17881318379E+02  0.11571435305E+02  0.23729203136E+02  0.59302035322E+02  0.50000166498E+02 0.  0.
         12    1    1    2    0    0 -0.17881318379E+02 -0.11571435305E+02 -0.23729203136E+02  0.31885964678E+02  0.00000000000E+00 0. -1.
         11    1    3    3    0    0  0.14968947933E+02 -0.10472140479E+02  0.44634535107E+01  0.18805784906E+02  0.51100000000E-03 0. -1.
        -11    1    3    3    0    0  0.10737188265E+02 -0.93869621186E+00  0.93609058718E+01  0.14275675866E+02  0.51100000000E-03 0.  1.
        -12    1    3    3    0    0 -0.78248178188E+01  0.22982271996E+02  0.99048437536E+01  0.26220574550E+02  0.00000000000E+00 0.  1.
</event>
<event>
 7    1  0.3220798E-013  0.5930196E+02  0.7816164E-02  0.1266605E+00
        -11   -1    0    0    0    0  0.00000000000E+00  0.00000000000E+00  0.45593999997E+02  0.45594000000E+02  0.51100000000E-03 0.  1.
         11   -1    0    0    0    0 -0.00000000000E+00 -0.00000000000E+00 -0.45593999997E+02  0.45594000000E+02  0.51100000000E-03 0. -1.
    9900012    2    1    2    0    0  0.27435572775E+02  0.15861558289E+02  0.35242273073E+01  0.59301955044E+02  0.50000020090E+02 0.  0.
         12    1    1    2    0    0 -0.27435572775E+02 -0.15861558289E+02 -0.35242273073E+01  0.31886044956E+02  0.00000000000E+00 0. -1.
         11    1    3    3    0    0  0.37380979685E+00 -0.97201057491E+01 -0.68453161399E+01  0.11894475308E+02  0.51100000000E-03 0. -1.
        -11    1    3    3    0    0  0.26954612772E+02  0.79800333978E+01  0.98864586952E+01  0.29798895089E+02  0.51100000000E-03 0.  1.
         12    1    3    3    0    0  0.10715020587E+00  0.17601630641E+02  0.48308475203E+00  0.17608584647E+02  0.00000000000E+00 0. -1.
</event>
<event>
 7    1  0.3220798E-013  0.5930195E+02  0.7816164E-02  0.1266605E+00
        -11   -1    0    0    0    0  0.00000000000E+00  0.00000000000E+00  0.45593999997E+02  0.45594000000E+02  0.51100000000E-03 0.  1.
         11   -1    0    0    0    0 -0.00000000000E+00 -0.00000000000E+00 -0.45593999997E+02  0.45594000000E+02  0.51100000000E-03 0. -1.
    9900012    2    1    2    0    0 -0.21626606114E+02 -0.37767476393E+01  0.23124581860E+02  0.59301949743E+02  0.50000010424E+02 0.  0.
         12    1    1    2    0    0  0.21626606114E+02  0.37767476393E+01 -0.23124581860E+02  0.31886050257E+02  0.00000000000E+00 0. -1.
         11    1    3    3    0    0 -0.87965533806E+01  0.87327252871E+01  0.12450409307E+02  0.17568509740E+02  0.51100000000E-03 0. -1.
        -11    1    3    3    0    0 -0.14571198825E+02 -0.12169368245E+02  0.22691560266E+02  0.29585811908E+02  0.51100000000E-03 0.  1.
         12    1    3    3    0    0  0.17411460915E+01 -0.34010468142E+00 -0.12017387713E+02  0.12147628095E+02  0.00000000000E+00 0. -1.
</event>
<event>
 7    1  0.3220798E-013  0.5930196E+02  0.7816164E-02  0.1266605E+00
        -11   -1    0    0    0    0  0.00000000000E+00  0.00000000000E+00  0.45593999997E+02  0.45594000000E+02  0.51100000000E-03 0.  1.
         11   -1    0    0    0    0 -0.00000000000E+00 -0.00000000000E+00 -0.45593999997E+02  0.45594000000E+02  0.51100000000E-03 0. -1.
    9900012    2    1    2    0    0 -0.25504305532E+01 -0.50432165084E+01  0.31381220147E+02  0.59301957494E+02  0.50000024560E+02 0.  0.
         12    1    1    2    0    0  0.25504305532E+01  0.50432165084E+01 -0.31381220147E+02  0.31886042506E+02  0.00000000000E+00 0. -1.
         11    1    3    3    0    0 -0.40555008943E+01  0.56203960189E+01  0.10864244415E+02  0.12886727509E+02  0.51100000000E-03 0. -1.
        -11    1    3    3    0    0 -0.15340501129E+02 -0.71013363577E+01  0.23492091360E+02  0.28941981786E+02  0.51100000000E-03 0.  1.
         12    1    3    3    0    0  0.16845571470E+02 -0.35622761696E+01 -0.29751156276E+01  0.17473248200E+02  0.00000000000E+00 0. -1.
</event>
<event>
 7    1  0.3220798E-013  0.5930193E+02  0.7816164E-02  0.1266605E+00
        -11   -1    0    0    0    0  0.00000000000E+00  0.00000000000E+00  0.45593999997E+02  0.45594000000E+02  0.51100000000E-03 0. -1.
         11   -1    0    0    0    0 -0.00000000000E+00 -0.00000000000E+00 -0.45593999997E+02  0.45594000000E+02  0.51100000000E-03 0.  1.
    9900012    2    1    2    0    0 -0.17579950630E+02  0.21590425384E+02 -0.15540931866E+02  0.59301926306E+02  0.49999967679E+02 0.  0.
         12    1    1    2    0    0  0.17579950630E+02 -0.21590425384E+02  0.15540931866E+02  0.31886073694E+02  0.00000000000E+00 0. -1.
         11    1    3    3    0    0 -0.59732127583E+01  0.24549718473E+02  0.73780970180E+01  0.26321175194E+02  0.51100000000E-03 0. -1.
        -11    1    3    3    0    0 -0.69010649232E+01  0.29400429360E+01  0.13002331099E+01  0.76130910898E+01  0.51100000000E-03 0.  1.
         12    1    3    3    0    0 -0.47056729482E+01 -0.58993360253E+01 -0.24219261994E+02  0.25367660021E+02  0.00000000000E+00 0. -1.
</event>
<event>
 7    1  0.3220798E-013  0.5930191E+02  0.7816164E-02  0.1266605E+00
        -11   -1    0    0    0    0  0.00000000000E+00  0.00000000000E+00  0.45593999997E+02  0.45594000000E+02  0.51100000000E-03 0.  1.
         11   -1    0    0    0    0 -0.00000000000E+00 -0.00000000000E+00 -0.45593999997E+02  0.45594000000E+02  0.51100000000E-03 0. -1.
    9900012    2    1    2    0    0  0.16591991442E+02  0.19451439465E+02  0.19054390167E+02  0.59301914289E+02  0.49999945764E+02 0.  0.
         12    1    1    2    0    0 -0.16591991442E+02 -0.19451439465E+02 -0.19054390167E+02  0.31886085711E+02  0.00000000000E+00 0. -1.
         11    1    3    3    0    0  0.26538308927E+01 -0.30347753392E+01  0.18514008088E+02  0.18947854113E+02  0.51100000000E-03 0.  1.
        -11    1    3    3    0    0  0.40465652039E+01 -0.71165879470E+01 -0.34586453373E+01  0.88872235140E+01  0.51100000000E-03 0. -1.
         12    1    3    3    0    0  0.98915953458E+01  0.29602802752E+02  0.39990274167E+01  0.31466836662E+02  0.00000000000E+00 0. -1.
</event>
<event>
 7    1  0.3220798E-013  0.5930192E+02  0.7816164E-02  0.1266605E+00
        -11   -1    0    0    0    0  0.00000000000E+00  0.00000000000E+00  0.45593999997E+02  0.45594000000E+02  0.51100000000E-03 0.  1.
         11   -1    0    0    0    0 -0.00000000000E+00 -0.00000000000E+00 -0.45593999997E+02  0.45594000000E+02  0.51100000000E-03 0. -1.
    9900012    2    1    2    0    0  0.21605630686E+02  0.82879832671E+00  0.23435691164E+02  0.59301924601E+02  0.49999964571E+02 0.  0.
         12    1    1    2    0    0 -0.21605630686E+02 -0.82879832671E+00 -0.23435691164E+02  0.31886075399E+02  0.00000000000E+00 0. -1.
         11    1    3    3    0    0  0.13429304046E+02 -0.64809505463E+00  0.49094591583E+01  0.14313246447E+02  0.51100000000E-03 0. -1.
        -11    1    3    3    0    0  0.46181178526E+01  0.46985890012E+01  0.30963848526E+02  0.31656968694E+02  0.51100000000E-03 0.  1.
         12    1    3    3    0    0  0.35582087869E+01 -0.32216956199E+01 -0.12437616520E+02  0.13331709460E+02  0.00000000000E+00 0. -1.
</event>
<event>
 7    1  0.3220798E-013  0.5930226E+02  0.7816164E-02  0.1266604E+00
        -11   -1    0    0    0    0  0.00000000000E+00  0.00000000000E+00  0.45593999997E+02  0.45594000000E+02  0.51100000000E-03 0. -1.
         11   -1    0    0    0    0 -0.00000000000E+00 -0.00000000000E+00 -0.45593999997E+02  0.45594000000E+02  0.51100000000E-03 0.  1.
    9900012    2    1    2    0    0 -0.31223127559E+02 -0.61234490654E+01 -0.20785445442E+01  0.59302256000E+02  0.50000568959E+02 0.  0.
         12    1    1    2    0    0  0.31223127559E+02  0.61234490654E+01  0.20785445442E+01  0.31885744000E+02  0.00000000000E+00 0. -1.
         11    1    3    3    0    0 -0.14241191850E+02  0.73001481172E+01  0.16512685013E+02  0.22995053260E+02  0.51100000000E-03 0. -1.
        -11    1    3    3    0    0 -0.16913236082E+02  0.48283755719E+00 -0.74480020946E+01  0.18486844575E+02  0.51100000000E-03 0.  1.
         12    1    3    3    0    0 -0.68699626920E-01 -0.13906434740E+02 -0.11143227463E+02  0.17820358164E+02  0.00000000000E+00 0. -1.
</event>
<event>
 7    1  0.3220798E-013  0.5930194E+02  0.7816164E-02  0.1266605E+00
        -11   -1    0    0    0    0  0.00000000000E+00  0.00000000000E+00  0.45593999997E+02  0.45594000000E+02  0.51100000000E-03 0. -1.
         11   -1    0    0    0    0 -0.00000000000E+00 -0.00000000000E+00 -0.45593999997E+02  0.45594000000E+02  0.51100000000E-03 0.  1.
    9900012    2    1    2    0    0  0.90262719280E+01 -0.21405475406E+02 -0.21841534467E+02  0.59301943641E+02  0.49999999294E+02 0.  0.
         12    1    1    2    0    0 -0.90262719280E+01  0.21405475406E+02  0.21841534467E+02  0.31886056359E+02  0.00000000000E+00 0. -1.
         11    1    3    3    0    0  0.39775580049E+01  0.14394350432E+02 -0.61243680262E+01  0.16140823275E+02  0.51100000000E-03 0.  1.
        -11    1    3    3    0    0  0.14993243459E+01 -0.40526645236E+00  0.26919019349E+01  0.31078208892E+01  0.51100000000E-03 0. -1.
        -12    1    3    3    0    0  0.35493895772E+01 -0.35394559385E+02 -0.18409068376E+02  0.40053299476E+02  0.00000000000E+00 0.  1.
</event>
<event>
 7    1  0.3220798E-013  0.5930196E+02  0.7816164E-02  0.1266605E+00
        -11   -1    0    0    0    0  0.00000000000E+00  0.00000000000E+00  0.45593999997E+02  0.45594000000E+02  0.51100000000E-03 0.  1.
         11   -1    0    0    0    0 -0.00000000000E+00 -0.00000000000E+00 -0.45593999997E+02  0.45594000000E+02  0.51100000000E-03 0. -1.
    9900012    2    1    2    0    0 -0.91912694362E+01  0.93978613193E+01  0.29050309898E+02  0.59301957029E+02  0.50000023710E+02 0.  0.
         12    1    1    2    0    0  0.91912694362E+01 -0.93978613193E+01 -0.29050309898E+02  0.31886042971E+02  0.00000000000E+00 0. -1.
         11    1    3    3    0    0 -0.17781253446E+02  0.10705860043E+02  0.54162359488E+01  0.21450501754E+02  0.51100000000E-03 0. -1.
        -11    1    3    3    0    0 -0.29774177390E+01  0.48566123900E+01  0.24071745314E+02  0.24736625134E+02  0.51100000000E-03 0.  1.
         12    1    3    3    0    0  0.11567401749E+02 -0.61646111138E+01 -0.43767136513E+00  0.13114830141E+02  0.00000000000E+00 0. -1.
</event>
<event>
 7    1  0.3220798E-013  0.5930195E+02  0.7816164E-02  0.1266605E+00
        -11   -1    0    0    0    0  0.00000000000E+00  0.00000000000E+00  0.45593999997E+02  0.45594000000E+02  0.51100000000E-03 0. -1.
         11   -1    0    0    0    0 -0.00000000000E+00 -0.00000000000E+00 -0.45593999997E+02  0.45594000000E+02  0.51100000000E-03 0.  1.
    9900012    2    1    2    0    0 -0.40428671669E+01 -0.31623543592E+02  0.57182243754E+00  0.59301948737E+02  0.50000008588E+02 0.  0.
         12    1    1    2    0    0  0.40428671669E+01  0.31623543592E+02 -0.57182243754E+00  0.31886051263E+02  0.00000000000E+00 0. -1.
         11    1    3    3    0    0 -0.70226303654E+01 -0.17362688562E+01 -0.68856135101E+01  0.99871737975E+01  0.51100000000E-03 0. -1.
        -11    1    3    3    0    0 -0.91814104506E+01 -0.13702353658E+02 -0.12646159044E+02  0.20784083633E+02  0.51100000000E-03 0.  1.
         12    1    3    3    0    0  0.12161173649E+02 -0.16184921078E+02  0.20103594992E+02  0.28530691306E+02  0.00000000000E+00 0. -1.
</event>
<event>
 7    1  0.3220798E-013  0.5930193E+02  0.7816164E-02  0.1266605E+00
        -11   -1    0    0    0    0  0.00000000000E+00  0.00000000000E+00  0.45593999997E+02  0.45594000000E+02  0.51100000000E-03 0. -1.
         11   -1    0    0    0    0 -0.00000000000E+00 -0.00000000000E+00 -0.45593999997E+02  0.45594000000E+02  0.51100000000E-03 0.  1.
    9900012    2    1    2    0    0 -0.16702244143E+02 -0.22794636420E+02 -0.14770268979E+02  0.59301933221E+02  0.49999980291E+02 0.  0.
         12    1    1    2    0    0  0.16702244143E+02  0.22794636420E+02  0.14770268979E+02  0.31886066779E+02  0.00000000000E+00 0. -1.
         11    1    3    3    0    0 -0.36188079638E+01 -0.42214365210E+01  0.11398395392E+02  0.12682259860E+02  0.51100000000E-03 0. -1.
        -11    1    3    3    0    0  0.63578253019E+01 -0.17044159933E+01  0.34072069821E+01  0.74118847892E+01  0.51100000000E-03 0.  1.
        -12    1    3    3    0    0 -0.19441261481E+02 -0.16868783906E+02 -0.29575871353E+02  0.39207788572E+02  0.00000000000E+00 0.  1.
</event>
<event>
 7    1  0.3220798E-013  0.5930194E+02  0.7816164E-02  0.1266605E+00
        -11   -1    0    0    0    0  0.00000000000E+00  0.00000000000E+00  0.45593999997E+02  0.45594000000E+02  0.51100000000E-03 0.  1.
         11   -1    0    0    0    0 -0.00000000000E+00 -0.00000000000E+00 -0.45593999997E+02  0.45594000000E+02  0.51100000000E-03 0. -1.
    9900012    2    1    2    0    0 -0.11842290171E+02  0.11544120627E+02  0.27261952222E+02  0.59301943541E+02  0.49999999112E+02 0.  0.
         12    1    1    2    0    0  0.11842290171E+02 -0.11544120627E+02 -0.27261952222E+02  0.31886056459E+02  0.00000000000E+00 0. -1.
         11    1    3    3    0    0 -0.33394034112E+01 -0.58483518140E+01  0.32722881388E+02  0.33408708455E+02  0.51100000000E-03 0. -1.
        -11    1    3    3    0    0  0.16831791721E+01  0.56122608528E+00 -0.59548223851E+01  0.62135317448E+01  0.51100000000E-03 0.  1.
        -12    1    3    3    0    0 -0.10186065932E+02  0.16831246356E+02  0.49389321983E+00  0.19679703340E+02  0.00000000000E+00 0.  1.
</event>
<event>
 7    1  0.3220798E-013  0.5930195E+02  0.7816164E-02  0.1266605E+00
        -11   -1    0    0    0    0  0.00000000000E+00  0.00000000000E+00  0.45593999997E+02  0.45594000000E+02  0.51100000000E-03 0.  1.
         11   -1    0    0    0    0 -0.00000000000E+00 -0.00000000000E+00 -0.45593999997E+02  0.45594000000E+02  0.51100000000E-03 0. -1.
    9900012    2    1    2    0    0 -0.91564876584E+01  0.30074596367E+02 -0.53289441002E+01  0.59301948847E+02  0.50000008790E+02 0.  0.
         12    1    1    2    0    0  0.91564876584E+01 -0.30074596367E+02  0.53289441002E+01  0.31886051153E+02  0.00000000000E+00 0. -1.
         11    1    3    3    0    0 -0.29702334793E+01  0.10500778914E+02  0.16879200149E+02  0.20099652800E+02  0.51100000000E-03 0. -1.
        -11    1    3    3    0    0  0.13370553843E+01  0.60115119750E+00  0.49882838741E+01  0.51992380338E+01  0.51100000000E-03 0.  1.
         12    1    3    3    0    0 -0.75233095633E+01  0.18972666255E+02 -0.27196428124E+02  0.34003058014E+02  0.00000000000E+00 0. -1.
</event>
<event>
 7    1  0.3220798E-013  0.5930192E+02  0.7816164E-02  0.1266605E+00
        -11   -1    0    0    0    0  0.00000000000E+00  0.00000000000E+00  0.45593999997E+02  0.45594000000E+02  0.51100000000E-03 0.  1.
         11   -1    0    0    0    0 -0.00000000000E+00 -0.00000000000E+00 -0.45593999997E+02  0.45594000000E+02  0.51100000000E-03 0. -1.
    9900012    2    1    2    0    0  0.13932281705E+02 -0.28344293616E+02  0.43834610762E+01  0.59301918630E+02  0.49999953681E+02 0.  0.
         12    1    1    2    0    0 -0.13932281705E+02  0.28344293616E+02 -0.43834610762E+01  0.31886081370E+02  0.00000000000E+00 0. -1.
         11    1    3    3    0    0 -0.33556101161E+01 -0.98845104517E+01 -0.74978180497E+01  0.12852273802E+02  0.51100000000E-03 0.  1.
        -11    1    3    3    0    0 -0.41498795653E+01  0.81791748128E+01 -0.22616866304E+01  0.94464611204E+01  0.51100000000E-03 0. -1.
        -12    1    3    3    0    0  0.21437771386E+02 -0.26638957977E+02  0.14142965756E+02  0.37003183708E+02  0.00000000000E+00 0.  1.
</event>
<event>
 7    1  0.3220798E-013  0.5930196E+02  0.7816164E-02  0.1266605E+00
        -11   -1    0    0    0    0  0.00000000000E+00  0.00000000000E+00  0.45593999997E+02  0.45594000000E+02  0.51100000000E-03 0. -1.
         11   -1    0    0    0    0 -0.00000000000E+00 -0.00000000000E+00 -0.45593999997E+02  0.45594000000E+02  0.51100000000E-03 0.  1.
    9900012    2    1    2    0    0 -0.80297599746E+01  0.19674808763E+02 -0.23772765925E+02  0.59301960032E+02  0.50000029188E+02 0.  0.
         12    1    1    2    0    0  0.80297599746E+01 -0.19674808763E+02  0.23772765925E+02  0.31886039968E+02  0.00000000000E+00 0. -1.
         11    1    3    3    0    0 -0.15119148598E+01  0.14045204542E+02  0.52032539511E+01  0.15054152554E+02  0.51100000000E-03 0. -1.
        -11    1    3    3    0    0 -0.69914723153E+01 -0.18901614492E+01  0.54137913442E+01  0.90422636779E+01  0.51100000000E-03 0.  1.
        -12    1    3    3    0    0  0.47362720049E+00  0.75197656695E+01 -0.34389811221E+02  0.35205543800E+02  0.00000000000E+00 0.  1.
</event>
<event>
 7    1  0.3220798E-013  0.5930195E+02  0.7816164E-02  0.1266605E+00
        -11   -1    0    0    0    0  0.00000000000E+00  0.00000000000E+00  0.45593999997E+02  0.45594000000E+02  0.51100000000E-03 0.  1.
         11   -1    0    0    0    0 -0.00000000000E+00 -0.00000000000E+00 -0.45593999997E+02  0.45594000000E+02  0.51100000000E-03 0. -1.
    9900012    2    1    2    0    0 -0.25549363097E+02  0.11613013502E+01  0.19042098555E+02  0.59301951439E+02  0.50000013516E+02 0.  0.
         12    1    1    2    0    0  0.25549363097E+02 -0.11613013502E+01 -0.19042098555E+02  0.31886048561E+02  0.00000000000E+00 0. -1.
         11    1    3    3    0    0  0.42388082197E+01 -0.46724241708E+01 -0.15597496358E+01  0.64986046151E+01  0.51100000000E-03 0. -1.
        -11    1    3    3    0    0 -0.14154368804E+00  0.81559739901E+01  0.21558897363E+02  0.23050509802E+02  0.51100000000E-03 0.  1.
         12    1    3    3    0    0 -0.29646627629E+02 -0.23222484691E+01 -0.95704917287E+00  0.29752837022E+02  0.00000000000E+00 0. -1.
</event>
<event>
 7    1  0.3220798E-013  0.5930191E+02  0.7816164E-02  0.1266605E+00
        -11   -1    0    0    0    0  0.00000000000E+00  0.00000000000E+00  0.45593999997E+02  0.45594000000E+02  0.51100000000E-03 0.  1.
         11   -1    0    0    0    0 -0.00000000000E+00 -0.00000000000E+00 -0.45593999997E+02  0.45594000000E+02  0.51100000000E-03 0. -1.
    9900012    2    1    2    0    0 -0.31792294760E+02  0.20725492773E+01 -0.12949835797E+01  0.59301914491E+02  0.49999946132E+02 0.  0.
         12    1    1    2    0    0  0.31792294760E+02 -0.20725492773E+01  0.12949835797E+01  0.31886085509E+02  0.00000000000E+00 0. -1.
         11    1    3    3    0    0 -0.83442248682E+01  0.13699244033E+02 -0.48696722026E+01  0.16763325546E+02  0.51100000000E-03 0. -1.
        -11    1    3    3    0    0  0.34343802965E+01 -0.10465005919E+02  0.99977797832E+01  0.14875043454E+02  0.51100000000E-03 0.  1.
         12    1    3    3    0    0 -0.26882450189E+02 -0.11616888370E+01 -0.64230911603E+01  0.27663545491E+02  0.00000000000E+00 0. -1.
</event>
<event>
 7    1  0.3220798E-013  0.5930195E+02  0.7816164E-02  0.1266605E+00
        -11   -1    0    0    0    0  0.00000000000E+00  0.00000000000E+00  0.45593999997E+02  0.45594000000E+02  0.51100000000E-03 0.  1.
         11   -1    0    0    0    0 -0.00000000000E+00 -0.00000000000E+00 -0.45593999997E+02  0.45594000000E+02  0.51100000000E-03 0. -1.
    9900012    2    1    2    0    0 -0.13775142723E+01 -0.49130806523E+01  0.31475138515E+02  0.59301948949E+02  0.50000008975E+02 0.  0.
         12    1    1    2    0    0  0.13775142723E+01  0.49130806523E+01 -0.31475138515E+02  0.31886051051E+02  0.00000000000E+00 0. -1.
         11    1    3    3    0    0 -0.80226496529E+01  0.96413553996E+01  0.11073736902E+02  0.16731595579E+02  0.51100000000E-03 0. -1.
        -11    1    3    3    0    0  0.18247823715E+01 -0.11766072323E+02  0.29550870543E+02  0.31859445047E+02  0.51100000000E-03 0.  1.
         12    1    3    3    0    0  0.48203530091E+01 -0.27883637293E+01 -0.91494689292E+01  0.10710908323E+02  0.00000000000E+00 0. -1.
</event>
<event>
 7    1  0.3220798E-013  0.5930194E+02  0.7816164E-02  0.1266605E+00
        -11   -1    0    0    0    0  0.00000000000E+00  0.00000000000E+00  0.45593999997E+02  0.45594000000E+02  0.51100000000E-03 0. -1.
         11   -1    0    0    0    0 -0.00000000000E+00 -0.00000000000E+00 -0.45593999997E+02  0.45594000000E+02  0.51100000000E-03 0.  1.
    9900012    2    1    2    0    0  0.27174528078E+02  0.16601005177E+02  0.16348574291E+01  0.59301935521E+02  0.49999984485E+02 0.  0.
         12    1    1    2    0    0 -0.27174528078E+02 -0.16601005177E+02 -0.16348574291E+01  0.31886064479E+02  0.00000000000E+00 0. -1.
         11    1    3    3    0    0 -0.26312968014E+01  0.58803555384E+01 -0.83457879296E+00  0.64960623563E+01  0.51100000000E-03 0. -1.
        -11    1    3    3    0    0  0.24633299751E+02  0.11727236949E+02 -0.17327371151E+02  0.32319735988E+02  0.51100000000E-03 0.  1.
         12    1    3    3    0    0  0.51725251288E+01 -0.10065873099E+01  0.19796807373E+02  0.20486137176E+02  0.00000000000E+00 0. -1.
</event>
<event>
 7    1  0.3220798E-013  0.5930181E+02  0.7816164E-02  0.1266605E+00
        -11   -1    0    0    0    0  0.00000000000E+00  0.00000000000E+00  0.45593999997E+02  0.45594000000E+02  0.51100000000E-03 0.  1.
         11   -1    0    0    0    0 -0.00000000000E+00 -0.00000000000E+00 -0.45593999997E+02  0.45594000000E+02  0.51100000000E-03 0. -1.
    9900012    2    1    2    0    0 -0.20957665796E+02 -0.22080668674E+02  0.94841803877E+01  0.59301806086E+02  0.49999748427E+02 0.  0.
         12    1    1    2    0    0  0.20957665796E+02  0.22080668674E+02 -0.94841803877E+01  0.31886193914E+02  0.00000000000E+00 0. -1.
         11    1    3    3    0    0  0.75512735102E+01 -0.11564903209E+02 -0.32881578375E+01  0.14197911821E+02  0.51100000000E-03 0. -1.
        -11    1    3    3    0    0 -0.27371317248E+01  0.87244533310E+01 -0.25301631071E+01  0.94873442867E+01  0.51100000000E-03 0.  1.
        -12    1    3    3    0    0 -0.25771807581E+02 -0.19240218796E+02  0.15302501332E+02  0.35616549978E+02  0.00000000000E+00 0.  1.
</event>
<event>
 7    1  0.3220798E-013  0.5930194E+02  0.7816164E-02  0.1266605E+00
        -11   -1    0    0    0    0  0.00000000000E+00  0.00000000000E+00  0.45593999997E+02  0.45594000000E+02  0.51100000000E-03 0.  1.
         11   -1    0    0    0    0 -0.00000000000E+00 -0.00000000000E+00 -0.45593999997E+02  0.45594000000E+02  0.51100000000E-03 0. -1.
    9900012    2    1    2    0    0  0.12958015199E+02 -0.29086164222E+02  0.16750311822E+01  0.59301939777E+02  0.49999992248E+02 0.  0.
         12    1    1    2    0    0 -0.12958015199E+02  0.29086164222E+02 -0.16750311822E+01  0.31886060223E+02  0.00000000000E+00 0. -1.
         11    1    3    3    0    0 -0.29804440835E+01 -0.15918196985E+02  0.10757516610E+02  0.19442124526E+02  0.51100000000E-03 0.  1.
        -11    1    3    3    0    0  0.24199326178E+01  0.90302896198E+01 -0.10211403690E+02  0.13844672986E+02  0.51100000000E-03 0. -1.
         12    1    3    3    0    0  0.13518526665E+02 -0.22198256857E+02  0.11289182620E+01  0.26015142266E+02  0.00000000000E+00 0. -1.
</event>
<event>
 7    1  0.3220798E-013  0.5930191E+02  0.7816164E-02  0.1266605E+00
        -11   -1    0    0    0    0  0.00000000000E+00  0.00000000000E+00  0.45593999997E+02  0.45594000000E+02  0.51100000000E-03 0. -1.
         11   -1    0    0    0    0 -0.00000000000E+00 -0.00000000000E+00 -0.45593999997E+02  0.45594000000E+02  0.51100000000E-03 0.  1.
    9900012    2    1    2    0    0  0.81394565781E+01  0.10478804589E+02 -0.28994254622E+02  0.59301907419E+02  0.49999933234E+02 0.  0.
         12    1    1    2    0    0 -0.81394565781E+01 -0.10478804589E+02  0.28994254622E+02  0.31886092581E+02  0.00000000000E+00 0. -1.
         11    1    3    3    0    0 -0.45997194187E+01  0.30077933648E+01 -0.45165684569E+01  0.71136228845E+01  0.51100000000E-03 0. -1.
        -11    1    3    3    0    0 -0.58187107173E+01  0.14883992129E+02 -0.27667885537E+02  0.31951565007E+02  0.51100000000E-03 0.  1.
         12    1    3    3    0    0  0.18557886714E+02 -0.74129809050E+01  0.31901993712E+01  0.20236719527E+02  0.00000000000E+00 0. -1.
</event>
<event>
 7    1  0.3220798E-013  0.5930187E+02  0.7816164E-02  0.1266605E+00
        -11   -1    0    0    0    0  0.00000000000E+00  0.00000000000E+00  0.45593999997E+02  0.45594000000E+02  0.51100000000E-03 0.  1.
         11   -1    0    0    0    0 -0.00000000000E+00 -0.00000000000E+00 -0.45593999997E+02  0.45594000000E+02  0.51100000000E-03 0. -1.
    9900012    2    1    2    0    0 -0.22610040831E+02  0.20588967573E+02  0.90335910163E+01  0.59301869806E+02  0.49999864638E+02 0.  0.
         12    1    1    2    0    0  0.22610040831E+02 -0.20588967573E+02 -0.90335910163E+01  0.31886130194E+02  0.00000000000E+00 0. -1.
         11    1    3    3    0    0  0.28865793348E+01  0.93301093062E+01 -0.64584643479E+01  0.11708759196E+02  0.51100000000E-03 0. -1.
        -11    1    3    3    0    0 -0.35479619853E+01  0.20688786610E+02  0.55035068838E+01  0.21700288338E+02  0.51100000000E-03 0.  1.
        -12    1    3    3    0    0 -0.21948658180E+02 -0.94299283439E+01  0.99885484804E+01  0.25892822272E+02  0.00000000000E+00 0.  1.
</event>
<event>
 7    1  0.3220798E-013  0.5930193E+02  0.7816164E-02  0.1266605E+00
        -11   -1    0    0    0    0  0.00000000000E+00  0.00000000000E+00  0.45593999997E+02  0.45594000000E+02  0.51100000000E-03 0. -1.
         11   -1    0    0    0    0 -0.00000000000E+00 -0.00000000000E+00 -0.45593999997E+02  0.45594000000E+02  0.51100000000E-03 0.  1.
    9900012    2    1    2    0    0  0.24346438614E+02  0.16535921518E+02 -0.12269285610E+02  0.59301934972E+02  0.49999983484E+02 0.  0.
         12    1    1    2    0    0 -0.24346438614E+02 -0.16535921518E+02  0.12269285610E+02  0.31886065028E+02  0.00000000000E+00 0. -1.
         11    1    3    3    0    0 -0.35235268052E+01  0.40935533653E+01 -0.22855341192E+01  0.58648177100E+01  0.51100000000E-03 0. -1.
        -11    1    3    3    0    0  0.17414014769E+02 -0.14478675953E+02 -0.94840330540E+01  0.24552532476E+02  0.51100000000E-03 0.  1.
         12    1    3    3    0    0  0.10455950650E+02  0.26921044106E+02 -0.49971843657E+00  0.28884584786E+02  0.00000000000E+00 0. -1.
</event>
<event>
 7    1  0.3220798E-013  0.5930195E+02  0.7816164E-02  0.1266605E+00
        -11   -1    0    0    0    0  0.00000000000E+00  0.00000000000E+00  0.45593999997E+02  0.45594000000E+02  0.51100000000E-03 0.  1.
         11   -1    0    0    0    0 -0.00000000000E+00 -0.00000000000E+00 -0.45593999997E+02  0.45594000000E+02  0.51100000000E-03 0. -1.
    9900012    2    1    2    0    0  0.63519107605E+01  0.25996462255E+02  0.17336584131E+02  0.59301953374E+02  0.50000017045E+02 0.  0.
         12    1    1    2    0    0 -0.63519107605E+01 -0.25996462255E+02 -0.17336584131E+02  0.31886046626E+02  0.00000000000E+00 0. -1.
         11    1    3    3    0    0 -0.10425918550E+02 -0.78303898824E+00  0.15721868537E+02  0.18880944845E+02  0.51100000000E-03 0.  1.
        -11    1    3    3    0    0  0.50328967595E+01  0.51507255030E+01 -0.10701910166E+02  0.12899259842E+02  0.51100000000E-03 0. -1.
        -12    1    3    3    0    0  0.11744932551E+02  0.21628775741E+02  0.12316625760E+02  0.27521748687E+02  0.00000000000E+00 0.  1.
</event>
<event>
 7    1  0.3220798E-013  0.5930209E+02  0.7816164E-02  0.1266604E+00
        -11   -1    0    0    0    0  0.00000000000E+00  0.00000000000E+00  0.45593999997E+02  0.45594000000E+02  0.51100000000E-03 0.  1.
         11   -1    0    0    0    0 -0.00000000000E+00 -0.00000000000E+00 -0.45593999997E+02  0.45594000000E+02  0.51100000000E-03 0. -1.
    9900012    2    1    2    0    0  0.46739201968E+01 -0.23099698807E+02  0.21477191850E+02  0.59302087989E+02  0.50000262551E+02 0.  0.
         12    1    1    2    0    0 -0.46739201968E+01  0.23099698807E+02 -0.21477191850E+02  0.31885912011E+02  0.00000000000E+00 0. -1.
         11    1    3    3    0    0 -0.20606059171E+00  0.42157054223E+01 -0.32534706516E+01  0.53291373332E+01  0.51100000000E-03 0. -1.
        -11    1    3    3    0    0  0.13745149099E+02  0.16620265781E+01 -0.14574057553E+01  0.13921763103E+02  0.51100000000E-03 0.  1.
         12    1    3    3    0    0 -0.88651683106E+01 -0.28977430808E+02  0.26188068257E+02  0.40051187553E+02  0.00000000000E+00 0. -1.
</event>
<event>
 7    1  0.3220798E-013  0.5930191E+02  0.7816164E-02  0.1266605E+00
        -11   -1    0    0    0    0  0.00000000000E+00  0.00000000000E+00  0.45593999997E+02  0.45594000000E+02  0.51100000000E-03 0. -1.
         11   -1    0    0    0    0 -0.00000000000E+00 -0.00000000000E+00 -0.45593999997E+02  0.45594000000E+02  0.51100000000E-03 0.  1.
    9900012    2    1    2    0    0 -0.22840426864E+02  0.17572322870E+02  0.13647392297E+02  0.59301906685E+02  0.49999931896E+02 0.  0.
         12    1    1    2    0    0  0.22840426864E+02 -0.17572322870E+02 -0.13647392297E+02  0.31886093315E+02  0.00000000000E+00 0. -1.
         11    1    3    3    0    0 -0.12767213381E+02 -0.33667225175E+01 -0.29167133322E+01  0.13521973782E+02  0.51100000000E-03 0.  1.
        -11    1    3    3    0    0 -0.57784334360E+01  0.17680144134E+02 -0.82781467276E+01  0.20359408220E+02  0.51100000000E-03 0. -1.
         12    1    3    3    0    0 -0.42947800470E+01  0.32589012538E+01  0.24842252357E+02  0.25420524684E+02  0.00000000000E+00 0. -1.
</event>
<event>
 7    1  0.3220798E-013  0.5930194E+02  0.7816164E-02  0.1266605E+00
        -11   -1    0    0    0    0  0.00000000000E+00  0.00000000000E+00  0.45593999997E+02  0.45594000000E+02  0.51100000000E-03 0.  1.
         11   -1    0    0    0    0 -0.00000000000E+00 -0.00000000000E+00 -0.45593999997E+02  0.45594000000E+02  0.51100000000E-03 0. -1.
    9900012    2    1    2    0    0 -0.20744385758E+02  0.84049914094E+01  0.22710071831E+02  0.59301940607E+02  0.49999993761E+02 0.  0.
         12    1    1    2    0    0  0.20744385758E+02 -0.84049914094E+01 -0.22710071831E+02  0.31886059393E+02  0.00000000000E+00 0. -1.
         11    1    3    3    0    0 -0.22156623844E+02  0.10822365920E+02  0.19605747457E+02  0.31502776352E+02  0.51100000000E-03 0. -1.
        -11    1    3    3    0    0 -0.87238723264E+01 -0.40321616160E+01  0.11177164485E+02  0.14740871136E+02  0.51100000000E-03 0.  1.
         12    1    3    3    0    0  0.10136110412E+02  0.16147871051E+01 -0.80728401117E+01  0.13058293118E+02  0.00000000000E+00 0. -1.
</event>
<event>
 7    1  0.3220798E-013  0.5930193E+02  0.7816164E-02  0.1266605E+00
        -11   -1    0    0    0    0  0.00000000000E+00  0.00000000000E+00  0.45593999997E+02  0.45594000000E+02  0.51100000000E-03 0. -1.
         11   -1    0    0    0    0 -0.00000000000E+00 -0.00000000000E+00 -0.45593999997E+02  0.45594000000E+02  0.51100000000E-03 0.  1.
    9900012    2    1    2    0    0 -0.29430994309E+02 -0.10729087103E+02 -0.59518936977E+01  0.59301925066E+02  0.49999965419E+02 0.  0.
         12    1    1    2    0    0  0.29430994309E+02  0.10729087103E+02  0.59518936977E+01  0.31886074934E+02  0.00000000000E+00 0. -1.
         11    1    3    3    0    0 -0.71738869211E+01 -0.16139666627E+02  0.69296971457E+01  0.18972985932E+02  0.51100000000E-03 0. -1.
        -11    1    3    3    0    0 -0.18236078307E+02 -0.10874141605E+02 -0.50892984018E+01  0.21833517036E+02  0.51100000000E-03 0.  1.
        -12    1    3    3    0    0 -0.40210290805E+01  0.16284721129E+02 -0.77922924416E+01  0.18495422098E+02  0.00000000000E+00 0.  1.
</event>
<event>
 7    1  0.3220798E-013  0.5930194E+02  0.7816164E-02  0.1266605E+00
        -11   -1    0    0    0    0  0.00000000000E+00  0.00000000000E+00  0.45593999997E+02  0.45594000000E+02  0.51100000000E-03 0.  1.
         11   -1    0    0    0    0 -0.00000000000E+00 -0.00000000000E+00 -0.45593999997E+02  0.45594000000E+02  0.51100000000E-03 0. -1.
    9900012    2    1    2    0    0 -0.21217714938E+02 -0.60040011090E+00  0.23794299135E+02  0.59301943819E+02  0.49999999619E+02 0.  0.
         12    1    1    2    0    0  0.21217714938E+02  0.60040011090E+00 -0.23794299135E+02  0.31886056181E+02  0.00000000000E+00 0. -1.
         11    1    3    3    0    0 -0.32907445610E+01  0.12538147425E+02 -0.55611485993E+01  0.14105336388E+02  0.51100000000E-03 0. -1.
        -11    1    3    3    0    0 -0.39331053298E+01  0.58394502722E+01  0.17376798743E+02  0.18748910151E+02  0.51100000000E-03 0.  1.
        -12    1    3    3    0    0 -0.13993865048E+02 -0.18977997808E+02  0.11978648991E+02  0.26447697280E+02  0.00000000000E+00 0.  1.
</event>
<event>
 7    1  0.3220798E-013  0.5930187E+02  0.7816164E-02  0.1266605E+00
        -11   -1    0    0    0    0  0.00000000000E+00  0.00000000000E+00  0.45593999997E+02  0.45594000000E+02  0.51100000000E-03 0.  1.
         11   -1    0    0    0    0 -0.00000000000E+00 -0.00000000000E+00 -0.45593999997E+02  0.45594000000E+02  0.51100000000E-03 0. -1.
    9900012    2    1    2    0    0 -0.23936076784E+02  0.10039889022E+02  0.18519994904E+02  0.59301868929E+02  0.49999863039E+02 0.  0.
         12    1    1    2    0    0  0.23936076784E+02 -0.10039889022E+02 -0.18519994904E+02  0.31886131071E+02  0.00000000000E+00 0. -1.
         11    1    3    3    0    0  0.74989180041E+01  0.83143229561E+01  0.14449600125E+02  0.18279843585E+02  0.51100000000E-03 0. -1.
        -11    1    3    3    0    0 -0.16743600418E+02  0.12229123417E+02  0.85292228290E+01  0.22419796092E+02  0.51100000000E-03 0.  1.
         12    1    3    3    0    0 -0.14691394371E+02 -0.10503557350E+02 -0.44588280504E+01  0.18602229252E+02  0.00000000000E+00 0. -1.
</event>
<event>
 7    1  0.3220798E-013  0.5930198E+02  0.7816164E-02  0.1266605E+00
        -11   -1    0    0    0    0  0.00000000000E+00  0.00000000000E+00  0.45593999997E+02  0.45594000000E+02  0.51100000000E-03 0. -1.
         11   -1    0    0    0    0 -0.00000000000E+00 -0.00000000000E+00 -0.45593999997E+02  0.45594000000E+02  0.51100000000E-03 0.  1.
    9900012    2    1    2    0    0 -0.16515751440E+02 -0.59542808423E+01 -0.26617569677E+02  0.59301976079E+02  0.50000058454E+02 0.  0.
         12    1    1    2    0    0  0.16515751440E+02  0.59542808423E+01  0.26617569677E+02  0.31886023921E+02  0.00000000000E+00 0. -1.
         11    1    3    3    0    0  0.62148576094E+01  0.79513580003E+01 -0.12509506820E+02  0.16072843877E+02  0.51100000000E-03 0. -1.
        -11    1    3    3    0    0  0.23827547024E+01 -0.60358956245E+01 -0.15572912786E+02  0.16870837823E+02  0.51100000000E-03 0.  1.
        -12    1    3    3    0    0 -0.25113363752E+02 -0.78697432181E+01  0.14648499284E+01  0.26358294379E+02  0.00000000000E+00 0.  1.
</event>
<event>
 7    1  0.3220798E-013  0.5930194E+02  0.7816164E-02  0.1266605E+00
        -11   -1    0    0    0    0  0.00000000000E+00  0.00000000000E+00  0.45593999997E+02  0.45594000000E+02  0.51100000000E-03 0.  1.
         11   -1    0    0    0    0 -0.00000000000E+00 -0.00000000000E+00 -0.45593999997E+02  0.45594000000E+02  0.51100000000E-03 0. -1.
    9900012    2    1    2    0    0 -0.16235412410E+02  0.19877255270E+01  0.27371171704E+02  0.59301941771E+02  0.49999995885E+02 0.  0.
         12    1    1    2    0    0  0.16235412410E+02 -0.19877255270E+01 -0.27371171704E+02  0.31886058229E+02  0.00000000000E+00 0. -1.
         11    1    3    3    0    0  0.91215831114E+01 -0.10837030277E+02  0.49813439234E+01  0.15015268603E+02  0.51100000000E-03 0. -1.
        -11    1    3    3    0    0 -0.92804718097E+01  0.97711362819E+01 -0.32570071301E+01  0.13863994985E+02  0.51100000000E-03 0.  1.
        -12    1    3    3    0    0 -0.16076523712E+02  0.30536195225E+01  0.25646834911E+02  0.30422678182E+02  0.00000000000E+00 0.  1.
</event>
<event>
 7    1  0.3220798E-013  0.5930200E+02  0.7816164E-02  0.1266605E+00
        -11   -1    0    0    0    0  0.00000000000E+00  0.00000000000E+00  0.45593999997E+02  0.45594000000E+02  0.51100000000E-03 0. -1.
         11   -1    0    0    0    0 -0.00000000000E+00 -0.00000000000E+00 -0.45593999997E+02  0.45594000000E+02  0.51100000000E-03 0.  1.
    9900012    2    1    2    0    0  0.29758300392E+02 -0.10894771467E+02 -0.35305153631E+01  0.59301999525E+02  0.50000101214E+02 0.  0.
         12    1    1    2    0    0 -0.29758300392E+02  0.10894771467E+02  0.35305153631E+01  0.31886000475E+02  0.00000000000E+00 0. -1.
         11    1    3    3    0    0  0.10920258136E+02  0.17633334848E+01  0.56610800583E+00  0.11076184418E+02  0.51100000000E-03 0. -1.
        -11    1    3    3    0    0  0.24674700744E+02 -0.56476404736E+01 -0.18377238594E+02  0.31280338846E+02  0.51100000000E-03 0.  1.
         12    1    3    3    0    0 -0.58366584875E+01 -0.70104644783E+01  0.14280615225E+02  0.16945476261E+02  0.00000000000E+00 0. -1.
</event>
<event>
 7    1  0.3220798E-013  0.5930196E+02  0.7816164E-02  0.1266605E+00
        -11   -1    0    0    0    0  0.00000000000E+00  0.00000000000E+00  0.45593999997E+02  0.45594000000E+02  0.51100000000E-03 0.  1.
         11   -1    0    0    0    0 -0.00000000000E+00 -0.00000000000E+00 -0.45593999997E+02  0.45594000000E+02  0.51100000000E-03 0. -1.
    9900012    2    1    2    0    0 -0.49482811910E+01  0.25979197182E+02  0.17813340625E+02  0.59301964229E+02  0.50000036841E+02 0.  0.
         12    1    1    2    0    0  0.49482811910E+01 -0.25979197182E+02 -0.17813340625E+02  0.31886035771E+02  0.00000000000E+00 0. -1.
         11    1    3    3    0    0 -0.31835728363E+01  0.34865103085E+01 -0.14403916540E+02  0.15157958375E+02  0.51100000000E-03 0. -1.
        -11    1    3    3    0    0 -0.61018166837E+01  0.36655429733E+01  0.20136703125E+02  0.21357789800E+02  0.51100000000E-03 0.  1.
        -12    1    3    3    0    0  0.43371083290E+01  0.18827143901E+02  0.12080554041E+02  0.22786216054E+02  0.00000000000E+00 0.  1.
</event>
<event>
 7    1  0.3220798E-013  0.5930191E+02  0.7816164E-02  0.1266605E+00
        -11   -1    0    0    0    0  0.00000000000E+00  0.00000000000E+00  0.45593999997E+02  0.45594000000E+02  0.51100000000E-03 0. -1.
         11   -1    0    0    0    0 -0.00000000000E+00 -0.00000000000E+00 -0.45593999997E+02  0.45594000000E+02  0.51100000000E-03 0.  1.
    9900012    2    1    2    0    0 -0.20515714576E+02  0.23950122569E+02 -0.47137580026E+01  0.59301914788E+02  0.49999946674E+02 0.  0.
         12    1    1    2    0    0  0.20515714576E+02 -0.23950122569E+02  0.47137580026E+01  0.31886085212E+02  0.00000000000E+00 0. -1.
         11    1    3    3    0    0 -0.13427664164E+02  0.37935813104E+01 -0.15012341428E+01  0.14033785244E+02  0.51100000000E-03 0. -1.
        -11    1    3    3    0    0 -0.16875829299E+02  0.13207328610E+02 -0.16732465124E+02  0.27188279330E+02  0.51100000000E-03 0.  1.
         12    1    3    3    0    0  0.97877788876E+01  0.69492126490E+01  0.13519941264E+02  0.18079850214E+02  0.00000000000E+00 0. -1.
</event>
<event>
 7    1  0.3220798E-013  0.5930193E+02  0.7816164E-02  0.1266605E+00
        -11   -1    0    0    0    0  0.00000000000E+00  0.00000000000E+00  0.45593999997E+02  0.45594000000E+02  0.51100000000E-03 0.  1.
         11   -1    0    0    0    0 -0.00000000000E+00 -0.00000000000E+00 -0.45593999997E+02  0.45594000000E+02  0.51100000000E-03 0. -1.
    9900012    2    1    2    0    0  0.26769906464E+02 -0.11559442769E+02 -0.12902426614E+02  0.59301933736E+02  0.49999981231E+02 0.  0.
         12    1    1    2    0    0 -0.26769906464E+02  0.11559442769E+02  0.12902426614E+02  0.31886066264E+02  0.00000000000E+00 0. -1.
         11    1    3    3    0    0  0.14489497499E+01 -0.57371857925E+01 -0.64824770121E+01  0.87770874821E+01  0.51100000000E-03 0. -1.
        -11    1    3    3    0    0  0.18925549452E+02 -0.24446769640E+01 -0.24498262228E+02  0.31053465507E+02  0.51100000000E-03 0.  1.
         12    1    3    3    0    0  0.63954072621E+01 -0.33775800126E+01  0.18078312626E+02  0.19471380747E+02  0.00000000000E+00 0. -1.
</event>
<event>
 7    1  0.3220798E-013  0.5930193E+02  0.7816164E-02  0.1266605E+00
        -11   -1    0    0    0    0  0.00000000000E+00  0.00000000000E+00  0.45593999997E+02  0.45594000000E+02  0.51100000000E-03 0.  1.
         11   -1    0    0    0    0 -0.00000000000E+00 -0.00000000000E+00 -0.45593999997E+02  0.45594000000E+02  0.51100000000E-03 0. -1.
    9900012    2    1    2    0    0  0.76427769455E+01  0.30916319999E+02 -0.15781563738E+01  0.59301930012E+02  0.49999974439E+02 0.  0.
         12    1    1    2    0    0 -0.76427769455E+01 -0.30916319999E+02  0.15781563738E+01  0.31886069988E+02  0.00000000000E+00 0. -1.
         11    1    3    3    0    0 -0.61451626452E+01  0.77238397668E+01 -0.28489336352E+01  0.10273127459E+02  0.51100000000E-03 0.  1.
        -11    1    3    3    0    0 -0.96444566064E+01 -0.28524636691E+00 -0.10095638890E+02  0.13964914378E+02  0.51100000000E-03 0. -1.
        -12    1    3    3    0    0  0.23432396197E+02  0.23477726599E+02  0.11366416152E+02  0.35063888175E+02  0.00000000000E+00 0.  1.
</event>
<event>
 7    1  0.3220798E-013  0.5930193E+02  0.7816164E-02  0.1266605E+00
        -11   -1    0    0    0    0  0.00000000000E+00  0.00000000000E+00  0.45593999997E+02  0.45594000000E+02  0.51100000000E-03 0. -1.
         11   -1    0    0    0    0 -0.00000000000E+00 -0.00000000000E+00 -0.45593999997E+02  0.45594000000E+02  0.51100000000E-03 0.  1.
    9900012    2    1    2    0    0  0.26321849514E+02 -0.54116057223E+01  0.17163812891E+02  0.59301926061E+02  0.49999967232E+02 0.  0.
         12    1    1    2    0    0 -0.26321849514E+02  0.54116057223E+01 -0.17163812891E+02  0.31886073939E+02  0.00000000000E+00 0. -1.
         11    1    3    3    0    0  0.16603794151E+02 -0.10026326790E+02  0.33014319588E+02  0.38290449295E+02  0.51100000000E-03 0. -1.
        -11    1    3    3    0    0  0.42309740770E+01  0.66090331025E+01 -0.77767579094E+01  0.11048005432E+02  0.51100000000E-03 0.  1.
        -12    1    3    3    0    0  0.54870812861E+01 -0.19943120342E+01 -0.80737487873E+01  0.99634713334E+01  0.00000000000E+00 0.  1.
</event>
<event>
 7    1  0.3220798E-013  0.5930195E+02  0.7816164E-02  0.1266605E+00
        -11   -1    0    0    0    0  0.00000000000E+00  0.00000000000E+00  0.45593999997E+02  0.45594000000E+02  0.51100000000E-03 0. -1.
         11   -1    0    0    0    0 -0.00000000000E+00 -0.00000000000E+00 -0.45593999997E+02  0.45594000000E+02  0.51100000000E-03 0.  1.
    9900012    2    1    2    0    0 -0.24941400198E+00 -0.25069107914E+01 -0.31786372628E+02  0.59301948286E+02  0.50000007767E+02 0.  0.
         12    1    1    2    0    0  0.24941400198E+00  0.25069107914E+01  0.31786372628E+02  0.31886051714E+02  0.00000000000E+00 0. -1.
         11    1    3    3    0    0  0.76740811318E+01  0.91442680915E+01  0.28756569181E+01  0.12279192283E+02  0.51100000000E-03 0. -1.
        -11    1    3    3    0    0  0.10197697167E+02 -0.78625306958E-01 -0.96588441939E+01  0.14046084183E+02  0.51100000000E-03 0.  1.
        -12    1    3    3    0    0 -0.18121192300E+02 -0.11572553576E+02 -0.25003185352E+02  0.32976671821E+02  0.00000000000E+00 0.  1.
</event>
<event>
 7    1  0.3220798E-013  0.5930183E+02  0.7816164E-02  0.1266605E+00
        -11   -1    0    0    0    0  0.00000000000E+00  0.00000000000E+00  0.45593999997E+02  0.45594000000E+02  0.51100000000E-03 0. -1.
         11   -1    0    0    0    0 -0.00000000000E+00 -0.00000000000E+00 -0.45593999997E+02  0.45594000000E+02  0.51100000000E-03 0.  1.
    9900012    2    1    2    0    0  0.25973862365E+02 -0.80263895511E+01  0.16663226450E+02  0.59301834173E+02  0.49999799651E+02 0.  0.
         12    1    1    2    0    0 -0.25973862365E+02  0.80263895511E+01 -0.16663226450E+02  0.31886165827E+02  0.00000000000E+00 0. -1.
         11    1    3    3    0    0  0.66729793716E+01  0.14218994094E+02 -0.92909550447E+00  0.15734410236E+02  0.51100000000E-03 0. -1.
        -11    1    3    3    0    0  0.21700733056E+02 -0.11216680947E+02  0.22652735729E+01  0.24532982111E+02  0.51100000000E-03 0.  1.
         12    1    3    3    0    0 -0.23998500626E+01 -0.11028702699E+02  0.15327048382E+02  0.19034441826E+02  0.00000000000E+00 0. -1.
</event>
<event>
 7    1  0.3220798E-013  0.5930192E+02  0.7816164E-02  0.1266605E+00
        -11   -1    0    0    0    0  0.00000000000E+00  0.00000000000E+00  0.45593999997E+02  0.45594000000E+02  0.51100000000E-03 0.  1.
         11   -1    0    0    0    0 -0.00000000000E+00 -0.00000000000E+00 -0.45593999997E+02  0.45594000000E+02  0.51100000000E-03 0. -1.
    9900012    2    1    2    0    0 -0.12722481996E+02 -0.10475738361E+02  0.27296877785E+02  0.59301918724E+02  0.49999953852E+02 0.  0.
         12    1    1    2    0    0  0.12722481996E+02  0.10475738361E+02 -0.27296877785E+02  0.31886081276E+02  0.00000000000E+00 0. -1.
         11    1    3    3    0    0 -0.79860721309E+01  0.24822735552E+01 -0.84860508038E+01  0.11914364800E+02  0.51100000000E-03 0. -1.
        -11    1    3    3    0    0 -0.69987936828E+00 -0.17641220897E+02  0.88404445853E+01  0.19744770614E+02  0.51100000000E-03 0.  1.
        -12    1    3    3    0    0 -0.40365304969E+01  0.46832089815E+01  0.26942484004E+02  0.27642783310E+02  0.00000000000E+00 0.  1.
</event>
<event>
 7    1  0.3220798E-013  0.5930190E+02  0.7816164E-02  0.1266605E+00
        -11   -1    0    0    0    0  0.00000000000E+00  0.00000000000E+00  0.45593999997E+02  0.45594000000E+02  0.51100000000E-03 0.  1.
         11   -1    0    0    0    0 -0.00000000000E+00 -0.00000000000E+00 -0.45593999997E+02  0.45594000000E+02  0.51100000000E-03 0. -1.
    9900012    2    1    2    0    0 -0.20222629277E+02  0.74314369271E+01  0.23506224850E+02  0.59301896501E+02  0.49999913322E+02 0.  0.
         12    1    1    2    0    0  0.20222629277E+02 -0.74314369271E+01 -0.23506224850E+02  0.31886103499E+02  0.00000000000E+00 0. -1.
         11    1    3    3    0    0 -0.10236666689E+02  0.64296437733E+00  0.23947435780E+02  0.26051534096E+02  0.51100000000E-03 0. -1.
        -11    1    3    3    0    0 -0.17279584660E+02 -0.12685346068E+00  0.89802395358E+01  0.19474209616E+02  0.51100000000E-03 0.  1.
         12    1    3    3    0    0  0.72936220723E+01  0.69153260105E+01 -0.94214504650E+01  0.13776152788E+02  0.00000000000E+00 0. -1.
</event>
<event>
 7    1  0.3220798E-013  0.5930197E+02  0.7816164E-02  0.1266605E+00
        -11   -1    0    0    0    0  0.00000000000E+00  0.00000000000E+00  0.45593999997E+02  0.45594000000E+02  0.51100000000E-03 0.  1.
         11   -1    0    0    0    0 -0.00000000000E+00 -0.00000000000E+00 -0.45593999997E+02  0.45594000000E+02  0.51100000000E-03 0. -1.
    9900012    2    1    2    0    0 -0.11946304812E+02 -0.28376903760E+02  0.82919097000E+01  0.59301974344E+02  0.50000055289E+02 0.  0.
         12    1    1    2    0    0  0.11946304812E+02  0.28376903760E+02 -0.82919097000E+01  0.31886025656E+02  0.00000000000E+00 0. -1.
         11    1    3    3    0    0 -0.41925854717E+01  0.32880149066E+00  0.88875264363E+01  0.98322942274E+01  0.51100000000E-03 0. -1.
        -11    1    3    3    0    0 -0.15914432154E+02  0.25509240183E+01 -0.49793264760E+01  0.16869204384E+02  0.51100000000E-03 0.  1.
        -12    1    3    3    0    0  0.81607128134E+01 -0.31256629269E+02  0.43837097397E+01  0.32600475732E+02  0.00000000000E+00 0.  1.
</event>
<event>
 7    1  0.3220798E-013  0.5930195E+02  0.7816164E-02  0.1266605E+00
        -11   -1    0    0    0    0  0.00000000000E+00  0.00000000000E+00  0.45593999997E+02  0.45594000000E+02  0.51100000000E-03 0.  1.
         11   -1    0    0    0    0 -0.00000000000E+00 -0.00000000000E+00 -0.45593999997E+02  0.45594000000E+02  0.51100000000E-03 0. -1.
    9900012    2    1    2    0    0 -0.23968709180E+02  0.71041837590E+01  0.19792721067E+02  0.59301948914E+02  0.50000008911E+02 0.  0.
         12    1    1    2    0    0  0.23968709180E+02 -0.71041837590E+01 -0.19792721067E+02  0.31886051086E+02  0.00000000000E+00 0. -1.
         11    1    3    3    0    0 -0.15599190796E+01  0.50021979971E+01  0.13109565405E+01  0.54012905540E+01  0.51100000000E-03 0.  1.
        -11    1    3    3    0    0  0.13075173537E+02  0.15493698549E+01  0.12021626116E+02  0.17829195290E+02  0.51100000000E-03 0. -1.
        -12    1    3    3    0    0 -0.35483963637E+02  0.55261590704E+00  0.64601384107E+01  0.36071463070E+02  0.00000000000E+00 0.  1.
</event>
<event>
 7    1  0.3220798E-013  0.5930196E+02  0.7816164E-02  0.1266605E+00
        -11   -1    0    0    0    0  0.00000000000E+00  0.00000000000E+00  0.45593999997E+02  0.45594000000E+02  0.51100000000E-03 0.  1.
         11   -1    0    0    0    0 -0.00000000000E+00 -0.00000000000E+00 -0.45593999997E+02  0.45594000000E+02  0.51100000000E-03 0. -1.
    9900012    2    1    2    0    0  0.25749804104E+02 -0.11529352483E+02  0.14857363253E+02  0.59301958808E+02  0.50000026956E+02 0.  0.
         12    1    1    2    0    0 -0.25749804104E+02  0.11529352483E+02 -0.14857363253E+02  0.31886041192E+02  0.00000000000E+00 0. -1.
         11    1    3    3    0    0 -0.44054791054E+01  0.12256743855E+02  0.35839583454E+01  0.13508544472E+02  0.51100000000E-03 0. -1.
        -11    1    3    3    0    0  0.27204168976E+01 -0.57759540577E+01  0.11295687014E+02  0.12975163149E+02  0.51100000000E-03 0.  1.
         12    1    3    3    0    0  0.27434866312E+02 -0.18010142280E+02 -0.22282106324E-01  0.32818251187E+02  0.00000000000E+00 0. -1.
</event>
<event>
 7    1  0.3220798E-013  0.5930193E+02  0.7816164E-02  0.1266605E+00
        -11   -1    0    0    0    0  0.00000000000E+00  0.00000000000E+00  0.45593999997E+02  0.45594000000E+02  0.51100000000E-03 0.  1.
         11   -1    0    0    0    0 -0.00000000000E+00 -0.00000000000E+00 -0.45593999997E+02  0.45594000000E+02  0.51100000000E-03 0. -1.
    9900012    2    1    2    0    0  0.25472630905E+02  0.19177031641E+02 -0.32828652945E+00  0.59301933453E+02  0.49999980714E+02 0.  0.
         12    1    1    2    0    0 -0.25472630905E+02 -0.19177031641E+02  0.32828652945E+00  0.31886066547E+02  0.00000000000E+00 0. -1.
         11    1    3    3    0    0  0.14978179722E+02 -0.25038615840E+01 -0.74326582847E+01  0.16907383004E+02  0.51100000000E-03 0. -1.
        -11    1    3    3    0    0  0.14917307246E+02  0.61845945565E+01  0.17029147398E+02  0.23468428296E+02  0.51100000000E-03 0.  1.
         12    1    3    3    0    0 -0.44228560626E+01  0.15496298669E+02 -0.99247756429E+01  0.18926122153E+02  0.00000000000E+00 0. -1.
</event>
<event>
 7    1  0.3220798E-013  0.5930193E+02  0.7816164E-02  0.1266605E+00
        -11   -1    0    0    0    0  0.00000000000E+00  0.00000000000E+00  0.45593999997E+02  0.45594000000E+02  0.51100000000E-03 0.  1.
         11   -1    0    0    0    0 -0.00000000000E+00 -0.00000000000E+00 -0.45593999997E+02  0.45594000000E+02  0.51100000000E-03 0. -1.
    9900012    2    1    2    0    0 -0.11858804098E+02  0.94019475964E+01  0.28065881620E+02  0.59301928364E+02  0.49999971434E+02 0.  0.
         12    1    1    2    0    0  0.11858804098E+02 -0.94019475964E+01 -0.28065881620E+02  0.31886071636E+02  0.00000000000E+00 0. -1.
         11    1    3    3    0    0  0.55081430867E+01 -0.12815836457E+02  0.12822343339E+02  0.18947237089E+02  0.51100000000E-03 0. -1.
        -11    1    3    3    0    0  0.21421134452E+01  0.10873750094E+02 -0.28341826858E+01  0.11439391717E+02  0.51100000000E-03 0.  1.
        -12    1    3    3    0    0 -0.19509060630E+02  0.11344033960E+02  0.18077720967E+02  0.28915299558E+02  0.00000000000E+00 0.  1.
</event>
<event>
 7    1  0.3220798E-013  0.5930197E+02  0.7816164E-02  0.1266605E+00
        -11   -1    0    0    0    0  0.00000000000E+00  0.00000000000E+00  0.45593999997E+02  0.45594000000E+02  0.51100000000E-03 0. -1.
         11   -1    0    0    0    0 -0.00000000000E+00 -0.00000000000E+00 -0.45593999997E+02  0.45594000000E+02  0.51100000000E-03 0.  1.
    9900012    2    1    2    0    0 -0.11375848875E+02 -0.26043390871E+02 -0.14458590138E+02  0.59301968976E+02  0.50000045500E+02 0.  0.
         12    1    1    2    0    0  0.11375848875E+02  0.26043390871E+02  0.14458590138E+02  0.31886031024E+02  0.00000000000E+00 0. -1.
         11    1    3    3    0    0 -0.11663913555E+01 -0.17802691115E+01  0.12936933707E+02  0.13110838299E+02  0.51100000000E-03 0. -1.
        -11    1    3    3    0    0  0.84137391547E+01 -0.11381246572E+02 -0.73464496581E+01  0.15946601611E+02  0.51100000000E-03 0.  1.
        -12    1    3    3    0    0 -0.18623196674E+02 -0.12881875187E+02 -0.20049074187E+02  0.30244529066E+02  0.00000000000E+00 0.  1.
</event>
<event>
 7    1  0.3220798E-013  0.5930193E+02  0.7816164E-02  0.1266605E+00
        -11   -1    0    0    0    0  0.00000000000E+00  0.00000000000E+00  0.45593999997E+02  0.45594000000E+02  0.51100000000E-03 0.  1.
         11   -1    0    0    0    0 -0.00000000000E+00 -0.00000000000E+00 -0.45593999997E+02  0.45594000000E+02  0.51100000000E-03 0. -1.
    9900012    2    1    2    0    0  0.47791998989E+01  0.30119075996E+02 -0.93124579119E+01  0.59301931523E+02  0.49999977195E+02 0.  0.
         12    1    1    2    0    0 -0.47791998989E+01 -0.30119075996E+02  0.93124579119E+01  0.31886068477E+02  0.00000000000E+00 0. -1.
         11    1    3    3    0    0  0.90027197033E+01  0.10061563531E+02 -0.90164285063E+01  0.16235147244E+02  0.51100000000E-03 0. -1.
        -11    1    3    3    0    0  0.11530331043E+02  0.24173744316E+02 -0.11452309379E+00  0.26783046204E+02  0.51100000000E-03 0.  1.
         12    1    3    3    0    0 -0.15753850847E+02 -0.41162318504E+01 -0.18150631178E+00  0.16283738075E+02  0.00000000000E+00 0. -1.
</event>
<event>
 7    1  0.3220798E-013  0.5930194E+02  0.7816164E-02  0.1266605E+00
        -11   -1    0    0    0    0  0.00000000000E+00  0.00000000000E+00  0.45593999997E+02  0.45594000000E+02  0.51100000000E-03 0.  1.
         11   -1    0    0    0    0 -0.00000000000E+00 -0.00000000000E+00 -0.45593999997E+02  0.45594000000E+02  0.51100000000E-03 0. -1.
    9900012    2    1    2    0    0 -0.31186858766E+02 -0.12088825410E+01 -0.65298885960E+01  0.59301937186E+02  0.49999987522E+02 0.  0.
         12    1    1    2    0    0  0.31186858766E+02  0.12088825410E+01  0.65298885960E+01  0.31886062814E+02  0.00000000000E+00 0. -1.
         11    1    3    3    0    0 -0.21895339210E+02  0.70103267039E+01  0.11350384936E+02  0.25639457835E+02  0.51100000000E-03 0. -1.
        -11    1    3    3    0    0 -0.52112278880E+01  0.85982359749E+01 -0.21613707352E+01  0.10283874839E+02  0.51100000000E-03 0.  1.
         12    1    3    3    0    0 -0.40802916683E+01 -0.16817445220E+02 -0.15718902797E+02  0.23378604513E+02  0.00000000000E+00 0. -1.
</event>
<event>
 7    1  0.3220798E-013  0.5930193E+02  0.7816164E-02  0.1266605E+00
        -11   -1    0    0    0    0  0.00000000000E+00  0.00000000000E+00  0.45593999997E+02  0.45594000000E+02  0.51100000000E-03 0.  1.
         11   -1    0    0    0    0 -0.00000000000E+00 -0.00000000000E+00 -0.45593999997E+02  0.45594000000E+02  0.51100000000E-03 0. -1.
    9900012    2    1    2    0    0  0.16080622416E+02 -0.10033110337E+02  0.25641214517E+02  0.59301927771E+02  0.49999970351E+02 0.  0.
         12    1    1    2    0    0 -0.16080622416E+02  0.10033110337E+02 -0.25641214517E+02  0.31886072229E+02  0.00000000000E+00 0. -1.
         11    1    3    3    0    0  0.66902608900E+01 -0.18219024938E+02  0.65250929439E+01  0.20476066484E+02  0.51100000000E-03 0. -1.
        -11    1    3    3    0    0  0.31422645326E+00 -0.97191032602E+01  0.15693730044E+02  0.18462201099E+02  0.51100000000E-03 0.  1.
         12    1    3    3    0    0  0.90761350725E+01  0.17905017862E+02  0.34223915287E+01  0.20363660188E+02  0.00000000000E+00 0. -1.
</event>
<event>
 7    1  0.3220798E-013  0.5930195E+02  0.7816164E-02  0.1266605E+00
        -11   -1    0    0    0    0  0.00000000000E+00  0.00000000000E+00  0.45593999997E+02  0.45594000000E+02  0.51100000000E-03 0. -1.
         11   -1    0    0    0    0 -0.00000000000E+00 -0.00000000000E+00 -0.45593999997E+02  0.45594000000E+02  0.51100000000E-03 0.  1.
    9900012    2    1    2    0    0  0.24012475803E+02  0.19120987211E+02  0.86318439778E+01  0.59301954830E+02  0.50000019701E+02 0.  0.
         12    1    1    2    0    0 -0.24012475803E+02 -0.19120987211E+02 -0.86318439778E+01  0.31886045170E+02  0.00000000000E+00 0. -1.
         11    1    3    3    0    0  0.11477242925E+02  0.27747988376E+01  0.25330009739E+02  0.27947021440E+02  0.51100000000E-03 0. -1.
        -11    1    3    3    0    0  0.41215339799E+00  0.77084238229E+01  0.14796626675E+01  0.78599662930E+01  0.51100000000E-03 0.  1.
        -12    1    3    3    0    0  0.12123079479E+02  0.86377645508E+01 -0.18177828429E+02  0.23494967097E+02  0.00000000000E+00 0.  1.
</event>
<event>
 7    1  0.3220798E-013  0.5930195E+02  0.7816164E-02  0.1266605E+00
        -11   -1    0    0    0    0  0.00000000000E+00  0.00000000000E+00  0.45593999997E+02  0.45594000000E+02  0.51100000000E-03 0. -1.
         11   -1    0    0    0    0 -0.00000000000E+00 -0.00000000000E+00 -0.45593999997E+02  0.45594000000E+02  0.51100000000E-03 0.  1.
    9900012    2    1    2    0    0 -0.96049609103E+01  0.15107461976E+02 -0.26386155951E+02  0.59301954348E+02  0.50000018822E+02 0.  0.
         12    1    1    2    0    0  0.96049609103E+01 -0.15107461976E+02  0.26386155951E+02  0.31886045652E+02  0.00000000000E+00 0. -1.
         11    1    3    3    0    0  0.77835230711E+01 -0.54863652110E+01  0.33695800213E+01  0.10101361513E+02  0.51100000000E-03 0.  1.
        -11    1    3    3    0    0 -0.18966554766E+02  0.87436983518E+01 -0.46536580091E+01  0.21397172563E+02  0.51100000000E-03 0. -1.
        -12    1    3    3    0    0  0.15780707843E+01  0.11850128836E+02 -0.25102077963E+02  0.27803420273E+02  0.00000000000E+00 0.  1.
</event>
<event>
 7    1  0.3220798E-013  0.5930193E+02  0.7816164E-02  0.1266605E+00
        -11   -1    0    0    0    0  0.00000000000E+00  0.00000000000E+00  0.45593999997E+02  0.45594000000E+02  0.51100000000E-03 0. -1.
         11   -1    0    0    0    0 -0.00000000000E+00 -0.00000000000E+00 -0.45593999997E+02  0.45594000000E+02  0.51100000000E-03 0.  1.
    9900012    2    1    2    0    0  0.96329772606E+01 -0.29004381331E+02 -0.90924798599E+01  0.59301928161E+02  0.49999971064E+02 0.  0.
         12    1    1    2    0    0 -0.96329772606E+01  0.29004381331E+02  0.90924798599E+01  0.31886071839E+02  0.00000000000E+00 0. -1.
         11    1    3    3    0    0 -0.38133283907E+01  0.45674444761E+01  0.63409893539E+01  0.86954682855E+01  0.51100000000E-03 0. -1.
        -11    1    3    3    0    0  0.42693444181E+01 -0.15661601481E+02 -0.23802687513E+02  0.28811126251E+02  0.51100000000E-03 0.  1.
         12    1    3    3    0    0  0.91769612333E+01 -0.17910224326E+02  0.83692182997E+01  0.21795333625E+02  0.00000000000E+00 0. -1.
</event>
<event>
 7    1  0.3220798E-013  0.5930196E+02  0.7816164E-02  0.1266605E+00
        -11   -1    0    0    0    0  0.00000000000E+00  0.00000000000E+00  0.45593999997E+02  0.45594000000E+02  0.51100000000E-03 0. -1.
         11   -1    0    0    0    0 -0.00000000000E+00 -0.00000000000E+00 -0.45593999997E+02  0.45594000000E+02  0.51100000000E-03 0.  1.
    9900012    2    1    2    0    0 -0.59653999527E+01 -0.60304269587E+01 -0.30737074298E+02  0.59301956309E+02  0.50000022398E+02 0.  0.
         12    1    1    2    0    0  0.59653999527E+01  0.60304269587E+01  0.30737074298E+02  0.31886043691E+02  0.00000000000E+00 0. -1.
         11    1    3    3    0    0  0.15160151399E+02 -0.52194862666E+01  0.41965429105E+01  0.16573599488E+02  0.51100000000E-03 0. -1.
        -11    1    3    3    0    0 -0.59821418132E+01 -0.48387857165E+01 -0.57550817196E+01  0.96083731060E+01  0.51100000000E-03 0.  1.
        -12    1    3    3    0    0 -0.15143409539E+02  0.40278450244E+01 -0.29178535489E+02  0.33119983715E+02  0.00000000000E+00 0.  1.
</event>
<event>
 7    1  0.3220798E-013  0.5930192E+02  0.7816164E-02  0.1266605E+00
        -11   -1    0    0    0    0  0.00000000000E+00  0.00000000000E+00  0.45593999997E+02  0.45594000000E+02  0.51100000000E-03 0. -1.
         11   -1    0    0    0    0 -0.00000000000E+00 -0.00000000000E+00 -0.45593999997E+02  0.45594000000E+02  0.51100000000E-03 0.  1.
    9900012    2    1    2    0    0  0.14494173100E+02  0.22175943232E+02 -0.17744530321E+02  0.59301923597E+02  0.49999962740E+02 0.  0.
         12    1    1    2    0    0 -0.14494173100E+02 -0.22175943232E+02  0.17744530321E+02  0.31886076403E+02  0.00000000000E+00 0. -1.
         11    1    3    3    0    0 -0.12346442701E+02  0.88042337627E+00 -0.48975743580E+01  0.13311499823E+02  0.51100000000E-03 0. -1.
        -11    1    3    3    0    0  0.10814864808E+01 -0.39439835386E+01  0.44069567159E+01  0.60121449515E+01  0.51100000000E-03 0.  1.
        -12    1    3    3    0    0  0.25759129320E+02  0.25239503394E+02 -0.17253912678E+02  0.39978278823E+02  0.00000000000E+00 0.  1.
</event>
<event>
 7    1  0.3220798E-013  0.5930195E+02  0.7816164E-02  0.1266605E+00
        -11   -1    0    0    0    0  0.00000000000E+00  0.00000000000E+00  0.45593999997E+02  0.45594000000E+02  0.51100000000E-03 0.  1.
         11   -1    0    0    0    0 -0.00000000000E+00 -0.00000000000E+00 -0.45593999997E+02  0.45594000000E+02  0.51100000000E-03 0. -1.
    9900012    2    1    2    0    0 -0.29201009980E+02 -0.70931829677E+00  0.12787420012E+02  0.59301949337E+02  0.50000009683E+02 0.  0.
         12    1    1    2    0    0  0.29201009980E+02  0.70931829677E+00 -0.12787420012E+02  0.31886050663E+02  0.00000000000E+00 0. -1.
         11    1    3    3    0    0 -0.11332080621E+02  0.55186762231E+01  0.11060567076E+02  0.16769257072E+02  0.51100000000E-03 0. -1.
        -11    1    3    3    0    0 -0.16684136784E+02 -0.12385210465E+02  0.16468166307E+02  0.26513286485E+02  0.51100000000E-03 0.  1.
         12    1    3    3    0    0 -0.11847925753E+01  0.61572159447E+01 -0.14741313371E+02  0.16019405780E+02  0.00000000000E+00 0. -1.
</event>
<event>
 7    1  0.3220798E-013  0.5930193E+02  0.7816164E-02  0.1266605E+00
        -11   -1    0    0    0    0  0.00000000000E+00  0.00000000000E+00  0.45593999997E+02  0.45594000000E+02  0.51100000000E-03 0. -1.
         11   -1    0    0    0    0 -0.00000000000E+00 -0.00000000000E+00 -0.45593999997E+02  0.45594000000E+02  0.51100000000E-03 0.  1.
    9900012    2    1    2    0    0 -0.22712723751E+02 -0.29570936682E+01  0.22183533547E+02  0.59301931196E+02  0.49999976598E+02 0.  0.
         12    1    1    2    0    0  0.22712723751E+02  0.29570936682E+01 -0.22183533547E+02  0.31886068804E+02  0.00000000000E+00 0. -1.
         11    1    3    3    0    0  0.74934104914E+01  0.11890678783E+02  0.97052654383E+00  0.14088341448E+02  0.51100000000E-03 0.  1.
        -11    1    3    3    0    0  0.12995708472E+01 -0.25154102410E+01  0.86856482877E+01  0.91354616471E+01  0.51100000000E-03 0. -1.
        -12    1    3    3    0    0 -0.31505705089E+02 -0.12332362211E+02  0.12527358716E+02  0.36078128101E+02  0.00000000000E+00 0.  1.
</event>
<event>
 7    1  0.3220798E-013  0.5930196E+02  0.7816164E-02  0.1266605E+00
        -11   -1    0    0    0    0  0.00000000000E+00  0.00000000000E+00  0.45593999997E+02  0.45594000000E+02  0.51100000000E-03 0. -1.
         11   -1    0    0    0    0 -0.00000000000E+00 -0.00000000000E+00 -0.45593999997E+02  0.45594000000E+02  0.51100000000E-03 0.  1.
    9900012    2    1    2    0    0  0.23180028473E+02 -0.18303528656E+02  0.12016106303E+02  0.59301957726E+02  0.50000024982E+02 0.  0.
         12    1    1    2    0    0 -0.23180028473E+02  0.18303528656E+02 -0.12016106303E+02  0.31886042274E+02  0.00000000000E+00 0. -1.
         11    1    3    3    0    0  0.68937103985E+01 -0.98840424932E+01 -0.88343463633E+01  0.14941995014E+02  0.51100000000E-03 0. -1.
        -11    1    3    3    0    0 -0.36729812680E+01 -0.16566376861E+02  0.52943634751E+01  0.17775430194E+02  0.51100000000E-03 0.  1.
         12    1    3    3    0    0  0.19959299342E+02  0.81468906989E+01  0.15556089191E+02  0.26584532518E+02  0.00000000000E+00 0. -1.
</event>
<event>
 7    1  0.3220798E-013  0.5930195E+02  0.7816164E-02  0.1266605E+00
        -11   -1    0    0    0    0  0.00000000000E+00  0.00000000000E+00  0.45593999997E+02  0.45594000000E+02  0.51100000000E-03 0.  1.
         11   -1    0    0    0    0 -0.00000000000E+00 -0.00000000000E+00 -0.45593999997E+02  0.45594000000E+02  0.51100000000E-03 0. -1.
    9900012    2    1    2    0    0 -0.12394760350E+02  0.27407154332E+02 -0.10580075601E+02  0.59301949877E+02  0.50000010668E+02 0.  0.
         12    1    1    2    0    0  0.12394760350E+02 -0.27407154332E+02  0.10580075601E+02  0.31886050123E+02  0.00000000000E+00 0. -1.
         11    1    3    3    0    0  0.49515231091E+01  0.30350255919E+01 -0.19220758419E+02  0.20079006846E+02  0.51100000000E-03 0. -1.
        -11    1    3    3    0    0  0.31878758013E+01  0.81957462911E+01 -0.45956099423E+01  0.99223203131E+01  0.51100000000E-03 0.  1.
         12    1    3    3    0    0 -0.20534159260E+02  0.16176382449E+02  0.13236292761E+02  0.29300622719E+02  0.00000000000E+00 0. -1.
</event>
<event>
 7    1  0.3220798E-013  0.5930194E+02  0.7816164E-02  0.1266605E+00
        -11   -1    0    0    0    0  0.00000000000E+00  0.00000000000E+00  0.45593999997E+02  0.45594000000E+02  0.51100000000E-03 0.  1.
         11   -1    0    0    0    0 -0.00000000000E+00 -0.00000000000E+00 -0.45593999997E+02  0.45594000000E+02  0.51100000000E-03 0. -1.
    9900012    2    1    2    0    0  0.10525148869E+01  0.24797755973E+02  0.20017098515E+02  0.59301941576E+02  0.49999995528E+02 0.  0.
         12    1    1    2    0    0 -0.10525148869E+01 -0.24797755973E+02 -0.20017098515E+02  0.31886058424E+02  0.00000000000E+00 0. -1.
         11    1    3    3    0    0 -0.88263240894E+01 -0.19539320169E+01  0.87629259370E+01  0.12590103991E+02  0.51100000000E-03 0. -1.
        -11    1    3    3    0    0 -0.10171392550E+02  0.22389008476E+02  0.84462496340E+01  0.26001231895E+02  0.51100000000E-03 0.  1.
         12    1    3    3    0    0  0.20050231526E+02  0.43626795143E+01  0.28079229435E+01  0.20710605690E+02  0.00000000000E+00 0. -1.
</event>
<event>
 7    1  0.3220798E-013  0.5930200E+02  0.7816164E-02  0.1266605E+00
        -11   -1    0    0    0    0  0.00000000000E+00  0.00000000000E+00  0.45593999997E+02  0.45594000000E+02  0.51100000000E-03 0. -1.
         11   -1    0    0    0    0 -0.00000000000E+00 -0.00000000000E+00 -0.45593999997E+02  0.45594000000E+02  0.51100000000E-03 0.  1.
    9900012    2    1    2    0    0  0.44779118573E+01 -0.28010979517E+02 -0.14561950952E+02  0.59301998626E+02  0.50000099574E+02 0.  0.
         12    1    1    2    0    0 -0.44779118573E+01  0.28010979517E+02  0.14561950952E+02  0.31886001374E+02  0.00000000000E+00 0. -1.
         11    1    3    3    0    0  0.14110415758E+01 -0.13772443354E+01  0.79581897595E+00  0.21263039274E+01  0.51100000000E-03 0. -1.
        -11    1    3    3    0    0  0.11854478878E+02 -0.98479381245E+01 -0.29667912029E+02  0.33431954163E+02  0.51100000000E-03 0.  1.
         12    1    3    3    0    0 -0.87876085961E+01 -0.16785797057E+02  0.14310142101E+02  0.23743740536E+02  0.00000000000E+00 0. -1.
</event>
<event>
 7    1  0.3220798E-013  0.5930195E+02  0.7816164E-02  0.1266605E+00
        -11   -1    0    0    0    0  0.00000000000E+00  0.00000000000E+00  0.45593999997E+02  0.45594000000E+02  0.51100000000E-03 0.  1.
         11   -1    0    0    0    0 -0.00000000000E+00 -0.00000000000E+00 -0.45593999997E+02  0.45594000000E+02  0.51100000000E-03 0. -1.
    9900012    2    1    2    0    0 -0.28421114104E+02 -0.13675319321E+02 -0.46846529872E+01  0.59301951969E+02  0.50000014482E+02 0.  0.
         12    1    1    2    0    0  0.28421114104E+02  0.13675319321E+02  0.46846529872E+01  0.31886048031E+02  0.00000000000E+00 0. -1.
         11    1    3    3    0    0 -0.24932729520E+02 -0.93117905954E+01  0.55383421344E+01  0.27184989963E+02  0.51100000000E-03 0.  1.
        -11    1    3    3    0    0 -0.57165416127E+01  0.24914381181E+01  0.93614215369E+01  0.11248214319E+02  0.51100000000E-03 0. -1.
         12    1    3    3    0    0  0.22281570288E+01 -0.68549668439E+01 -0.19584416658E+02  0.20868747687E+02  0.00000000000E+00 0. -1.
</event>
<event>
 7    1  0.3220798E-013  0.5930193E+02  0.7816164E-02  0.1266605E+00
        -11   -1    0    0    0    0  0.00000000000E+00  0.00000000000E+00  0.45593999997E+02  0.45594000000E+02  0.51100000000E-03 0. -1.
         11   -1    0    0    0    0 -0.00000000000E+00 -0.00000000000E+00 -0.45593999997E+02  0.45594000000E+02  0.51100000000E-03 0.  1.
    9900012    2    1    2    0    0  0.29845327072E+02  0.75070433081E+01 -0.83439791965E+01  0.59301933512E+02  0.49999980822E+02 0.  0.
         12    1    1    2    0    0 -0.29845327072E+02 -0.75070433081E+01  0.83439791965E+01  0.31886066488E+02  0.00000000000E+00 0. -1.
         11    1    3    3    0    0  0.23382614789E+01 -0.11856979024E+02  0.40584887390E+01  0.12748597939E+02  0.51100000000E-03 0. -1.
        -11    1    3    3    0    0 -0.15237505472E+01  0.10487337585E+02  0.48294224569E+01  0.11646003043E+02  0.51100000000E-03 0.  1.
        -12    1    3    3    0    0  0.29030816140E+02  0.88766847471E+01 -0.17231890392E+02  0.34907332530E+02  0.00000000000E+00 0.  1.
</event>
<event>
 7    1  0.3220798E-013  0.5930194E+02  0.7816164E-02  0.1266605E+00
        -11   -1    0    0    0    0  0.00000000000E+00  0.00000000000E+00  0.45593999997E+02  0.45594000000E+02  0.51100000000E-03 0.  1.
         11   -1    0    0    0    0 -0.00000000000E+00 -0.00000000000E+00 -0.45593999997E+02  0.45594000000E+02  0.51100000000E-03 0. -1.
    9900012    2    1    2    0    0 -0.86230269085E+01 -0.13217843715E+02  0.27706549156E+02  0.59301939539E+02  0.49999991814E+02 0.  0.
         12    1    1    2    0    0  0.86230269085E+01  0.13217843715E+02 -0.27706549156E+02  0.31886060461E+02  0.00000000000E+00 0. -1.
         11    1    3    3    0    0  0.14327467441E+02 -0.36275874585E+01  0.42101508027E+01  0.15367533442E+02  0.51100000000E-03 0. -1.
        -11    1    3    3    0    0 -0.66289188731E+01  0.94213170460E+01  0.40285600567E+01  0.12203814023E+02  0.51100000000E-03 0.  1.
         12    1    3    3    0    0 -0.16321575476E+02 -0.19011573303E+02  0.19467838297E+02  0.31730592075E+02  0.00000000000E+00 0. -1.
</event>
<event>
 7    1  0.3220798E-013  0.5930192E+02  0.7816164E-02  0.1266605E+00
        -11   -1    0    0    0    0  0.00000000000E+00  0.00000000000E+00  0.45593999997E+02  0.45594000000E+02  0.51100000000E-03 0. -1.
         11   -1    0    0    0    0 -0.00000000000E+00 -0.00000000000E+00 -0.45593999997E+02  0.45594000000E+02  0.51100000000E-03 0.  1.
    9900012    2    1    2    0    0  0.24475325917E+02 -0.19153093826E+02 -0.71301640479E+01  0.59301924337E+02  0.49999964089E+02 0.  0.
         12    1    1    2    0    0 -0.24475325917E+02  0.19153093826E+02  0.71301640479E+01  0.31886075663E+02  0.00000000000E+00 0. -1.
         11    1    3    3    0    0  0.11184021717E+02 -0.12571957114E+02  0.63207848190E+01  0.17974670190E+02  0.51100000000E-03 0. -1.
        -11    1    3    3    0    0  0.18425521234E+02  0.59630948202E+01 -0.18577205825E+02  0.26836000244E+02  0.51100000000E-03 0.  1.
         12    1    3    3    0    0 -0.51342170347E+01 -0.12544231532E+02  0.51262569578E+01  0.14491253903E+02  0.00000000000E+00 0. -1.
</event>
<event>
 7    1  0.3220798E-013  0.5930196E+02  0.7816164E-02  0.1266605E+00
        -11   -1    0    0    0    0  0.00000000000E+00  0.00000000000E+00  0.45593999997E+02  0.45594000000E+02  0.51100000000E-03 0. -1.
         11   -1    0    0    0    0 -0.00000000000E+00 -0.00000000000E+00 -0.45593999997E+02  0.45594000000E+02  0.51100000000E-03 0.  1.
    9900012    2    1    2    0    0 -0.33957919626E+01 -0.29922617549E+01 -0.31563181542E+02  0.59301961323E+02  0.50000031542E+02 0.  0.
         12    1    1    2    0    0  0.33957919626E+01  0.29922617549E+01  0.31563181542E+02  0.31886038677E+02  0.00000000000E+00 0. -1.
         11    1    3    3    0    0 -0.83993169025E+01 -0.16168196446E+02 -0.20549974868E+02  0.27463804690E+02  0.51100000000E-03 0. -1.
        -11    1    3    3    0    0 -0.22645783908E+01 -0.66120687062E-01  0.75632411728E+01  0.78952710234E+01  0.51100000000E-03 0.  1.
        -12    1    3    3    0    0  0.72681033307E+01  0.13242055378E+02 -0.18576447847E+02  0.23942885609E+02  0.00000000000E+00 0.  1.
</event>
<event>
 7    1  0.3220798E-013  0.5930194E+02  0.7816164E-02  0.1266605E+00
        -11   -1    0    0    0    0  0.00000000000E+00  0.00000000000E+00  0.45593999997E+02  0.45594000000E+02  0.51100000000E-03 0. -1.
         11   -1    0    0    0    0 -0.00000000000E+00 -0.00000000000E+00 -0.45593999997E+02  0.45594000000E+02  0.51100000000E-03 0.  1.
    9900012    2    1    2    0    0 -0.20406464456E+02 -0.94170420012E+01 -0.22618937701E+02  0.59301940124E+02  0.49999992881E+02 0.  0.
         12    1    1    2    0    0  0.20406464456E+02  0.94170420012E+01  0.22618937701E+02  0.31886059876E+02  0.00000000000E+00 0. -1.
         11    1    3    3    0    0 -0.25055675618E+02 -0.14884866134E+02  0.47714157128E+00  0.29147449028E+02  0.51100000000E-03 0. -1.
        -11    1    3    3    0    0 -0.42649003974E+01 -0.43409534044E+01 -0.63080257980E+01  0.87649553101E+01  0.51100000000E-03 0.  1.
         12    1    3    3    0    0  0.89141115594E+01  0.98087775372E+01 -0.16788053475E+02  0.21389535786E+02  0.00000000000E+00 0. -1.
</event>
<event>
 7    1  0.3220798E-013  0.5930195E+02  0.7816164E-02  0.1266605E+00
        -11   -1    0    0    0    0  0.00000000000E+00  0.00000000000E+00  0.45593999997E+02  0.45594000000E+02  0.51100000000E-03 0.  1.
         11   -1    0    0    0    0 -0.00000000000E+00 -0.00000000000E+00 -0.45593999997E+02  0.45594000000E+02  0.51100000000E-03 0. -1.
    9900012    2    1    2    0    0 -0.14651962890E+02  0.14502732735E+02  0.24325111760E+02  0.59301947634E+02  0.50000006578E+02 0.  0.
         12    1    1    2    0    0  0.14651962890E+02 -0.14502732735E+02 -0.24325111760E+02  0.31886052366E+02  0.00000000000E+00 0. -1.
         11    1    3    3    0    0  0.66476280201E+01  0.19182886801E+02  0.16347464335E+01  0.20367780941E+02  0.51100000000E-03 0. -1.
        -11    1    3    3    0    0  0.28140499577E+01 -0.46239281419E+01 -0.55415757231E+00  0.54412020274E+01  0.51100000000E-03 0.  1.
        -12    1    3    3    0    0 -0.24113640868E+02 -0.56225924464E-01  0.23244522899E+02  0.33492964665E+02  0.00000000000E+00 0.  1.
</event>
<event>
 7    1  0.3220798E-013  0.5930194E+02  0.7816164E-02  0.1266605E+00
        -11   -1    0    0    0    0  0.00000000000E+00  0.00000000000E+00  0.45593999997E+02  0.45594000000E+02  0.51100000000E-03 0.  1.
         11   -1    0    0    0    0 -0.00000000000E+00 -0.00000000000E+00 -0.45593999997E+02  0.45594000000E+02  0.51100000000E-03 0. -1.
    9900012    2    1    2    0    0  0.26866788716E+02  0.96698142863E+01 -0.14191227124E+02  0.59301943933E+02  0.49999999827E+02 0.  0.
         12    1    1    2    0    0 -0.26866788716E+02 -0.96698142863E+01  0.14191227124E+02  0.31886056067E+02  0.00000000000E+00 0. -1.
         11    1    3    3    0    0  0.59367813326E+01  0.72401976323E+01 -0.28431812354E+01  0.97851680693E+01  0.51100000000E-03 0. -1.
        -11    1    3    3    0    0  0.98774816044E+01  0.21378051339E+02  0.23313282937E+01  0.23664758900E+02  0.51100000000E-03 0.  1.
        -12    1    3    3    0    0  0.11052525779E+02 -0.18948434685E+02 -0.13679374182E+02  0.25852016964E+02  0.00000000000E+00 0.  1.
</event>
<event>
 7    1  0.3220798E-013  0.5930193E+02  0.7816164E-02  0.1266605E+00
        -11   -1    0    0    0    0  0.00000000000E+00  0.00000000000E+00  0.45593999997E+02  0.45594000000E+02  0.51100000000E-03 0.  1.
         11   -1    0    0    0    0 -0.00000000000E+00 -0.00000000000E+00 -0.45593999997E+02  0.45594000000E+02  0.51100000000E-03 0. -1.
    9900012    2    1    2    0    0  0.37246892076E+01 -0.25421494039E+02 -0.18883738726E+02  0.59301933182E+02  0.49999980219E+02 0.  0.
         12    1    1    2    0    0 -0.37246892076E+01  0.25421494039E+02  0.18883738726E+02  0.31886066818E+02  0.00000000000E+00 0. -1.
         11    1    3    3    0    0  0.62661389461E+01 -0.78327893260E+01 -0.37138420912E+01  0.10696247438E+02  0.51100000000E-03 0. -1.
        -11    1    3    3    0    0  0.11803302792E+02 -0.26691372989E+02 -0.98939889682E+01  0.30816202991E+02  0.51100000000E-03 0.  1.
        -12    1    3    3    0    0 -0.14344752530E+02  0.91026682757E+01 -0.52759076669E+01  0.17789482753E+02  0.00000000000E+00 0.  1.
</event>
<event>
 7    1  0.3220798E-013  0.5930187E+02  0.7816164E-02  0.1266605E+00
        -11   -1    0    0    0    0  0.00000000000E+00  0.00000000000E+00  0.45593999997E+02  0.45594000000E+02  0.51100000000E-03 0. -1.
         11   -1    0    0    0    0 -0.00000000000E+00 -0.00000000000E+00 -0.45593999997E+02  0.45594000000E+02  0.51100000000E-03 0.  1.
    9900012    2    1    2    0    0 -0.16889152398E+02 -0.16309264487E+02  0.21575217773E+02  0.59301865101E+02  0.49999856056E+02 0.  0.
         12    1    1    2    0    0  0.16889152398E+02  0.16309264487E+02 -0.21575217773E+02  0.31886134899E+02  0.00000000000E+00 0. -1.
         11    1    3    3    0    0 -0.25386923274E+01 -0.14916183234E+02 -0.11798252988E+02  0.19186877152E+02  0.51100000000E-03 0. -1.
        -11    1    3    3    0    0 -0.77400505431E+01  0.75017391077E+01  0.12692310515E+02  0.16651703171E+02  0.51100000000E-03 0.  1.
        -12    1    3    3    0    0 -0.66104095278E+01 -0.88948203614E+01  0.20681160247E+02  0.23463284778E+02  0.00000000000E+00 0.  1.
</event>
<event>
 7    1  0.3220798E-013  0.5930196E+02  0.7816164E-02  0.1266605E+00
        -11   -1    0    0    0    0  0.00000000000E+00  0.00000000000E+00  0.45593999997E+02  0.45594000000E+02  0.51100000000E-03 0.  1.
         11   -1    0    0    0    0 -0.00000000000E+00 -0.00000000000E+00 -0.45593999997E+02  0.45594000000E+02  0.51100000000E-03 0. -1.
    9900012    2    1    2    0    0  0.49281519777E+01 -0.29064182109E+00  0.31501560548E+02  0.59301961181E+02  0.50000031283E+02 0.  0.
         12    1    1    2    0    0 -0.49281519777E+01  0.29064182109E+00 -0.31501560548E+02  0.31886038819E+02  0.00000000000E+00 0. -1.
         11    1    3    3    0    0  0.18580172330E+01 -0.20426923791E+02  0.27897430133E+02  0.34626262460E+02  0.51100000000E-03 0. -1.
        -11    1    3    3    0    0  0.44925587502E+01  0.30690319376E+00  0.11246145495E+01  0.46413394446E+01  0.51100000000E-03 0.  1.
        -12    1    3    3    0    0 -0.14224240055E+01  0.19829378776E+02  0.24795158654E+01  0.20034359277E+02  0.00000000000E+00 0.  1.
</event>
<event>
 7    1  0.3220798E-013  0.5930198E+02  0.7816164E-02  0.1266605E+00
        -11   -1    0    0    0    0  0.00000000000E+00  0.00000000000E+00  0.45593999997E+02  0.45594000000E+02  0.51100000000E-03 0. -1.
         11   -1    0    0    0    0 -0.00000000000E+00 -0.00000000000E+00 -0.45593999997E+02  0.45594000000E+02  0.51100000000E-03 0.  1.
    9900012    2    1    2    0    0  0.44195788762E+01 -0.18715455476E+02 -0.25434568370E+02  0.59301980818E+02  0.50000067097E+02 0.  0.
         12    1    1    2    0    0 -0.44195788762E+01  0.18715455476E+02  0.25434568370E+02  0.31886019182E+02  0.00000000000E+00 0. -1.
         11    1    3    3    0    0 -0.46707777518E+01 -0.44662184170E+01 -0.90848496783E+01  0.11148890783E+02  0.51100000000E-03 0. -1.
        -11    1    3    3    0    0  0.84509061794E+01  0.21810451553E+00 -0.28200720798E+02  0.29440550923E+02  0.51100000000E-03 0.  1.
         12    1    3    3    0    0  0.63945044853E+00 -0.14467341574E+02  0.11851002107E+02  0.18712539113E+02  0.00000000000E+00 0. -1.
</event>
<event>
 7    1  0.3220798E-013  0.5930194E+02  0.7816164E-02  0.1266605E+00
        -11   -1    0    0    0    0  0.00000000000E+00  0.00000000000E+00  0.45593999997E+02  0.45594000000E+02  0.51100000000E-03 0. -1.
         11   -1    0    0    0    0 -0.00000000000E+00 -0.00000000000E+00 -0.45593999997E+02  0.45594000000E+02  0.51100000000E-03 0.  1.
    9900012    2    1    2    0    0 -0.14155305249E+02 -0.91105797645E+01 -0.27080353693E+02  0.59301938995E+02  0.49999990821E+02 0.  0.
         12    1    1    2    0    0  0.14155305249E+02  0.91105797645E+01  0.27080353693E+02  0.31886061005E+02  0.00000000000E+00 0. -1.
         11    1    3    3    0    0  0.84355982009E+01 -0.46005100387E+01 -0.27809673115E+02  0.29422813065E+02  0.51100000000E-03 0. -1.
        -11    1    3    3    0    0 -0.13446762539E+02  0.69481400200E+01 -0.68578111747E+00  0.15151315736E+02  0.51100000000E-03 0.  1.
        -12    1    3    3    0    0 -0.91441409109E+01 -0.11458209746E+02  0.14151005399E+01  0.14727810194E+02  0.00000000000E+00 0.  1.
</event>
<event>
 7    1  0.3220798E-013  0.5930195E+02  0.7816164E-02  0.1266605E+00
        -11   -1    0    0    0    0  0.00000000000E+00  0.00000000000E+00  0.45593999997E+02  0.45594000000E+02  0.51100000000E-03 0. -1.
         11   -1    0    0    0    0 -0.00000000000E+00 -0.00000000000E+00 -0.45593999997E+02  0.45594000000E+02  0.51100000000E-03 0.  1.
    9900012    2    1    2    0    0 -0.57900207087E+00  0.23658457978E+02 -0.21369656768E+02  0.59301951206E+02  0.50000013091E+02 0.  0.
         12    1    1    2    0    0  0.57900207087E+00 -0.23658457978E+02  0.21369656768E+02  0.31886048794E+02  0.00000000000E+00 0. -1.
         11    1    3    3    0    0  0.11316702118E+02  0.23243245603E+02 -0.32779010289E+02  0.41746613381E+02  0.51100000000E-03 0.  1.
        -11    1    3    3    0    0 -0.95178935685E+01  0.27581434013E+01  0.94027249135E+01  0.13660486414E+02  0.51100000000E-03 0. -1.
        -12    1    3    3    0    0 -0.23778106203E+01 -0.23429310264E+01  0.20066286077E+01  0.38948514105E+01  0.00000000000E+00 0.  1.
</event>
<event>
 7    1  0.3220798E-013  0.5930194E+02  0.7816164E-02  0.1266605E+00
        -11   -1    0    0    0    0  0.00000000000E+00  0.00000000000E+00  0.45593999997E+02  0.45594000000E+02  0.51100000000E-03 0.  1.
         11   -1    0    0    0    0 -0.00000000000E+00 -0.00000000000E+00 -0.45593999997E+02  0.45594000000E+02  0.51100000000E-03 0. -1.
    9900012    2    1    2    0    0  0.80694401341E+01 -0.30847052399E+02 -0.25413405778E+00  0.59301935804E+02  0.49999985002E+02 0.  0.
         12    1    1    2    0    0 -0.80694401341E+01  0.30847052399E+02  0.25413405778E+00  0.31886064196E+02  0.00000000000E+00 0. -1.
         11    1    3    3    0    0  0.60509477512E+01  0.29441827093E+01 -0.56885008441E+01  0.88114256864E+01  0.51100000000E-03 0. -1.
        -11    1    3    3    0    0  0.18041708237E+02 -0.18492488758E+02  0.10292382948E+02  0.27810223364E+02  0.51100000000E-03 0.  1.
         12    1    3    3    0    0 -0.16023215854E+02 -0.15298746350E+02 -0.48580161614E+01  0.22680286753E+02  0.00000000000E+00 0. -1.
</event>
<event>
 7    1  0.3220798E-013  0.5930196E+02  0.7816164E-02  0.1266605E+00
        -11   -1    0    0    0    0  0.00000000000E+00  0.00000000000E+00  0.45593999997E+02  0.45594000000E+02  0.51100000000E-03 0.  1.
         11   -1    0    0    0    0 -0.00000000000E+00 -0.00000000000E+00 -0.45593999997E+02  0.45594000000E+02  0.51100000000E-03 0. -1.
    9900012    2    1    2    0    0 -0.18314492506E+02  0.25498674748E+02  0.55782439328E+01  0.59301955168E+02  0.50000020318E+02 0.  0.
         12    1    1    2    0    0  0.18314492506E+02 -0.25498674748E+02 -0.55782439328E+01  0.31886044832E+02  0.00000000000E+00 0. -1.
         11    1    3    3    0    0 -0.22666236754E+02  0.13506703236E+02 -0.59407895859E+01  0.27045929492E+02  0.51100000000E-03 0. -1.
        -11    1    3    3    0    0 -0.77065040251E+01 -0.72733302913E+00  0.12499216875E+02  0.14702028444E+02  0.51100000000E-03 0.  1.
         12    1    3    3    0    0  0.12058248273E+02  0.12719304541E+02 -0.98018335666E+00  0.17553997232E+02  0.00000000000E+00 0. -1.
</event>
<event>
 7    1  0.3220798E-013  0.5930199E+02  0.7816164E-02  0.1266605E+00
        -11   -1    0    0    0    0  0.00000000000E+00  0.00000000000E+00  0.45593999997E+02  0.45594000000E+02  0.51100000000E-03 0. -1.
         11   -1    0    0    0    0 -0.00000000000E+00 -0.00000000000E+00 -0.45593999997E+02  0.45594000000E+02  0.51100000000E-03 0.  1.
    9900012    2    1    2    0    0  0.31149392678E+01  0.30606504788E+02 -0.83819368615E+01  0.59301986648E+02  0.50000077729E+02 0.  0.
         12    1    1    2    0    0 -0.31149392678E+01 -0.30606504788E+02  0.83819368615E+01  0.31886013352E+02  0.00000000000E+00 0. -1.
         11    1    3    3    0    0  0.13918528308E+02  0.35534382762E+02 -0.10375964195E+02  0.39548431344E+02  0.51100000000E-03 0. -1.
        -11    1    3    3    0    0 -0.12135845111E+02  0.22073756487E+01  0.19933801173E+01  0.12494991332E+02  0.51100000000E-03 0.  1.
        -12    1    3    3    0    0  0.13322560717E+01 -0.71352536235E+01  0.64721669949E-03  0.72585639717E+01  0.00000000000E+00 0.  1.
</event>
<event>
 7    1  0.3220798E-013  0.5930195E+02  0.7816164E-02  0.1266605E+00
        -11   -1    0    0    0    0  0.00000000000E+00  0.00000000000E+00  0.45593999997E+02  0.45594000000E+02  0.51100000000E-03 0.  1.
         11   -1    0    0    0    0 -0.00000000000E+00 -0.00000000000E+00 -0.45593999997E+02  0.45594000000E+02  0.51100000000E-03 0. -1.
    9900012    2    1    2    0    0 -0.67119672240E+01  0.52530800127E+01  0.30725799717E+02  0.59301950983E+02  0.50000012686E+02 0.  0.
         12    1    1    2    0    0  0.67119672240E+01 -0.52530800127E+01 -0.30725799717E+02  0.31886049017E+02  0.00000000000E+00 0. -1.
         11    1    3    3    0    0 -0.53276201592E+01  0.17589766000E+02  0.12734459159E+02  0.22359558467E+02  0.51100000000E-03 0. -1.
        -11    1    3    3    0    0 -0.37271595535E-01  0.71351181115E+01  0.15756174953E+02  0.17296483720E+02  0.51100000000E-03 0.  1.
        -12    1    3    3    0    0 -0.13470754693E+01 -0.19471804099E+02  0.22351656045E+01  0.19645908797E+02  0.00000000000E+00 0.  1.
</event>
<event>
 7    1  0.3220798E-013  0.5930194E+02  0.7816164E-02  0.1266605E+00
        -11   -1    0    0    0    0  0.00000000000E+00  0.00000000000E+00  0.45593999997E+02  0.45594000000E+02  0.51100000000E-03 0. -1.
         11   -1    0    0    0    0 -0.00000000000E+00 -0.00000000000E+00 -0.45593999997E+02  0.45594000000E+02  0.51100000000E-03 0.  1.
    9900012    2    1    2    0    0  0.23946809127E+02 -0.58005617440E+01 -0.20239186659E+02  0.59301939401E+02  0.49999991562E+02 0.  0.
         12    1    1    2    0    0 -0.23946809127E+02  0.58005617440E+01  0.20239186659E+02  0.31886060599E+02  0.00000000000E+00 0. -1.
         11    1    3    3    0    0  0.26198049483E+02 -0.27140496710E+01 -0.26244282739E+01  0.26468688792E+02  0.51100000000E-03 0. -1.
        -11    1    3    3    0    0 -0.15739754048E+01 -0.10895717640E+02 -0.21447500315E+02  0.24107868663E+02  0.51100000000E-03 0.  1.
         12    1    3    3    0    0 -0.67726495177E+00  0.78092055665E+01  0.38327419303E+01  0.87253819458E+01  0.00000000000E+00 0. -1.
</event>
<event>
 7    1  0.3220798E-013  0.5930195E+02  0.7816164E-02  0.1266605E+00
        -11   -1    0    0    0    0  0.00000000000E+00  0.00000000000E+00  0.45593999997E+02  0.45594000000E+02  0.51100000000E-03 0. -1.
         11   -1    0    0    0    0 -0.00000000000E+00 -0.00000000000E+00 -0.45593999997E+02  0.45594000000E+02  0.51100000000E-03 0.  1.
    9900012    2    1    2    0    0 -0.10728726469E+02 -0.29118180161E+02  0.73311717419E+01  0.59301951850E+02  0.50000014266E+02 0.  0.
         12    1    1    2    0    0  0.10728726469E+02  0.29118180161E+02 -0.73311717419E+01  0.31886048150E+02  0.00000000000E+00 0. -1.
         11    1    3    3    0    0 -0.12221964327E+02 -0.12243417602E+02  0.39265428183E+01  0.17739656856E+02  0.51100000000E-03 0.  1.
        -11    1    3    3    0    0  0.17275425103E+02 -0.72994830113E+00  0.70867266867E+01  0.18686755534E+02  0.51100000000E-03 0. -1.
         12    1    3    3    0    0 -0.15782187244E+02 -0.16144814258E+02 -0.36820977632E+01  0.22875539459E+02  0.00000000000E+00 0. -1.
</event>
<event>
 7    1  0.3220798E-013  0.5930194E+02  0.7816164E-02  0.1266605E+00
        -11   -1    0    0    0    0  0.00000000000E+00  0.00000000000E+00  0.45593999997E+02  0.45594000000E+02  0.51100000000E-03 0. -1.
         11   -1    0    0    0    0 -0.00000000000E+00 -0.00000000000E+00 -0.45593999997E+02  0.45594000000E+02  0.51100000000E-03 0.  1.
    9900012    2    1    2    0    0 -0.74711809950E+01  0.21608535986E+02 -0.22225513788E+02  0.59301939785E+02  0.49999992262E+02 0.  0.
         12    1    1    2    0    0  0.74711809950E+01 -0.21608535986E+02  0.22225513788E+02  0.31886060215E+02  0.00000000000E+00 0. -1.
         11    1    3    3    0    0 -0.28730621471E+01  0.12130689446E+01  0.42094007997E+01  0.52388049896E+01  0.51100000000E-03 0. -1.
        -11    1    3    3    0    0 -0.54724554990E+00  0.24283633119E+02  0.26566591389E+01  0.24434650666E+02  0.51100000000E-03 0.  1.
        -12    1    3    3    0    0 -0.40508732979E+01 -0.38881660776E+01 -0.29091573726E+02  0.29628484129E+02  0.00000000000E+00 0.  1.
</event>
<event>
 7    1  0.3220798E-013  0.5930194E+02  0.7816164E-02  0.1266605E+00
        -11   -1    0    0    0    0  0.00000000000E+00  0.00000000000E+00  0.45593999997E+02  0.45594000000E+02  0.51100000000E-03 0.  1.
         11   -1    0    0    0    0 -0.00000000000E+00 -0.00000000000E+00 -0.45593999997E+02  0.45594000000E+02  0.51100000000E-03 0. -1.
    9900012    2    1    2    0    0 -0.89964652036E+01 -0.43784372622E+01  0.30275631780E+02  0.59301937548E+02  0.49999988182E+02 0.  0.
         12    1    1    2    0    0  0.89964652036E+01  0.43784372622E+01 -0.30275631780E+02  0.31886062452E+02  0.00000000000E+00 0. -1.
         11    1    3    3    0    0 -0.13945617094E+02 -0.12876624220E+02  0.82249730327E+01  0.20686659206E+02  0.51100000000E-03 0. -1.
        -11    1    3    3    0    0 -0.12756763040E+02  0.26985863097E+01  0.82601392556E+01  0.15435260675E+02  0.51100000000E-03 0.  1.
         12    1    3    3    0    0  0.17705914930E+02  0.57996006481E+01  0.13790519492E+02  0.23180017667E+02  0.00000000000E+00 0. -1.
</event>
<event>
 7    1  0.3220798E-013  0.5930198E+02  0.7816164E-02  0.1266605E+00
        -11   -1    0    0    0    0  0.00000000000E+00  0.00000000000E+00  0.45593999997E+02  0.45594000000E+02  0.51100000000E-03 0. -1.
         11   -1    0    0    0    0 -0.00000000000E+00 -0.00000000000E+00 -0.45593999997E+02  0.45594000000E+02  0.51100000000E-03 0.  1.
    9900012    2    1    2    0    0 -0.24326877797E+02 -0.16288208041E+01 -0.20549168762E+02  0.59301978339E+02  0.50000062576E+02 0.  0.
         12    1    1    2    0    0  0.24326877797E+02  0.16288208041E+01  0.20549168762E+02  0.31886021661E+02  0.00000000000E+00 0. -1.
         11    1    3    3    0    0 -0.78853119173E+01  0.79492991267E+01 -0.37846809389E+01  0.11819192473E+02  0.51100000000E-03 0. -1.
        -11    1    3    3    0    0 -0.21048931361E+02  0.33664060042E+01 -0.23879620674E+02  0.32009787325E+02  0.51100000000E-03 0.  1.
         12    1    3    3    0    0  0.46073654820E+01 -0.12944525935E+02  0.71151328507E+01  0.15472998541E+02  0.00000000000E+00 0. -1.
</event>
<event>
 7    1  0.3220798E-013  0.5930195E+02  0.7816164E-02  0.1266605E+00
        -11   -1    0    0    0    0  0.00000000000E+00  0.00000000000E+00  0.45593999997E+02  0.45594000000E+02  0.51100000000E-03 0.  1.
         11   -1    0    0    0    0 -0.00000000000E+00 -0.00000000000E+00 -0.45593999997E+02  0.45594000000E+02  0.51100000000E-03 0. -1.
    9900012    2    1    2    0    0  0.26839035110E+02  0.15172945848E+02  0.81343847848E+01  0.59301948078E+02  0.50000007386E+02 0.  0.
         12    1    1    2    0    0 -0.26839035110E+02 -0.15172945848E+02 -0.81343847848E+01  0.31886051922E+02  0.00000000000E+00 0. -1.
         11    1    3    3    0    0  0.21123413681E+02  0.18550580255E+02 -0.50158952680E+01  0.28556642641E+02  0.51100000000E-03 0. -1.
        -11    1    3    3    0    0 -0.62124356004E+01  0.87724717654E+01  0.55839841696E+01  0.12113277691E+02  0.51100000000E-03 0.  1.
         12    1    3    3    0    0  0.11928057030E+02 -0.12150106172E+02  0.75662958832E+01  0.18632027745E+02  0.00000000000E+00 0. -1.
</event>
<event>
 7    1  0.3220798E-013  0.5930195E+02  0.7816164E-02  0.1266605E+00
        -11   -1    0    0    0    0  0.00000000000E+00  0.00000000000E+00  0.45593999997E+02  0.45594000000E+02  0.51100000000E-03 0.  1.
         11   -1    0    0    0    0 -0.00000000000E+00 -0.00000000000E+00 -0.45593999997E+02  0.45594000000E+02  0.51100000000E-03 0. -1.
    9900012    2    1    2    0    0  0.13596150700E+02  0.11227652847E+02  0.26566984962E+02  0.59301949880E+02  0.50000010673E+02 0.  0.
         12    1    1    2    0    0 -0.13596150700E+02 -0.11227652847E+02 -0.26566984962E+02  0.31886050120E+02  0.00000000000E+00 0. -1.
         11    1    3    3    0    0  0.43945671479E+01 -0.53761977139E+01 -0.10283268484E+02  0.12408115621E+02  0.51100000000E-03 0. -1.
        -11    1    3    3    0    0  0.15791371969E+01 -0.54397312388E+01  0.66538388157E+01  0.87383019794E+01  0.51100000000E-03 0.  1.
         12    1    3    3    0    0  0.76224463551E+01  0.22043581799E+02  0.30196414631E+02  0.38155532280E+02  0.00000000000E+00 0. -1.
</event>
<event>
 7    1  0.3220798E-013  0.5930193E+02  0.7816164E-02  0.1266605E+00
        -11   -1    0    0    0    0  0.00000000000E+00  0.00000000000E+00  0.45593999997E+02  0.45594000000E+02  0.51100000000E-03 0.  1.
         11   -1    0    0    0    0 -0.00000000000E+00 -0.00000000000E+00 -0.45593999997E+02  0.45594000000E+02  0.51100000000E-03 0. -1.
    9900012    2    1    2    0    0 -0.22297017763E+02 -0.17858824863E+02 -0.14164269051E+02  0.59301934950E+02  0.49999983444E+02 0.  0.
         12    1    1    2    0    0  0.22297017763E+02  0.17858824863E+02  0.14164269051E+02  0.31886065050E+02  0.00000000000E+00 0. -1.
         11    1    3    3    0    0 -0.92455989049E+01 -0.45532893623E+01  0.60661599006E+01  0.11958755760E+02  0.51100000000E-03 0.  1.
        -11    1    3    3    0    0 -0.19741423447E+02  0.45276816987E+01 -0.10028092423E+01  0.20278790100E+02  0.51100000000E-03 0. -1.
         12    1    3    3    0    0  0.66900045891E+01 -0.17833217200E+02 -0.19227619710E+02  0.27064389090E+02  0.00000000000E+00 0. -1.
</event>
<event>
 7    1  0.3220798E-013  0.5930196E+02  0.7816164E-02  0.1266605E+00
        -11   -1    0    0    0    0  0.00000000000E+00  0.00000000000E+00  0.45593999997E+02  0.45594000000E+02  0.51100000000E-03 0.  1.
         11   -1    0    0    0    0 -0.00000000000E+00 -0.00000000000E+00 -0.45593999997E+02  0.45594000000E+02  0.51100000000E-03 0. -1.
    9900012    2    1    2    0    0 -0.24859726956E+02  0.11098946274E+02  0.16599004801E+02  0.59301959275E+02  0.50000027808E+02 0.  0.
         12    1    1    2    0    0  0.24859726956E+02 -0.11098946274E+02 -0.16599004801E+02  0.31886040725E+02  0.00000000000E+00 0. -1.
         11    1    3    3    0    0  0.38637931433E+01 -0.94817743636E+01  0.56776828060E+01  0.11707648135E+02  0.51100000000E-03 0. -1.
        -11    1    3    3    0    0 -0.17332730644E+02  0.16649444284E+01  0.17366201503E+02  0.24592286319E+02  0.51100000000E-03 0.  1.
        -12    1    3    3    0    0 -0.11390789455E+02  0.18915776209E+02 -0.64448795079E+01  0.23002024821E+02  0.00000000000E+00 0.  1.
</event>
<event>
 7    1  0.3220798E-013  0.5930198E+02  0.7816164E-02  0.1266605E+00
        -11   -1    0    0    0    0  0.00000000000E+00  0.00000000000E+00  0.45593999997E+02  0.45594000000E+02  0.51100000000E-03 0. -1.
         11   -1    0    0    0    0 -0.00000000000E+00 -0.00000000000E+00 -0.45593999997E+02  0.45594000000E+02  0.51100000000E-03 0.  1.
    9900012    2    1    2    0    0 -0.27137092506E+02 -0.15315325809E+02  0.67629389042E+01  0.59301978973E+02  0.50000063732E+02 0.  0.
         12    1    1    2    0    0  0.27137092506E+02  0.15315325809E+02 -0.67629389042E+01  0.31886021027E+02  0.00000000000E+00 0. -1.
         11    1    3    3    0    0 -0.81182927274E+01 -0.37387593881E+01 -0.14260313518E+02  0.16829781355E+02  0.51100000000E-03 0. -1.
        -11    1    3    3    0    0 -0.13644002811E+02 -0.15288632520E+02  0.35581229571E-01  0.20491519302E+02  0.51100000000E-03 0.  1.
         12    1    3    3    0    0 -0.53747969677E+01  0.37120660992E+01  0.20987671192E+02  0.21980678316E+02  0.00000000000E+00 0. -1.
</event>
<event>
 7    1  0.3220798E-013  0.5930183E+02  0.7816164E-02  0.1266605E+00
        -11   -1    0    0    0    0  0.00000000000E+00  0.00000000000E+00  0.45593999997E+02  0.45594000000E+02  0.51100000000E-03 0.  1.
         11   -1    0    0    0    0 -0.00000000000E+00 -0.00000000000E+00 -0.45593999997E+02  0.45594000000E+02  0.51100000000E-03 0. -1.
    9900012    2    1    2    0    0 -0.19998143007E+00 -0.27207189786E+02  0.16626983373E+02  0.59301831451E+02  0.49999794687E+02 0.  0.
         12    1    1    2    0    0  0.19998143007E+00  0.27207189786E+02 -0.16626983373E+02  0.31886168549E+02  0.00000000000E+00 0. -1.
         11    1    3    3    0    0 -0.12701244957E+02 -0.12250418741E+02  0.84592166401E+00  0.17666634272E+02  0.51100000000E-03 0.  1.
        -11    1    3    3    0    0 -0.56444441511E+01  0.45336544705E+01 -0.41754224598E+01  0.83575071409E+01  0.51100000000E-03 0. -1.
         12    1    3    3    0    0  0.18145707678E+02 -0.19490425516E+02  0.19956484168E+02  0.33277690038E+02  0.00000000000E+00 0. -1.
</event>
<event>
 7    1  0.3220798E-013  0.5930206E+02  0.7816164E-02  0.1266604E+00
        -11   -1    0    0    0    0  0.00000000000E+00  0.00000000000E+00  0.45593999997E+02  0.45594000000E+02  0.51100000000E-03 0. -1.
         11   -1    0    0    0    0 -0.00000000000E+00 -0.00000000000E+00 -0.45593999997E+02  0.45594000000E+02  0.51100000000E-03 0.  1.
    9900012    2    1    2    0    0  0.17657917545E+01  0.16962529040E+02 -0.26941930955E+02  0.59302061790E+02  0.50000214770E+02 0.  0.
         12    1    1    2    0    0 -0.17657917545E+01 -0.16962529040E+02  0.26941930955E+02  0.31885938210E+02  0.00000000000E+00 0. -1.
         11    1    3    3    0    0  0.37706955238E+00  0.13925159852E+01  0.53542424752E+01  0.55451956647E+01  0.51100000000E-03 0. -1.
        -11    1    3    3    0    0  0.13393135861E+02  0.12820731941E+02  0.68332001853E+00  0.18553010057E+02  0.51100000000E-03 0.  1.
         12    1    3    3    0    0 -0.12004413658E+02  0.27492811136E+01 -0.32979493449E+02  0.35203856068E+02  0.00000000000E+00 0. -1.
</event>
<event>
 7    1  0.3220798E-013  0.5930194E+02  0.7816164E-02  0.1266605E+00
        -11   -1    0    0    0    0  0.00000000000E+00  0.00000000000E+00  0.45593999997E+02  0.45594000000E+02  0.51100000000E-03 0.  1.
         11   -1    0    0    0    0 -0.00000000000E+00 -0.00000000000E+00 -0.45593999997E+02  0.45594000000E+02  0.51100000000E-03 0. -1.
    9900012    2    1    2    0    0  0.19230290769E+01 -0.18799731003E+01  0.31772445941E+02  0.59301942533E+02  0.49999997274E+02 0.  0.
         12    1    1    2    0    0 -0.19230290769E+01  0.18799731003E+01 -0.31772445941E+02  0.31886057467E+02  0.00000000000E+00 0. -1.
         11    1    3    3    0    0  0.13296655470E+02 -0.46938111419E+01  0.23102010646E+02  0.27065398683E+02  0.51100000000E-03 0. -1.
        -11    1    3    3    0    0 -0.11110805248E+02  0.14165584287E+02  0.10337546949E+02  0.20760025256E+02  0.51100000000E-03 0.  1.
         12    1    3    3    0    0 -0.26282114436E+00 -0.11351746246E+02 -0.16671116529E+01  0.11476518594E+02  0.00000000000E+00 0. -1.
</event>
<event>
 7    1  0.3220798E-013  0.5930200E+02  0.7816164E-02  0.1266605E+00
        -11   -1    0    0    0    0  0.00000000000E+00  0.00000000000E+00  0.45593999997E+02  0.45594000000E+02  0.51100000000E-03 0.  1.
         11   -1    0    0    0    0 -0.00000000000E+00 -0.00000000000E+00 -0.45593999997E+02  0.45594000000E+02  0.51100000000E-03 0. -1.
    9900012    2    1    2    0    0 -0.20395023332E+02 -0.19551667118E+02  0.14781482482E+02  0.59302001691E+02  0.50000105163E+02 0.  0.
         12    1    1    2    0    0  0.20395023332E+02  0.19551667118E+02 -0.14781482482E+02  0.31885998309E+02  0.00000000000E+00 0. -1.
         11    1    3    3    0    0 -0.23793147739E+02 -0.25894830435E+02  0.16667234299E+02  0.38915971297E+02  0.51100000000E-03 0. -1.
        -11    1    3    3    0    0  0.36616646797E+01 -0.53032583643E+01  0.37380576666E+01  0.74501954931E+01  0.51100000000E-03 0.  1.
        -12    1    3    3    0    0 -0.26354027347E+00  0.11646421682E+02 -0.56238094832E+01  0.12935834900E+02  0.00000000000E+00 0.  1.
</event>
<event>
 7    1  0.3220798E-013  0.5930194E+02  0.7816164E-02  0.1266605E+00
        -11   -1    0    0    0    0  0.00000000000E+00  0.00000000000E+00  0.45593999997E+02  0.45594000000E+02  0.51100000000E-03 0. -1.
         11   -1    0    0    0    0 -0.00000000000E+00 -0.00000000000E+00 -0.45593999997E+02  0.45594000000E+02  0.51100000000E-03 0.  1.
    9900012    2    1    2    0    0 -0.47513231107E+01  0.28858969914E+02 -0.12700611126E+02  0.59301941310E+02  0.49999995044E+02 0.  0.
         12    1    1    2    0    0  0.47513231107E+01 -0.28858969914E+02  0.12700611126E+02  0.31886058690E+02  0.00000000000E+00 0. -1.
         11    1    3    3    0    0 -0.34856666373E+01  0.18644805771E+02  0.16486531203E+01  0.19039346405E+02  0.51100000000E-03 0. -1.
        -11    1    3    3    0    0 -0.12367076121E+02  0.10065476486E+02  0.60362912578E+01  0.17049785954E+02  0.51100000000E-03 0.  1.
         12    1    3    3    0    0  0.11101419647E+02  0.14868765645E+00 -0.20385555504E+02  0.23212808951E+02  0.00000000000E+00 0. -1.
</event>
<event>
 7    1  0.3220798E-013  0.5930196E+02  0.7816164E-02  0.1266605E+00
        -11   -1    0    0    0    0  0.00000000000E+00  0.00000000000E+00  0.45593999997E+02  0.45594000000E+02  0.51100000000E-03 0. -1.
         11   -1    0    0    0    0 -0.00000000000E+00 -0.00000000000E+00 -0.45593999997E+02  0.45594000000E+02  0.51100000000E-03 0.  1.
    9900012    2    1    2    0    0  0.24159380273E+02  0.14193442608E+02 -0.15218093457E+02  0.59301955456E+02  0.50000020842E+02 0.  0.
         12    1    1    2    0    0 -0.24159380273E+02 -0.14193442608E+02  0.15218093457E+02  0.31886044544E+02  0.00000000000E+00 0. -1.
         11    1    3    3    0    0  0.61790179057E+01  0.35792866485E+01  0.44751063856E+01  0.84272256772E+01  0.51100000000E-03 0. -1.
        -11    1    3    3    0    0  0.81632479883E+01  0.19136571715E+02 -0.28416815918E+02  0.35218779393E+02  0.51100000000E-03 0.  1.
         12    1    3    3    0    0  0.98171143785E+01 -0.85224157556E+01  0.87236160761E+01  0.15655950386E+02  0.00000000000E+00 0. -1.
</event>
<event>
 7    1  0.3220798E-013  0.5930194E+02  0.7816164E-02  0.1266605E+00
        -11   -1    0    0    0    0  0.00000000000E+00  0.00000000000E+00  0.45593999997E+02  0.45594000000E+02  0.51100000000E-03 0. -1.
         11   -1    0    0    0    0 -0.00000000000E+00 -0.00000000000E+00 -0.45593999997E+02  0.45594000000E+02  0.51100000000E-03 0.  1.
    9900012    2    1    2    0    0 -0.85047785630E+01 -0.15790329326E+02  0.26363898465E+02  0.59301938768E+02  0.49999990408E+02 0.  0.
         12    1    1    2    0    0  0.85047785630E+01  0.15790329326E+02 -0.26363898465E+02  0.31886061232E+02  0.00000000000E+00 0. -1.
         11    1    3    3    0    0 -0.32973253833E+01  0.29987635489E+01  0.20454741330E+02  0.20934693230E+02  0.51100000000E-03 0. -1.
        -11    1    3    3    0    0 -0.18780242231E+02 -0.12750899430E+02  0.10002519589E+01  0.22721871375E+02  0.51100000000E-03 0.  1.
        -12    1    3    3    0    0  0.13572789051E+02 -0.60381934446E+01  0.49089051761E+01  0.15645374164E+02  0.00000000000E+00 0.  1.
</event>
<event>
 7    1  0.3220798E-013  0.5930190E+02  0.7816164E-02  0.1266605E+00
        -11   -1    0    0    0    0  0.00000000000E+00  0.00000000000E+00  0.45593999997E+02  0.45594000000E+02  0.51100000000E-03 0. -1.
         11   -1    0    0    0    0 -0.00000000000E+00 -0.00000000000E+00 -0.45593999997E+02  0.45594000000E+02  0.51100000000E-03 0.  1.
    9900012    2    1    2    0    0 -0.15698516272E+02  0.18178511325E+02 -0.20971919023E+02  0.59301904682E+02  0.49999928243E+02 0.  0.
         12    1    1    2    0    0  0.15698516272E+02 -0.18178511325E+02  0.20971919023E+02  0.31886095318E+02  0.00000000000E+00 0. -1.
         11    1    3    3    0    0 -0.95378913600E+00  0.15587550115E+02  0.36631005878E+01  0.16040565404E+02  0.51100000000E-03 0. -1.
        -11    1    3    3    0    0 -0.15047646853E+01  0.13633566255E+02 -0.21848326110E+02  0.25797050213E+02  0.51100000000E-03 0.  1.
        -12    1    3    3    0    0 -0.13239962450E+02 -0.11042605046E+02 -0.27866935010E+01  0.17464289065E+02  0.00000000000E+00 0.  1.
</event>
<event>
 7    1  0.3220798E-013  0.5930196E+02  0.7816164E-02  0.1266605E+00
        -11   -1    0    0    0    0  0.00000000000E+00  0.00000000000E+00  0.45593999997E+02  0.45594000000E+02  0.51100000000E-03 0.  1.
         11   -1    0    0    0    0 -0.00000000000E+00 -0.00000000000E+00 -0.45593999997E+02  0.45594000000E+02  0.51100000000E-03 0. -1.
    9900012    2    1    2    0    0  0.13139413405E+02 -0.98344274563E+01  0.27337875545E+02  0.59301959365E+02  0.50000027972E+02 0.  0.
         12    1    1    2    0    0 -0.13139413405E+02  0.98344274563E+01 -0.27337875545E+02  0.31886040635E+02  0.00000000000E+00 0. -1.
         11    1    3    3    0    0  0.20302981596E+02 -0.11441112524E+02  0.11514137361E+02  0.25993950775E+02  0.51100000000E-03 0. -1.
        -11    1    3    3    0    0 -0.94455334553E+01 -0.99122257096E+01  0.11138232136E+00  0.13692433204E+02  0.51100000000E-03 0.  1.
         12    1    3    3    0    0  0.22819652650E+01  0.11518910777E+02  0.15712355863E+02  0.19615575386E+02  0.00000000000E+00 0. -1.
</event>
<event>
 7    1  0.3220798E-013  0.5930181E+02  0.7816164E-02  0.1266605E+00
        -11   -1    0    0    0    0  0.00000000000E+00  0.00000000000E+00  0.45593999997E+02  0.45594000000E+02  0.51100000000E-03 0.  1.
         11   -1    0    0    0    0 -0.00000000000E+00 -0.00000000000E+00 -0.45593999997E+02  0.45594000000E+02  0.51100000000E-03 0. -1.
    9900012    2    1    2    0    0 -0.11513006740E+02  0.21291325987E+02 -0.20757146634E+02  0.59301811408E+02  0.49999758134E+02 0.  0.
         12    1    1    2    0    0  0.11513006740E+02 -0.21291325987E+02  0.20757146634E+02  0.31886188592E+02  0.00000000000E+00 0. -1.
         11    1    3    3    0    0  0.38597165736E+01  0.11147624476E+02 -0.10945166204E+02  0.16092346223E+02  0.51100000000E-03 0. -1.
        -11    1    3    3    0    0  0.12238924003E+02  0.67166022099E+01 -0.57178416371E+01  0.15086342143E+02  0.51100000000E-03 0.  1.
         12    1    3    3    0    0 -0.27611647317E+02  0.34270993016E+01 -0.40941387933E+01  0.28123123042E+02  0.00000000000E+00 0. -1.
</event>
<event>
 7    1  0.3220798E-013  0.5930199E+02  0.7816164E-02  0.1266605E+00
        -11   -1    0    0    0    0  0.00000000000E+00  0.00000000000E+00  0.45593999997E+02  0.45594000000E+02  0.51100000000E-03 0.  1.
         11   -1    0    0    0    0 -0.00000000000E+00 -0.00000000000E+00 -0.45593999997E+02  0.45594000000E+02  0.51100000000E-03 0. -1.
    9900012    2    1    2    0    0  0.54954698926E+01 -0.78488167174E+01  0.30412389887E+02  0.59301990970E+02  0.50000085611E+02 0.  0.
         12    1    1    2    0    0 -0.54954698926E+01  0.78488167174E+01 -0.30412389887E+02  0.31886009030E+02  0.00000000000E+00 0. -1.
         11    1    3    3    0    0  0.70718971596E+01  0.10733896497E+02  0.44615343948E+01  0.13606379124E+02  0.51100000000E-03 0. -1.
        -11    1    3    3    0    0  0.11832993349E+02  0.10549493033E+01  0.21907297762E+01  0.12080229586E+02  0.51100000000E-03 0.  1.
         12    1    3    3    0    0 -0.13409420616E+02 -0.19637662518E+02  0.23760125716E+02  0.33615382260E+02  0.00000000000E+00 0. -1.
</event>
<event>
 7    1  0.3220798E-013  0.5930194E+02  0.7816164E-02  0.1266605E+00
        -11   -1    0    0    0    0  0.00000000000E+00  0.00000000000E+00  0.45593999997E+02  0.45594000000E+02  0.51100000000E-03 0. -1.
         11   -1    0    0    0    0 -0.00000000000E+00 -0.00000000000E+00 -0.45593999997E+02  0.45594000000E+02  0.51100000000E-03 0.  1.
    9900012    2    1    2    0    0 -0.92868562665E+01  0.94761541127E+01 -0.28994439399E+02  0.59301941727E+02  0.49999995805E+02 0.  0.
         12    1    1    2    0    0  0.92868562665E+01 -0.94761541127E+01  0.28994439399E+02  0.31886058273E+02  0.00000000000E+00 0. -1.
         11    1    3    3    0    0  0.86047508733E+01  0.66355097549E+01 -0.11690624609E+02  0.15960652597E+02  0.51100000000E-03 0. -1.
        -11    1    3    3    0    0  0.10910897723E+01 -0.80964268673E+01 -0.19676537775E+02  0.21305134216E+02  0.51100000000E-03 0.  1.
         12    1    3    3    0    0 -0.18982696912E+02  0.10937071225E+02  0.23727229850E+01  0.22036154914E+02  0.00000000000E+00 0. -1.
</event>
<event>
 7    1  0.3220798E-013  0.5930198E+02  0.7816164E-02  0.1266605E+00
        -11   -1    0    0    0    0  0.00000000000E+00  0.00000000000E+00  0.45593999997E+02  0.45594000000E+02  0.51100000000E-03 0.  1.
         11   -1    0    0    0    0 -0.00000000000E+00 -0.00000000000E+00 -0.45593999997E+02  0.45594000000E+02  0.51100000000E-03 0. -1.
    9900012    2    1    2    0    0  0.29205823595E+01 -0.23468879296E+02  0.21386920306E+02  0.59301977092E+02  0.50000060302E+02 0.  0.
         12    1    1    2    0    0 -0.29205823595E+01  0.23468879296E+02 -0.21386920306E+02  0.31886022908E+02  0.00000000000E+00 0. -1.
         11    1    3    3    0    0 -0.62262855234E+01 -0.45692990057E+01 -0.60891181008E+01  0.98347589869E+01  0.51100000000E-03 0. -1.
        -11    1    3    3    0    0 -0.50450570607E+01 -0.16301618145E+02 -0.14670780744E+01  0.17127395402E+02  0.51100000000E-03 0.  1.
         12    1    3    3    0    0  0.14191924944E+02 -0.25979621444E+01  0.28943116481E+02  0.32339822704E+02  0.00000000000E+00 0. -1.
</event>
<event>
 7    1  0.3220798E-013  0.5930194E+02  0.7816164E-02  0.1266605E+00
        -11   -1    0    0    0    0  0.00000000000E+00  0.00000000000E+00  0.45593999997E+02  0.45594000000E+02  0.51100000000E-03 0.  1.
         11   -1    0    0    0    0 -0.00000000000E+00 -0.00000000000E+00 -0.45593999997E+02  0.45594000000E+02  0.51100000000E-03 0. -1.
    9900012    2    1    2    0    0  0.15611481677E+02  0.15007212784E+02  0.23404834177E+02  0.59301936296E+02  0.49999985899E+02 0.  0.
         12    1    1    2    0    0 -0.15611481677E+02 -0.15007212784E+02 -0.23404834177E+02  0.31886063704E+02  0.00000000000E+00 0. -1.
         11    1    3    3    0    0 -0.65188329655E+01  0.22699149684E+02  0.20638225588E+02  0.31363720049E+02  0.51100000000E-03 0.  1.
        -11    1    3    3    0    0  0.11560399909E+02  0.36991587699E+01  0.25198616124E+01  0.12396625528E+02  0.51100000000E-03 0. -1.
        -12    1    3    3    0    0  0.10569914733E+02 -0.11391095670E+02  0.24674697673E+00  0.15541590720E+02  0.00000000000E+00 0.  1.
</event>
<event>
 7    1  0.3220798E-013  0.5930194E+02  0.7816164E-02  0.1266605E+00
        -11   -1    0    0    0    0  0.00000000000E+00  0.00000000000E+00  0.45593999997E+02  0.45594000000E+02  0.51100000000E-03 0.  1.
         11   -1    0    0    0    0 -0.00000000000E+00 -0.00000000000E+00 -0.45593999997E+02  0.45594000000E+02  0.51100000000E-03 0. -1.
    9900012    2    1    2    0    0 -0.54049107272E+00  0.29339409121E+02  0.12475096791E+02  0.59301935675E+02  0.49999984767E+02 0.  0.
         12    1    1    2    0    0  0.54049107272E+00 -0.29339409121E+02 -0.12475096791E+02  0.31886064325E+02  0.00000000000E+00 0. -1.
         11    1    3    3    0    0  0.73138682639E+01  0.20356875663E+02  0.15364878500E+02  0.26532518677E+02  0.51100000000E-03 0. -1.
        -11    1    3    3    0    0 -0.22008822809E+01 -0.91639303710E+01  0.66191901770E+01  0.11516734846E+02  0.51100000000E-03 0.  1.
         12    1    3    3    0    0 -0.56534770556E+01  0.18146463829E+02 -0.95089718863E+01  0.21252682152E+02  0.00000000000E+00 0. -1.
</event>
<event>
 7    1  0.3220798E-013  0.5930196E+02  0.7816164E-02  0.1266605E+00
        -11   -1    0    0    0    0  0.00000000000E+00  0.00000000000E+00  0.45593999997E+02  0.45594000000E+02  0.51100000000E-03 0.  1.
         11   -1    0    0    0    0 -0.00000000000E+00 -0.00000000000E+00 -0.45593999997E+02  0.45594000000E+02  0.51100000000E-03 0. -1.
    9900012    2    1    2    0    0 -0.17245731267E+01  0.31204702825E+02  0.63254729719E+01  0.59301964825E+02  0.50000037929E+02 0.  0.
         12    1    1    2    0    0  0.17245731267E+01 -0.31204702825E+02 -0.63254729719E+01  0.31886035175E+02  0.00000000000E+00 0. -1.
         11    1    3    3    0    0  0.14511696783E+02  0.22430451487E+02 -0.70445280222E+01  0.27628606059E+02  0.51100000000E-03 0. -1.
        -11    1    3    3    0    0  0.10550543704E+01  0.11199122436E+02  0.49837622952E+01  0.12303307277E+02  0.51100000000E-03 0.  1.
        -12    1    3    3    0    0 -0.17291324280E+02 -0.24248710988E+01  0.83862386988E+01  0.19370051490E+02  0.00000000000E+00 0.  1.
</event>
<event>
 7    1  0.3220798E-013  0.5930195E+02  0.7816164E-02  0.1266605E+00
        -11   -1    0    0    0    0  0.00000000000E+00  0.00000000000E+00  0.45593999997E+02  0.45594000000E+02  0.51100000000E-03 0. -1.
         11   -1    0    0    0    0 -0.00000000000E+00 -0.00000000000E+00 -0.45593999997E+02  0.45594000000E+02  0.51100000000E-03 0.  1.
    9900012    2    1    2    0    0  0.16526419189E+02  0.27259900613E+02  0.70411486555E+00  0.59301945205E+02  0.50000002148E+02 0.  0.
         12    1    1    2    0    0 -0.16526419189E+02 -0.27259900613E+02 -0.70411486555E+00  0.31886054795E+02  0.00000000000E+00 0. -1.
         11    1    3    3    0    0 -0.53525290265E+01  0.17056424962E+02  0.39459656701E+01  0.18306879712E+02  0.51100000000E-03 0. -1.
        -11    1    3    3    0    0  0.97771678063E+01  0.44520056681E+01 -0.18062244596E+02  0.21015661895E+02  0.51100000000E-03 0.  1.
         12    1    3    3    0    0  0.12101780409E+02  0.57514699833E+01  0.14820393791E+02  0.19979403599E+02  0.00000000000E+00 0. -1.
</event>
<event>
 7    1  0.3220798E-013  0.5930195E+02  0.7816164E-02  0.1266605E+00
        -11   -1    0    0    0    0  0.00000000000E+00  0.00000000000E+00  0.45593999997E+02  0.45594000000E+02  0.51100000000E-03 0.  1.
         11   -1    0    0    0    0 -0.00000000000E+00 -0.00000000000E+00 -0.45593999997E+02  0.45594000000E+02  0.51100000000E-03 0. -1.
    9900012    2    1    2    0    0 -0.26981145114E+02 -0.10317856239E+02  0.13501103633E+02  0.59301950569E+02  0.50000011929E+02 0.  0.
         12    1    1    2    0    0  0.26981145114E+02  0.10317856239E+02 -0.13501103633E+02  0.31886049431E+02  0.00000000000E+00 0. -1.
         11    1    3    3    0    0 -0.42873770502E+01 -0.19239479600E+02  0.19294339765E+02  0.27582797618E+02  0.51100000000E-03 0. -1.
        -11    1    3    3    0    0 -0.66081170937E+01 -0.49179493073E+01  0.29764095731E+01  0.87585644441E+01  0.51100000000E-03 0.  1.
         12    1    3    3    0    0 -0.16085650970E+02  0.13839572667E+02 -0.87696457055E+01  0.22960588506E+02  0.00000000000E+00 0. -1.
</event>
<event>
 7    1  0.3220798E-013  0.5930192E+02  0.7816164E-02  0.1266605E+00
        -11   -1    0    0    0    0  0.00000000000E+00  0.00000000000E+00  0.45593999997E+02  0.45594000000E+02  0.51100000000E-03 0.  1.
         11   -1    0    0    0    0 -0.00000000000E+00 -0.00000000000E+00 -0.45593999997E+02  0.45594000000E+02  0.51100000000E-03 0. -1.
    9900012    2    1    2    0    0 -0.29241564259E+02 -0.10977983448E+02  0.64137879532E+01  0.59301923465E+02  0.49999962499E+02 0.  0.
         12    1    1    2    0    0  0.29241564259E+02  0.10977983448E+02 -0.64137879532E+01  0.31886076535E+02  0.00000000000E+00 0. -1.
         11    1    3    3    0    0 -0.12779388301E+02 -0.55936357370E+01 -0.21988551491E+01  0.14122198495E+02  0.51100000000E-03 0.  1.
        -11    1    3    3    0    0 -0.18830070477E+02  0.22875438165E+01 -0.12415800749E+02  0.22670609153E+02  0.51100000000E-03 0. -1.
        -12    1    3    3    0    0  0.23678945191E+01 -0.76718915279E+01  0.21028443851E+02  0.22509115817E+02  0.00000000000E+00 0.  1.
</event>
<event>
 7    1  0.3220798E-013  0.5930197E+02  0.7816164E-02  0.1266605E+00
        -11   -1    0    0    0    0  0.00000000000E+00  0.00000000000E+00  0.45593999997E+02  0.45594000000E+02  0.51100000000E-03 0. -1.
         11   -1    0    0    0    0 -0.00000000000E+00 -0.00000000000E+00 -0.45593999997E+02  0.45594000000E+02  0.51100000000E-03 0.  1.
    9900012    2    1    2    0    0 -0.12721494154E+02 -0.29228369132E+02 -0.76460198423E+00  0.59301974976E+02  0.50000056442E+02 0.  0.
         12    1    1    2    0    0  0.12721494154E+02  0.29228369132E+02  0.76460198423E+00  0.31886025024E+02  0.00000000000E+00 0. -1.
         11    1    3    3    0    0 -0.15150559311E+02 -0.28516392529E+02 -0.10787886747E+02  0.34045595765E+02  0.51100000000E-03 0. -1.
        -11    1    3    3    0    0 -0.53321327100E+01 -0.69641006849E+01 -0.26232000111E+01  0.91548629780E+01  0.51100000000E-03 0.  1.
        -12    1    3    3    0    0  0.77611978674E+01  0.62521240814E+01  0.12646484774E+02  0.16101516233E+02  0.00000000000E+00 0.  1.
</event>
<event>
 7    1  0.3220798E-013  0.5930195E+02  0.7816164E-02  0.1266605E+00
        -11   -1    0    0    0    0  0.00000000000E+00  0.00000000000E+00  0.45593999997E+02  0.45594000000E+02  0.51100000000E-03 0.  1.
         11   -1    0    0    0    0 -0.00000000000E+00 -0.00000000000E+00 -0.45593999997E+02  0.45594000000E+02  0.51100000000E-03 0. -1.
    9900012    2    1    2    0    0 -0.21724315516E+02  0.16480456780E+02  0.16527822733E+02  0.59301948745E+02  0.50000008603E+02 0.  0.
         12    1    1    2    0    0  0.21724315516E+02 -0.16480456780E+02 -0.16527822733E+02  0.31886051255E+02  0.00000000000E+00 0. -1.
         11    1    3    3    0    0 -0.95329722216E+01 -0.21215513979E-01  0.17495273710E+02  0.19923920596E+02  0.51100000000E-03 0. -1.
        -11    1    3    3    0    0  0.35864838839E+01  0.13111824165E+02  0.12417764829E+02  0.18411509531E+02  0.51100000000E-03 0.  1.
         12    1    3    3    0    0 -0.15777827179E+02  0.33898481290E+01 -0.13385215805E+02  0.20966518618E+02  0.00000000000E+00 0. -1.
</event>
<event>
 7    1  0.3220798E-013  0.5930198E+02  0.7816164E-02  0.1266605E+00
        -11   -1    0    0    0    0  0.00000000000E+00  0.00000000000E+00  0.45593999997E+02  0.45594000000E+02  0.51100000000E-03 0. -1.
         11   -1    0    0    0    0 -0.00000000000E+00 -0.00000000000E+00 -0.45593999997E+02  0.45594000000E+02  0.51100000000E-03 0.  1.
    9900012    2    1    2    0    0  0.13497793359E+02 -0.20708854575E+02 -0.20141274143E+02  0.59301984139E+02  0.50000073153E+02 0.  0.
         12    1    1    2    0    0 -0.13497793359E+02  0.20708854575E+02  0.20141274143E+02  0.31886015861E+02  0.00000000000E+00 0. -1.
         11    1    3    3    0    0  0.30712421802E+00 -0.20332304377E+02 -0.78357219088E+01  0.21792096380E+02  0.51100000000E-03 0. -1.
        -11    1    3    3    0    0  0.13059454244E+02 -0.72077995424E+01  0.74016187107E+01  0.16651897165E+02  0.51100000000E-03 0.  1.
         12    1    3    3    0    0  0.13121489663E+00  0.68312493438E+01 -0.19707170945E+02  0.20857990594E+02  0.00000000000E+00 0. -1.
</event>
<event>
 7    1  0.3220798E-013  0.5930193E+02  0.7816164E-02  0.1266605E+00
        -11   -1    0    0    0    0  0.00000000000E+00  0.00000000000E+00  0.45593999997E+02  0.45594000000E+02  0.51100000000E-03 0.  1.
         11   -1    0    0    0    0 -0.00000000000E+00 -0.00000000000E+00 -0.45593999997E+02  0.45594000000E+02  0.51100000000E-03 0. -1.
    9900012    2    1    2    0    0  0.23176928508E+01  0.27079818363E+02  0.16674326947E+02  0.59301930285E+02  0.49999974937E+02 0.  0.
         12    1    1    2    0    0 -0.23176928508E+01 -0.27079818363E+02 -0.16674326947E+02  0.31886069715E+02  0.00000000000E+00 0. -1.
         11    1    3    3    0    0  0.51576053562E+01  0.54250071468E+01 -0.92140656286E+01  0.11871419512E+02  0.51100000000E-03 0. -1.
        -11    1    3    3    0    0 -0.39581918673E+01  0.21172836702E+02  0.26194890805E-01  0.21539660705E+02  0.51100000000E-03 0.  1.
         12    1    3    3    0    0  0.11182793619E+01  0.48197451425E+00  0.25862197685E+02  0.25890850068E+02  0.00000000000E+00 0. -1.
</event>
<event>
 7    1  0.3220798E-013  0.5930191E+02  0.7816164E-02  0.1266605E+00
        -11   -1    0    0    0    0  0.00000000000E+00  0.00000000000E+00  0.45593999997E+02  0.45594000000E+02  0.51100000000E-03 0.  1.
         11   -1    0    0    0    0 -0.00000000000E+00 -0.00000000000E+00 -0.45593999997E+02  0.45594000000E+02  0.51100000000E-03 0. -1.
    9900012    2    1    2    0    0  0.21270169351E+02  0.19866486791E+02  0.13024028815E+02  0.59301910114E+02  0.49999938149E+02 0.  0.
         12    1    1    2    0    0 -0.21270169351E+02 -0.19866486791E+02 -0.13024028815E+02  0.31886089886E+02  0.00000000000E+00 0. -1.
         11    1    3    3    0    0 -0.33845458978E+01 -0.31075438483E+01 -0.94710824415E+01  0.10526793556E+02  0.51100000000E-03 0. -1.
        -11    1    3    3    0    0 -0.14303068692E+01  0.35089375487E+01  0.14871986857E+02  0.15347130475E+02  0.51100000000E-03 0.  1.
         12    1    3    3    0    0  0.26085022118E+02  0.19465093090E+02  0.76231243995E+01  0.33427986083E+02  0.00000000000E+00 0. -1.
</event>
<event>
 7    1  0.3220798E-013  0.5930195E+02  0.7816164E-02  0.1266605E+00
        -11   -1    0    0    0    0  0.00000000000E+00  0.00000000000E+00  0.45593999997E+02  0.45594000000E+02  0.51100000000E-03 0.  1.
         11   -1    0    0    0    0 -0.00000000000E+00 -0.00000000000E+00 -0.45593999997E+02  0.45594000000E+02  0.51100000000E-03 0. -1.
    9900012    2    1    2    0    0  0.24452206828E+02 -0.68869877638E+01  0.19271208368E+02  0.59301945192E+02  0.50000002124E+02 0.  0.
         12    1    1    2    0    0 -0.24452206828E+02  0.68869877638E+01 -0.19271208368E+02  0.31886054808E+02  0.00000000000E+00 0. -1.
         11    1    3    3    0    0 -0.63551658696E+01 -0.28257873260E+01  0.19148937116E+02  0.20372898669E+02  0.51100000000E-03 0. -1.
        -11    1    3    3    0    0  0.60404982982E+01  0.38526191627E+01 -0.88839221016E+01  0.11412903499E+02  0.51100000000E-03 0.  1.
        -12    1    3    3    0    0  0.24766874400E+02 -0.79138196006E+01  0.90061933540E+01  0.27516143024E+02  0.00000000000E+00 0.  1.
</event>
<event>
 7    1  0.3220798E-013  0.5930194E+02  0.7816164E-02  0.1266605E+00
        -11   -1    0    0    0    0  0.00000000000E+00  0.00000000000E+00  0.45593999997E+02  0.45594000000E+02  0.51100000000E-03 0.  1.
         11   -1    0    0    0    0 -0.00000000000E+00 -0.00000000000E+00 -0.45593999997E+02  0.45594000000E+02  0.51100000000E-03 0. -1.
    9900012    2    1    2    0    0  0.14164874511E+02 -0.12014094014E+02  0.25917926788E+02  0.59301936369E+02  0.49999986033E+02 0.  0.
         12    1    1    2    0    0 -0.14164874511E+02  0.12014094014E+02 -0.25917926788E+02  0.31886063631E+02  0.00000000000E+00 0. -1.
         11    1    3    3    0    0 -0.25326592179E+01  0.64782818874E+01  0.10823903873E+02  0.12866211340E+02  0.51100000000E-03 0. -1.
        -11    1    3    3    0    0  0.15676091224E+02  0.78639259922E+01  0.60411744494E+01  0.18549311498E+02  0.51100000000E-03 0.  1.
        -12    1    3    3    0    0  0.10214425052E+01 -0.26356301893E+02  0.90528484649E+01  0.27886413531E+02  0.00000000000E+00 0.  1.
</event>
<event>
 7    1  0.3220798E-013  0.5930189E+02  0.7816164E-02  0.1266605E+00
        -11   -1    0    0    0    0  0.00000000000E+00  0.00000000000E+00  0.45593999997E+02  0.45594000000E+02  0.51100000000E-03 0.  1.
         11   -1    0    0    0    0 -0.00000000000E+00 -0.00000000000E+00 -0.45593999997E+02  0.45594000000E+02  0.51100000000E-03 0. -1.
    9900012    2    1    2    0    0 -0.54837142267E+01 -0.10923080617E+02  0.29450620476E+02  0.59301892393E+02  0.49999905831E+02 0.  0.
         12    1    1    2    0    0  0.54837142267E+01  0.10923080617E+02 -0.29450620476E+02  0.31886107607E+02  0.00000000000E+00 0. -1.
         11    1    3    3    0    0 -0.20140054371E+02 -0.13016431426E+02  0.34197164798E+02  0.41767156447E+02  0.51100000000E-03 0.  1.
        -11    1    3    3    0    0 -0.77213043018E+00  0.11763733094E+01 -0.18043642746E+00  0.14186603293E+01  0.51100000000E-03 0. -1.
        -12    1    3    3    0    0  0.15428470574E+02  0.91697749935E+00 -0.45661078951E+01  0.16116075618E+02  0.00000000000E+00 0.  1.
</event>
<event>
 7    1  0.3220798E-013  0.5930194E+02  0.7816164E-02  0.1266605E+00
        -11   -1    0    0    0    0  0.00000000000E+00  0.00000000000E+00  0.45593999997E+02  0.45594000000E+02  0.51100000000E-03 0.  1.
         11   -1    0    0    0    0 -0.00000000000E+00 -0.00000000000E+00 -0.45593999997E+02  0.45594000000E+02  0.51100000000E-03 0. -1.
    9900012    2    1    2    0    0  0.18542993866E+02  0.24431634648E+02  0.87162825721E+01  0.59301937606E+02  0.49999988289E+02 0.  0.
         12    1    1    2    0    0 -0.18542993866E+02 -0.24431634648E+02 -0.87162825721E+01  0.31886062394E+02  0.00000000000E+00 0. -1.
         11    1    3    3    0    0  0.12097053510E+00  0.99054587546E+01  0.13450923031E+02  0.16705091370E+02  0.51100000000E-03 0.  1.
        -11    1    3    3    0    0 -0.96124904724E+01  0.20678105483E+01 -0.66322580704E+01  0.11860129043E+02  0.51100000000E-03 0. -1.
        -12    1    3    3    0    0  0.28034513803E+02  0.12458365345E+02  0.18976176112E+01  0.30736717194E+02  0.00000000000E+00 0.  1.
</event>
<event>
 7    1  0.3220798E-013  0.5930196E+02  0.7816164E-02  0.1266605E+00
        -11   -1    0    0    0    0  0.00000000000E+00  0.00000000000E+00  0.45593999997E+02  0.45594000000E+02  0.51100000000E-03 0. -1.
         11   -1    0    0    0    0 -0.00000000000E+00 -0.00000000000E+00 -0.45593999997E+02  0.45594000000E+02  0.51100000000E-03 0.  1.
    9900012    2    1    2    0    0 -0.30094374819E+02 -0.83326460133E+01 -0.64510035172E+01  0.59301955533E+02  0.50000020984E+02 0.  0.
         12    1    1    2    0    0  0.30094374819E+02  0.83326460133E+01  0.64510035172E+01  0.31886044467E+02  0.00000000000E+00 0. -1.
         11    1    3    3    0    0 -0.30337769312E+02  0.48948662378E+00  0.12036435476E+02  0.32641930445E+02  0.51100000000E-03 0. -1.
        -11    1    3    3    0    0  0.49786037759E+00  0.31104842322E+01 -0.13261912737E+02  0.13630895306E+02  0.51100000000E-03 0.  1.
        -12    1    3    3    0    0 -0.25446588497E+00 -0.11932616869E+02 -0.52255262558E+01  0.13029129782E+02  0.00000000000E+00 0.  1.
</event>
<event>
 7    1  0.3220798E-013  0.5930190E+02  0.7816164E-02  0.1266605E+00
        -11   -1    0    0    0    0  0.00000000000E+00  0.00000000000E+00  0.45593999997E+02  0.45594000000E+02  0.51100000000E-03 0.  1.
         11   -1    0    0    0    0 -0.00000000000E+00 -0.00000000000E+00 -0.45593999997E+02  0.45594000000E+02  0.51100000000E-03 0. -1.
    9900012    2    1    2    0    0 -0.30380269110E+02 -0.50896979187E+00  0.96697387452E+01  0.59301895678E+02  0.49999911821E+02 0.  0.
         12    1    1    2    0    0  0.30380269110E+02  0.50896979187E+00 -0.96697387452E+01  0.31886104322E+02  0.00000000000E+00 0. -1.
         11    1    3    3    0    0  0.72039984851E+01 -0.11253250779E+02  0.57935932047E+01  0.14563618017E+02  0.51100000000E-03 0. -1.
        -11    1    3    3    0    0 -0.62609557019E+01  0.30773126379E+01  0.97206396957E+01  0.11964959495E+02  0.51100000000E-03 0.  1.
        -12    1    3    3    0    0 -0.31323311893E+02  0.76669683489E+01 -0.58444941551E+01  0.32773318165E+02  0.00000000000E+00 0.  1.
</event>
<event>
 7    1  0.3220798E-013  0.5930194E+02  0.7816164E-02  0.1266605E+00
        -11   -1    0    0    0    0  0.00000000000E+00  0.00000000000E+00  0.45593999997E+02  0.45594000000E+02  0.51100000000E-03 0. -1.
         11   -1    0    0    0    0 -0.00000000000E+00 -0.00000000000E+00 -0.45593999997E+02  0.45594000000E+02  0.51100000000E-03 0.  1.
    9900012    2    1    2    0    0  0.89888191256E+01  0.29925017700E+02 -0.63573168553E+01  0.59301936724E+02  0.49999986680E+02 0.  0.
         12    1    1    2    0    0 -0.89888191256E+01 -0.29925017700E+02  0.63573168553E+01  0.31886063276E+02  0.00000000000E+00 0. -1.
         11    1    3    3    0    0  0.11403547166E+02  0.27122528444E+01  0.46824101878E+01  0.12622288576E+02  0.51100000000E-03 0.  1.
        -11    1    3    3    0    0  0.84301327088E+01 -0.55012010562E+01 -0.63388297211E+01  0.11895844360E+02  0.51100000000E-03 0. -1.
        -12    1    3    3    0    0 -0.10844860749E+02  0.32713965912E+02 -0.47008973220E+01  0.34783803788E+02  0.00000000000E+00 0.  1.
</event>
<event>
 7    1  0.3220798E-013  0.5930197E+02  0.7816164E-02  0.1266605E+00
        -11   -1    0    0    0    0  0.00000000000E+00  0.00000000000E+00  0.45593999997E+02  0.45594000000E+02  0.51100000000E-03 0. -1.
         11   -1    0    0    0    0 -0.00000000000E+00 -0.00000000000E+00 -0.45593999997E+02  0.45594000000E+02  0.51100000000E-03 0.  1.
    9900012    2    1    2    0    0 -0.15637367510E+02 -0.39767473641E+01 -0.27502315123E+02  0.59301966704E+02  0.50000041357E+02 0.  0.
         12    1    1    2    0    0  0.15637367510E+02  0.39767473641E+01  0.27502315123E+02  0.31886033296E+02  0.00000000000E+00 0. -1.
         11    1    3    3    0    0  0.32772610070E+01 -0.71170295690E+01 -0.72531758587E+01  0.10677130227E+02  0.51100000000E-03 0. -1.
        -11    1    3    3    0    0 -0.71801005522E+01 -0.18182356219E+02 -0.11942769980E+02  0.22908113774E+02  0.51100000000E-03 0.  1.
         12    1    3    3    0    0 -0.11734527964E+02  0.21322638424E+02 -0.83063692843E+01  0.25716722703E+02  0.00000000000E+00 0. -1.
</event>
<event>
 7    1  0.3220798E-013  0.5930197E+02  0.7816164E-02  0.1266605E+00
        -11   -1    0    0    0    0  0.00000000000E+00  0.00000000000E+00  0.45593999997E+02  0.45594000000E+02  0.51100000000E-03 0.  1.
         11   -1    0    0    0    0 -0.00000000000E+00 -0.00000000000E+00 -0.45593999997E+02  0.45594000000E+02  0.51100000000E-03 0. -1.
    9900012    2    1    2    0    0  0.14469539575E+02 -0.26371213009E+02  0.10578788957E+02  0.59301965018E+02  0.50000038281E+02 0.  0.
         12    1    1    2    0    0 -0.14469539575E+02  0.26371213009E+02 -0.10578788957E+02  0.31886034982E+02  0.00000000000E+00 0. -1.
         11    1    3    3    0    0 -0.55597203356E+01  0.33799947214E+01 -0.93779843543E+01  0.11414089773E+02  0.51100000000E-03 0. -1.
        -11    1    3    3    0    0 -0.32005234043E+01 -0.16058987587E+02  0.97389179481E+01  0.19052059087E+02  0.51100000000E-03 0.  1.
         12    1    3    3    0    0  0.23229783315E+02 -0.13692220143E+02  0.10217855363E+02  0.28835816159E+02  0.00000000000E+00 0. -1.
</event>
<event>
 7    1  0.3220798E-013  0.5930194E+02  0.7816164E-02  0.1266605E+00
        -11   -1    0    0    0    0  0.00000000000E+00  0.00000000000E+00  0.45593999997E+02  0.45594000000E+02  0.51100000000E-03 0.  1.
         11   -1    0    0    0    0 -0.00000000000E+00 -0.00000000000E+00 -0.45593999997E+02  0.45594000000E+02  0.51100000000E-03 0. -1.
    9900012    2    1    2    0    0  0.10481236040E+01 -0.24372214040E+02  0.20533322000E+02  0.59301942033E+02  0.49999996362E+02 0.  0.
         12    1    1    2    0    0 -0.10481236040E+01  0.24372214040E+02 -0.20533322000E+02  0.31886057967E+02  0.00000000000E+00 0. -1.
         11    1    3    3    0    0 -0.28384388444E+01 -0.10721471044E+01 -0.80674775140E+01  0.86191895319E+01  0.51100000000E-03 0. -1.
        -11    1    3    3    0    0 -0.12054752556E+02  0.13506572964E+01  0.11466914568E+02  0.16692257615E+02  0.51100000000E-03 0.  1.
        -12    1    3    3    0    0  0.15941315005E+02 -0.24650724232E+02  0.17133884946E+02  0.33990494886E+02  0.00000000000E+00 0.  1.
</event>
<event>
 7    1  0.3220798E-013  0.5930194E+02  0.7816164E-02  0.1266605E+00
        -11   -1    0    0    0    0  0.00000000000E+00  0.00000000000E+00  0.45593999997E+02  0.45594000000E+02  0.51100000000E-03 0.  1.
         11   -1    0    0    0    0 -0.00000000000E+00 -0.00000000000E+00 -0.45593999997E+02  0.45594000000E+02  0.51100000000E-03 0. -1.
    9900012    2    1    2    0    0  0.17567781879E+02 -0.21340992357E+01  0.26524317835E+02  0.59301940722E+02  0.49999993971E+02 0.  0.
         12    1    1    2    0    0 -0.17567781879E+02  0.21340992357E+01 -0.26524317835E+02  0.31886059278E+02  0.00000000000E+00 0. -1.
         11    1    3    3    0    0 -0.92556242404E+01 -0.45226180476E+01 -0.36486460406E+01  0.10928553073E+02  0.51100000000E-03 0. -1.
        -11    1    3    3    0    0  0.54718489139E+01  0.11985219823E+02  0.17015226504E+02  0.21519864265E+02  0.51100000000E-03 0.  1.
         12    1    3    3    0    0  0.21351557205E+02 -0.95967010109E+01  0.13157737371E+02  0.26853523384E+02  0.00000000000E+00 0. -1.
</event>
<event>
 7    1  0.3220798E-013  0.5930194E+02  0.7816164E-02  0.1266605E+00
        -11   -1    0    0    0    0  0.00000000000E+00  0.00000000000E+00  0.45593999997E+02  0.45594000000E+02  0.51100000000E-03 0.  1.
         11   -1    0    0    0    0 -0.00000000000E+00 -0.00000000000E+00 -0.45593999997E+02  0.45594000000E+02  0.51100000000E-03 0. -1.
    9900012    2    1    2    0    0 -0.11004519444E+02 -0.13657053013E+02  0.26629054997E+02  0.59301935407E+02  0.49999984278E+02 0.  0.
         12    1    1    2    0    0  0.11004519444E+02  0.13657053013E+02 -0.26629054997E+02  0.31886064593E+02  0.00000000000E+00 0. -1.
         11    1    3    3    0    0 -0.73547331493E+00 -0.31660258747E+01 -0.10948085953E+02  0.11420386470E+02  0.51100000000E-03 0. -1.
        -11    1    3    3    0    0 -0.14673776279E+02 -0.15633717984E+02  0.34071542801E+02  0.40256712203E+02  0.51100000000E-03 0.  1.
        -12    1    3    3    0    0  0.44047301498E+01  0.51426908462E+01  0.35055981492E+01  0.76248367337E+01  0.00000000000E+00 0.  1.
</event>
<event>
 7    1  0.3220798E-013  0.5930196E+02  0.7816164E-02  0.1266605E+00
        -11   -1    0    0    0    0  0.00000000000E+00  0.00000000000E+00  0.45593999997E+02  0.45594000000E+02  0.51100000000E-03 0.  1.
         11   -1    0    0    0    0 -0.00000000000E+00 -0.00000000000E+00 -0.45593999997E+02  0.45594000000E+02  0.51100000000E-03 0. -1.
    9900012    2    1    2    0    0 -0.72758635410E+01 -0.13883521552E+02  0.27767416736E+02  0.59301956139E+02  0.50000022088E+02 0.  0.
         12    1    1    2    0    0  0.72758635410E+01  0.13883521552E+02 -0.27767416736E+02  0.31886043861E+02  0.00000000000E+00 0. -1.
         11    1    3    3    0    0  0.24114310305E+01 -0.76830128900E+01  0.15386210152E+02  0.17366034372E+02  0.51100000000E-03 0. -1.
        -11    1    3    3    0    0  0.13011749514E+02 -0.78193613233E+01  0.11705107333E+02  0.19169182947E+02  0.51100000000E-03 0.  1.
         12    1    3    3    0    0 -0.22699044085E+02  0.16188526612E+01  0.67609924968E+00  0.22766738820E+02  0.00000000000E+00 0. -1.
</event>
<event>
 7    1  0.3220798E-013  0.5930192E+02  0.7816164E-02  0.1266605E+00
        -11   -1    0    0    0    0  0.00000000000E+00  0.00000000000E+00  0.45593999997E+02  0.45594000000E+02  0.51100000000E-03 0. -1.
         11   -1    0    0    0    0 -0.00000000000E+00 -0.00000000000E+00 -0.45593999997E+02  0.45594000000E+02  0.51100000000E-03 0.  1.
    9900012    2    1    2    0    0  0.24637215563E+02 -0.11137266471E+02 -0.16902405314E+02  0.59301915252E+02  0.49999947521E+02 0.  0.
         12    1    1    2    0    0 -0.24637215563E+02  0.11137266471E+02  0.16902405314E+02  0.31886084748E+02  0.00000000000E+00 0. -1.
         11    1    3    3    0    0  0.10467021148E+02 -0.59302810912E+00  0.92408742605E+01  0.13975119728E+02  0.51100000000E-03 0. -1.
        -11    1    3    3    0    0  0.14718476428E+02 -0.20431197184E+02 -0.11579540008E+02  0.27715575292E+02  0.51100000000E-03 0.  1.
        -12    1    3    3    0    0 -0.54828201292E+00  0.98869588222E+01 -0.14563739566E+02  0.17611220232E+02  0.00000000000E+00 0.  1.
</event>
<event>
 7    1  0.3220798E-013  0.5930192E+02  0.7816164E-02  0.1266605E+00
        -11   -1    0    0    0    0  0.00000000000E+00  0.00000000000E+00  0.45593999997E+02  0.45594000000E+02  0.51100000000E-03 0.  1.
         11   -1    0    0    0    0 -0.00000000000E+00 -0.00000000000E+00 -0.45593999997E+02  0.45594000000E+02  0.51100000000E-03 0. -1.
    9900012    2    1    2    0    0  0.14073215598E+02  0.17516432852E+02  0.22623909402E+02  0.59301920063E+02  0.49999956294E+02 0.  0.
         12    1    1    2    0    0 -0.14073215598E+02 -0.17516432852E+02 -0.22623909402E+02  0.31886079937E+02  0.00000000000E+00 0. -1.
         11    1    3    3    0    0  0.15519734412E+02  0.12256561384E+02 -0.87113110195E+01  0.21609544029E+02  0.51100000000E-03 0. -1.
        -11    1    3    3    0    0  0.52659547947E+01 -0.46634042124E+01  0.46247497458E+01  0.84181903768E+01  0.51100000000E-03 0.  1.
        -12    1    3    3    0    0 -0.67124736092E+01  0.99232756799E+01  0.26710470676E+02  0.29274185657E+02  0.00000000000E+00 0.  1.
</event>
<event>
 7    1  0.3220798E-013  0.5930175E+02  0.7816164E-02  0.1266605E+00
        -11   -1    0    0    0    0  0.00000000000E+00  0.00000000000E+00  0.45593999997E+02  0.45594000000E+02  0.51100000000E-03 0.  1.
         11   -1    0    0    0    0 -0.00000000000E+00 -0.00000000000E+00 -0.45593999997E+02  0.45594000000E+02  0.51100000000E-03 0. -1.
    9900012    2    1    2    0    0  0.39559035925E+01  0.11197243917E+02  0.29592318405E+02  0.59301752915E+02  0.49999651455E+02 0.  0.
         12    1    1    2    0    0 -0.39559035925E+01 -0.11197243917E+02 -0.29592318405E+02  0.31886247085E+02  0.00000000000E+00 0. -1.
         11    1    3    3    0    0 -0.13066327855E+02 -0.25521443390E-01  0.48033733888E+01  0.13921277640E+02  0.51100000000E-03 0. -1.
        -11    1    3    3    0    0  0.90084261386E+01 -0.10966667420E+02  0.69467949161E+01  0.15801186527E+02  0.51100000000E-03 0.  1.
         12    1    3    3    0    0  0.80138053093E+01  0.22189432780E+02  0.17842150100E+02  0.29579288748E+02  0.00000000000E+00 0. -1.
</event>
<event>
 7    1  0.3220798E-013  0.5930199E+02  0.7816164E-02  0.1266605E+00
        -11   -1    0    0    0    0  0.00000000000E+00  0.00000000000E+00  0.45593999997E+02  0.45594000000E+02  0.51100000000E-03 0.  1.
         11   -1    0    0    0    0 -0.00000000000E+00 -0.00000000000E+00 -0.45593999997E+02  0.45594000000E+02  0.51100000000E-03 0. -1.
    9900012    2    1    2    0    0 -0.37762556570E+01  0.30428039848E+02  0.87516987133E+01  0.59301985101E+02  0.50000074907E+02 0.  0.
         12    1    1    2    0    0  0.37762556570E+01 -0.30428039848E+02 -0.87516987133E+01  0.31886014899E+02  0.00000000000E+00 0. -1.
         11    1    3    3    0    0  0.65075258188E+01  0.21535450047E+02 -0.87701310344E+01  0.24146194310E+02  0.51100000000E-03 0. -1.
        -11    1    3    3    0    0 -0.57961104968E+01  0.35601533015E+01 -0.69416725155E+01  0.97188685553E+01  0.51100000000E-03 0.  1.
        -12    1    3    3    0    0 -0.44876709789E+01  0.53324364994E+01  0.24463502263E+02  0.25436922236E+02  0.00000000000E+00 0.  1.
</event>
<event>
 7    1  0.3220798E-013  0.5930196E+02  0.7816164E-02  0.1266605E+00
        -11   -1    0    0    0    0  0.00000000000E+00  0.00000000000E+00  0.45593999997E+02  0.45594000000E+02  0.51100000000E-03 0. -1.
         11   -1    0    0    0    0 -0.00000000000E+00 -0.00000000000E+00 -0.45593999997E+02  0.45594000000E+02  0.51100000000E-03 0.  1.
    9900012    2    1    2    0    0  0.21574184118E+02 -0.18886088530E+02 -0.13949534430E+02  0.59301964324E+02  0.50000037015E+02 0.  0.
         12    1    1    2    0    0 -0.21574184118E+02  0.18886088530E+02  0.13949534430E+02  0.31886035676E+02  0.00000000000E+00 0. -1.
         11    1    3    3    0    0  0.94352975582E+01  0.64951270926E+01  0.77115077665E+01  0.13808651935E+02  0.51100000000E-03 0. -1.
        -11    1    3    3    0    0  0.95104062965E+01 -0.26063828091E+02 -0.44862115567E+01  0.28105107313E+02  0.51100000000E-03 0.  1.
        -12    1    3    3    0    0  0.26284802635E+01  0.68261246802E+00 -0.17174830639E+02  0.17388205076E+02  0.00000000000E+00 0.  1.
</event>
<event>
 7    1  0.3220798E-013  0.5930195E+02  0.7816164E-02  0.1266605E+00
        -11   -1    0    0    0    0  0.00000000000E+00  0.00000000000E+00  0.45593999997E+02  0.45594000000E+02  0.51100000000E-03 0. -1.
         11   -1    0    0    0    0 -0.00000000000E+00 -0.00000000000E+00 -0.45593999997E+02  0.45594000000E+02  0.51100000000E-03 0.  1.
    9900012    2    1    2    0    0 -0.32160738021E+01 -0.69606600522E+01 -0.30950388766E+02  0.59301945308E+02  0.50000002335E+02 0.  0.
         12    1    1    2    0    0  0.32160738021E+01  0.69606600522E+01  0.30950388766E+02  0.31886054692E+02  0.00000000000E+00 0. -1.
         11    1    3    3    0    0  0.20036537042E+01 -0.61142531811E+01  0.76150731445E+01  0.99693560166E+01  0.51100000000E-03 0. -1.
        -11    1    3    3    0    0 -0.12743138558E+02 -0.26854638802E+01 -0.35884711353E+01  0.13508383394E+02  0.51100000000E-03 0.  1.
        -12    1    3    3    0    0  0.75234110519E+01  0.18390570091E+01 -0.34976990775E+02  0.35824205898E+02  0.00000000000E+00 0.  1.
</event>
<event>
 7    1  0.3220798E-013  0.5930192E+02  0.7816164E-02  0.1266605E+00
        -11   -1    0    0    0    0  0.00000000000E+00  0.00000000000E+00  0.45593999997E+02  0.45594000000E+02  0.51100000000E-03 0.  1.
         11   -1    0    0    0    0 -0.00000000000E+00 -0.00000000000E+00 -0.45593999997E+02  0.45594000000E+02  0.51100000000E-03 0. -1.
    9900012    2    1    2    0    0  0.11302467167E+02 -0.27931569334E+02 -0.10430903773E+02  0.59301920231E+02  0.49999956600E+02 0.  0.
         12    1    1    2    0    0 -0.11302467167E+02  0.27931569334E+02  0.10430903773E+02  0.31886079769E+02  0.00000000000E+00 0. -1.
         11    1    3    3    0    0 -0.98770701361E+01  0.40468492287E+01 -0.41622546968E+01  0.11456782601E+02  0.51100000000E-03 0. -1.
        -11    1    3    3    0    0 -0.32014651824E+01 -0.12265608209E+02  0.61901508593E+01  0.14107178739E+02  0.51100000000E-03 0.  1.
        -12    1    3    3    0    0  0.24381002486E+02 -0.19712810354E+02 -0.12458799936E+02  0.33737958891E+02  0.00000000000E+00 0.  1.
</event>
<event>
 7    1  0.3220798E-013  0.5930201E+02  0.7816164E-02  0.1266605E+00
        -11   -1    0    0    0    0  0.00000000000E+00  0.00000000000E+00  0.45593999997E+02  0.45594000000E+02  0.51100000000E-03 0.  1.
         11   -1    0    0    0    0 -0.00000000000E+00 -0.00000000000E+00 -0.45593999997E+02  0.45594000000E+02  0.51100000000E-03 0. -1.
    9900012    2    1    2    0    0 -0.16369152705E+02  0.20759718570E+01  0.27284745024E+02  0.59302013573E+02  0.50000126833E+02 0.  0.
         12    1    1    2    0    0  0.16369152705E+02 -0.20759718570E+01 -0.27284745024E+02  0.31885986427E+02  0.00000000000E+00 0. -1.
         11    1    3    3    0    0 -0.24522250698E+00  0.16930408471E+02  0.88187216372E+01  0.19091063790E+02  0.51100000000E-03 0. -1.
        -11    1    3    3    0    0 -0.34573749290E+01  0.44442214496E+01  0.16040043413E+02  0.16999633485E+02  0.51100000000E-03 0.  1.
         12    1    3    3    0    0 -0.12666555269E+02 -0.19298658063E+02  0.24259799738E+01  0.23211316297E+02  0.00000000000E+00 0. -1.
</event>
<event>
 7    1  0.3220798E-013  0.5930193E+02  0.7816164E-02  0.1266605E+00
        -11   -1    0    0    0    0  0.00000000000E+00  0.00000000000E+00  0.45593999997E+02  0.45594000000E+02  0.51100000000E-03 0.  1.
         11   -1    0    0    0    0 -0.00000000000E+00 -0.00000000000E+00 -0.45593999997E+02  0.45594000000E+02  0.51100000000E-03 0. -1.
    9900012    2    1    2    0    0 -0.23584152611E+02  0.21285495808E+02  0.27270284260E+01  0.59301932977E+02  0.49999979846E+02 0.  0.
         12    1    1    2    0    0  0.23584152611E+02 -0.21285495808E+02 -0.27270284260E+01  0.31886067023E+02  0.00000000000E+00 0. -1.
         11    1    3    3    0    0 -0.15920130411E+02  0.10174463420E+02 -0.45775544008E+01  0.19440274245E+02  0.51100000000E-03 0. -1.
        -11    1    3    3    0    0 -0.74053859715E+01  0.18298749821E+02 -0.92589526422E+01  0.21803948970E+02  0.51100000000E-03 0.  1.
         12    1    3    3    0    0 -0.25863622819E+00 -0.71877174323E+01  0.16563535469E+02  0.18057709761E+02  0.00000000000E+00 0. -1.
</event>
<event>
 7    1  0.3220798E-013  0.5930201E+02  0.7816164E-02  0.1266605E+00
        -11   -1    0    0    0    0  0.00000000000E+00  0.00000000000E+00  0.45593999997E+02  0.45594000000E+02  0.51100000000E-03 0.  1.
         11   -1    0    0    0    0 -0.00000000000E+00 -0.00000000000E+00 -0.45593999997E+02  0.45594000000E+02  0.51100000000E-03 0. -1.
    9900012    2    1    2    0    0 -0.39394253716E+01  0.30365960535E+02  0.88941524526E+01  0.59302006534E+02  0.50000113996E+02 0.  0.
         12    1    1    2    0    0  0.39394253716E+01 -0.30365960535E+02 -0.88941524526E+01  0.31885993466E+02  0.00000000000E+00 0. -1.
         11    1    3    3    0    0 -0.28673767338E+01 -0.24118293366E+01 -0.59018316988E+01  0.69907358514E+01  0.51100000000E-03 0. -1.
        -11    1    3    3    0    0  0.10052979944E+02 -0.21209489807E+01 -0.41400506789E+01  0.11077041582E+02  0.51100000000E-03 0.  1.
         12    1    3    3    0    0 -0.11125028581E+02  0.34898738852E+02  0.18936034830E+02  0.41234229100E+02  0.00000000000E+00 0. -1.
</event>
<event>
 7    1  0.3220798E-013  0.5930194E+02  0.7816164E-02  0.1266605E+00
        -11   -1    0    0    0    0  0.00000000000E+00  0.00000000000E+00  0.45593999997E+02  0.45594000000E+02  0.51100000000E-03 0. -1.
         11   -1    0    0    0    0 -0.00000000000E+00 -0.00000000000E+00 -0.45593999997E+02  0.45594000000E+02  0.51100000000E-03 0.  1.
    9900012    2    1    2    0    0 -0.85310477830E+01  0.24435113545E+02 -0.18624370362E+02  0.59301941579E+02  0.49999995534E+02 0.  0.
         12    1    1    2    0    0  0.85310477830E+01 -0.24435113545E+02  0.18624370362E+02  0.31886058421E+02  0.00000000000E+00 0. -1.
         11    1    3    3    0    0 -0.10316256871E+02  0.62817946337E+01 -0.52960683752E+01  0.13188420684E+02  0.51100000000E-03 0. -1.
        -11    1    3    3    0    0 -0.14427443636E+02  0.13750906308E+02 -0.19815258546E+02  0.28104857688E+02  0.51100000000E-03 0.  1.
         12    1    3    3    0    0  0.16212652724E+02  0.44024126030E+01  0.64869565590E+01  0.18008663206E+02  0.00000000000E+00 0. -1.
</event>
<event>
 7    1  0.3220798E-013  0.5930197E+02  0.7816164E-02  0.1266605E+00
        -11   -1    0    0    0    0  0.00000000000E+00  0.00000000000E+00  0.45593999997E+02  0.45594000000E+02  0.51100000000E-03 0. -1.
         11   -1    0    0    0    0 -0.00000000000E+00 -0.00000000000E+00 -0.45593999997E+02  0.45594000000E+02  0.51100000000E-03 0.  1.
    9900012    2    1    2    0    0  0.27307108441E+02  0.76768450046E+01 -0.14563877412E+02  0.59301974128E+02  0.50000054896E+02 0.  0.
         12    1    1    2    0    0 -0.27307108441E+02 -0.76768450046E+01  0.14563877412E+02  0.31886025872E+02  0.00000000000E+00 0. -1.
         11    1    3    3    0    0 -0.66675224052E+01 -0.72798723971E+01  0.85321079385E+01  0.13047960119E+02  0.51100000000E-03 0.  1.
        -11    1    3    3    0    0  0.76458893950E+01  0.44949350869E+01 -0.13861020444E+02  0.16455757475E+02  0.51100000000E-03 0. -1.
        -12    1    3    3    0    0  0.26328741451E+02  0.10461782315E+02 -0.92349649071E+01  0.29798256534E+02  0.00000000000E+00 0.  1.
</event>
<event>
 7    1  0.3220798E-013  0.5930195E+02  0.7816164E-02  0.1266605E+00
        -11   -1    0    0    0    0  0.00000000000E+00  0.00000000000E+00  0.45593999997E+02  0.45594000000E+02  0.51100000000E-03 0.  1.
         11   -1    0    0    0    0 -0.00000000000E+00 -0.00000000000E+00 -0.45593999997E+02  0.45594000000E+02  0.51100000000E-03 0. -1.
    9900012    2    1    2    0    0  0.43699478827E+01 -0.19025501013E+02  0.25212183539E+02  0.59301947687E+02  0.50000006674E+02 0.  0.
         12    1    1    2    0    0 -0.43699478827E+01  0.19025501013E+02 -0.25212183539E+02  0.31886052313E+02  0.00000000000E+00 0. -1.
         11    1    3    3    0    0  0.57705321407E+01  0.10001593910E+02 -0.24104338775E+01  0.11795809157E+02  0.51100000000E-03 0. -1.
        -11    1    3    3    0    0  0.39002986594E+01  0.19647024108E+01  0.11226386305E+02  0.12045917770E+02  0.51100000000E-03 0.  1.
        -12    1    3    3    0    0 -0.53008829173E+01 -0.30991797334E+02  0.16396231112E+02  0.35460220760E+02  0.00000000000E+00 0.  1.
</event>
<event>
 7    1  0.3220798E-013  0.5930195E+02  0.7816164E-02  0.1266605E+00
        -11   -1    0    0    0    0  0.00000000000E+00  0.00000000000E+00  0.45593999997E+02  0.45594000000E+02  0.51100000000E-03 0. -1.
         11   -1    0    0    0    0 -0.00000000000E+00 -0.00000000000E+00 -0.45593999997E+02  0.45594000000E+02  0.51100000000E-03 0.  1.
    9900012    2    1    2    0    0  0.21983607225E+02 -0.97374008904E+01 -0.20943356414E+02  0.59301950690E+02  0.50000012150E+02 0.  0.
         12    1    1    2    0    0 -0.21983607225E+02  0.97374008904E+01  0.20943356414E+02  0.31886049310E+02  0.00000000000E+00 0. -1.
         11    1    3    3    0    0  0.24565473302E+00 -0.17472305633E+02  0.71995453691E+01  0.18899081041E+02  0.51100000000E-03 0. -1.
        -11    1    3    3    0    0  0.56046372908E+01 -0.56698519740E+01 -0.87311884666E+01  0.11823401916E+02  0.51100000000E-03 0.  1.
        -12    1    3    3    0    0  0.16133315201E+02  0.13404756717E+02 -0.19411713316E+02  0.28579467733E+02  0.00000000000E+00 0.  1.
</event>
<event>
 7    1  0.3220798E-013  0.5930194E+02  0.7816164E-02  0.1266605E+00
        -11   -1    0    0    0    0  0.00000000000E+00  0.00000000000E+00  0.45593999997E+02  0.45594000000E+02  0.51100000000E-03 0. -1.
         11   -1    0    0    0    0 -0.00000000000E+00 -0.00000000000E+00 -0.45593999997E+02  0.45594000000E+02  0.51100000000E-03 0.  1.
    9900012    2    1    2    0    0  0.79295805747E+01  0.18298231715E+02 -0.24880055311E+02  0.59301942165E+02  0.49999996603E+02 0.  0.
         12    1    1    2    0    0 -0.79295805747E+01 -0.18298231715E+02  0.24880055311E+02  0.31886057835E+02  0.00000000000E+00 0. -1.
         11    1    3    3    0    0  0.14845277655E+01 -0.87078587415E+01 -0.77435532616E+01  0.11747052563E+02  0.51100000000E-03 0. -1.
        -11    1    3    3    0    0  0.19248150344E+02  0.93997463902E+01 -0.13927398095E+02  0.25550321756E+02  0.51100000000E-03 0.  1.
        -12    1    3    3    0    0 -0.12803097535E+02  0.17606344067E+02 -0.32091039537E+01  0.22004567845E+02  0.00000000000E+00 0.  1.
</event>
<event>
 7    1  0.3220798E-013  0.5930196E+02  0.7816164E-02  0.1266605E+00
        -11   -1    0    0    0    0  0.00000000000E+00  0.00000000000E+00  0.45593999997E+02  0.45594000000E+02  0.51100000000E-03 0.  1.
         11   -1    0    0    0    0 -0.00000000000E+00 -0.00000000000E+00 -0.45593999997E+02  0.45594000000E+02  0.51100000000E-03 0. -1.
    9900012    2    1    2    0    0 -0.94039495011E+00 -0.22813699968E+02  0.22256918865E+02  0.59301957815E+02  0.50000025144E+02 0.  0.
         12    1    1    2    0    0  0.94039495011E+00  0.22813699968E+02 -0.22256918865E+02  0.31886042185E+02  0.00000000000E+00 0. -1.
         11    1    3    3    0    0 -0.13330844112E+02 -0.73085620424E+01  0.14694388781E+02  0.21143593492E+02  0.51100000000E-03 0. -1.
        -11    1    3    3    0    0 -0.97321327862E+01 -0.11135059466E+02  0.19173918074E+01  0.14912422657E+02  0.51100000000E-03 0.  1.
         12    1    3    3    0    0  0.22122581948E+02 -0.43700784593E+01  0.56451382767E+01  0.23245941666E+02  0.00000000000E+00 0. -1.
</event>
<event>
 7    1  0.3220798E-013  0.5930194E+02  0.7816164E-02  0.1266605E+00
        -11   -1    0    0    0    0  0.00000000000E+00  0.00000000000E+00  0.45593999997E+02  0.45594000000E+02  0.51100000000E-03 0. -1.
         11   -1    0    0    0    0 -0.00000000000E+00 -0.00000000000E+00 -0.45593999997E+02  0.45594000000E+02  0.51100000000E-03 0.  1.
    9900012    2    1    2    0    0  0.19583029230E+02 -0.13269771792E+02 -0.21380812657E+02  0.59301936788E+02  0.49999986797E+02 0.  0.
         12    1    1    2    0    0 -0.19583029230E+02  0.13269771792E+02  0.21380812657E+02  0.31886063212E+02  0.00000000000E+00 0. -1.
         11    1    3    3    0    0 -0.36330513972E+01  0.35284641727E+01 -0.39554344640E+01  0.64260862065E+01  0.51100000000E-03 0. -1.
        -11    1    3    3    0    0  0.14937529437E+01 -0.64988594326E+01 -0.26389256224E+02  0.27218730979E+02  0.51100000000E-03 0.  1.
         12    1    3    3    0    0  0.21722327684E+02 -0.10299376532E+02  0.89638780311E+01  0.25657119603E+02  0.00000000000E+00 0. -1.
</event>
<event>
 7    1  0.3220798E-013  0.5930193E+02  0.7816164E-02  0.1266605E+00
        -11   -1    0    0    0    0  0.00000000000E+00  0.00000000000E+00  0.45593999997E+02  0.45594000000E+02  0.51100000000E-03 0.  1.
         11   -1    0    0    0    0 -0.00000000000E+00 -0.00000000000E+00 -0.45593999997E+02  0.45594000000E+02  0.51100000000E-03 0. -1.
    9900012    2    1    2    0    0  0.17322701268E+01  0.59914026851E+00  0.31833340087E+02  0.59301932980E+02  0.49999979852E+02 0.  0.
         12    1    1    2    0    0 -0.17322701268E+01 -0.59914026851E+00 -0.31833340087E+02  0.31886067020E+02  0.00000000000E+00 0. -1.
         11    1    3    3    0    0  0.90830003823E+01 -0.40099628390E+01 -0.87911917492E+01  0.13261438480E+02  0.51100000000E-03 0. -1.
        -11    1    3    3    0    0  0.49519203934E+01 -0.19944662595E+01  0.35168887412E+01  0.63928020400E+01  0.51100000000E-03 0.  1.
        -12    1    3    3    0    0 -0.12302650649E+02  0.66035693670E+01  0.37107643095E+02  0.39647692461E+02  0.00000000000E+00 0.  1.
</event>
<event>
 7    1  0.3220798E-013  0.5930195E+02  0.7816164E-02  0.1266605E+00
        -11   -1    0    0    0    0  0.00000000000E+00  0.00000000000E+00  0.45593999997E+02  0.45594000000E+02  0.51100000000E-03 0.  1.
         11   -1    0    0    0    0 -0.00000000000E+00 -0.00000000000E+00 -0.45593999997E+02  0.45594000000E+02  0.51100000000E-03 0. -1.
    9900012    2    1    2    0    0 -0.13805246866E+02 -0.87044039465E+01  0.27392853482E+02  0.59301954290E+02  0.50000018716E+02 0.  0.
         12    1    1    2    0    0  0.13805246866E+02  0.87044039465E+01 -0.27392853482E+02  0.31886045710E+02  0.00000000000E+00 0. -1.
         11    1    3    3    0    0 -0.75069782200E+00  0.39785360788E+01  0.13717929108E+01  0.42748231076E+01  0.51100000000E-03 0. -1.
        -11    1    3    3    0    0 -0.26127657135E+02  0.46388361695E+01  0.11534077173E+02  0.28934550366E+02  0.51100000000E-03 0.  1.
         12    1    3    3    0    0  0.13073108091E+02 -0.17321776195E+02  0.14486983398E+02  0.26092580817E+02  0.00000000000E+00 0. -1.
</event>
<event>
 7    1  0.3220798E-013  0.5930201E+02  0.7816164E-02  0.1266605E+00
        -11   -1    0    0    0    0  0.00000000000E+00  0.00000000000E+00  0.45593999997E+02  0.45594000000E+02  0.51100000000E-03 0. -1.
         11   -1    0    0    0    0 -0.00000000000E+00 -0.00000000000E+00 -0.45593999997E+02  0.45594000000E+02  0.51100000000E-03 0.  1.
    9900012    2    1    2    0    0  0.31470179113E+02  0.94934513035E+00 -0.50441270546E+01  0.59302005468E+02  0.50000112052E+02 0.  0.
         12    1    1    2    0    0 -0.31470179113E+02 -0.94934513035E+00  0.50441270546E+01  0.31885994532E+02  0.00000000000E+00 0. -1.
         11    1    3    3    0    0  0.10287093632E+02  0.15813901510E+02  0.63712003925E+01  0.19912206584E+02  0.51100000000E-03 0. -1.
        -11    1    3    3    0    0  0.22827947521E+01  0.11897811568E+01  0.76744689655E+01  0.80947022951E+01  0.51100000000E-03 0.  1.
         12    1    3    3    0    0  0.18900290729E+02 -0.16054337537E+02 -0.19089796413E+02  0.31295096588E+02  0.00000000000E+00 0. -1.
</event>
<event>
 7    1  0.3220798E-013  0.5930196E+02  0.7816164E-02  0.1266605E+00
        -11   -1    0    0    0    0  0.00000000000E+00  0.00000000000E+00  0.45593999997E+02  0.45594000000E+02  0.51100000000E-03 0.  1.
         11   -1    0    0    0    0 -0.00000000000E+00 -0.00000000000E+00 -0.45593999997E+02  0.45594000000E+02  0.51100000000E-03 0. -1.
    9900012    2    1    2    0    0  0.11151948483E+02 -0.29784679430E+02  0.22861160626E+01  0.59301962141E+02  0.50000033034E+02 0.  0.
         12    1    1    2    0    0 -0.11151948483E+02  0.29784679430E+02 -0.22861160626E+01  0.31886037859E+02  0.00000000000E+00 0. -1.
         11    1    3    3    0    0  0.26343672312E+01  0.78419571042E+01 -0.70158817300E+01  0.10847063135E+02  0.51100000000E-03 0. -1.
        -11    1    3    3    0    0  0.27047312285E+01 -0.29512175610E+02 -0.59497369275E+01  0.30227197191E+02  0.51100000000E-03 0.  1.
         12    1    3    3    0    0  0.58128500237E+01 -0.81144609235E+01  0.15251734720E+02  0.18227701815E+02  0.00000000000E+00 0. -1.
</event>
<event>
 7    1  0.3220798E-013  0.5930195E+02  0.7816164E-02  0.1266605E+00
        -11   -1    0    0    0    0  0.00000000000E+00  0.00000000000E+00  0.45593999997E+02  0.45594000000E+02  0.51100000000E-03 0.  1.
         11   -1    0    0    0    0 -0.00000000000E+00 -0.00000000000E+00 -0.45593999997E+02  0.45594000000E+02  0.51100000000E-03 0. -1.
    9900012    2    1    2    0    0 -0.46610339621E+00  0.23397194330E+02  0.21658124880E+02  0.59301947748E+02  0.50000006784E+02 0.  0.
         12    1    1    2    0    0  0.46610339621E+00 -0.23397194330E+02 -0.21658124880E+02  0.31886052252E+02  0.00000000000E+00 0. -1.
         11    1    3    3    0    0  0.28602401714E+01 -0.49534216458E+00 -0.79542951042E+01  0.84674168767E+01  0.51100000000E-03 0. -1.
        -11    1    3    3    0    0 -0.68016757285E+01 -0.72373227869E+01  0.83609350830E+01  0.12982560208E+02  0.51100000000E-03 0.  1.
        -12    1    3    3    0    0  0.34753321609E+01  0.31129859282E+02  0.21251484901E+02  0.37851970663E+02  0.00000000000E+00 0.  1.
</event>
<event>
 7    1  0.3220798E-013  0.5930198E+02  0.7816164E-02  0.1266605E+00
        -11   -1    0    0    0    0  0.00000000000E+00  0.00000000000E+00  0.45593999997E+02  0.45594000000E+02  0.51100000000E-03 0.  1.
         11   -1    0    0    0    0 -0.00000000000E+00 -0.00000000000E+00 -0.45593999997E+02  0.45594000000E+02  0.51100000000E-03 0. -1.
    9900012    2    1    2    0    0  0.18098095307E+02 -0.49065595224E+01  0.25789589792E+02  0.59301979211E+02  0.50000064166E+02 0.  0.
         12    1    1    2    0    0 -0.18098095307E+02  0.49065595224E+01 -0.25789589792E+02  0.31886020789E+02  0.00000000000E+00 0. -1.
         11    1    3    3    0    0  0.92038767824E+01 -0.16876503636E+02  0.87818031447E+01  0.21134043378E+02  0.51100000000E-03 0. -1.
        -11    1    3    3    0    0  0.60048321566E+01 -0.42941059024E+01 -0.62282650394E+01  0.96586044744E+01  0.51100000000E-03 0.  1.
        -12    1    3    3    0    0  0.28893863677E+01  0.16264050016E+02  0.23236051687E+02  0.28509331358E+02  0.00000000000E+00 0.  1.
</event>
<event>
 7    1  0.3220798E-013  0.5930187E+02  0.7816164E-02  0.1266605E+00
        -11   -1    0    0    0    0  0.00000000000E+00  0.00000000000E+00  0.45593999997E+02  0.45594000000E+02  0.51100000000E-03 0.  1.
         11   -1    0    0    0    0 -0.00000000000E+00 -0.00000000000E+00 -0.45593999997E+02  0.45594000000E+02  0.51100000000E-03 0. -1.
    9900012    2    1    2    0    0 -0.62526245118E+01  0.87518794885E+01  0.30017236401E+02  0.59301871527E+02  0.49999867775E+02 0.  0.
         12    1    1    2    0    0  0.62526245118E+01 -0.87518794885E+01 -0.30017236401E+02  0.31886128473E+02  0.00000000000E+00 0. -1.
         11    1    3    3    0    0  0.17057751357E+02  0.80771906964E+01  0.27350605027E+01  0.19070617377E+02  0.51100000000E-03 0. -1.
        -11    1    3    3    0    0 -0.90778712374E+01  0.82859697237E+01  0.64565086937E+01  0.13883499027E+02  0.51100000000E-03 0.  1.
         12    1    3    3    0    0 -0.14232504632E+02 -0.76112809316E+01  0.20825667204E+02  0.26347755123E+02  0.00000000000E+00 0. -1.
</event>
<event>
 7    1  0.3220798E-013  0.5930197E+02  0.7816164E-02  0.1266605E+00
        -11   -1    0    0    0    0  0.00000000000E+00  0.00000000000E+00  0.45593999997E+02  0.45594000000E+02  0.51100000000E-03 0. -1.
         11   -1    0    0    0    0 -0.00000000000E+00 -0.00000000000E+00 -0.45593999997E+02  0.45594000000E+02  0.51100000000E-03 0.  1.
    9900012    2    1    2    0    0  0.20037527838E+02 -0.22056765597E+02  0.11345278076E+02  0.59301972259E+02  0.50000051487E+02 0.  0.
         12    1    1    2    0    0 -0.20037527838E+02  0.22056765597E+02 -0.11345278076E+02  0.31886027741E+02  0.00000000000E+00 0. -1.
         11    1    3    3    0    0  0.11984941914E+00 -0.12424232355E+02  0.13597179354E+02  0.18418990204E+02  0.51100000000E-03 0. -1.
        -11    1    3    3    0    0 -0.52963424084E+00  0.33698273089E+01  0.12200939177E+02  0.12668826527E+02  0.51100000000E-03 0.  1.
        -12    1    3    3    0    0  0.20447312660E+02 -0.13002360551E+02 -0.14452840455E+02  0.28214155527E+02  0.00000000000E+00 0.  1.
</event>
<event>
 7    1  0.3220798E-013  0.5930197E+02  0.7816164E-02  0.1266605E+00
        -11   -1    0    0    0    0  0.00000000000E+00  0.00000000000E+00  0.45593999997E+02  0.45594000000E+02  0.51100000000E-03 0.  1.
         11   -1    0    0    0    0 -0.00000000000E+00 -0.00000000000E+00 -0.45593999997E+02  0.45594000000E+02  0.51100000000E-03 0. -1.
    9900012    2    1    2    0    0  0.28247547368E+02 -0.99357380709E+01  0.10957933701E+02  0.59301966470E+02  0.50000040929E+02 0.  0.
         12    1    1    2    0    0 -0.28247547368E+02  0.99357380709E+01 -0.10957933701E+02  0.31886033530E+02  0.00000000000E+00 0. -1.
         11    1    3    3    0    0  0.14292877262E+02 -0.88724823679E+01  0.30368848373E+01  0.17094734674E+02  0.51100000000E-03 0. -1.
        -11    1    3    3    0    0  0.72873552150E+01 -0.13830428835E+02  0.18585258181E+02  0.24285759813E+02  0.51100000000E-03 0.  1.
         12    1    3    3    0    0  0.66673148908E+01  0.12767173132E+02 -0.10664209318E+02  0.17921471982E+02  0.00000000000E+00 0. -1.
</event>
<event>
 7    1  0.3220798E-013  0.5930194E+02  0.7816164E-02  0.1266605E+00
        -11   -1    0    0    0    0  0.00000000000E+00  0.00000000000E+00  0.45593999997E+02  0.45594000000E+02  0.51100000000E-03 0. -1.
         11   -1    0    0    0    0 -0.00000000000E+00 -0.00000000000E+00 -0.45593999997E+02  0.45594000000E+02  0.51100000000E-03 0.  1.
    9900012    2    1    2    0    0 -0.85970594861E+01 -0.26173798909E+02  0.16054395556E+02  0.59301940384E+02  0.49999993355E+02 0.  0.
         12    1    1    2    0    0  0.85970594861E+01  0.26173798909E+02 -0.16054395556E+02  0.31886059616E+02  0.00000000000E+00 0. -1.
         11    1    3    3    0    0 -0.19280764388E+01  0.93737692435E+01 -0.38827261678E+01  0.10327661465E+02  0.51100000000E-03 0. -1.
        -11    1    3    3    0    0 -0.63892061467E+01  0.23576896683E+01  0.35093607890E+01  0.76613490434E+01  0.51100000000E-03 0.  1.
         12    1    3    3    0    0 -0.27977690068E+00 -0.37905257821E+02  0.16427760935E+02  0.41312929876E+02  0.00000000000E+00 0. -1.
</event>
<event>
 7    1  0.3220798E-013  0.5930194E+02  0.7816164E-02  0.1266605E+00
        -11   -1    0    0    0    0  0.00000000000E+00  0.00000000000E+00  0.45593999997E+02  0.45594000000E+02  0.51100000000E-03 0. -1.
         11   -1    0    0    0    0 -0.00000000000E+00 -0.00000000000E+00 -0.45593999997E+02  0.45594000000E+02  0.51100000000E-03 0.  1.
    9900012    2    1    2    0    0  0.77383926823E+01  0.30909055660E+02  0.12116535219E+01  0.59301944312E+02  0.50000000518E+02 0.  0.
         12    1    1    2    0    0 -0.77383926823E+01 -0.30909055660E+02 -0.12116535219E+01  0.31886055688E+02  0.00000000000E+00 0. -1.
         11    1    3    3    0    0 -0.69040663561E+01  0.90705909253E+00 -0.97275340471E+01  0.11963018321E+02  0.51100000000E-03 0. -1.
        -11    1    3    3    0    0  0.59484344012E+00 -0.67014742634E+01  0.10004845603E+01  0.68018060571E+01  0.51100000000E-03 0.  1.
        -12    1    3    3    0    0  0.14047615598E+02  0.36703470831E+02  0.99387030087E+01  0.40537119934E+02  0.00000000000E+00 0.  1.
</event>
<event>
 7    1  0.3220798E-013  0.5930193E+02  0.7816164E-02  0.1266605E+00
        -11   -1    0    0    0    0  0.00000000000E+00  0.00000000000E+00  0.45593999997E+02  0.45594000000E+02  0.51100000000E-03 0.  1.
         11   -1    0    0    0    0 -0.00000000000E+00 -0.00000000000E+00 -0.45593999997E+02  0.45594000000E+02  0.51100000000E-03 0. -1.
    9900012    2    1    2    0    0 -0.79477103525E+01 -0.19075136675E+02  0.24283620676E+02  0.59301934514E+02  0.49999982650E+02 0.  0.
         12    1    1    2    0    0  0.79477103525E+01  0.19075136675E+02 -0.24283620676E+02  0.31886065486E+02  0.00000000000E+00 0. -1.
         11    1    3    3    0    0 -0.60071393410E+01 -0.17712461318E+00  0.19677183203E+02  0.20574465613E+02  0.51100000000E-03 0. -1.
        -11    1    3    3    0    0 -0.15799905908E+02 -0.25598331885E+01  0.63775259864E+01  0.17229701408E+02  0.51100000000E-03 0.  1.
         12    1    3    3    0    0  0.13859334896E+02 -0.16338178873E+02 -0.17710885134E+01  0.21497767493E+02  0.00000000000E+00 0. -1.
</event>
<event>
 7    1  0.3220798E-013  0.5930194E+02  0.7816164E-02  0.1266605E+00
        -11   -1    0    0    0    0  0.00000000000E+00  0.00000000000E+00  0.45593999997E+02  0.45594000000E+02  0.51100000000E-03 0.  1.
         11   -1    0    0    0    0 -0.00000000000E+00 -0.00000000000E+00 -0.45593999997E+02  0.45594000000E+02  0.51100000000E-03 0. -1.
    9900012    2    1    2    0    0 -0.78733627857E+01  0.17889563119E+02  0.25193147345E+02  0.59301937476E+02  0.49999988052E+02 0.  0.
         12    1    1    2    0    0  0.78733627857E+01 -0.17889563119E+02 -0.25193147345E+02  0.31886062524E+02  0.00000000000E+00 0. -1.
         11    1    3    3    0    0 -0.19107465723E+02  0.11437840183E+02  0.11213876282E+02  0.24933320195E+02  0.51100000000E-03 0.  1.
        -11    1    3    3    0    0 -0.59603208297E+01  0.89041063791E+01  0.13174383466E+02  0.16981546301E+02  0.51100000000E-03 0. -1.
         12    1    3    3    0    0  0.17194423767E+02 -0.24523834436E+01  0.80488759627E+00  0.17387070980E+02  0.00000000000E+00 0. -1.
</event>
<event>
 7    1  0.3220798E-013  0.5930194E+02  0.7816164E-02  0.1266605E+00
        -11   -1    0    0    0    0  0.00000000000E+00  0.00000000000E+00  0.45593999997E+02  0.45594000000E+02  0.51100000000E-03 0.  1.
         11   -1    0    0    0    0 -0.00000000000E+00 -0.00000000000E+00 -0.45593999997E+02  0.45594000000E+02  0.51100000000E-03 0. -1.
    9900012    2    1    2    0    0  0.14862302751E+02 -0.12230963024E+02  0.25421182039E+02  0.59301937279E+02  0.49999987692E+02 0.  0.
         12    1    1    2    0    0 -0.14862302751E+02  0.12230963024E+02 -0.25421182039E+02  0.31886062721E+02  0.00000000000E+00 0. -1.
         11    1    3    3    0    0  0.62587863842E+01  0.12980177500E+02  0.95865077358E+01  0.17307759698E+02  0.51100000000E-03 0. -1.
        -11    1    3    3    0    0 -0.95904658190E+01 -0.34838996489E+01  0.17663687576E+01  0.10355416469E+02  0.51100000000E-03 0.  1.
        -12    1    3    3    0    0  0.18193982186E+02 -0.21727240875E+02  0.14068305546E+02  0.31638761113E+02  0.00000000000E+00 0.  1.
</event>
<event>
 7    1  0.3220798E-013  0.5930201E+02  0.7816164E-02  0.1266605E+00
        -11   -1    0    0    0    0  0.00000000000E+00  0.00000000000E+00  0.45593999997E+02  0.45594000000E+02  0.51100000000E-03 0.  1.
         11   -1    0    0    0    0 -0.00000000000E+00 -0.00000000000E+00 -0.45593999997E+02  0.45594000000E+02  0.51100000000E-03 0. -1.
    9900012    2    1    2    0    0  0.26020191527E+02 -0.15671536904E+02  0.96989231800E+01  0.59302007043E+02  0.50000114925E+02 0.  0.
         12    1    1    2    0    0 -0.26020191527E+02  0.15671536904E+02 -0.96989231800E+01  0.31885992957E+02  0.00000000000E+00 0. -1.
         11    1    3    3    0    0  0.18407152748E+02 -0.54650125968E+01  0.18944902865E+02  0.26974042704E+02  0.51100000000E-03 0.  1.
        -11    1    3    3    0    0  0.80079637512E+01 -0.15765853611E+02  0.38482982333E+01  0.18096934079E+02  0.51100000000E-03 0. -1.
        -12    1    3    3    0    0 -0.39492497241E+00  0.55593293040E+01 -0.13094277919E+02  0.14231030260E+02  0.00000000000E+00 0.  1.
</event>
<event>
 7    1  0.3220798E-013  0.5930195E+02  0.7816164E-02  0.1266605E+00
        -11   -1    0    0    0    0  0.00000000000E+00  0.00000000000E+00  0.45593999997E+02  0.45594000000E+02  0.51100000000E-03 0.  1.
         11   -1    0    0    0    0 -0.00000000000E+00 -0.00000000000E+00 -0.45593999997E+02  0.45594000000E+02  0.51100000000E-03 0. -1.
    9900012    2    1    2    0    0 -0.73062211583E+01 -0.89884793411E+01  0.29707684189E+02  0.59301950882E+02  0.50000012500E+02 0.  0.
         12    1    1    2    0    0  0.73062211583E+01  0.89884793411E+01 -0.29707684189E+02  0.31886049118E+02  0.00000000000E+00 0. -1.
         11    1    3    3    0    0 -0.17921311106E+00 -0.38972548054E+00 -0.41924973884E+01  0.42143846410E+01  0.51100000000E-03 0. -1.
        -11    1    3    3    0    0  0.10347475607E+02  0.32894895775E+01 -0.40994219183E+01  0.11605871508E+02  0.51100000000E-03 0.  1.
        -12    1    3    3    0    0 -0.17474483655E+02 -0.11888243438E+02  0.37999603496E+02  0.43481694733E+02  0.00000000000E+00 0.  1.
</event>
<event>
 7    1  0.3220798E-013  0.5930199E+02  0.7816164E-02  0.1266605E+00
        -11   -1    0    0    0    0  0.00000000000E+00  0.00000000000E+00  0.45593999997E+02  0.45594000000E+02  0.51100000000E-03 0. -1.
         11   -1    0    0    0    0 -0.00000000000E+00 -0.00000000000E+00 -0.45593999997E+02  0.45594000000E+02  0.51100000000E-03 0.  1.
    9900012    2    1    2    0    0 -0.87125553621E+01  0.18581582210E+02 -0.24403564347E+02  0.59301987844E+02  0.50000079910E+02 0.  0.
         12    1    1    2    0    0  0.87125553621E+01 -0.18581582210E+02  0.24403564347E+02  0.31886012156E+02  0.00000000000E+00 0. -1.
         11    1    3    3    0    0 -0.18798567095E+00  0.94787133076E+01  0.34750522902E+01  0.10097392399E+02  0.51100000000E-03 0. -1.
        -11    1    3    3    0    0 -0.12244925901E+02  0.48839737834E+01 -0.36557759436E+02  0.38862079016E+02  0.51100000000E-03 0.  1.
         12    1    3    3    0    0  0.37203562100E+01  0.42188951192E+01  0.86791427985E+01  0.10342516428E+02  0.00000000000E+00 0. -1.
</event>
<event>
 7    1  0.3220798E-013  0.5930193E+02  0.7816164E-02  0.1266605E+00
        -11   -1    0    0    0    0  0.00000000000E+00  0.00000000000E+00  0.45593999997E+02  0.45594000000E+02  0.51100000000E-03 0.  1.
         11   -1    0    0    0    0 -0.00000000000E+00 -0.00000000000E+00 -0.45593999997E+02  0.45594000000E+02  0.51100000000E-03 0. -1.
    9900012    2    1    2    0    0 -0.26117272048E+02 -0.16265426672E+02 -0.83693121167E+01  0.59301931108E+02  0.49999976438E+02 0.  0.
         12    1    1    2    0    0  0.26117272048E+02  0.16265426672E+02  0.83693121167E+01  0.31886068892E+02  0.00000000000E+00 0. -1.
         11    1    3    3    0    0 -0.22099080941E+02  0.57428034876E+01 -0.10740799003E+02  0.25233191115E+02  0.51100000000E-03 0. -1.
        -11    1    3    3    0    0 -0.10243237586E+02 -0.10401418121E+02 -0.85857505789E+01  0.16936012767E+02  0.51100000000E-03 0.  1.
        -12    1    3    3    0    0  0.62250464791E+01 -0.11606812039E+02  0.10957237465E+02  0.17132727227E+02  0.00000000000E+00 0.  1.
</event>
<event>
 7    1  0.3220798E-013  0.5930195E+02  0.7816164E-02  0.1266605E+00
        -11   -1    0    0    0    0  0.00000000000E+00  0.00000000000E+00  0.45593999997E+02  0.45594000000E+02  0.51100000000E-03 0.  1.
         11   -1    0    0    0    0 -0.00000000000E+00 -0.00000000000E+00 -0.45593999997E+02  0.45594000000E+02  0.51100000000E-03 0. -1.
    9900012    2    1    2    0    0 -0.19111323263E+02  0.24458357314E+01  0.25406601655E+02  0.59301949807E+02  0.50000010539E+02 0.  0.
         12    1    1    2    0    0  0.19111323263E+02 -0.24458357314E+01 -0.25406601655E+02  0.31886050193E+02  0.00000000000E+00 0. -1.
         11    1    3    3    0    0  0.57576496061E+01  0.17215980527E+01  0.12108349038E+01  0.61302977307E+01  0.51100000000E-03 0. -1.
        -11    1    3    3    0    0 -0.58152275146E+01 -0.17345580262E+02  0.19051477063E+02  0.26412966592E+02  0.51100000000E-03 0.  1.
        -12    1    3    3    0    0 -0.19053745354E+02  0.18069817940E+02  0.51442896886E+01  0.26758685484E+02  0.00000000000E+00 0.  1.
</event>
<event>
 7    1  0.3220798E-013  0.5930195E+02  0.7816164E-02  0.1266605E+00
        -11   -1    0    0    0    0  0.00000000000E+00  0.00000000000E+00  0.45593999997E+02  0.45594000000E+02  0.51100000000E-03 0.  1.
         11   -1    0    0    0    0 -0.00000000000E+00 -0.00000000000E+00 -0.45593999997E+02  0.45594000000E+02  0.51100000000E-03 0. -1.
    9900012    2    1    2    0    0 -0.30058502840E+02  0.66400809718E+01 -0.83136109590E+01  0.59301946693E+02  0.50000004861E+02 0.  0.
         12    1    1    2    0    0  0.30058502840E+02 -0.66400809718E+01  0.83136109590E+01  0.31886053307E+02  0.00000000000E+00 0. -1.
         11    1    3    3    0    0 -0.17063332067E+02 -0.14244867186E+02 -0.83800563821E+01  0.23754976060E+02  0.51100000000E-03 0. -1.
        -11    1    3    3    0    0  0.11724762710E+01  0.66577422960E+01  0.10829170982E+02  0.12766016509E+02  0.51100000000E-03 0.  1.
        -12    1    3    3    0    0 -0.14167647044E+02  0.14227205861E+02 -0.10762725559E+02  0.22780954125E+02  0.00000000000E+00 0.  1.
</event>
<event>
 7    1  0.3220798E-013  0.5930192E+02  0.7816164E-02  0.1266605E+00
        -11   -1    0    0    0    0  0.00000000000E+00  0.00000000000E+00  0.45593999997E+02  0.45594000000E+02  0.51100000000E-03 0. -1.
         11   -1    0    0    0    0 -0.00000000000E+00 -0.00000000000E+00 -0.45593999997E+02  0.45594000000E+02  0.51100000000E-03 0.  1.
    9900012    2    1    2    0    0 -0.15388375022E+02 -0.23852553518E+02 -0.14525000903E+02  0.59301920805E+02  0.49999957648E+02 0.  0.
         12    1    1    2    0    0  0.15388375022E+02  0.23852553518E+02  0.14525000903E+02  0.31886079195E+02  0.00000000000E+00 0. -1.
         11    1    3    3    0    0 -0.17603111485E+02 -0.35205631374E+01 -0.12494041587E+02  0.21871556282E+02  0.51100000000E-03 0. -1.
        -11    1    3    3    0    0  0.10962188592E+01 -0.85410783624E+01 -0.16572284697E+02  0.18675982858E+02  0.51100000000E-03 0.  1.
         12    1    3    3    0    0  0.11185176039E+01 -0.11790912019E+02  0.14541325380E+02  0.18754381666E+02  0.00000000000E+00 0. -1.
</event>
<event>
 7    1  0.3220798E-013  0.5930193E+02  0.7816164E-02  0.1266605E+00
        -11   -1    0    0    0    0  0.00000000000E+00  0.00000000000E+00  0.45593999997E+02  0.45594000000E+02  0.51100000000E-03 0.  1.
         11   -1    0    0    0    0 -0.00000000000E+00 -0.00000000000E+00 -0.45593999997E+02  0.45594000000E+02  0.51100000000E-03 0. -1.
    9900012    2    1    2    0    0  0.29023347121E+01  0.10494159296E+02  0.29969495581E+02  0.59301927938E+02  0.49999970657E+02 0.  0.
         12    1    1    2    0    0 -0.29023347121E+01 -0.10494159296E+02 -0.29969495581E+02  0.31886072062E+02  0.00000000000E+00 0. -1.
         11    1    3    3    0    0 -0.34272299029E+01  0.42883191763E+01  0.17787183261E+02  0.18615033569E+02  0.51100000000E-03 0.  1.
        -11    1    3    3    0    0  0.12315548500E+02 -0.13466407953E+02  0.52977044496E+01  0.19002172263E+02  0.51100000000E-03 0. -1.
         12    1    3    3    0    0 -0.59859838850E+01  0.19672248073E+02  0.68846078713E+01  0.21684722107E+02  0.00000000000E+00 0. -1.
</event>
<event>
 7    1  0.3220798E-013  0.5930202E+02  0.7816164E-02  0.1266605E+00
        -11   -1    0    0    0    0  0.00000000000E+00  0.00000000000E+00  0.45593999997E+02  0.45594000000E+02  0.51100000000E-03 0.  1.
         11   -1    0    0    0    0 -0.00000000000E+00 -0.00000000000E+00 -0.45593999997E+02  0.45594000000E+02  0.51100000000E-03 0. -1.
    9900012    2    1    2    0    0 -0.13573955759E+02 -0.22875365384E+02  0.17583552170E+02  0.59302016820E+02  0.50000132756E+02 0.  0.
         12    1    1    2    0    0  0.13573955759E+02  0.22875365384E+02 -0.17583552170E+02  0.31885983180E+02  0.00000000000E+00 0. -1.
         11    1    3    3    0    0 -0.48032263288E+01  0.64514996065E+01 -0.36787468580E+01  0.88445468536E+01  0.51100000000E-03 0. -1.
        -11    1    3    3    0    0 -0.14491882673E+02 -0.21869582982E+01 -0.12857377093E+01  0.14712259233E+02  0.51100000000E-03 0.  1.
        -12    1    3    3    0    0  0.57211532432E+01 -0.27139906693E+02  0.22548036738E+02  0.35745210734E+02  0.00000000000E+00 0.  1.
</event>
<event>
 7    1  0.3220798E-013  0.5930194E+02  0.7816164E-02  0.1266605E+00
        -11   -1    0    0    0    0  0.00000000000E+00  0.00000000000E+00  0.45593999997E+02  0.45594000000E+02  0.51100000000E-03 0. -1.
         11   -1    0    0    0    0 -0.00000000000E+00 -0.00000000000E+00 -0.45593999997E+02  0.45594000000E+02  0.51100000000E-03 0.  1.
    9900012    2    1    2    0    0  0.26142902264E+02 -0.18241167429E+02  0.72759679682E+00  0.59301938389E+02  0.49999989716E+02 0.  0.
         12    1    1    2    0    0 -0.26142902264E+02  0.18241167429E+02 -0.72759679682E+00  0.31886061611E+02  0.00000000000E+00 0. -1.
         11    1    3    3    0    0  0.22983414170E+01 -0.94740601963E+01  0.69230223584E+00  0.97734063928E+01  0.51100000000E-03 0. -1.
        -11    1    3    3    0    0 -0.47853912969E+01 -0.17191536742E+02 -0.64740502859E+01  0.18983209233E+02  0.51100000000E-03 0.  1.
         12    1    3    3    0    0  0.28629952144E+02  0.84244295094E+01  0.65093448469E+01  0.30545322763E+02  0.00000000000E+00 0. -1.
</event>
<event>
 7    1  0.4268172E-013  0.5930193E+02  0.7816164E-02  0.1266605E+00
        -11   -1    0    0    0    0  0.00000000000E+00  0.00000000000E+00  0.45593999997E+02  0.45594000000E+02  0.51100000000E-03 0. -1.
         11   -1    0    0    0    0 -0.00000000000E+00 -0.00000000000E+00 -0.45593999997E+02  0.45594000000E+02  0.51100000000E-03 0.  1.
    9900012    2    1    2    0    0  0.15432472194E+02 -0.18081896178E+02 -0.21251003039E+02  0.59301932547E+02  0.49999979062E+02 0.  0.
         12    1    1    2    0    0 -0.15432472194E+02  0.18081896178E+02  0.21251003039E+02  0.31886067453E+02  0.00000000000E+00 0. -1.
         11    1    3    3    0    0 -0.50699523931E+01 -0.11235865724E+02 -0.20332055842E+02  0.23776912980E+02  0.51100000000E-03 0. -1.
        -11    1    3    3    0    0  0.78347274517E+01 -0.16447038381E+02 -0.54165792397E+01  0.19005982129E+02  0.51100000000E-03 0.  1.
         12    1    3    3    0    0  0.12667697136E+02  0.96010079264E+01  0.44976320423E+01  0.16519037439E+02  0.00000000000E+00 0. -1.
</event>
<event>
 7    1  0.3220798E-013  0.5930196E+02  0.7816164E-02  0.1266605E+00
        -11   -1    0    0    0    0  0.00000000000E+00  0.00000000000E+00  0.45593999997E+02  0.45594000000E+02  0.51100000000E-03 0.  1.
         11   -1    0    0    0    0 -0.00000000000E+00 -0.00000000000E+00 -0.45593999997E+02  0.45594000000E+02  0.51100000000E-03 0. -1.
    9900012    2    1    2    0    0 -0.31454935739E+02  0.10881968182E+01 -0.51109812043E+01  0.59301964130E+02  0.50000036662E+02 0.  0.
         12    1    1    2    0    0  0.31454935739E+02 -0.10881968182E+01  0.51109812043E+01  0.31886035870E+02  0.00000000000E+00 0. -1.
         11    1    3    3    0    0 -0.35899458382E+01 -0.59216310732E+01  0.22862346206E+01  0.72924820664E+01  0.51100000000E-03 0. -1.
        -11    1    3    3    0    0 -0.31237164467E+02 -0.10332653550E+02 -0.11954655966E+00  0.32901952297E+02  0.51100000000E-03 0.  1.
         12    1    3    3    0    0  0.33721745664E+01  0.17342481441E+02 -0.72776692652E+01  0.19107529766E+02  0.00000000000E+00 0. -1.
</event>
<event>
 7    1  0.3220798E-013  0.5930195E+02  0.7816164E-02  0.1266605E+00
        -11   -1    0    0    0    0  0.00000000000E+00  0.00000000000E+00  0.45593999997E+02  0.45594000000E+02  0.51100000000E-03 0.  1.
         11   -1    0    0    0    0 -0.00000000000E+00 -0.00000000000E+00 -0.45593999997E+02  0.45594000000E+02  0.51100000000E-03 0. -1.
    9900012    2    1    2    0    0  0.24459900984E+02  0.16635111310E+02  0.11904053801E+02  0.59301950051E+02  0.50000010986E+02 0.  0.
         12    1    1    2    0    0 -0.24459900984E+02 -0.16635111310E+02 -0.11904053801E+02  0.31886049949E+02  0.00000000000E+00 0. -1.
         11    1    3    3    0    0 -0.33804673358E+01  0.73679114154E+01  0.78973252846E+01  0.11317306435E+02  0.51100000000E-03 0.  1.
        -11    1    3    3    0    0  0.16522219139E+02  0.90039780278E+01 -0.16195570183E+02  0.24826434287E+02  0.51100000000E-03 0. -1.
         12    1    3    3    0    0  0.11318149181E+02  0.26322186659E+00  0.20202298699E+02  0.23158209329E+02  0.00000000000E+00 0. -1.
</event>
<event>
 7    1  0.3220798E-013  0.5930195E+02  0.7816164E-02  0.1266605E+00
        -11   -1    0    0    0    0  0.00000000000E+00  0.00000000000E+00  0.45593999997E+02  0.45594000000E+02  0.51100000000E-03 0.  1.
         11   -1    0    0    0    0 -0.00000000000E+00 -0.00000000000E+00 -0.45593999997E+02  0.45594000000E+02  0.51100000000E-03 0. -1.
    9900012    2    1    2    0    0 -0.62631746482E+00  0.14900736643E+02  0.28183257992E+02  0.59301948863E+02  0.50000008818E+02 0.  0.
         12    1    1    2    0    0  0.62631746482E+00 -0.14900736643E+02 -0.28183257992E+02  0.31886051137E+02  0.00000000000E+00 0. -1.
         11    1    3    3    0    0 -0.97661232315E+01  0.57792305396E+01  0.89476022514E+01  0.14451167943E+02  0.51100000000E-03 0. -1.
        -11    1    3    3    0    0 -0.40878166797E+01 -0.86699911447E+01 -0.59621713411E+01  0.11288333757E+02  0.51100000000E-03 0.  1.
         12    1    3    3    0    0  0.13227622446E+02  0.17791497248E+02  0.25197827082E+02  0.33562447163E+02  0.00000000000E+00 0. -1.
</event>
<event>
 7    1  0.3220798E-013  0.5930195E+02  0.7816164E-02  0.1266605E+00
        -11   -1    0    0    0    0  0.00000000000E+00  0.00000000000E+00  0.45593999997E+02  0.45594000000E+02  0.51100000000E-03 0.  1.
         11   -1    0    0    0    0 -0.00000000000E+00 -0.00000000000E+00 -0.45593999997E+02  0.45594000000E+02  0.51100000000E-03 0. -1.
    9900012    2    1    2    0    0 -0.24898492274E+02  0.38848975661E+01  0.19536961159E+02  0.59301949791E+02  0.50000010511E+02 0.  0.
         12    1    1    2    0    0  0.24898492274E+02 -0.38848975661E+01 -0.19536961159E+02  0.31886050209E+02  0.00000000000E+00 0. -1.
         11    1    3    3    0    0 -0.15477380690E+02 -0.10427340839E+02  0.36491995502E+01  0.19015662166E+02  0.51100000000E-03 0. -1.
        -11    1    3    3    0    0  0.12167206485E+02  0.60119518123E+01  0.84666560987E+01  0.15995897724E+02  0.51100000000E-03 0.  1.
         12    1    3    3    0    0 -0.21588318068E+02  0.83002865928E+01  0.74211055096E+01  0.24290389901E+02  0.00000000000E+00 0. -1.
</event>
<event>
 7    1  0.3220798E-013  0.5930196E+02  0.7816164E-02  0.1266605E+00
        -11   -1    0    0    0    0  0.00000000000E+00  0.00000000000E+00  0.45593999997E+02  0.45594000000E+02  0.51100000000E-03 0. -1.
         11   -1    0    0    0    0 -0.00000000000E+00 -0.00000000000E+00 -0.45593999997E+02  0.45594000000E+02  0.51100000000E-03 0.  1.
    9900012    2    1    2    0    0 -0.28526370977E+02 -0.43764382821E+01  0.13557753006E+02  0.59301957290E+02  0.50000024187E+02 0.  0.
         12    1    1    2    0    0  0.28526370977E+02  0.43764382821E+01 -0.13557753006E+02  0.31886042710E+02  0.00000000000E+00 0. -1.
         11    1    3    3    0    0  0.66722685188E+01 -0.72333274063E+01  0.16852708035E+02  0.19515480033E+02  0.51100000000E-03 0. -1.
        -11    1    3    3    0    0 -0.66151588578E+01 -0.42831554758E+01  0.48068854427E+01  0.92310289493E+01  0.51100000000E-03 0.  1.
         12    1    3    3    0    0 -0.28583480638E+02  0.71400446000E+01 -0.81018404716E+01  0.30555448308E+02  0.00000000000E+00 0. -1.
</event>
<event>
 7    1  0.3220798E-013  0.5930173E+02  0.7816164E-02  0.1266605E+00
        -11   -1    0    0    0    0  0.00000000000E+00  0.00000000000E+00  0.45593999997E+02  0.45594000000E+02  0.51100000000E-03 0. -1.
         11   -1    0    0    0    0 -0.00000000000E+00 -0.00000000000E+00 -0.45593999997E+02  0.45594000000E+02  0.51100000000E-03 0.  1.
    9900012    2    1    2    0    0 -0.11293740215E+02  0.24058631501E+02 -0.17617254384E+02  0.59301733838E+02  0.49999616663E+02 0.  0.
         12    1    1    2    0    0  0.11293740215E+02 -0.24058631501E+02  0.17617254384E+02  0.31886266162E+02  0.00000000000E+00 0. -1.
         11    1    3    3    0    0 -0.18836089692E+02  0.23115336746E+02 -0.57834144693E+00  0.29823674268E+02  0.51100000000E-03 0. -1.
        -11    1    3    3    0    0 -0.53850570928E+01  0.60233846749E+01 -0.12465169133E+02  0.14854643874E+02  0.51100000000E-03 0.  1.
         12    1    3    3    0    0  0.12927406571E+02 -0.50800899196E+01 -0.45737438038E+01  0.14623415696E+02  0.00000000000E+00 0. -1.
</event>
<event>
 7    1  0.3220798E-013  0.5930194E+02  0.7816164E-02  0.1266605E+00
        -11   -1    0    0    0    0  0.00000000000E+00  0.00000000000E+00  0.45593999997E+02  0.45594000000E+02  0.51100000000E-03 0. -1.
         11   -1    0    0    0    0 -0.00000000000E+00 -0.00000000000E+00 -0.45593999997E+02  0.45594000000E+02  0.51100000000E-03 0.  1.
    9900012    2    1    2    0    0  0.25480086832E+02  0.90539473093E+01  0.16897108413E+02  0.59301936280E+02  0.49999985870E+02 0.  0.
         12    1    1    2    0    0 -0.25480086832E+02 -0.90539473093E+01 -0.16897108413E+02  0.31886063720E+02  0.00000000000E+00 0. -1.
         11    1    3    3    0    0 -0.74351537366E+01 -0.11530328308E+00  0.20944969694E+01  0.77253947310E+01  0.51100000000E-03 0. -1.
        -11    1    3    3    0    0  0.18653685341E+01 -0.10287629491E+02  0.10268677897E+02  0.14654714815E+02  0.51100000000E-03 0.  1.
         12    1    3    3    0    0  0.31049872035E+02  0.19456880083E+02  0.45339335464E+01  0.36921826733E+02  0.00000000000E+00 0. -1.
</event>
<event>
 7    1  0.3220798E-013  0.5930194E+02  0.7816164E-02  0.1266605E+00
        -11   -1    0    0    0    0  0.00000000000E+00  0.00000000000E+00  0.45593999997E+02  0.45594000000E+02  0.51100000000E-03 0. -1.
         11   -1    0    0    0    0 -0.00000000000E+00 -0.00000000000E+00 -0.45593999997E+02  0.45594000000E+02  0.51100000000E-03 0.  1.
    9900012    2    1    2    0    0 -0.26214195602E+02  0.67199400407E+01 -0.16863543400E+02  0.59301941272E+02  0.49999994974E+02 0.  0.
         12    1    1    2    0    0  0.26214195602E+02 -0.67199400407E+01  0.16863543400E+02  0.31886058728E+02  0.00000000000E+00 0. -1.
         11    1    3    3    0    0 -0.13192709167E+02  0.14422766821E+02 -0.13311356632E+02  0.23648593903E+02  0.51100000000E-03 0. -1.
        -11    1    3    3    0    0 -0.10711843482E+02  0.10995054670E+02  0.31246952391E+01  0.15665201517E+02  0.51100000000E-03 0.  1.
         12    1    3    3    0    0 -0.23096429540E+01 -0.18697881450E+02 -0.66768820063E+01  0.19988145852E+02  0.00000000000E+00 0. -1.
</event>
<event>
 7    1  0.3220798E-013  0.5930197E+02  0.7816164E-02  0.1266605E+00
        -11   -1    0    0    0    0  0.00000000000E+00  0.00000000000E+00  0.45593999997E+02  0.45594000000E+02  0.51100000000E-03 0.  1.
         11   -1    0    0    0    0 -0.00000000000E+00 -0.00000000000E+00 -0.45593999997E+02  0.45594000000E+02  0.51100000000E-03 0. -1.
    9900012    2    1    2    0    0  0.22197570874E+02  0.25380102596E+01  0.22749615210E+02  0.59301974205E+02  0.50000055037E+02 0.  0.
         12    1    1    2    0    0 -0.22197570874E+02 -0.25380102596E+01 -0.22749615210E+02  0.31886025795E+02  0.00000000000E+00 0. -1.
         11    1    3    3    0    0 -0.13095519186E+01  0.18980415210E+01 -0.27335988109E+01  0.35763180176E+01  0.51100000000E-03 0. -1.
        -11    1    3    3    0    0  0.19276257135E+02 -0.13310709943E+02 -0.31096563476E+01  0.23630891883E+02  0.51100000000E-03 0.  1.
        -12    1    3    3    0    0  0.42308656580E+01  0.13950678682E+02  0.28592870368E+02  0.32094764305E+02  0.00000000000E+00 0.  1.
</event>
<event>
 7    1  0.3220798E-013  0.5930205E+02  0.7816164E-02  0.1266604E+00
        -11   -1    0    0    0    0  0.00000000000E+00  0.00000000000E+00  0.45593999997E+02  0.45594000000E+02  0.51100000000E-03 0. -1.
         11   -1    0    0    0    0 -0.00000000000E+00 -0.00000000000E+00 -0.45593999997E+02  0.45594000000E+02  0.51100000000E-03 0.  1.
    9900012    2    1    2    0    0  0.30866258176E+01  0.17380441722E+02 -0.26553847522E+02  0.59302049620E+02  0.50000192574E+02 0.  0.
         12    1    1    2    0    0 -0.30866258176E+01 -0.17380441722E+02  0.26553847522E+02  0.31885950380E+02  0.00000000000E+00 0. -1.
         11    1    3    3    0    0 -0.68184156284E+01 -0.50039197281E+01 -0.12533701526E+02  0.15120306826E+02  0.51100000000E-03 0. -1.
        -11    1    3    3    0    0  0.14531960578E+02 -0.25741142744E+01 -0.11428862453E+02  0.18666087961E+02  0.51100000000E-03 0.  1.
         12    1    3    3    0    0 -0.46269191316E+01  0.24958475725E+02 -0.25912835439E+01  0.25515654833E+02  0.00000000000E+00 0. -1.
</event>
<event>
 7    1  0.3220798E-013  0.5930193E+02  0.7816164E-02  0.1266605E+00
        -11   -1    0    0    0    0  0.00000000000E+00  0.00000000000E+00  0.45593999997E+02  0.45594000000E+02  0.51100000000E-03 0.  1.
         11   -1    0    0    0    0 -0.00000000000E+00 -0.00000000000E+00 -0.45593999997E+02  0.45594000000E+02  0.51100000000E-03 0. -1.
    9900012    2    1    2    0    0  0.15283705510E+02  0.17844206520E+01  0.27927505436E+02  0.59301931395E+02  0.49999976962E+02 0.  0.
         12    1    1    2    0    0 -0.15283705510E+02 -0.17844206520E+01 -0.27927505436E+02  0.31886068605E+02  0.00000000000E+00 0. -1.
         11    1    3    3    0    0 -0.21688368288E+01 -0.21218299780E+01 -0.72726111964E+01  0.78801579629E+01  0.51100000000E-03 0. -1.
        -11    1    3    3    0    0  0.62356239919E+01 -0.10207113066E+02  0.98756922904E-01  0.11961518169E+02  0.51100000000E-03 0.  1.
        -12    1    3    3    0    0  0.11216918347E+02  0.14113363696E+02  0.35101359709E+02  0.39460255264E+02  0.00000000000E+00 0.  1.
</event>
<event>
 7    1  0.3220798E-013  0.5930195E+02  0.7816164E-02  0.1266605E+00
        -11   -1    0    0    0    0  0.00000000000E+00  0.00000000000E+00  0.45593999997E+02  0.45594000000E+02  0.51100000000E-03 0. -1.
         11   -1    0    0    0    0 -0.00000000000E+00 -0.00000000000E+00 -0.45593999997E+02  0.45594000000E+02  0.51100000000E-03 0.  1.
    9900012    2    1    2    0    0  0.89832550361E+01  0.27059086952E+02 -0.14276806568E+02  0.59301948763E+02  0.50000008635E+02 0.  0.
         12    1    1    2    0    0 -0.89832550361E+01 -0.27059086952E+02  0.14276806568E+02  0.31886051237E+02  0.00000000000E+00 0. -1.
         11    1    3    3    0    0  0.15801645795E+02 -0.36180678408E+00 -0.69553703623E+00  0.15821083591E+02  0.51100000000E-03 0. -1.
        -11    1    3    3    0    0  0.56617577045E+01  0.12722186335E+02  0.67372185746E+01  0.15469312843E+02  0.51100000000E-03 0.  1.
        -12    1    3    3    0    0 -0.12480148463E+02  0.14698707402E+02 -0.20318488106E+02  0.28011552329E+02  0.00000000000E+00 0.  1.
</event>
<event>
 7    1  0.3220798E-013  0.5930213E+02  0.7816164E-02  0.1266604E+00
        -11   -1    0    0    0    0  0.00000000000E+00  0.00000000000E+00  0.45593999997E+02  0.45594000000E+02  0.51100000000E-03 0.  1.
         11   -1    0    0    0    0 -0.00000000000E+00 -0.00000000000E+00 -0.45593999997E+02  0.45594000000E+02  0.51100000000E-03 0. -1.
    9900012    2    1    2    0    0 -0.16441030046E+02 -0.25549231741E+02 -0.96766667512E+01  0.59302131799E+02  0.50000342448E+02 0.  0.
         12    1    1    2    0    0  0.16441030046E+02  0.25549231741E+02  0.96766667512E+01  0.31885868201E+02  0.00000000000E+00 0. -1.
         11    1    3    3    0    0 -0.37779250810E+01 -0.23482248034E+01 -0.72711334566E+01  0.85238641267E+01  0.51100000000E-03 0. -1.
        -11    1    3    3    0    0  0.14272586299E+02 -0.17379323543E+02 -0.51911397581E+01  0.23080197978E+02  0.51100000000E-03 0.  1.
         12    1    3    3    0    0 -0.26935691264E+02 -0.58216833950E+01  0.27856064635E+01  0.27698069694E+02  0.00000000000E+00 0. -1.
</event>
<event>
 7    1  0.3220798E-013  0.5930194E+02  0.7816164E-02  0.1266605E+00
        -11   -1    0    0    0    0  0.00000000000E+00  0.00000000000E+00  0.45593999997E+02  0.45594000000E+02  0.51100000000E-03 0.  1.
         11   -1    0    0    0    0 -0.00000000000E+00 -0.00000000000E+00 -0.45593999997E+02  0.45594000000E+02  0.51100000000E-03 0. -1.
    9900012    2    1    2    0    0 -0.31830641917E+02  0.11390093127E+01  0.14944943027E+01  0.59301943168E+02  0.49999998431E+02 0.  0.
         12    1    1    2    0    0  0.31830641917E+02 -0.11390093127E+01 -0.14944943027E+01  0.31886056832E+02  0.00000000000E+00 0. -1.
         11    1    3    3    0    0  0.95581639236E+01 -0.58278597378E+01 -0.59461141136E+01  0.12675911014E+02  0.51100000000E-03 0. -1.
        -11    1    3    3    0    0 -0.32701638425E+01 -0.50552453613E+01  0.16202805110E+01  0.62349648287E+01  0.51100000000E-03 0.  1.
        -12    1    3    3    0    0 -0.38118641999E+02  0.12022114412E+02  0.58203279053E+01  0.40391067325E+02  0.00000000000E+00 0.  1.
</event>
<event>
 7    1  0.3220798E-013  0.5930193E+02  0.7816164E-02  0.1266605E+00
        -11   -1    0    0    0    0  0.00000000000E+00  0.00000000000E+00  0.45593999997E+02  0.45594000000E+02  0.51100000000E-03 0. -1.
         11   -1    0    0    0    0 -0.00000000000E+00 -0.00000000000E+00 -0.45593999997E+02  0.45594000000E+02  0.51100000000E-03 0.  1.
    9900012    2    1    2    0    0 -0.27027586212E+02 -0.94219442778E+01 -0.14051981426E+02  0.59301927297E+02  0.49999969487E+02 0.  0.
         12    1    1    2    0    0  0.27027586212E+02  0.94219442778E+01  0.14051981426E+02  0.31886072703E+02  0.00000000000E+00 0. -1.
         11    1    3    3    0    0 -0.18365987487E+02  0.19578712205E+01  0.12436431593E+02  0.22266737236E+02  0.51100000000E-03 0. -1.
        -11    1    3    3    0    0  0.67934334897E+01 -0.67703345694E+01 -0.11940291736E+02  0.15315310502E+02  0.51100000000E-03 0.  1.
         12    1    3    3    0    0 -0.15455032214E+02 -0.46094809289E+01 -0.14548121283E+02  0.21719879559E+02  0.00000000000E+00 0. -1.
</event>
<event>
 7    1  0.3220798E-013  0.5930195E+02  0.7816164E-02  0.1266605E+00
        -11   -1    0    0    0    0  0.00000000000E+00  0.00000000000E+00  0.45593999997E+02  0.45594000000E+02  0.51100000000E-03 0.  1.
         11   -1    0    0    0    0 -0.00000000000E+00 -0.00000000000E+00 -0.45593999997E+02  0.45594000000E+02  0.51100000000E-03 0. -1.
    9900012    2    1    2    0    0 -0.97094919794E+01 -0.22913046561E+02  0.19935853406E+02  0.59301949943E+02  0.50000010789E+02 0.  0.
         12    1    1    2    0    0  0.97094919794E+01  0.22913046561E+02 -0.19935853406E+02  0.31886050057E+02  0.00000000000E+00 0. -1.
         11    1    3    3    0    0 -0.11811000438E+02 -0.15132403026E+01 -0.11318514135E+02  0.16428584542E+02  0.51100000000E-03 0.  1.
        -11    1    3    3    0    0  0.79448845751E+01 -0.29892329289E+01  0.37887303150E+01  0.92957615114E+01  0.51100000000E-03 0. -1.
        -12    1    3    3    0    0 -0.58433761165E+01 -0.18410573329E+02  0.27465637226E+02  0.33577603890E+02  0.00000000000E+00 0.  1.
</event>
<event>
 7    1  0.3220798E-013  0.5930194E+02  0.7816164E-02  0.1266605E+00
        -11   -1    0    0    0    0  0.00000000000E+00  0.00000000000E+00  0.45593999997E+02  0.45594000000E+02  0.51100000000E-03 0. -1.
         11   -1    0    0    0    0 -0.00000000000E+00 -0.00000000000E+00 -0.45593999997E+02  0.45594000000E+02  0.51100000000E-03 0.  1.
    9900012    2    1    2    0    0 -0.31272107037E+02  0.52988968949E+01 -0.32707183148E+01  0.59301943719E+02  0.49999999437E+02 0.  0.
         12    1    1    2    0    0  0.31272107037E+02 -0.52988968949E+01  0.32707183148E+01  0.31886056281E+02  0.00000000000E+00 0. -1.
         11    1    3    3    0    0 -0.95077181442E+01 -0.67131785708E+01  0.15106205648E+02  0.19069895652E+02  0.51100000000E-03 0. -1.
        -11    1    3    3    0    0  0.43774974811E+01 -0.17811155738E+01  0.10767450749E+01  0.48470854234E+01  0.51100000000E-03 0.  1.
        -12    1    3    3    0    0 -0.26141886374E+02  0.13793191040E+02 -0.19453669038E+02  0.35384962644E+02  0.00000000000E+00 0.  1.
</event>
<event>
 7    1  0.3220798E-013  0.5930200E+02  0.7816164E-02  0.1266605E+00
        -11   -1    0    0    0    0  0.00000000000E+00  0.00000000000E+00  0.45593999997E+02  0.45594000000E+02  0.51100000000E-03 0. -1.
         11   -1    0    0    0    0 -0.00000000000E+00 -0.00000000000E+00 -0.45593999997E+02  0.45594000000E+02  0.51100000000E-03 0.  1.
    9900012    2    1    2    0    0 -0.21167439350E+02 -0.17013920141E+02 -0.16708768181E+02  0.59302001484E+02  0.50000104787E+02 0.  0.
         12    1    1    2    0    0  0.21167439350E+02  0.17013920141E+02  0.16708768181E+02  0.31885998516E+02  0.00000000000E+00 0. -1.
         11    1    3    3    0    0 -0.15091705663E+02  0.11707952865E+01 -0.26022570109E+02  0.30104891575E+02  0.51100000000E-03 0.  1.
        -11    1    3    3    0    0 -0.13378665826E+02 -0.10223953176E+02  0.63418091656E+01  0.17992677999E+02  0.51100000000E-03 0. -1.
        -12    1    3    3    0    0  0.73029321392E+01 -0.79607622518E+01  0.29719927615E+01  0.11204431910E+02  0.00000000000E+00 0.  1.
</event>
<event>
 7    1  0.3220798E-013  0.5930183E+02  0.7816164E-02  0.1266605E+00
        -11   -1    0    0    0    0  0.00000000000E+00  0.00000000000E+00  0.45593999997E+02  0.45594000000E+02  0.51100000000E-03 0.  1.
         11   -1    0    0    0    0 -0.00000000000E+00 -0.00000000000E+00 -0.45593999997E+02  0.45594000000E+02  0.51100000000E-03 0. -1.
    9900012    2    1    2    0    0 -0.37713521283E+01 -0.10769740452E+02  0.29774437974E+02  0.59301834302E+02  0.49999799886E+02 0.  0.
         12    1    1    2    0    0  0.37713521283E+01  0.10769740452E+02 -0.29774437974E+02  0.31886165698E+02  0.00000000000E+00 0. -1.
         11    1    3    3    0    0 -0.13060173499E+02  0.49147555789E+01 -0.17911125783E+01  0.14068796635E+02  0.51100000000E-03 0. -1.
        -11    1    3    3    0    0 -0.93832967041E+01 -0.69294392523E+01  0.13229786874E+02  0.17637761944E+02  0.51100000000E-03 0.  1.
         12    1    3    3    0    0  0.18672118074E+02 -0.87550567785E+01  0.18335763678E+02  0.27595275723E+02  0.00000000000E+00 0. -1.
</event>
<event>
 7    1  0.3220798E-013  0.5930190E+02  0.7816164E-02  0.1266605E+00
        -11   -1    0    0    0    0  0.00000000000E+00  0.00000000000E+00  0.45593999997E+02  0.45594000000E+02  0.51100000000E-03 0.  1.
         11   -1    0    0    0    0 -0.00000000000E+00 -0.00000000000E+00 -0.45593999997E+02  0.45594000000E+02  0.51100000000E-03 0. -1.
    9900012    2    1    2    0    0  0.31286960197E+02 -0.59091819783E+01  0.17119431591E+01  0.59301904921E+02  0.49999928679E+02 0.  0.
         12    1    1    2    0    0 -0.31286960197E+02  0.59091819783E+01 -0.17119431591E+01  0.31886095079E+02  0.00000000000E+00 0. -1.
         11    1    3    3    0    0 -0.11924693564E+01  0.53580284508E+01  0.15745715582E+01  0.57104927894E+01  0.51100000000E-03 0. -1.
        -11    1    3    3    0    0  0.40960741316E+02 -0.63557964063E+01  0.64267891049E+01  0.41946180942E+02  0.51100000000E-03 0.  1.
         12    1    3    3    0    0 -0.84813117632E+01 -0.49114140227E+01 -0.62894175040E+01  0.11645231190E+02  0.00000000000E+00 0. -1.
</event>
<event>
 7    1  0.3220798E-013  0.5930187E+02  0.7816164E-02  0.1266605E+00
        -11   -1    0    0    0    0  0.00000000000E+00  0.00000000000E+00  0.45593999997E+02  0.45594000000E+02  0.51100000000E-03 0. -1.
         11   -1    0    0    0    0 -0.00000000000E+00 -0.00000000000E+00 -0.45593999997E+02  0.45594000000E+02  0.51100000000E-03 0.  1.
    9900012    2    1    2    0    0 -0.60824894364E+01 -0.18174329665E+02 -0.25483770002E+02  0.59301867120E+02  0.49999859739E+02 0.  0.
         12    1    1    2    0    0  0.60824894364E+01  0.18174329665E+02  0.25483770002E+02  0.31886132880E+02  0.00000000000E+00 0. -1.
         11    1    3    3    0    0  0.87869950175E+01 -0.11412189533E+02 -0.15088234677E+02  0.20859150924E+02  0.51100000000E-03 0. -1.
        -11    1    3    3    0    0  0.54534652456E+01  0.85475575453E+01 -0.79442252932E+01  0.12880673078E+02  0.51100000000E-03 0.  1.
         12    1    3    3    0    0 -0.20322949700E+02 -0.15309697677E+02 -0.24513100322E+01  0.25562043117E+02  0.00000000000E+00 0. -1.
</event>
<event>
 7    1  0.3220798E-013  0.5930196E+02  0.7816164E-02  0.1266605E+00
        -11   -1    0    0    0    0  0.00000000000E+00  0.00000000000E+00  0.45593999997E+02  0.45594000000E+02  0.51100000000E-03 0. -1.
         11   -1    0    0    0    0 -0.00000000000E+00 -0.00000000000E+00 -0.45593999997E+02  0.45594000000E+02  0.51100000000E-03 0.  1.
    9900012    2    1    2    0    0  0.31224659079E+02 -0.96414732622E-01  0.64599327472E+01  0.59301962907E+02  0.50000034431E+02 0.  0.
         12    1    1    2    0    0 -0.31224659079E+02  0.96414732622E-01 -0.64599327472E+01  0.31886037093E+02  0.00000000000E+00 0. -1.
         11    1    3    3    0    0  0.16497321230E+01  0.20684227806E+01 -0.10920782328E+02  0.11236702176E+02  0.51100000000E-03 0.  1.
        -11    1    3    3    0    0  0.10782315171E+02  0.10981473569E+02  0.19716919218E+02  0.25012156762E+02  0.51100000000E-03 0. -1.
         12    1    3    3    0    0  0.18792611785E+02 -0.13146311083E+02 -0.23362041421E+01  0.23053103969E+02  0.00000000000E+00 0. -1.
</event>
<event>
 7    1  0.3220798E-013  0.5930198E+02  0.7816164E-02  0.1266605E+00
        -11   -1    0    0    0    0  0.00000000000E+00  0.00000000000E+00  0.45593999997E+02  0.45594000000E+02  0.51100000000E-03 0.  1.
         11   -1    0    0    0    0 -0.00000000000E+00 -0.00000000000E+00 -0.45593999997E+02  0.45594000000E+02  0.51100000000E-03 0. -1.
    9900012    2    1    2    0    0  0.95625423434E+01  0.28407014787E+02 -0.10877376677E+02  0.59301983809E+02  0.50000072551E+02 0.  0.
         12    1    1    2    0    0 -0.95625423434E+01 -0.28407014787E+02  0.10877376677E+02  0.31886016191E+02  0.00000000000E+00 0. -1.
         11    1    3    3    0    0 -0.66831577411E+01  0.85159653017E+01 -0.75772916775E+01  0.13213690319E+02  0.51100000000E-03 0. -1.
        -11    1    3    3    0    0 -0.80169837810E+01  0.61103269518E+01  0.10843688219E+02  0.14805191618E+02  0.51100000000E-03 0.  1.
        -12    1    3    3    0    0  0.24262683865E+02  0.13780722534E+02 -0.14143773218E+02  0.31283101872E+02  0.00000000000E+00 0.  1.
</event>
<event>
 7    1  0.3220798E-013  0.5930192E+02  0.7816164E-02  0.1266605E+00
        -11   -1    0    0    0    0  0.00000000000E+00  0.00000000000E+00  0.45593999997E+02  0.45594000000E+02  0.51100000000E-03 0. -1.
         11   -1    0    0    0    0 -0.00000000000E+00 -0.00000000000E+00 -0.45593999997E+02  0.45594000000E+02  0.51100000000E-03 0.  1.
    9900012    2    1    2    0    0 -0.55374182473E+01 -0.29776523761E+02 -0.99708469063E+01  0.59301919085E+02  0.49999954510E+02 0.  0.
         12    1    1    2    0    0  0.55374182473E+01  0.29776523761E+02  0.99708469063E+01  0.31886080915E+02  0.00000000000E+00 0. -1.
         11    1    3    3    0    0  0.78208886660E+01  0.64377502446E+01 -0.27456938164E+01  0.10495225702E+02  0.51100000000E-03 0. -1.
        -11    1    3    3    0    0  0.54695137590E+01 -0.24356381997E+02 -0.88778807399E+01  0.26494635144E+02  0.51100000000E-03 0.  1.
         12    1    3    3    0    0 -0.18827820672E+02 -0.11857892009E+02  0.16527276499E+01  0.22312058238E+02  0.00000000000E+00 0. -1.
</event>
<event>
 7    1  0.3220798E-013  0.5930194E+02  0.7816164E-02  0.1266605E+00
        -11   -1    0    0    0    0  0.00000000000E+00  0.00000000000E+00  0.45593999997E+02  0.45594000000E+02  0.51100000000E-03 0.  1.
         11   -1    0    0    0    0 -0.00000000000E+00 -0.00000000000E+00 -0.45593999997E+02  0.45594000000E+02  0.51100000000E-03 0. -1.
    9900012    2    1    2    0    0  0.13337920857E+02  0.60353605372E+01  0.28326584669E+02  0.59301935511E+02  0.49999984467E+02 0.  0.
         12    1    1    2    0    0 -0.13337920857E+02 -0.60353605372E+01 -0.28326584669E+02  0.31886064489E+02  0.00000000000E+00 0. -1.
         11    1    3    3    0    0  0.84489063744E+01  0.17997219155E+02  0.21576973243E+02  0.29340240129E+02  0.51100000000E-03 0. -1.
        -11    1    3    3    0    0  0.10836541768E+02  0.25874910950E+00  0.11271734114E+02  0.15638081046E+02  0.51100000000E-03 0.  1.
         12    1    3    3    0    0 -0.59475272856E+01 -0.12220607728E+02 -0.45221226874E+01  0.14323614336E+02  0.00000000000E+00 0. -1.
</event>
<event>
 7    1  0.3220798E-013  0.5930199E+02  0.7816164E-02  0.1266605E+00
        -11   -1    0    0    0    0  0.00000000000E+00  0.00000000000E+00  0.45593999997E+02  0.45594000000E+02  0.51100000000E-03 0. -1.
         11   -1    0    0    0    0 -0.00000000000E+00 -0.00000000000E+00 -0.45593999997E+02  0.45594000000E+02  0.51100000000E-03 0.  1.
    9900012    2    1    2    0    0 -0.83426341607E+01 -0.27009472998E+02  0.14751496009E+02  0.59301987222E+02  0.50000078776E+02 0.  0.
         12    1    1    2    0    0  0.83426341607E+01  0.27009472998E+02 -0.14751496009E+02  0.31886012778E+02  0.00000000000E+00 0. -1.
         11    1    3    3    0    0 -0.41815061545E+01 -0.39398331767E+01 -0.13928108676E+02  0.15066502273E+02  0.51100000000E-03 0. -1.
        -11    1    3    3    0    0  0.77397036569E+01 -0.28264101463E+01  0.16019393349E+01  0.83939154693E+01  0.51100000000E-03 0.  1.
         12    1    3    3    0    0 -0.11900831663E+02 -0.20243229675E+02  0.27077665350E+02  0.35841569480E+02  0.00000000000E+00 0. -1.
</event>
<event>
 7    1  0.3220798E-013  0.5930193E+02  0.7816164E-02  0.1266605E+00
        -11   -1    0    0    0    0  0.00000000000E+00  0.00000000000E+00  0.45593999997E+02  0.45594000000E+02  0.51100000000E-03 0.  1.
         11   -1    0    0    0    0 -0.00000000000E+00 -0.00000000000E+00 -0.45593999997E+02  0.45594000000E+02  0.51100000000E-03 0. -1.
    9900012    2    1    2    0    0 -0.27084750716E+02  0.14387389502E+02  0.87258553856E+01  0.59301933289E+02  0.49999980416E+02 0.  0.
         12    1    1    2    0    0  0.27084750716E+02 -0.14387389502E+02 -0.87258553856E+01  0.31886066711E+02  0.00000000000E+00 0. -1.
         11    1    3    3    0    0  0.10768936265E+01 -0.67054997254E+01  0.26535339698E+01  0.72914106482E+01  0.51100000000E-03 0. -1.
        -11    1    3    3    0    0  0.56459913791E+00  0.17963938578E+02  0.13138411821E+02  0.22262967611E+02  0.51100000000E-03 0.  1.
        -12    1    3    3    0    0 -0.28726243481E+02  0.31289506503E+01 -0.70660904050E+01  0.29747555031E+02  0.00000000000E+00 0.  1.
</event>
<event>
 7    1  0.3220798E-013  0.5930190E+02  0.7816164E-02  0.1266605E+00
        -11   -1    0    0    0    0  0.00000000000E+00  0.00000000000E+00  0.45593999997E+02  0.45594000000E+02  0.51100000000E-03 0.  1.
         11   -1    0    0    0    0 -0.00000000000E+00 -0.00000000000E+00 -0.45593999997E+02  0.45594000000E+02  0.51100000000E-03 0. -1.
    9900012    2    1    2    0    0 -0.38528973963E+01  0.31496535821E+02  0.31379648452E+01  0.59301899416E+02  0.49999918640E+02 0.  0.
         12    1    1    2    0    0  0.38528973963E+01 -0.31496535821E+02 -0.31379648452E+01  0.31886100584E+02  0.00000000000E+00 0. -1.
         11    1    3    3    0    0  0.10099824742E+01  0.51612904036E+01  0.19451614452E+02  0.20150044375E+02  0.51100000000E-03 0. -1.
        -11    1    3    3    0    0 -0.12462313100E+02  0.18814589508E+02 -0.41303987789E+01  0.22942498131E+02  0.51100000000E-03 0.  1.
         12    1    3    3    0    0  0.75994332295E+01  0.75206559091E+01 -0.12183250828E+02  0.16209356911E+02  0.00000000000E+00 0. -1.
</event>
<event>
 7    1  0.3220798E-013  0.5930199E+02  0.7816164E-02  0.1266605E+00
        -11   -1    0    0    0    0  0.00000000000E+00  0.00000000000E+00  0.45593999997E+02  0.45594000000E+02  0.51100000000E-03 0.  1.
         11   -1    0    0    0    0 -0.00000000000E+00 -0.00000000000E+00 -0.45593999997E+02  0.45594000000E+02  0.51100000000E-03 0. -1.
    9900012    2    1    2    0    0 -0.13225491592E+02 -0.50385582816E+01  0.28573005389E+02  0.59301994694E+02  0.50000092403E+02 0.  0.
         12    1    1    2    0    0  0.13225491592E+02  0.50385582816E+01 -0.28573005389E+02  0.31886005306E+02  0.00000000000E+00 0. -1.
         11    1    3    3    0    0 -0.11815739738E+02 -0.13992270648E+01 -0.10437614579E+02  0.15827613222E+02  0.51100000000E-03 0. -1.
        -11    1    3    3    0    0  0.81359538992E+01  0.15248496241E+01  0.15226331121E+02  0.17330899339E+02  0.51100000000E-03 0.  1.
        -12    1    3    3    0    0 -0.95457057527E+01 -0.51641808409E+01  0.23784288847E+02  0.26143482133E+02  0.00000000000E+00 0.  1.
</event>
<event>
 7    1  0.3220798E-013  0.5930195E+02  0.7816164E-02  0.1266605E+00
        -11   -1    0    0    0    0  0.00000000000E+00  0.00000000000E+00  0.45593999997E+02  0.45594000000E+02  0.51100000000E-03 0.  1.
         11   -1    0    0    0    0 -0.00000000000E+00 -0.00000000000E+00 -0.45593999997E+02  0.45594000000E+02  0.51100000000E-03 0. -1.
    9900012    2    1    2    0    0 -0.81483858489E+01  0.21189163516E+02  0.22390703329E+02  0.59301946026E+02  0.50000003645E+02 0.  0.
         12    1    1    2    0    0  0.81483858489E+01 -0.21189163516E+02 -0.22390703329E+02  0.31886053974E+02  0.00000000000E+00 0. -1.
         11    1    3    3    0    0  0.77410571869E+01  0.14159788788E+02  0.22331731065E+01  0.16291428645E+02  0.51100000000E-03 0. -1.
        -11    1    3    3    0    0  0.66609063747E+00  0.11599998240E+02  0.22841784168E+02  0.25627148498E+02  0.51100000000E-03 0.  1.
         12    1    3    3    0    0 -0.16555533673E+02 -0.45706235118E+01 -0.26842539458E+01  0.17383368883E+02  0.00000000000E+00 0. -1.
</event>
<event>
 7    1  0.3220798E-013  0.5930192E+02  0.7816164E-02  0.1266605E+00
        -11   -1    0    0    0    0  0.00000000000E+00  0.00000000000E+00  0.45593999997E+02  0.45594000000E+02  0.51100000000E-03 0. -1.
         11   -1    0    0    0    0 -0.00000000000E+00 -0.00000000000E+00 -0.45593999997E+02  0.45594000000E+02  0.51100000000E-03 0.  1.
    9900012    2    1    2    0    0  0.19992064205E+02  0.13766588819E+02 -0.20676573015E+02  0.59301917291E+02  0.49999951238E+02 0.  0.
         12    1    1    2    0    0 -0.19992064205E+02 -0.13766588819E+02  0.20676573015E+02  0.31886082709E+02  0.00000000000E+00 0. -1.
         11    1    3    3    0    0  0.27137997136E+02  0.84972205013E+01 -0.22384441427E+01  0.28525151660E+02  0.51100000000E-03 0. -1.
        -11    1    3    3    0    0  0.49947838074E+01  0.96856935638E+01 -0.12424752014E+02  0.16526796059E+02  0.51100000000E-03 0.  1.
         12    1    3    3    0    0 -0.12140716738E+02 -0.44163252457E+01 -0.60133768580E+01  0.14249969572E+02  0.00000000000E+00 0. -1.
</event>
<event>
 7    1  0.3220798E-013  0.5930194E+02  0.7816164E-02  0.1266605E+00
        -11   -1    0    0    0    0  0.00000000000E+00  0.00000000000E+00  0.45593999997E+02  0.45594000000E+02  0.51100000000E-03 0.  1.
         11   -1    0    0    0    0 -0.00000000000E+00 -0.00000000000E+00 -0.45593999997E+02  0.45594000000E+02  0.51100000000E-03 0. -1.
    9900012    2    1    2    0    0  0.42415068174E+01  0.28752589050E+02  0.13115601905E+02  0.59301940813E+02  0.49999994137E+02 0.  0.
         12    1    1    2    0    0 -0.42415068174E+01 -0.28752589050E+02 -0.13115601905E+02  0.31886059187E+02  0.00000000000E+00 0. -1.
         11    1    3    3    0    0  0.55041626840E+01 -0.38964747660E+01  0.11152597675E+02  0.13032987287E+02  0.51100000000E-03 0. -1.
        -11    1    3    3    0    0 -0.20456772654E+01  0.14759932391E+02  0.17200188493E+02  0.22757128205E+02  0.51100000000E-03 0.  1.
         12    1    3    3    0    0  0.78302139884E+00  0.17889131424E+02 -0.15237184264E+02  0.23511825321E+02  0.00000000000E+00 0. -1.
</event>
<event>
 7    1  0.3220798E-013  0.5930194E+02  0.7816164E-02  0.1266605E+00
        -11   -1    0    0    0    0  0.00000000000E+00  0.00000000000E+00  0.45593999997E+02  0.45594000000E+02  0.51100000000E-03 0. -1.
         11   -1    0    0    0    0 -0.00000000000E+00 -0.00000000000E+00 -0.45593999997E+02  0.45594000000E+02  0.51100000000E-03 0.  1.
    9900012    2    1    2    0    0 -0.27029091242E+01 -0.29757919376E+02 -0.11130185325E+02  0.59301944918E+02  0.50000001624E+02 0.  0.
         12    1    1    2    0    0  0.27029091242E+01  0.29757919376E+02  0.11130185325E+02  0.31886055082E+02  0.00000000000E+00 0. -1.
         11    1    3    3    0    0  0.18064756392E+01 -0.12793041601E+02  0.12066007384E+02  0.17678059908E+02  0.51100000000E-03 0. -1.
        -11    1    3    3    0    0 -0.78148718928E+01 -0.61576885876E-01  0.44932966051E+01  0.90147506375E+01  0.51100000000E-03 0.  1.
        -12    1    3    3    0    0  0.33054871294E+01 -0.16903300889E+02 -0.27689489313E+02  0.32609134373E+02  0.00000000000E+00 0.  1.
</event>
<event>
 7    1  0.3220798E-013  0.5930192E+02  0.7816164E-02  0.1266605E+00
        -11   -1    0    0    0    0  0.00000000000E+00  0.00000000000E+00  0.45593999997E+02  0.45594000000E+02  0.51100000000E-03 0.  1.
         11   -1    0    0    0    0 -0.00000000000E+00 -0.00000000000E+00 -0.45593999997E+02  0.45594000000E+02  0.51100000000E-03 0. -1.
    9900012    2    1    2    0    0  0.18140532321E+02  0.11768363054E+02  0.23433922822E+02  0.59301921208E+02  0.49999958383E+02 0.  0.
         12    1    1    2    0    0 -0.18140532321E+02 -0.11768363054E+02 -0.23433922822E+02  0.31886078792E+02  0.00000000000E+00 0. -1.
         11    1    3    3    0    0  0.18494593116E+02  0.13824805531E+02  0.13776624151E+02  0.26888112536E+02  0.51100000000E-03 0. -1.
        -11    1    3    3    0    0  0.10253611863E+02 -0.95666578431E+01  0.12860653063E+02  0.19027713893E+02  0.51100000000E-03 0.  1.
         12    1    3    3    0    0 -0.10607672659E+02  0.75102153666E+01 -0.32033543915E+01  0.13386094779E+02  0.00000000000E+00 0. -1.
</event>
<event>
 7    1  0.3220798E-013  0.5930194E+02  0.7816164E-02  0.1266605E+00
        -11   -1    0    0    0    0  0.00000000000E+00  0.00000000000E+00  0.45593999997E+02  0.45594000000E+02  0.51100000000E-03 0. -1.
         11   -1    0    0    0    0 -0.00000000000E+00 -0.00000000000E+00 -0.45593999997E+02  0.45594000000E+02  0.51100000000E-03 0.  1.
    9900012    2    1    2    0    0 -0.30709881095E+01  0.26640764084E+02 -0.17249920204E+02  0.59301936807E+02  0.49999986830E+02 0.  0.
         12    1    1    2    0    0  0.30709881095E+01 -0.26640764084E+02  0.17249920204E+02  0.31886063193E+02  0.00000000000E+00 0. -1.
         11    1    3    3    0    0 -0.15277387523E+02  0.10278295280E+02  0.32768569217E+01  0.18702398641E+02  0.51100000000E-03 0. -1.
        -11    1    3    3    0    0  0.39944934969E+00  0.21814808516E+02 -0.14951259683E+02  0.26449680466E+02  0.51100000000E-03 0.  1.
         12    1    3    3    0    0  0.11806950064E+02 -0.54523397127E+01 -0.55755174421E+01  0.14149857699E+02  0.00000000000E+00 0. -1.
</event>
<event>
 7    1  0.3220798E-013  0.5930192E+02  0.7816164E-02  0.1266605E+00
        -11   -1    0    0    0    0  0.00000000000E+00  0.00000000000E+00  0.45593999997E+02  0.45594000000E+02  0.51100000000E-03 0.  1.
         11   -1    0    0    0    0 -0.00000000000E+00 -0.00000000000E+00 -0.45593999997E+02  0.45594000000E+02  0.51100000000E-03 0. -1.
    9900012    2    1    2    0    0  0.14357249764E+02 -0.20069590892E+02  0.20194126157E+02  0.59301924189E+02  0.49999963819E+02 0.  0.
         12    1    1    2    0    0 -0.14357249764E+02  0.20069590892E+02 -0.20194126157E+02  0.31886075811E+02  0.00000000000E+00 0. -1.
         11    1    3    3    0    0  0.18862215556E+01 -0.96649048101E+01 -0.40811815159E+01  0.10659468072E+02  0.51100000000E-03 0. -1.
        -11    1    3    3    0    0 -0.10498769202E+02 -0.11047577266E+02  0.33552511035E-01  0.15240546060E+02  0.51100000000E-03 0.  1.
         12    1    3    3    0    0  0.22969797410E+02  0.64289118370E+00  0.24241755162E+02  0.33401910057E+02  0.00000000000E+00 0. -1.
</event>
<event>
 7    1  0.3220798E-013  0.5930192E+02  0.7816164E-02  0.1266605E+00
        -11   -1    0    0    0    0  0.00000000000E+00  0.00000000000E+00  0.45593999997E+02  0.45594000000E+02  0.51100000000E-03 0.  1.
         11   -1    0    0    0    0 -0.00000000000E+00 -0.00000000000E+00 -0.45593999997E+02  0.45594000000E+02  0.51100000000E-03 0. -1.
    9900012    2    1    2    0    0  0.32503165400E+00 -0.31869962373E+02  0.96027886298E+00  0.59301917100E+02  0.49999950890E+02 0.  0.
         12    1    1    2    0    0 -0.32503165400E+00  0.31869962373E+02 -0.96027886298E+00  0.31886082900E+02  0.00000000000E+00 0. -1.
         11    1    3    3    0    0  0.10338710971E+02  0.19055030840E+01 -0.15290028513E+02  0.18555453612E+02  0.51100000000E-03 0. -1.
        -11    1    3    3    0    0  0.28509127152E+00 -0.49207589662E+01  0.73365666061E+01  0.88385720376E+01  0.51100000000E-03 0.  1.
        -12    1    3    3    0    0 -0.10298770588E+02 -0.28854706491E+02  0.89137407698E+01  0.31907891451E+02  0.00000000000E+00 0.  1.
</event>
<event>
 7    1  0.3220798E-013  0.5930193E+02  0.7816164E-02  0.1266605E+00
        -11   -1    0    0    0    0  0.00000000000E+00  0.00000000000E+00  0.45593999997E+02  0.45594000000E+02  0.51100000000E-03 0.  1.
         11   -1    0    0    0    0 -0.00000000000E+00 -0.00000000000E+00 -0.45593999997E+02  0.45594000000E+02  0.51100000000E-03 0. -1.
    9900012    2    1    2    0    0 -0.40597380838E+00 -0.25846868604E+02  0.18668053406E+02  0.59301927032E+02  0.49999969003E+02 0.  0.
         12    1    1    2    0    0  0.40597380838E+00  0.25846868604E+02 -0.18668053406E+02  0.31886072968E+02  0.00000000000E+00 0. -1.
         11    1    3    3    0    0  0.86511281281E+00 -0.33912333014E+01 -0.36631027522E+01  0.50662812316E+01  0.51100000000E-03 0. -1.
        -11    1    3    3    0    0 -0.15983548513E+02  0.10143482251E+01 -0.34626177454E+01  0.16385739144E+02  0.51100000000E-03 0.  1.
        -12    1    3    3    0    0  0.14712461892E+02 -0.23469983528E+02  0.25793773903E+02  0.37849906656E+02  0.00000000000E+00 0.  1.
</event>
<event>
 7    1  0.3220798E-013  0.5930195E+02  0.7816164E-02  0.1266605E+00
        -11   -1    0    0    0    0  0.00000000000E+00  0.00000000000E+00  0.45593999997E+02  0.45594000000E+02  0.51100000000E-03 0.  1.
         11   -1    0    0    0    0 -0.00000000000E+00 -0.00000000000E+00 -0.45593999997E+02  0.45594000000E+02  0.51100000000E-03 0. -1.
    9900012    2    1    2    0    0  0.12878548658E+02 -0.15128444110E+02  0.24939792941E+02  0.59301951191E+02  0.50000013065E+02 0.  0.
         12    1    1    2    0    0 -0.12878548658E+02  0.15128444110E+02 -0.24939792941E+02  0.31886048809E+02  0.00000000000E+00 0. -1.
         11    1    3    3    0    0  0.55642032627E+01 -0.21503665168E+01 -0.98809427418E+00  0.60465498147E+01  0.51100000000E-03 0. -1.
        -11    1    3    3    0    0 -0.15101083164E+02 -0.15539316884E+02  0.44805556893E+01  0.22126645961E+02  0.51100000000E-03 0.  1.
         12    1    3    3    0    0  0.22415428559E+02  0.25612392909E+01  0.21447331525E+02  0.31128755416E+02  0.00000000000E+00 0. -1.
</event>
<event>
 7    1  0.3220798E-013  0.5930183E+02  0.7816164E-02  0.1266605E+00
        -11   -1    0    0    0    0  0.00000000000E+00  0.00000000000E+00  0.45593999997E+02  0.45594000000E+02  0.51100000000E-03 0. -1.
         11   -1    0    0    0    0 -0.00000000000E+00 -0.00000000000E+00 -0.45593999997E+02  0.45594000000E+02  0.51100000000E-03 0.  1.
    9900012    2    1    2    0    0  0.10070467590E+01 -0.23705475763E+02 -0.21301740482E+02  0.59301829457E+02  0.49999791051E+02 0.  0.
         12    1    1    2    0    0 -0.10070467590E+01  0.23705475763E+02  0.21301740482E+02  0.31886170543E+02  0.00000000000E+00 0. -1.
         11    1    3    3    0    0 -0.12062840932E+02  0.10377335783E+01 -0.20534532218E+02  0.23838121486E+02  0.51100000000E-03 0. -1.
        -11    1    3    3    0    0 -0.31744795249E+01 -0.12198477951E+02  0.58539114267E+01  0.13897786292E+02  0.51100000000E-03 0.  1.
        -12    1    3    3    0    0  0.16244367216E+02 -0.12544731391E+02 -0.66211196903E+01  0.21565921679E+02  0.00000000000E+00 0.  1.
</event>
<event>
 7    1  0.3220798E-013  0.5930195E+02  0.7816164E-02  0.1266605E+00
        -11   -1    0    0    0    0  0.00000000000E+00  0.00000000000E+00  0.45593999997E+02  0.45594000000E+02  0.51100000000E-03 0. -1.
         11   -1    0    0    0    0 -0.00000000000E+00 -0.00000000000E+00 -0.45593999997E+02  0.45594000000E+02  0.51100000000E-03 0.  1.
    9900012    2    1    2    0    0 -0.18996047268E+02  0.21811589091E+02 -0.13421065486E+02  0.59301949300E+02  0.50000009615E+02 0.  0.
         12    1    1    2    0    0  0.18996047268E+02 -0.21811589091E+02  0.13421065486E+02  0.31886050700E+02  0.00000000000E+00 0. -1.
         11    1    3    3    0    0  0.74110042318E+01  0.68483611748E+01 -0.13950821439E+02  0.17217678519E+02  0.51100000000E-03 0. -1.
        -11    1    3    3    0    0  0.54845270924E+01 -0.20987594083E+01  0.70878762009E+00  0.59149986165E+01  0.51100000000E-03 0.  1.
        -12    1    3    3    0    0 -0.31891578592E+02  0.17061987324E+02 -0.17903166805E+00  0.36169272164E+02  0.00000000000E+00 0.  1.
</event>
<event>
 7    1  0.3220798E-013  0.5930156E+02  0.7816164E-02  0.1266606E+00
        -11   -1    0    0    0    0  0.00000000000E+00  0.00000000000E+00  0.45593999997E+02  0.45594000000E+02  0.51100000000E-03 0.  1.
         11   -1    0    0    0    0 -0.00000000000E+00 -0.00000000000E+00 -0.45593999997E+02  0.45594000000E+02  0.51100000000E-03 0. -1.
    9900012    2    1    2    0    0  0.11488181140E+02 -0.29794443408E+01  0.29595429492E+02  0.59301563364E+02  0.49999305757E+02 0.  0.
         12    1    1    2    0    0 -0.11488181140E+02  0.29794443408E+01 -0.29595429492E+02  0.31886436636E+02  0.00000000000E+00 0. -1.
         11    1    3    3    0    0 -0.28206250758E+01 -0.17040743367E+02  0.75692948535E+01  0.18858342588E+02  0.51100000000E-03 0. -1.
        -11    1    3    3    0    0  0.99476565986E+00 -0.38587197084E+01 -0.43421967400E+01  0.58935515011E+01  0.51100000000E-03 0.  1.
        -12    1    3    3    0    0  0.13314040556E+02  0.17920018734E+02  0.26368331379E+02  0.34549669276E+02  0.00000000000E+00 0.  1.
</event>
<event>
 7    1  0.3220798E-013  0.5930196E+02  0.7816164E-02  0.1266605E+00
        -11   -1    0    0    0    0  0.00000000000E+00  0.00000000000E+00  0.45593999997E+02  0.45594000000E+02  0.51100000000E-03 0.  1.
         11   -1    0    0    0    0 -0.00000000000E+00 -0.00000000000E+00 -0.45593999997E+02  0.45594000000E+02  0.51100000000E-03 0. -1.
    9900012    2    1    2    0    0  0.14373790056E+01 -0.20872411512E+02  0.24062339550E+02  0.59301955947E+02  0.50000021738E+02 0.  0.
         12    1    1    2    0    0 -0.14373790056E+01  0.20872411512E+02 -0.24062339550E+02  0.31886044053E+02  0.00000000000E+00 0. -1.
         11    1    3    3    0    0 -0.19028245959E+02 -0.17611537468E+02  0.30766216748E+01  0.26109500137E+02  0.51100000000E-03 0. -1.
        -11    1    3    3    0    0  0.78373424211E+01  0.94162822748E+00 -0.50986656786E+00  0.79101557585E+01  0.51100000000E-03 0.  1.
        -12    1    3    3    0    0  0.12628282543E+02 -0.42025022716E+01  0.21495584443E+02  0.25282300051E+02  0.00000000000E+00 0.  1.
</event>
<event>
 7    1  0.3220798E-013  0.5930194E+02  0.7816164E-02  0.1266605E+00
        -11   -1    0    0    0    0  0.00000000000E+00  0.00000000000E+00  0.45593999997E+02  0.45594000000E+02  0.51100000000E-03 0.  1.
         11   -1    0    0    0    0 -0.00000000000E+00 -0.00000000000E+00 -0.45593999997E+02  0.45594000000E+02  0.51100000000E-03 0. -1.
    9900012    2    1    2    0    0  0.27225921648E+01  0.67156937666E+01  0.31051690719E+02  0.59301944311E+02  0.50000000517E+02 0.  0.
         12    1    1    2    0    0 -0.27225921648E+01 -0.67156937666E+01 -0.31051690719E+02  0.31886055689E+02  0.00000000000E+00 0. -1.
         11    1    3    3    0    0  0.10387963307E+02  0.22347455207E+01 -0.78291968790E+01  0.13198492082E+02  0.51100000000E-03 0. -1.
        -11    1    3    3    0    0 -0.41469750655E+01 -0.74329251039E+01  0.46733138253E+01  0.97100793078E+01  0.51100000000E-03 0.  1.
        -12    1    3    3    0    0 -0.35183960763E+01  0.11913873350E+02  0.34207573773E+02  0.36393372921E+02  0.00000000000E+00 0.  1.
</event>
<event>
 7    1  0.3220798E-013  0.5930195E+02  0.7816164E-02  0.1266605E+00
        -11   -1    0    0    0    0  0.00000000000E+00  0.00000000000E+00  0.45593999997E+02  0.45594000000E+02  0.51100000000E-03 0. -1.
         11   -1    0    0    0    0 -0.00000000000E+00 -0.00000000000E+00 -0.45593999997E+02  0.45594000000E+02  0.51100000000E-03 0.  1.
    9900012    2    1    2    0    0 -0.24201530272E+02  0.20563024632E+02  0.28580163717E+01  0.59301948079E+02  0.50000007389E+02 0.  0.
         12    1    1    2    0    0  0.24201530272E+02 -0.20563024632E+02 -0.28580163717E+01  0.31886051921E+02  0.00000000000E+00 0. -1.
         11    1    3    3    0    0 -0.24640098427E+02  0.47215434544E+01  0.33022086900E+00  0.25090565342E+02  0.51100000000E-03 0. -1.
        -11    1    3    3    0    0 -0.10006281288E+02  0.46271783439E+01 -0.96389210766E+01  0.14643949072E+02  0.51100000000E-03 0.  1.
         12    1    3    3    0    0  0.10444849443E+02  0.11214302834E+02  0.12166716579E+02  0.19567433666E+02  0.00000000000E+00 0. -1.
</event>
<event>
 7    1  0.3220798E-013  0.5930194E+02  0.7816164E-02  0.1266605E+00
        -11   -1    0    0    0    0  0.00000000000E+00  0.00000000000E+00  0.45593999997E+02  0.45594000000E+02  0.51100000000E-03 0.  1.
         11   -1    0    0    0    0 -0.00000000000E+00 -0.00000000000E+00 -0.45593999997E+02  0.45594000000E+02  0.51100000000E-03 0. -1.
    9900012    2    1    2    0    0 -0.28451307910E+02  0.91146858069E+00  0.14367083538E+02  0.59301940567E+02  0.49999993689E+02 0.  0.
         12    1    1    2    0    0  0.28451307910E+02 -0.91146858069E+00 -0.14367083538E+02  0.31886059433E+02  0.00000000000E+00 0. -1.
         11    1    3    3    0    0 -0.88757889931E+01 -0.12599815715E+02 -0.48372924929E+01  0.16153463567E+02  0.51100000000E-03 0. -1.
        -11    1    3    3    0    0 -0.15070862417E+02 -0.71219425668E+01  0.40476612873E+01  0.17153323937E+02  0.51100000000E-03 0.  1.
         12    1    3    3    0    0 -0.45046564998E+01  0.20633226862E+02  0.15156714744E+02  0.25995153063E+02  0.00000000000E+00 0. -1.
</event>
<event>
 7    1  0.3220798E-013  0.5930191E+02  0.7816164E-02  0.1266605E+00
        -11   -1    0    0    0    0  0.00000000000E+00  0.00000000000E+00  0.45593999997E+02  0.45594000000E+02  0.51100000000E-03 0. -1.
         11   -1    0    0    0    0 -0.00000000000E+00 -0.00000000000E+00 -0.45593999997E+02  0.45594000000E+02  0.51100000000E-03 0.  1.
    9900012    2    1    2    0    0  0.49271674554E+01 -0.31492578627E+02  0.81439907148E+00  0.59301910030E+02  0.49999937996E+02 0.  0.
         12    1    1    2    0    0 -0.49271674554E+01  0.31492578627E+02 -0.81439907148E+00  0.31886089970E+02  0.00000000000E+00 0. -1.
         11    1    3    3    0    0  0.51323377267E+01 -0.14413699682E+02  0.43949713260E+01  0.15918900788E+02  0.51100000000E-03 0. -1.
        -11    1    3    3    0    0 -0.45728941691E+01 -0.26672650920E+02  0.75075193102E+01  0.28083883539E+02  0.51100000000E-03 0.  1.
         12    1    3    3    0    0  0.43677238979E+01  0.95937719746E+01 -0.11088091565E+02  0.15299125704E+02  0.00000000000E+00 0. -1.
</event>
<event>
 7    1  0.3220798E-013  0.5930194E+02  0.7816164E-02  0.1266605E+00
        -11   -1    0    0    0    0  0.00000000000E+00  0.00000000000E+00  0.45593999997E+02  0.45594000000E+02  0.51100000000E-03 0. -1.
         11   -1    0    0    0    0 -0.00000000000E+00 -0.00000000000E+00 -0.45593999997E+02  0.45594000000E+02  0.51100000000E-03 0.  1.
    9900012    2    1    2    0    0  0.25481098734E+02  0.11017867565E+02 -0.15685699255E+02  0.59301937849E+02  0.49999988731E+02 0.  0.
         12    1    1    2    0    0 -0.25481098734E+02 -0.11017867565E+02  0.15685699255E+02  0.31886062151E+02  0.00000000000E+00 0. -1.
         11    1    3    3    0    0 -0.34573540841E+01  0.20682519827E+01  0.80753202284E+00  0.41089015267E+01  0.51100000000E-03 0. -1.
        -11    1    3    3    0    0  0.13406374606E+01 -0.64334694702E+01  0.11326786485E+02  0.13095149123E+02  0.51100000000E-03 0.  1.
        -12    1    3    3    0    0  0.27597815358E+02  0.15383085053E+02 -0.27820017763E+02  0.42097887199E+02  0.00000000000E+00 0.  1.
</event>
<event>
 7    1  0.3220798E-013  0.5930195E+02  0.7816164E-02  0.1266605E+00
        -11   -1    0    0    0    0  0.00000000000E+00  0.00000000000E+00  0.45593999997E+02  0.45594000000E+02  0.51100000000E-03 0.  1.
         11   -1    0    0    0    0 -0.00000000000E+00 -0.00000000000E+00 -0.45593999997E+02  0.45594000000E+02  0.51100000000E-03 0. -1.
    9900012    2    1    2    0    0  0.19930934935E+02 -0.64404569862E+01  0.24041600588E+02  0.59301949564E+02  0.50000010096E+02 0.  0.
         12    1    1    2    0    0 -0.19930934935E+02  0.64404569862E+01 -0.24041600588E+02  0.31886050436E+02  0.00000000000E+00 0. -1.
         11    1    3    3    0    0  0.21165359089E+02  0.68862977515E+01 -0.67900816534E+01  0.23270125294E+02  0.51100000000E-03 0. -1.
        -11    1    3    3    0    0  0.37192817086E+01  0.42916725018E+00  0.40241093583E+01  0.54964258701E+01  0.51100000000E-03 0.  1.
        -12    1    3    3    0    0 -0.49537058627E+01 -0.13755921988E+02  0.26807572883E+02  0.30535398399E+02  0.00000000000E+00 0.  1.
</event>
<event>
 7    1  0.3220798E-013  0.5930190E+02  0.7816164E-02  0.1266605E+00
        -11   -1    0    0    0    0  0.00000000000E+00  0.00000000000E+00  0.45593999997E+02  0.45594000000E+02  0.51100000000E-03 0.  1.
         11   -1    0    0    0    0 -0.00000000000E+00 -0.00000000000E+00 -0.45593999997E+02  0.45594000000E+02  0.51100000000E-03 0. -1.
    9900012    2    1    2    0    0 -0.25469788977E+01 -0.12794345480E+02  0.29095374264E+02  0.59301903009E+02  0.49999925192E+02 0.  0.
         12    1    1    2    0    0  0.25469788977E+01  0.12794345480E+02 -0.29095374264E+02  0.31886096991E+02  0.00000000000E+00 0. -1.
         11    1    3    3    0    0 -0.88648597600E+01 -0.11198143133E+02  0.14169275566E+02  0.20118462131E+02  0.51100000000E-03 0. -1.
        -11    1    3    3    0    0 -0.18260278037E+01  0.11029747802E+02  0.20342621614E+02  0.23212323634E+02  0.51100000000E-03 0.  1.
         12    1    3    3    0    0  0.81439086660E+01 -0.12625950149E+02 -0.54165229162E+01  0.15971117244E+02  0.00000000000E+00 0. -1.
</event>
<event>
 7    1  0.3220798E-013  0.5930193E+02  0.7816164E-02  0.1266605E+00
        -11   -1    0    0    0    0  0.00000000000E+00  0.00000000000E+00  0.45593999997E+02  0.45594000000E+02  0.51100000000E-03 0.  1.
         11   -1    0    0    0    0 -0.00000000000E+00 -0.00000000000E+00 -0.45593999997E+02  0.45594000000E+02  0.51100000000E-03 0. -1.
    9900012    2    1    2    0    0  0.22988178662E+02  0.19459939143E+02  0.10467848658E+02  0.59301930233E+02  0.49999974842E+02 0.  0.
         12    1    1    2    0    0 -0.22988178662E+02 -0.19459939143E+02 -0.10467848658E+02  0.31886069767E+02  0.00000000000E+00 0. -1.
         11    1    3    3    0    0  0.16523941464E+02  0.38842994832E+01  0.73887352583E+01  0.18512747850E+02  0.51100000000E-03 0. -1.
        -11    1    3    3    0    0  0.21275200875E+02  0.84441575459E+01  0.69105658918E+01  0.23910121082E+02  0.51100000000E-03 0.  1.
         12    1    3    3    0    0 -0.14810963677E+02  0.71314821142E+01 -0.38314524924E+01  0.16879061301E+02  0.00000000000E+00 0. -1.
</event>
<event>
 7    1  0.3220798E-013  0.5930224E+02  0.7816164E-02  0.1266604E+00
        -11   -1    0    0    0    0  0.00000000000E+00  0.00000000000E+00  0.45593999997E+02  0.45594000000E+02  0.51100000000E-03 0. -1.
         11   -1    0    0    0    0 -0.00000000000E+00 -0.00000000000E+00 -0.45593999997E+02  0.45594000000E+02  0.51100000000E-03 0.  1.
    9900012    2    1    2    0    0 -0.59008813159E+01  0.14315755110E+02  0.27873646014E+02  0.59302244767E+02  0.50000548474E+02 0.  0.
         12    1    1    2    0    0  0.59008813159E+01 -0.14315755110E+02 -0.27873646014E+02  0.31885755233E+02  0.00000000000E+00 0. -1.
         11    1    3    3    0    0 -0.19979204129E+02  0.76245327347E+01  0.53535434078E+01  0.22044557703E+02  0.51100000000E-03 0. -1.
        -11    1    3    3    0    0  0.59831878697E+01  0.14612446354E+01 -0.51050119440E+01  0.79996825048E+01  0.51100000000E-03 0.  1.
         12    1    3    3    0    0  0.80951349432E+01  0.52299777394E+01  0.27625114550E+02  0.29258004559E+02  0.00000000000E+00 0. -1.
</event>
<event>
 7    1  0.3220798E-013  0.5930194E+02  0.7816164E-02  0.1266605E+00
        -11   -1    0    0    0    0  0.00000000000E+00  0.00000000000E+00  0.45593999997E+02  0.45594000000E+02  0.51100000000E-03 0. -1.
         11   -1    0    0    0    0 -0.00000000000E+00 -0.00000000000E+00 -0.45593999997E+02  0.45594000000E+02  0.51100000000E-03 0.  1.
    9900012    2    1    2    0    0 -0.31465894142E+02  0.33973618654E+01  0.38828247341E+01  0.59301938944E+02  0.49999990728E+02 0.  0.
         12    1    1    2    0    0  0.31465894142E+02 -0.33973618654E+01 -0.38828247341E+01  0.31886061056E+02  0.00000000000E+00 0. -1.
         11    1    3    3    0    0  0.44410963025E+01  0.17956832289E+02 -0.33974969816E+01  0.18807289763E+02  0.51100000000E-03 0.  1.
        -11    1    3    3    0    0 -0.13430412358E+02 -0.83953904665E+01  0.66547580769E+01  0.17179766078E+02  0.51100000000E-03 0. -1.
        -12    1    3    3    0    0 -0.22476578086E+02 -0.61640799575E+01  0.62556363881E+00  0.23314883102E+02  0.00000000000E+00 0.  1.
</event>
<event>
 7    1  0.3220798E-013  0.5930170E+02  0.7816164E-02  0.1266606E+00
        -11   -1    0    0    0    0  0.00000000000E+00  0.00000000000E+00  0.45593999997E+02  0.45594000000E+02  0.51100000000E-03 0.  1.
         11   -1    0    0    0    0 -0.00000000000E+00 -0.00000000000E+00 -0.45593999997E+02  0.45594000000E+02  0.51100000000E-03 0. -1.
    9900012    2    1    2    0    0  0.27159527859E+02 -0.13641363473E+02  0.96441268557E+01  0.59301703041E+02  0.49999560496E+02 0.  0.
         12    1    1    2    0    0 -0.27159527859E+02  0.13641363473E+02 -0.96441268557E+01  0.31886296959E+02  0.00000000000E+00 0. -1.
         11    1    3    3    0    0  0.13170427609E+02  0.64689109250E+01 -0.24231144259E+01  0.14872069652E+02  0.51100000000E-03 0. -1.
        -11    1    3    3    0    0  0.19865305404E+02 -0.27002974065E+02  0.11136516466E+02  0.35324396193E+02  0.51100000000E-03 0.  1.
         12    1    3    3    0    0 -0.58762051535E+01  0.68926996673E+01  0.93072481604E+00  0.91052371958E+01  0.00000000000E+00 0. -1.
</event>
<event>
 7    1  0.3220798E-013  0.5930196E+02  0.7816164E-02  0.1266605E+00
        -11   -1    0    0    0    0  0.00000000000E+00  0.00000000000E+00  0.45593999997E+02  0.45594000000E+02  0.51100000000E-03 0.  1.
         11   -1    0    0    0    0 -0.00000000000E+00 -0.00000000000E+00 -0.45593999997E+02  0.45594000000E+02  0.51100000000E-03 0. -1.
    9900012    2    1    2    0    0  0.23961904832E+01  0.12741347686E+02  0.29131358069E+02  0.59301957715E+02  0.50000024962E+02 0.  0.
         12    1    1    2    0    0 -0.23961904832E+01 -0.12741347686E+02 -0.29131358069E+02  0.31886042285E+02  0.00000000000E+00 0. -1.
         11    1    3    3    0    0  0.21287707418E+01  0.66090212782E+01 -0.79313375256E+01  0.10541202129E+02  0.51100000000E-03 0. -1.
        -11    1    3    3    0    0  0.15042773174E+02  0.73307315830E+01  0.17461766588E+02  0.24185490339E+02  0.51100000000E-03 0.  1.
        -12    1    3    3    0    0 -0.14775353433E+02 -0.11984051755E+01  0.19600929006E+02  0.24575265246E+02  0.00000000000E+00 0.  1.
</event>
<event>
 7    1  0.3220798E-013  0.5930194E+02  0.7816164E-02  0.1266605E+00
        -11   -1    0    0    0    0  0.00000000000E+00  0.00000000000E+00  0.45593999997E+02  0.45594000000E+02  0.51100000000E-03 0. -1.
         11   -1    0    0    0    0 -0.00000000000E+00 -0.00000000000E+00 -0.45593999997E+02  0.45594000000E+02  0.51100000000E-03 0.  1.
    9900012    2    1    2    0    0 -0.22463266037E+01  0.22153562349E+02 -0.22823108997E+02  0.59301943295E+02  0.49999998663E+02 0.  0.
         12    1    1    2    0    0  0.22463266037E+01 -0.22153562349E+02  0.22823108997E+02  0.31886056705E+02  0.00000000000E+00 0. -1.
         11    1    3    3    0    0 -0.83247550202E+01 -0.34334969561E+01 -0.10706967666E+01  0.90684529728E+01  0.51100000000E-03 0.  1.
        -11    1    3    3    0    0  0.47882507785E+01  0.31914424050E+02 -0.26870361028E+02  0.41993738938E+02  0.51100000000E-03 0. -1.
         12    1    3    3    0    0  0.12901776380E+01 -0.63273647456E+01  0.51179487979E+01  0.82397513834E+01  0.00000000000E+00 0. -1.
</event>
<event>
 7    1  0.3220798E-013  0.5930196E+02  0.7816164E-02  0.1266605E+00
        -11   -1    0    0    0    0  0.00000000000E+00  0.00000000000E+00  0.45593999997E+02  0.45594000000E+02  0.51100000000E-03 0.  1.
         11   -1    0    0    0    0 -0.00000000000E+00 -0.00000000000E+00 -0.45593999997E+02  0.45594000000E+02  0.51100000000E-03 0. -1.
    9900012    2    1    2    0    0 -0.23529280183E+02 -0.15588081550E+02  0.14835914761E+02  0.59301957926E+02  0.50000025347E+02 0.  0.
         12    1    1    2    0    0  0.23529280183E+02  0.15588081550E+02 -0.14835914761E+02  0.31886042074E+02  0.00000000000E+00 0. -1.
         11    1    3    3    0    0  0.17489294218E+01  0.36279167579E+01 -0.54417119393E+01  0.67699898978E+01  0.51100000000E-03 0. -1.
        -11    1    3    3    0    0  0.46896618405E+01 -0.12433795663E+02 -0.34286526206E+01  0.13723988553E+02  0.51100000000E-03 0.  1.
        -12    1    3    3    0    0 -0.29967871446E+02 -0.67822026451E+01  0.23706279321E+02  0.38807979475E+02  0.00000000000E+00 0.  1.
</event>
<event>
 7    1  0.3220798E-013  0.5930190E+02  0.7816164E-02  0.1266605E+00
        -11   -1    0    0    0    0  0.00000000000E+00  0.00000000000E+00  0.45593999997E+02  0.45594000000E+02  0.51100000000E-03 0.  1.
         11   -1    0    0    0    0 -0.00000000000E+00 -0.00000000000E+00 -0.45593999997E+02  0.45594000000E+02  0.51100000000E-03 0. -1.
    9900012    2    1    2    0    0  0.11901876660E+02  0.24365872158E+02  0.16774170378E+02  0.59301902936E+02  0.49999925059E+02 0.  0.
         12    1    1    2    0    0 -0.11901876660E+02 -0.24365872158E+02 -0.16774170378E+02  0.31886097064E+02  0.00000000000E+00 0. -1.
         11    1    3    3    0    0 -0.25143434241E+01 -0.55330176110E+01 -0.12772245593E+02  0.14144485303E+02  0.51100000000E-03 0. -1.
        -11    1    3    3    0    0  0.64405992148E+01  0.14118876713E+02  0.85853332519E+01  0.17735048497E+02  0.51100000000E-03 0.  1.
        -12    1    3    3    0    0  0.79756208695E+01  0.15780013056E+02  0.20961082719E+02  0.27422369136E+02  0.00000000000E+00 0.  1.
</event>
<event>
 7    1  0.3220798E-013  0.5930195E+02  0.7816164E-02  0.1266605E+00
        -11   -1    0    0    0    0  0.00000000000E+00  0.00000000000E+00  0.45593999997E+02  0.45594000000E+02  0.51100000000E-03 0. -1.
         11   -1    0    0    0    0 -0.00000000000E+00 -0.00000000000E+00 -0.45593999997E+02  0.45594000000E+02  0.51100000000E-03 0.  1.
    9900012    2    1    2    0    0 -0.89507655898E+01 -0.13321991469E+01 -0.30574980550E+02  0.59301946703E+02  0.50000004879E+02 0.  0.
         12    1    1    2    0    0  0.89507655898E+01  0.13321991469E+01  0.30574980550E+02  0.31886053297E+02  0.00000000000E+00 0. -1.
         11    1    3    3    0    0 -0.48329570664E+01  0.17316720509E+02 -0.76626646941E+01  0.19543354719E+02  0.51100000000E-03 0. -1.
        -11    1    3    3    0    0 -0.74816774937E+01  0.29911442500E+01 -0.13921118786E+02  0.16084775117E+02  0.51100000000E-03 0.  1.
        -12    1    3    3    0    0  0.33638689702E+01 -0.21640063906E+02 -0.89911970705E+01  0.23673816867E+02  0.00000000000E+00 0.  1.
</event>
<event>
 7    1  0.3220798E-013  0.5930196E+02  0.7816164E-02  0.1266605E+00
        -11   -1    0    0    0    0  0.00000000000E+00  0.00000000000E+00  0.45593999997E+02  0.45594000000E+02  0.51100000000E-03 0. -1.
         11   -1    0    0    0    0 -0.00000000000E+00 -0.00000000000E+00 -0.45593999997E+02  0.45594000000E+02  0.51100000000E-03 0.  1.
    9900012    2    1    2    0    0 -0.16482157347E+02 -0.77691224256E+00 -0.27284696214E+02  0.59301956800E+02  0.50000023293E+02 0.  0.
         12    1    1    2    0    0  0.16482157347E+02  0.77691224256E+00  0.27284696214E+02  0.31886043200E+02  0.00000000000E+00 0. -1.
         11    1    3    3    0    0 -0.84096303029E+01 -0.18397203061E+01 -0.25668977197E+01  0.89830627739E+01  0.51100000000E-03 0. -1.
        -11    1    3    3    0    0 -0.13698202206E+02 -0.17814741068E+02 -0.19954729567E+02  0.30053235689E+02  0.51100000000E-03 0.  1.
         12    1    3    3    0    0  0.56256751620E+01  0.18877549131E+02 -0.47630689278E+01  0.20265658337E+02  0.00000000000E+00 0. -1.
</event>
<event>
 7    1  0.3220798E-013  0.5930196E+02  0.7816164E-02  0.1266605E+00
        -11   -1    0    0    0    0  0.00000000000E+00  0.00000000000E+00  0.45593999997E+02  0.45594000000E+02  0.51100000000E-03 0. -1.
         11   -1    0    0    0    0 -0.00000000000E+00 -0.00000000000E+00 -0.45593999997E+02  0.45594000000E+02  0.51100000000E-03 0.  1.
    9900012    2    1    2    0    0  0.18391781694E+02 -0.74941510390E+01 -0.24945938624E+02  0.59301956227E+02  0.50000022249E+02 0.  0.
         12    1    1    2    0    0 -0.18391781694E+02  0.74941510390E+01  0.24945938624E+02  0.31886043773E+02  0.00000000000E+00 0. -1.
         11    1    3    3    0    0  0.89371879941E+01 -0.66994274819E+01 -0.13834953148E+02  0.17780933234E+02  0.51100000000E-03 0. -1.
        -11    1    3    3    0    0 -0.28624718486E-01  0.10298034447E+02 -0.21343024288E+02  0.23697574113E+02  0.51100000000E-03 0.  1.
         12    1    3    3    0    0  0.94832184185E+01 -0.11092758004E+02  0.10232038812E+02  0.17823448879E+02  0.00000000000E+00 0. -1.
</event>
<event>
 7    1  0.3220798E-013  0.5930197E+02  0.7816164E-02  0.1266605E+00
        -11   -1    0    0    0    0  0.00000000000E+00  0.00000000000E+00  0.45593999997E+02  0.45594000000E+02  0.51100000000E-03 0.  1.
         11   -1    0    0    0    0 -0.00000000000E+00 -0.00000000000E+00 -0.45593999997E+02  0.45594000000E+02  0.51100000000E-03 0. -1.
    9900012    2    1    2    0    0  0.31244615300E+02 -0.35778716190E+01 -0.52623197498E+01  0.59301966071E+02  0.50000040202E+02 0.  0.
         12    1    1    2    0    0 -0.31244615300E+02  0.35778716190E+01  0.52623197498E+01  0.31886033929E+02  0.00000000000E+00 0. -1.
         11    1    3    3    0    0  0.22371775945E+01 -0.55728812201E+01 -0.11792673990E+02  0.13233636264E+02  0.51100000000E-03 0. -1.
        -11    1    3    3    0    0 -0.79580210644E+01 -0.18506385948E+01 -0.72257829890E+00  0.82022607938E+01  0.51100000000E-03 0.  1.
        -12    1    3    3    0    0  0.36965458770E+02  0.38456481959E+01  0.72529325387E+01  0.37866069013E+02  0.00000000000E+00 0.  1.
</event>
<event>
 7    1  0.3220798E-013  0.5930195E+02  0.7816164E-02  0.1266605E+00
        -11   -1    0    0    0    0  0.00000000000E+00  0.00000000000E+00  0.45593999997E+02  0.45594000000E+02  0.51100000000E-03 0.  1.
         11   -1    0    0    0    0 -0.00000000000E+00 -0.00000000000E+00 -0.45593999997E+02  0.45594000000E+02  0.51100000000E-03 0. -1.
    9900012    2    1    2    0    0  0.13055052582E+02  0.12009784497E+02  0.26496242403E+02  0.59301950024E+02  0.50000010936E+02 0.  0.
         12    1    1    2    0    0 -0.13055052582E+02 -0.12009784497E+02 -0.26496242403E+02  0.31886049976E+02  0.00000000000E+00 0. -1.
         11    1    3    3    0    0  0.19069930105E+02  0.27350722354E+01 -0.62387744411E+01  0.20250065707E+02  0.51100000000E-03 0. -1.
        -11    1    3    3    0    0  0.39632335234E+01  0.59115582563E+01  0.24981505015E+02  0.25975552622E+02  0.51100000000E-03 0.  1.
        -12    1    3    3    0    0 -0.99781110464E+01  0.33631540053E+01  0.77535118292E+01  0.13076331695E+02  0.00000000000E+00 0.  1.
</event>
<event>
 7    1  0.3220798E-013  0.5930192E+02  0.7816164E-02  0.1266605E+00
        -11   -1    0    0    0    0  0.00000000000E+00  0.00000000000E+00  0.45593999997E+02  0.45594000000E+02  0.51100000000E-03 0. -1.
         11   -1    0    0    0    0 -0.00000000000E+00 -0.00000000000E+00 -0.45593999997E+02  0.45594000000E+02  0.51100000000E-03 0.  1.
    9900012    2    1    2    0    0 -0.21936262807E+01 -0.17718797798E+02 -0.26418822841E+02  0.59301921659E+02  0.49999959204E+02 0.  0.
         12    1    1    2    0    0  0.21936262807E+01  0.17718797798E+02  0.26418822841E+02  0.31886078341E+02  0.00000000000E+00 0. -1.
         11    1    3    3    0    0  0.11215431955E+02  0.61729446331E+01 -0.15871189463E+02  0.20390826727E+02  0.51100000000E-03 0. -1.
        -11    1    3    3    0    0 -0.45762687571E+01 -0.10330067065E+02 -0.17874074198E+02  0.21145568094E+02  0.51100000000E-03 0.  1.
        -12    1    3    3    0    0 -0.88327894791E+01 -0.13561675366E+02  0.73264408203E+01  0.17765526838E+02  0.00000000000E+00 0.  1.
</event>
<event>
 7    1  0.3220798E-013  0.5930170E+02  0.7816164E-02  0.1266606E+00
        -11   -1    0    0    0    0  0.00000000000E+00  0.00000000000E+00  0.45593999997E+02  0.45594000000E+02  0.51100000000E-03 0.  1.
         11   -1    0    0    0    0 -0.00000000000E+00 -0.00000000000E+00 -0.45593999997E+02  0.45594000000E+02  0.51100000000E-03 0. -1.
    9900012    2    1    2    0    0 -0.25154945145E+02 -0.13197831206E+02  0.14483862387E+02  0.59301697558E+02  0.49999550497E+02 0.  0.
         12    1    1    2    0    0  0.25154945145E+02  0.13197831206E+02 -0.14483862387E+02  0.31886302442E+02  0.00000000000E+00 0. -1.
         11    1    3    3    0    0 -0.26091695228E+02  0.21517731610E+01  0.28920498856E+00  0.26181870205E+02  0.51100000000E-03 0. -1.
        -11    1    3    3    0    0 -0.64652142153E+01 -0.64455488625E+01  0.18609201596E+02  0.20727915459E+02  0.51100000000E-03 0.  1.
         12    1    3    3    0    0  0.74019642993E+01 -0.89040555048E+01 -0.44145441975E+01  0.12391911894E+02  0.00000000000E+00 0. -1.
</event>
<event>
 7    1  0.3220798E-013  0.5930193E+02  0.7816164E-02  0.1266605E+00
        -11   -1    0    0    0    0  0.00000000000E+00  0.00000000000E+00  0.45593999997E+02  0.45594000000E+02  0.51100000000E-03 0.  1.
         11   -1    0    0    0    0 -0.00000000000E+00 -0.00000000000E+00 -0.45593999997E+02  0.45594000000E+02  0.51100000000E-03 0. -1.
    9900012    2    1    2    0    0 -0.30184984321E+02 -0.91577720119E+01 -0.46608212613E+01  0.59301932172E+02  0.49999978378E+02 0.  0.
         12    1    1    2    0    0  0.30184984321E+02  0.91577720119E+01  0.46608212613E+01  0.31886067828E+02  0.00000000000E+00 0. -1.
         11    1    3    3    0    0  0.25043549021E+01 -0.38407175186E+01  0.76112373210E+01  0.88855972422E+01  0.51100000000E-03 0. -1.
        -11    1    3    3    0    0 -0.10742338775E+02 -0.19824736585E+02 -0.46085563877E+01  0.23014274163E+02  0.51100000000E-03 0.  1.
         12    1    3    3    0    0 -0.21947000449E+02  0.14507682092E+02 -0.76635021946E+01  0.27402060767E+02  0.00000000000E+00 0. -1.
</event>
<event>
 7    1  0.3220798E-013  0.5930187E+02  0.7816164E-02  0.1266605E+00
        -11   -1    0    0    0    0  0.00000000000E+00  0.00000000000E+00  0.45593999997E+02  0.45594000000E+02  0.51100000000E-03 0.  1.
         11   -1    0    0    0    0 -0.00000000000E+00 -0.00000000000E+00 -0.45593999997E+02  0.45594000000E+02  0.51100000000E-03 0. -1.
    9900012    2    1    2    0    0  0.95144802772E+01 -0.23605718112E+02  0.19208588272E+02  0.59301872516E+02  0.49999869580E+02 0.  0.
         12    1    1    2    0    0 -0.95144802772E+01  0.23605718112E+02 -0.19208588272E+02  0.31886127484E+02  0.00000000000E+00 0. -1.
         11    1    3    3    0    0  0.58630910388E+01  0.34445108479E+01 -0.13482534118E+01  0.69324078814E+01  0.51100000000E-03 0. -1.
        -11    1    3    3    0    0 -0.36903968484E+01 -0.88740540814E+01  0.29350890568E+02  0.30884342994E+02  0.51100000000E-03 0.  1.
         12    1    3    3    0    0  0.73417860868E+01 -0.18176174878E+02 -0.87940488848E+01  0.21485121641E+02  0.00000000000E+00 0. -1.
</event>
<event>
 7    1  0.3220798E-013  0.5930191E+02  0.7816164E-02  0.1266605E+00
        -11   -1    0    0    0    0  0.00000000000E+00  0.00000000000E+00  0.45593999997E+02  0.45594000000E+02  0.51100000000E-03 0.  1.
         11   -1    0    0    0    0 -0.00000000000E+00 -0.00000000000E+00 -0.45593999997E+02  0.45594000000E+02  0.51100000000E-03 0. -1.
    9900012    2    1    2    0    0 -0.43302301411E+00  0.30547955563E+02  0.91300360235E+01  0.59301911250E+02  0.49999940220E+02 0.  0.
         12    1    1    2    0    0  0.43302301411E+00 -0.30547955563E+02 -0.91300360235E+01  0.31886088750E+02  0.00000000000E+00 0. -1.
         11    1    3    3    0    0 -0.65504690166E+01  0.13011210370E+02  0.62921419053E+01  0.15867932746E+02  0.51100000000E-03 0. -1.
        -11    1    3    3    0    0 -0.13733471638E+02  0.12111535660E+02  0.10925516523E+02  0.21322862163E+02  0.51100000000E-03 0.  1.
         12    1    3    3    0    0  0.19850917641E+02  0.54252095334E+01 -0.80876224046E+01  0.22111116340E+02  0.00000000000E+00 0. -1.
</event>
<event>
 7    1  0.3220798E-013  0.5930195E+02  0.7816164E-02  0.1266605E+00
        -11   -1    0    0    0    0  0.00000000000E+00  0.00000000000E+00  0.45593999997E+02  0.45594000000E+02  0.51100000000E-03 0. -1.
         11   -1    0    0    0    0 -0.00000000000E+00 -0.00000000000E+00 -0.45593999997E+02  0.45594000000E+02  0.51100000000E-03 0.  1.
    9900012    2    1    2    0    0  0.12097195023E+02 -0.26641429346E+02  0.12673300847E+02  0.59301946005E+02  0.50000003606E+02 0.  0.
         12    1    1    2    0    0 -0.12097195023E+02  0.26641429346E+02 -0.12673300847E+02  0.31886053995E+02  0.00000000000E+00 0. -1.
         11    1    3    3    0    0  0.17549726116E+02 -0.29748082565E+00  0.12229375768E+02  0.21392499002E+02  0.51100000000E-03 0. -1.
        -11    1    3    3    0    0  0.10868378742E+02 -0.10104381570E+02 -0.70949080591E+00  0.14856768183E+02  0.51100000000E-03 0.  1.
         12    1    3    3    0    0 -0.16320909835E+02 -0.16239566950E+02  0.11534158844E+01  0.23052678820E+02  0.00000000000E+00 0. -1.
</event>
<event>
 7    1  0.3253936E-013  0.5930194E+02  0.7816164E-02  0.1266605E+00
        -11   -1    0    0    0    0  0.00000000000E+00  0.00000000000E+00  0.45593999997E+02  0.45594000000E+02  0.51100000000E-03 0. -1.
         11   -1    0    0    0    0 -0.00000000000E+00 -0.00000000000E+00 -0.45593999997E+02  0.45594000000E+02  0.51100000000E-03 0.  1.
    9900012    2    1    2    0    0  0.89387313631E+01  0.21568653203E+02 -0.21716661627E+02  0.59301935465E+02  0.49999984383E+02 0.  0.
         12    1    1    2    0    0 -0.89387313631E+01 -0.21568653203E+02  0.21716661627E+02  0.31886064535E+02  0.00000000000E+00 0. -1.
         11    1    3    3    0    0 -0.80836423216E+01  0.79385679013E+01 -0.18515205501E+02  0.21706657240E+02  0.51100000000E-03 0. -1.
        -11    1    3    3    0    0  0.14791329715E+02  0.14651666218E+02 -0.14925694504E+02  0.25617008303E+02  0.51100000000E-03 0.  1.
         12    1    3    3    0    0  0.22310439701E+01 -0.10215809167E+01  0.11724238379E+02  0.11978269922E+02  0.00000000000E+00 0. -1.
</event>
<event>
 7    1  0.3220798E-013  0.5930195E+02  0.7816164E-02  0.1266605E+00
        -11   -1    0    0    0    0  0.00000000000E+00  0.00000000000E+00  0.45593999997E+02  0.45594000000E+02  0.51100000000E-03 0.  1.
         11   -1    0    0    0    0 -0.00000000000E+00 -0.00000000000E+00 -0.45593999997E+02  0.45594000000E+02  0.51100000000E-03 0. -1.
    9900012    2    1    2    0    0  0.22621881880E+02 -0.10488486400E+02  0.19873657607E+02  0.59301950489E+02  0.50000011784E+02 0.  0.
         12    1    1    2    0    0 -0.22621881880E+02  0.10488486400E+02 -0.19873657607E+02  0.31886049511E+02  0.00000000000E+00 0. -1.
         11    1    3    3    0    0 -0.50387024340E+01 -0.10593401702E+02 -0.10056139839E+02  0.15451039789E+02  0.51100000000E-03 0. -1.
        -11    1    3    3    0    0  0.61760643838E+01  0.23034242438E+01 -0.41587411384E+00  0.66047320960E+01  0.51100000000E-03 0.  1.
        -12    1    3    3    0    0  0.21484519930E+02 -0.21985089413E+01  0.30345671560E+02  0.37246178604E+02  0.00000000000E+00 0.  1.
</event>
<event>
 7    1  0.3220798E-013  0.5930199E+02  0.7816164E-02  0.1266605E+00
        -11   -1    0    0    0    0  0.00000000000E+00  0.00000000000E+00  0.45593999997E+02  0.45594000000E+02  0.51100000000E-03 0.  1.
         11   -1    0    0    0    0 -0.00000000000E+00 -0.00000000000E+00 -0.45593999997E+02  0.45594000000E+02  0.51100000000E-03 0. -1.
    9900012    2    1    2    0    0 -0.94999999159E+01  0.34688804648E+01  0.30239614960E+02  0.59301992991E+02  0.50000089296E+02 0.  0.
         12    1    1    2    0    0  0.94999999159E+01 -0.34688804648E+01 -0.30239614960E+02  0.31886007009E+02  0.00000000000E+00 0. -1.
         11    1    3    3    0    0  0.82941463355E+01 -0.13895926453E+02  0.11316159569E+02  0.19747027702E+02  0.51100000000E-03 0. -1.
        -11    1    3    3    0    0  0.18355567832E+01 -0.14681944124E+01  0.10961464424E+02  0.11210645214E+02  0.51100000000E-03 0.  1.
         12    1    3    3    0    0 -0.19629703035E+02  0.18833001330E+02  0.79619909668E+01  0.28344320074E+02  0.00000000000E+00 0. -1.
</event>
<event>
 7    1  0.3220798E-013  0.5930186E+02  0.7816164E-02  0.1266605E+00
        -11   -1    0    0    0    0  0.00000000000E+00  0.00000000000E+00  0.45593999997E+02  0.45594000000E+02  0.51100000000E-03 0.  1.
         11   -1    0    0    0    0 -0.00000000000E+00 -0.00000000000E+00 -0.45593999997E+02  0.45594000000E+02  0.51100000000E-03 0. -1.
    9900012    2    1    2    0    0  0.14693769987E+02 -0.64865199963E+01  0.27545310175E+02  0.59301859896E+02  0.49999846564E+02 0.  0.
         12    1    1    2    0    0 -0.14693769987E+02  0.64865199963E+01 -0.27545310175E+02  0.31886140104E+02  0.00000000000E+00 0. -1.
         11    1    3    3    0    0  0.10396367610E+02  0.10013429125E+02  0.26902979223E+01  0.14683014864E+02  0.51100000000E-03 0. -1.
        -11    1    3    3    0    0  0.14933653229E+02  0.19390574077E+01  0.14660782439E+02  0.21016957068E+02  0.51100000000E-03 0.  1.
        -12    1    3    3    0    0 -0.10636250853E+02 -0.18439006529E+02  0.10194229814E+02  0.23601887964E+02  0.00000000000E+00 0.  1.
</event>
<event>
 7    1  0.3220798E-013  0.5930194E+02  0.7816164E-02  0.1266605E+00
        -11   -1    0    0    0    0  0.00000000000E+00  0.00000000000E+00  0.45593999997E+02  0.45594000000E+02  0.51100000000E-03 0. -1.
         11   -1    0    0    0    0 -0.00000000000E+00 -0.00000000000E+00 -0.45593999997E+02  0.45594000000E+02  0.51100000000E-03 0.  1.
    9900012    2    1    2    0    0 -0.27415638657E+02 -0.51608692944E+00 -0.16273822431E+02  0.59301939014E+02  0.49999990857E+02 0.  0.
         12    1    1    2    0    0  0.27415638657E+02  0.51608692944E+00  0.16273822431E+02  0.31886060986E+02  0.00000000000E+00 0. -1.
         11    1    3    3    0    0  0.14074951052E+01  0.38123499537E+01  0.61546872128E+01  0.73753121689E+01  0.51100000000E-03 0. -1.
        -11    1    3    3    0    0 -0.11426869782E+02 -0.32778245112E+01  0.97215924876E+01  0.15356654821E+02  0.51100000000E-03 0.  1.
        -12    1    3    3    0    0 -0.17396263980E+02 -0.10506123719E+01 -0.32150102131E+02  0.36569972024E+02  0.00000000000E+00 0.  1.
</event>
<event>
 7    1  0.3220798E-013  0.5930194E+02  0.7816164E-02  0.1266605E+00
        -11   -1    0    0    0    0  0.00000000000E+00  0.00000000000E+00  0.45593999997E+02  0.45594000000E+02  0.51100000000E-03 0. -1.
         11   -1    0    0    0    0 -0.00000000000E+00 -0.00000000000E+00 -0.45593999997E+02  0.45594000000E+02  0.51100000000E-03 0.  1.
    9900012    2    1    2    0    0 -0.26975367110E+01 -0.89606726491E+01 -0.30481965929E+02  0.59301943400E+02  0.49999998854E+02 0.  0.
         12    1    1    2    0    0  0.26975367110E+01  0.89606726491E+01  0.30481965929E+02  0.31886056600E+02  0.00000000000E+00 0. -1.
         11    1    3    3    0    0 -0.80144496695E+01 -0.12012281845E+02  0.87223513112E+01  0.16870261743E+02  0.51100000000E-03 0. -1.
        -11    1    3    3    0    0 -0.32511406452E+01 -0.19236856377E+01 -0.27972752134E+01  0.47005564360E+01  0.51100000000E-03 0.  1.
        -12    1    3    3    0    0  0.85680536037E+01  0.49752948338E+01 -0.36407042027E+02  0.37731125220E+02  0.00000000000E+00 0.  1.
</event>
<event>
 7    1  0.3220798E-013  0.5930201E+02  0.7816164E-02  0.1266605E+00
        -11   -1    0    0    0    0  0.00000000000E+00  0.00000000000E+00  0.45593999997E+02  0.45594000000E+02  0.51100000000E-03 0. -1.
         11   -1    0    0    0    0 -0.00000000000E+00 -0.00000000000E+00 -0.45593999997E+02  0.45594000000E+02  0.51100000000E-03 0.  1.
    9900012    2    1    2    0    0  0.39934017082E+01 -0.30753589556E+02 -0.74152293944E+01  0.59302013192E+02  0.50000126139E+02 0.  0.
         12    1    1    2    0    0 -0.39934017082E+01  0.30753589556E+02  0.74152293944E+01  0.31885986808E+02  0.00000000000E+00 0. -1.
         11    1    3    3    0    0 -0.46377843797E+01  0.24362626994E+01  0.88527047530E+01  0.10286632180E+02  0.51100000000E-03 0. -1.
        -11    1    3    3    0    0  0.10089759970E+02 -0.34025249257E+01 -0.15965829023E+02  0.19190834499E+02  0.51100000000E-03 0.  1.
         12    1    3    3    0    0 -0.14585738824E+01 -0.29787327329E+02 -0.30210512415E+00  0.29824546513E+02  0.00000000000E+00 0. -1.
</event>
<event>
 7    1  0.3220798E-013  0.5930193E+02  0.7816164E-02  0.1266605E+00
        -11   -1    0    0    0    0  0.00000000000E+00  0.00000000000E+00  0.45593999997E+02  0.45594000000E+02  0.51100000000E-03 0. -1.
         11   -1    0    0    0    0 -0.00000000000E+00 -0.00000000000E+00 -0.45593999997E+02  0.45594000000E+02  0.51100000000E-03 0.  1.
    9900012    2    1    2    0    0 -0.20610286952E+02 -0.69140914734E+01 -0.23326649175E+02  0.59301934848E+02  0.49999983259E+02 0.  0.
         12    1    1    2    0    0  0.20610286952E+02  0.69140914734E+01  0.23326649175E+02  0.31886065152E+02  0.00000000000E+00 0. -1.
         11    1    3    3    0    0 -0.82247135157E+01  0.76573352658E+01 -0.37323961168E+01  0.11841092721E+02  0.51100000000E-03 0. -1.
        -11    1    3    3    0    0  0.75803736894E+00  0.16532317916E+01 -0.25654355035E+02  0.25718742748E+02  0.51100000000E-03 0.  1.
        -12    1    3    3    0    0 -0.13143610805E+02 -0.16224658531E+02  0.60601019775E+01  0.21742099379E+02  0.00000000000E+00 0.  1.
</event>
<event>
 7    1  0.3220798E-013  0.5930193E+02  0.7816164E-02  0.1266605E+00
        -11   -1    0    0    0    0  0.00000000000E+00  0.00000000000E+00  0.45593999997E+02  0.45594000000E+02  0.51100000000E-03 0. -1.
         11   -1    0    0    0    0 -0.00000000000E+00 -0.00000000000E+00 -0.45593999997E+02  0.45594000000E+02  0.51100000000E-03 0.  1.
    9900012    2    1    2    0    0 -0.21248446152E+02 -0.23273906521E+02 -0.48528752640E+01  0.59301928010E+02  0.49999970787E+02 0.  0.
         12    1    1    2    0    0  0.21248446152E+02  0.23273906521E+02  0.48528752640E+01  0.31886071990E+02  0.00000000000E+00 0. -1.
         11    1    3    3    0    0 -0.52938213206E+01 -0.92830592939E+01 -0.32269025235E+01  0.11163002920E+02  0.51100000000E-03 0. -1.
        -11    1    3    3    0    0 -0.16309362866E+02 -0.25835570078E+02  0.93861995446E+01  0.31962051569E+02  0.51100000000E-03 0.  1.
        -12    1    3    3    0    0  0.35473803394E+00  0.11844722851E+02 -0.11012172285E+02  0.16176873521E+02  0.00000000000E+00 0.  1.
</event>
<event>
 7    1  0.3220798E-013  0.5930207E+02  0.7816164E-02  0.1266604E+00
        -11   -1    0    0    0    0  0.00000000000E+00  0.00000000000E+00  0.45593999997E+02  0.45594000000E+02  0.51100000000E-03 0. -1.
         11   -1    0    0    0    0 -0.00000000000E+00 -0.00000000000E+00 -0.45593999997E+02  0.45594000000E+02  0.51100000000E-03 0.  1.
    9900012    2    1    2    0    0  0.10136597444E+02  0.13891515760E+01 -0.30199873932E+02  0.59302066810E+02  0.50000223926E+02 0.  0.
         12    1    1    2    0    0 -0.10136597444E+02 -0.13891515760E+01  0.30199873932E+02  0.31885933190E+02  0.00000000000E+00 0. -1.
         11    1    3    3    0    0  0.59405230444E+01  0.16188636959E+02 -0.19779220368E+02  0.26240795324E+02  0.51100000000E-03 0. -1.
        -11    1    3    3    0    0 -0.29979522645E+00 -0.56099239096E+01  0.92884215218E+01  0.10855224460E+02  0.51100000000E-03 0.  1.
         12    1    3    3    0    0  0.44958696264E+01 -0.91895614733E+01 -0.19709075087E+02  0.22206047026E+02  0.00000000000E+00 0. -1.
</event>
<event>
 7    1  0.3220798E-013  0.5930195E+02  0.7816164E-02  0.1266605E+00
        -11   -1    0    0    0    0  0.00000000000E+00  0.00000000000E+00  0.45593999997E+02  0.45594000000E+02  0.51100000000E-03 0.  1.
         11   -1    0    0    0    0 -0.00000000000E+00 -0.00000000000E+00 -0.45593999997E+02  0.45594000000E+02  0.51100000000E-03 0. -1.
    9900012    2    1    2    0    0 -0.20438768197E+02  0.16951580396E+02  0.17652786623E+02  0.59301949776E+02  0.50000010484E+02 0.  0.
         12    1    1    2    0    0  0.20438768197E+02 -0.16951580396E+02 -0.17652786623E+02  0.31886050224E+02  0.00000000000E+00 0. -1.
         11    1    3    3    0    0 -0.74779535060E+01  0.62194573134E+01 -0.71075470607E+00  0.97522618107E+01  0.51100000000E-03 0. -1.
        -11    1    3    3    0    0 -0.18723466037E+01  0.24760132923E+02  0.13496548405E+01  0.24867477407E+02  0.51100000000E-03 0.  1.
         12    1    3    3    0    0 -0.11088468087E+02 -0.14028009840E+02  0.17013886488E+02  0.24682210558E+02  0.00000000000E+00 0. -1.
</event>
<event>
 7    1  0.3220798E-013  0.5930196E+02  0.7816164E-02  0.1266605E+00
        -11   -1    0    0    0    0  0.00000000000E+00  0.00000000000E+00  0.45593999997E+02  0.45594000000E+02  0.51100000000E-03 0.  1.
         11   -1    0    0    0    0 -0.00000000000E+00 -0.00000000000E+00 -0.45593999997E+02  0.45594000000E+02  0.51100000000E-03 0. -1.
    9900012    2    1    2    0    0  0.97753678212E+01  0.30201907484E+02 -0.30010896374E+01  0.59301959626E+02  0.50000028447E+02 0.  0.
         12    1    1    2    0    0 -0.97753678212E+01 -0.30201907484E+02  0.30010896374E+01  0.31886040374E+02  0.00000000000E+00 0. -1.
         11    1    3    3    0    0 -0.79505130063E+01 -0.19281299475E+01  0.27633461519E+01  0.86350694482E+01  0.51100000000E-03 0. -1.
        -11    1    3    3    0    0  0.16511867301E+02  0.69079441810E+00  0.52370235771E+01  0.17336244544E+02  0.51100000000E-03 0.  1.
        -12    1    3    3    0    0  0.12140135265E+01  0.31439243014E+02 -0.11001459366E+02  0.33330645633E+02  0.00000000000E+00 0.  1.
</event>
<event>
 7    1  0.3220798E-013  0.5930199E+02  0.7816164E-02  0.1266605E+00
        -11   -1    0    0    0    0  0.00000000000E+00  0.00000000000E+00  0.45593999997E+02  0.45594000000E+02  0.51100000000E-03 0.  1.
         11   -1    0    0    0    0 -0.00000000000E+00 -0.00000000000E+00 -0.45593999997E+02  0.45594000000E+02  0.51100000000E-03 0. -1.
    9900012    2    1    2    0    0  0.19026688450E+02  0.16657499287E+02 -0.19422414023E+02  0.59301994882E+02  0.50000092746E+02 0.  0.
         12    1    1    2    0    0 -0.19026688450E+02 -0.16657499287E+02  0.19422414023E+02  0.31886005118E+02  0.00000000000E+00 0. -1.
         11    1    3    3    0    0 -0.34308263316E+01  0.11135197674E+02  0.31335757378E+01  0.12065757072E+02  0.51100000000E-03 0. -1.
        -11    1    3    3    0    0  0.12324430747E+02  0.10303416635E+02  0.55368802591E+01  0.16991439929E+02  0.51100000000E-03 0.  1.
         12    1    3    3    0    0  0.10133084035E+02 -0.47811150223E+01 -0.28092870020E+02  0.30244797881E+02  0.00000000000E+00 0. -1.
</event>
<event>
 7    1  0.3220798E-013  0.5930197E+02  0.7816164E-02  0.1266605E+00
        -11   -1    0    0    0    0  0.00000000000E+00  0.00000000000E+00  0.45593999997E+02  0.45594000000E+02  0.51100000000E-03 0. -1.
         11   -1    0    0    0    0 -0.00000000000E+00 -0.00000000000E+00 -0.45593999997E+02  0.45594000000E+02  0.51100000000E-03 0.  1.
    9900012    2    1    2    0    0 -0.14169227537E+02  0.73091717459E+01 -0.27613911723E+02  0.59301966675E+02  0.50000041302E+02 0.  0.
         12    1    1    2    0    0  0.14169227537E+02 -0.73091717459E+01  0.27613911723E+02  0.31886033325E+02  0.00000000000E+00 0. -1.
         11    1    3    3    0    0  0.21002934924E+01 -0.48620960715E+00 -0.12225014319E+02  0.12413646035E+02  0.51100000000E-03 0. -1.
        -11    1    3    3    0    0  0.86451342378E+01 -0.30205254528E+01  0.71302125396E+01  0.11606112662E+02  0.51100000000E-03 0.  1.
         12    1    3    3    0    0 -0.24914655267E+02  0.10815906806E+02 -0.22519109944E+02  0.35282207977E+02  0.00000000000E+00 0. -1.
</event>
<event>
 7    1  0.3220798E-013  0.5930195E+02  0.7816164E-02  0.1266605E+00
        -11   -1    0    0    0    0  0.00000000000E+00  0.00000000000E+00  0.45593999997E+02  0.45594000000E+02  0.51100000000E-03 0.  1.
         11   -1    0    0    0    0 -0.00000000000E+00 -0.00000000000E+00 -0.45593999997E+02  0.45594000000E+02  0.51100000000E-03 0. -1.
    9900012    2    1    2    0    0 -0.22501142909E+02  0.16044264766E+02  0.15905978206E+02  0.59301952789E+02  0.50000015978E+02 0.  0.
         12    1    1    2    0    0  0.22501142909E+02 -0.16044264766E+02 -0.15905978206E+02  0.31886047211E+02  0.00000000000E+00 0. -1.
         11    1    3    3    0    0 -0.19021768964E+02  0.31123883339E+01  0.10761759759E+02  0.22075555010E+02  0.51100000000E-03 0. -1.
        -11    1    3    3    0    0  0.90800965613E+01  0.12416168135E+02  0.14822933914E+02  0.21361852795E+02  0.51100000000E-03 0.  1.
         12    1    3    3    0    0 -0.12559470506E+02  0.51570829657E+00 -0.96787154672E+01  0.15864544984E+02  0.00000000000E+00 0. -1.
</event>
<event>
 7    1  0.3220798E-013  0.5930194E+02  0.7816164E-02  0.1266605E+00
        -11   -1    0    0    0    0  0.00000000000E+00  0.00000000000E+00  0.45593999997E+02  0.45594000000E+02  0.51100000000E-03 0.  1.
         11   -1    0    0    0    0 -0.00000000000E+00 -0.00000000000E+00 -0.45593999997E+02  0.45594000000E+02  0.51100000000E-03 0. -1.
    9900012    2    1    2    0    0 -0.16248126866E+02  0.24438230092E+02 -0.12469638612E+02  0.59301943426E+02  0.49999998903E+02 0.  0.
         12    1    1    2    0    0  0.16248126866E+02 -0.24438230092E+02  0.12469638612E+02  0.31886056574E+02  0.00000000000E+00 0. -1.
         11    1    3    3    0    0  0.17088993337E+01  0.39441732215E+01 -0.16543876756E+01  0.46058482581E+01  0.51100000000E-03 0.  1.
        -11    1    3    3    0    0 -0.28985547468E+02  0.12205731120E+02  0.69438854600E+01  0.32208063892E+02  0.51100000000E-03 0. -1.
         12    1    3    3    0    0  0.11028521267E+02  0.82883257510E+01 -0.17759136397E+02  0.22488031276E+02  0.00000000000E+00 0. -1.
</event>
<event>
 7    1  0.3220798E-013  0.5930197E+02  0.7816164E-02  0.1266605E+00
        -11   -1    0    0    0    0  0.00000000000E+00  0.00000000000E+00  0.45593999997E+02  0.45594000000E+02  0.51100000000E-03 0. -1.
         11   -1    0    0    0    0 -0.00000000000E+00 -0.00000000000E+00 -0.45593999997E+02  0.45594000000E+02  0.51100000000E-03 0.  1.
    9900012    2    1    2    0    0  0.83340850243E+01  0.26798746355E+02 -0.15135685051E+02  0.59301972631E+02  0.50000052166E+02 0.  0.
         12    1    1    2    0    0 -0.83340850243E+01 -0.26798746355E+02  0.15135685051E+02  0.31886027369E+02  0.00000000000E+00 0. -1.
         11    1    3    3    0    0  0.14810973944E+02  0.20628129757E+01  0.32007427526E+01  0.15292642054E+02  0.51100000000E-03 0.  1.
        -11    1    3    3    0    0 -0.15813798167E+02  0.40967608020E+01 -0.28852583341E+01  0.16588682209E+02  0.51100000000E-03 0. -1.
         12    1    3    3    0    0  0.93369092467E+01  0.20639172577E+02 -0.15451169470E+02  0.27420648368E+02  0.00000000000E+00 0. -1.
</event>
<event>
 7    1  0.3220798E-013  0.5930194E+02  0.7816164E-02  0.1266605E+00
        -11   -1    0    0    0    0  0.00000000000E+00  0.00000000000E+00  0.45593999997E+02  0.45594000000E+02  0.51100000000E-03 0. -1.
         11   -1    0    0    0    0 -0.00000000000E+00 -0.00000000000E+00 -0.45593999997E+02  0.45594000000E+02  0.51100000000E-03 0.  1.
    9900012    2    1    2    0    0 -0.23400830755E+02 -0.21436187293E+02 -0.31003099269E+01  0.59301938354E+02  0.49999989652E+02 0.  0.
         12    1    1    2    0    0  0.23400830755E+02  0.21436187293E+02  0.31003099269E+01  0.31886061646E+02  0.00000000000E+00 0. -1.
         11    1    3    3    0    0  0.87487996579E+01  0.21597410307E+01 -0.49896915590E+00  0.90252394569E+01  0.51100000000E-03 0. -1.
        -11    1    3    3    0    0 -0.88092499654E+01  0.67800107963E+01  0.31161875928E+01  0.11544784828E+02  0.51100000000E-03 0.  1.
        -12    1    3    3    0    0 -0.23340380448E+02 -0.30375939120E+02 -0.57175283638E+01  0.38731914069E+02  0.00000000000E+00 0.  1.
</event>
<event>
 7    1  0.3220798E-013  0.5930194E+02  0.7816164E-02  0.1266605E+00
        -11   -1    0    0    0    0  0.00000000000E+00  0.00000000000E+00  0.45593999997E+02  0.45594000000E+02  0.51100000000E-03 0.  1.
         11   -1    0    0    0    0 -0.00000000000E+00 -0.00000000000E+00 -0.45593999997E+02  0.45594000000E+02  0.51100000000E-03 0. -1.
    9900012    2    1    2    0    0 -0.22694301315E+02 -0.72849749247E+01  0.21180617148E+02  0.59301941690E+02  0.49999995736E+02 0.  0.
         12    1    1    2    0    0  0.22694301315E+02  0.72849749247E+01 -0.21180617148E+02  0.31886058310E+02  0.00000000000E+00 0. -1.
         11    1    3    3    0    0  0.18265924452E+01 -0.46694703636E+01 -0.57453385953E+01  0.76255694393E+01  0.51100000000E-03 0. -1.
        -11    1    3    3    0    0 -0.52201569078E+00 -0.16277205585E+02  0.12435002508E+02  0.20490222294E+02  0.51100000000E-03 0.  1.
        -12    1    3    3    0    0 -0.23998878069E+02  0.13661701024E+02  0.14490953235E+02  0.31186149956E+02  0.00000000000E+00 0.  1.
</event>
<event>
 7    1  0.3220798E-013  0.5930194E+02  0.7816164E-02  0.1266605E+00
        -11   -1    0    0    0    0  0.00000000000E+00  0.00000000000E+00  0.45593999997E+02  0.45594000000E+02  0.51100000000E-03 0.  1.
         11   -1    0    0    0    0 -0.00000000000E+00 -0.00000000000E+00 -0.45593999997E+02  0.45594000000E+02  0.51100000000E-03 0. -1.
    9900012    2    1    2    0    0 -0.18509411433E+02  0.22871379416E+02  0.12289112268E+02  0.59301943669E+02  0.49999999346E+02 0.  0.
         12    1    1    2    0    0  0.18509411433E+02 -0.22871379416E+02 -0.12289112268E+02  0.31886056331E+02  0.00000000000E+00 0. -1.
         11    1    3    3    0    0  0.59821266502E+00 -0.78025124413E+00  0.86376216907E+01  0.86933974446E+01  0.51100000000E-03 0. -1.
        -11    1    3    3    0    0 -0.14538741885E+02 -0.24110255504E+01  0.15701102504E+02  0.21533988945E+02  0.51100000000E-03 0.  1.
         12    1    3    3    0    0 -0.45688822131E+01  0.26062656211E+02 -0.12049611926E+02  0.29074557280E+02  0.00000000000E+00 0. -1.
</event>
<event>
 7    1  0.3220798E-013  0.5930194E+02  0.7816164E-02  0.1266605E+00
        -11   -1    0    0    0    0  0.00000000000E+00  0.00000000000E+00  0.45593999997E+02  0.45594000000E+02  0.51100000000E-03 0.  1.
         11   -1    0    0    0    0 -0.00000000000E+00 -0.00000000000E+00 -0.45593999997E+02  0.45594000000E+02  0.51100000000E-03 0. -1.
    9900012    2    1    2    0    0 -0.44372645240E+01  0.48465283811E+01  0.31201645906E+02  0.59301939392E+02  0.49999991546E+02 0.  0.
         12    1    1    2    0    0  0.44372645240E+01 -0.48465283811E+01 -0.31201645906E+02  0.31886060608E+02  0.00000000000E+00 0. -1.
         11    1    3    3    0    0 -0.21833039606E+02 -0.10471257652E+02  0.16122146565E+02  0.29090418790E+02  0.51100000000E-03 0.  1.
        -11    1    3    3    0    0  0.85890437245E+01  0.53649904387E+01  0.20511252250E-01  0.10126954897E+02  0.51100000000E-03 0. -1.
        -12    1    3    3    0    0  0.88067313569E+01  0.99527955939E+01  0.15058988089E+02  0.20084565706E+02  0.00000000000E+00 0.  1.
</event>
<event>
 7    1  0.3220798E-013  0.5930197E+02  0.7816164E-02  0.1266605E+00
        -11   -1    0    0    0    0  0.00000000000E+00  0.00000000000E+00  0.45593999997E+02  0.45594000000E+02  0.51100000000E-03 0.  1.
         11   -1    0    0    0    0 -0.00000000000E+00 -0.00000000000E+00 -0.45593999997E+02  0.45594000000E+02  0.51100000000E-03 0. -1.
    9900012    2    1    2    0    0  0.21774046999E+02  0.20357534880E+02  0.11321696149E+02  0.59301966180E+02  0.50000040400E+02 0.  0.
         12    1    1    2    0    0 -0.21774046999E+02 -0.20357534880E+02 -0.11321696149E+02  0.31886033820E+02  0.00000000000E+00 0. -1.
         11    1    3    3    0    0  0.13166431974E+02  0.75343967502E+01 -0.18529535026E+02  0.23947144586E+02  0.51100000000E-03 0. -1.
        -11    1    3    3    0    0  0.57494706137E+01  0.10145414650E+02  0.10763513400E+02  0.15869438293E+02  0.51100000000E-03 0.  1.
        -12    1    3    3    0    0  0.28581444115E+01  0.26777234798E+01  0.19087717775E+02  0.19485383301E+02  0.00000000000E+00 0.  1.
</event>
<event>
 7    1  0.3220798E-013  0.5930205E+02  0.7816164E-02  0.1266604E+00
        -11   -1    0    0    0    0  0.00000000000E+00  0.00000000000E+00  0.45593999997E+02  0.45594000000E+02  0.51100000000E-03 0.  1.
         11   -1    0    0    0    0 -0.00000000000E+00 -0.00000000000E+00 -0.45593999997E+02  0.45594000000E+02  0.51100000000E-03 0. -1.
    9900012    2    1    2    0    0 -0.13759496908E+02  0.18099246252E+02  0.22356373042E+02  0.59302048773E+02  0.50000191030E+02 0.  0.
         12    1    1    2    0    0  0.13759496908E+02 -0.18099246252E+02 -0.22356373042E+02  0.31885951227E+02  0.00000000000E+00 0. -1.
         11    1    3    3    0    0  0.58543266532E+01  0.48128443418E+01  0.25531109969E+02  0.26632202082E+02  0.51100000000E-03 0.  1.
        -11    1    3    3    0    0  0.14486305860E+01  0.87673903350E+01  0.42949231356E+01  0.98697532321E+01  0.51100000000E-03 0. -1.
         12    1    3    3    0    0 -0.21062454147E+02  0.45190115752E+01 -0.74696600621E+01  0.22800093459E+02  0.00000000000E+00 0. -1.
</event>
<event>
 7    1  0.3220798E-013  0.5930194E+02  0.7816164E-02  0.1266605E+00
        -11   -1    0    0    0    0  0.00000000000E+00  0.00000000000E+00  0.45593999997E+02  0.45594000000E+02  0.51100000000E-03 0.  1.
         11   -1    0    0    0    0 -0.00000000000E+00 -0.00000000000E+00 -0.45593999997E+02  0.45594000000E+02  0.51100000000E-03 0. -1.
    9900012    2    1    2    0    0  0.10614835759E+02 -0.22012928531E+02  0.20481144386E+02  0.59301936649E+02  0.49999986542E+02 0.  0.
         12    1    1    2    0    0 -0.10614835759E+02  0.22012928531E+02 -0.20481144386E+02  0.31886063351E+02  0.00000000000E+00 0. -1.
         11    1    3    3    0    0 -0.47245740263E+00  0.22708837663E+01  0.25227676828E+00  0.23331894279E+01  0.51100000000E-03 0. -1.
        -11    1    3    3    0    0  0.26291974375E+02 -0.38837712447E+01  0.16424729954E+02  0.31242972809E+02  0.51100000000E-03 0.  1.
         12    1    3    3    0    0 -0.15204681213E+02 -0.20400041052E+02  0.38041376638E+01  0.25725774412E+02  0.00000000000E+00 0. -1.
</event>
<event>
 7    1  0.3220798E-013  0.5930195E+02  0.7816164E-02  0.1266605E+00
        -11   -1    0    0    0    0  0.00000000000E+00  0.00000000000E+00  0.45593999997E+02  0.45594000000E+02  0.51100000000E-03 0. -1.
         11   -1    0    0    0    0 -0.00000000000E+00 -0.00000000000E+00 -0.45593999997E+02  0.45594000000E+02  0.51100000000E-03 0.  1.
    9900012    2    1    2    0    0 -0.21474647508E+02  0.15932560756E+02 -0.17369889477E+02  0.59301952294E+02  0.50000015076E+02 0.  0.
         12    1    1    2    0    0  0.21474647508E+02 -0.15932560756E+02  0.17369889477E+02  0.31886047706E+02  0.00000000000E+00 0. -1.
         11    1    3    3    0    0  0.25432382624E+01  0.80940955713E+01 -0.22090948446E+02  0.23664159556E+02  0.51100000000E-03 0. -1.
        -11    1    3    3    0    0 -0.93996705036E+01 -0.87444645948E+01 -0.76505707770E+00  0.12860978937E+02  0.51100000000E-03 0.  1.
        -12    1    3    3    0    0 -0.14618215267E+02  0.16582929780E+02  0.54861160467E+01  0.22776813801E+02  0.00000000000E+00 0.  1.
</event>
<event>
 7    1  0.3220798E-013  0.5930197E+02  0.7816164E-02  0.1266605E+00
        -11   -1    0    0    0    0  0.00000000000E+00  0.00000000000E+00  0.45593999997E+02  0.45594000000E+02  0.51100000000E-03 0.  1.
         11   -1    0    0    0    0 -0.00000000000E+00 -0.00000000000E+00 -0.45593999997E+02  0.45594000000E+02  0.51100000000E-03 0. -1.
    9900012    2    1    2    0    0  0.22305445414E+01  0.30284508286E+02 -0.97258604241E+01  0.59301966505E+02  0.50000040992E+02 0.  0.
         12    1    1    2    0    0 -0.22305445414E+01 -0.30284508286E+02  0.97258604241E+01  0.31886033495E+02  0.00000000000E+00 0. -1.
         11    1    3    3    0    0  0.12891155130E+02  0.11180631925E+01  0.53161090496E+01  0.13989030044E+02  0.51100000000E-03 0. -1.
        -11    1    3    3    0    0 -0.16933484889E+02  0.12831012698E+02  0.14134361723E+01  0.21292618425E+02  0.51100000000E-03 0.  1.
        -12    1    3    3    0    0  0.62728743002E+01  0.16335432396E+02 -0.16455405646E+02  0.24020318035E+02  0.00000000000E+00 0.  1.
</event>
<event>
 7    1  0.3220798E-013  0.5930196E+02  0.7816164E-02  0.1266605E+00
        -11   -1    0    0    0    0  0.00000000000E+00  0.00000000000E+00  0.45593999997E+02  0.45594000000E+02  0.51100000000E-03 0. -1.
         11   -1    0    0    0    0 -0.00000000000E+00 -0.00000000000E+00 -0.45593999997E+02  0.45594000000E+02  0.51100000000E-03 0.  1.
    9900012    2    1    2    0    0  0.11622988517E+01 -0.45479178628E+01 -0.31538623864E+02  0.59301964017E+02  0.50000036455E+02 0.  0.
         12    1    1    2    0    0 -0.11622988517E+01  0.45479178628E+01  0.31538623864E+02  0.31886035983E+02  0.00000000000E+00 0. -1.
         11    1    3    3    0    0  0.18447649642E+02  0.69196343514E+00 -0.21375657638E+02  0.28243819331E+02  0.51100000000E-03 0. -1.
        -11    1    3    3    0    0 -0.65433152745E+01 -0.74452583352E+01  0.59551312102E+01  0.11563322812E+02  0.51100000000E-03 0.  1.
        -12    1    3    3    0    0 -0.10742035516E+02  0.22053770373E+01 -0.16118097437E+02  0.19494821873E+02  0.00000000000E+00 0.  1.
</event>
<event>
 7    1  0.3220798E-013  0.5930214E+02  0.7816164E-02  0.1266604E+00
        -11   -1    0    0    0    0  0.00000000000E+00  0.00000000000E+00  0.45593999997E+02  0.45594000000E+02  0.51100000000E-03 0. -1.
         11   -1    0    0    0    0 -0.00000000000E+00 -0.00000000000E+00 -0.45593999997E+02  0.45594000000E+02  0.51100000000E-03 0.  1.
    9900012    2    1    2    0    0  0.45541666387E+01  0.31557431172E+02 -0.31024370607E+00  0.59302138759E+02  0.50000355141E+02 0.  0.
         12    1    1    2    0    0 -0.45541666387E+01 -0.31557431172E+02  0.31024370607E+00  0.31885861241E+02  0.00000000000E+00 0. -1.
         11    1    3    3    0    0 -0.68121974615E+01  0.11129256652E+02  0.60559866710E+00  0.13062661976E+02  0.51100000000E-03 0. -1.
        -11    1    3    3    0    0 -0.47457804952E+01 -0.94877280612E+01  0.50362947006E+01  0.11743239793E+02  0.51100000000E-03 0.  1.
         12    1    3    3    0    0  0.16112144595E+02  0.29915902581E+02 -0.59521370738E+01  0.34496236989E+02  0.00000000000E+00 0. -1.
</event>
<event>
 7    1  0.3220798E-013  0.5930195E+02  0.7816164E-02  0.1266605E+00
        -11   -1    0    0    0    0  0.00000000000E+00  0.00000000000E+00  0.45593999997E+02  0.45594000000E+02  0.51100000000E-03 0.  1.
         11   -1    0    0    0    0 -0.00000000000E+00 -0.00000000000E+00 -0.45593999997E+02  0.45594000000E+02  0.51100000000E-03 0. -1.
    9900012    2    1    2    0    0 -0.30258147763E+02 -0.10039993798E+02 -0.60266548680E+00  0.59301949959E+02  0.50000010817E+02 0.  0.
         12    1    1    2    0    0  0.30258147763E+02  0.10039993798E+02  0.60266548680E+00  0.31886050041E+02  0.00000000000E+00 0. -1.
         11    1    3    3    0    0  0.53558946876E+01  0.53214942595E+01 -0.25484205538E+01  0.79685856109E+01  0.51100000000E-03 0. -1.
        -11    1    3    3    0    0 -0.10616050506E+02 -0.18117560485E+01  0.16257231435E+02  0.19500783638E+02  0.51100000000E-03 0.  1.
        -12    1    3    3    0    0 -0.24997991945E+02 -0.13549732009E+02 -0.14311476368E+02  0.31832580710E+02  0.00000000000E+00 0.  1.
</event>
<event>
 7    1  0.3220798E-013  0.5930209E+02  0.7816164E-02  0.1266604E+00
        -11   -1    0    0    0    0  0.00000000000E+00  0.00000000000E+00  0.45593999997E+02  0.45594000000E+02  0.51100000000E-03 0. -1.
         11   -1    0    0    0    0 -0.00000000000E+00 -0.00000000000E+00 -0.45593999997E+02  0.45594000000E+02  0.51100000000E-03 0.  1.
    9900012    2    1    2    0    0 -0.21136646733E+02 -0.23857070653E+02 -0.89089329876E+00  0.59302088595E+02  0.50000263655E+02 0.  0.
         12    1    1    2    0    0  0.21136646733E+02  0.23857070653E+02  0.89089329876E+00  0.31885911405E+02  0.00000000000E+00 0. -1.
         11    1    3    3    0    0 -0.13870925665E+01 -0.41052457725E+00  0.17203216621E+02  0.17263928249E+02  0.51100000000E-03 0. -1.
        -11    1    3    3    0    0 -0.81731693777E+01  0.12344819302E+01  0.15847166595E+01  0.84164107827E+01  0.51100000000E-03 0.  1.
        -12    1    3    3    0    0 -0.11576384789E+02 -0.24681028006E+02 -0.19678826579E+02  0.33621749564E+02  0.00000000000E+00 0.  1.
</event>
<event>
 7    1  0.3220798E-013  0.5930194E+02  0.7816164E-02  0.1266605E+00
        -11   -1    0    0    0    0  0.00000000000E+00  0.00000000000E+00  0.45593999997E+02  0.45594000000E+02  0.51100000000E-03 0.  1.
         11   -1    0    0    0    0 -0.00000000000E+00 -0.00000000000E+00 -0.45593999997E+02  0.45594000000E+02  0.51100000000E-03 0. -1.
    9900012    2    1    2    0    0 -0.14523542910E+02  0.17524961978E+02  0.22330775309E+02  0.59301935381E+02  0.49999984231E+02 0.  0.
         12    1    1    2    0    0  0.14523542910E+02 -0.17524961978E+02 -0.22330775309E+02  0.31886064619E+02  0.00000000000E+00 0. -1.
         11    1    3    3    0    0  0.72258474184E+01  0.47833007023E+01 -0.45105851243E+01  0.97692484330E+01  0.51100000000E-03 0. -1.
        -11    1    3    3    0    0  0.38171351557E+01  0.67637971345E+01  0.21336035541E+02  0.22705635542E+02  0.51100000000E-03 0.  1.
        -12    1    3    3    0    0 -0.25566525484E+02  0.59778641412E+01  0.55053248917E+01  0.26827051407E+02  0.00000000000E+00 0.  1.
</event>
<event>
 7    1  0.3220798E-013  0.5930195E+02  0.7816164E-02  0.1266605E+00
        -11   -1    0    0    0    0  0.00000000000E+00  0.00000000000E+00  0.45593999997E+02  0.45594000000E+02  0.51100000000E-03 0.  1.
         11   -1    0    0    0    0 -0.00000000000E+00 -0.00000000000E+00 -0.45593999997E+02  0.45594000000E+02  0.51100000000E-03 0. -1.
    9900012    2    1    2    0    0 -0.18985668539E+02 -0.19649334957E+02  0.16436802850E+02  0.59301945649E+02  0.50000002958E+02 0.  0.
         12    1    1    2    0    0  0.18985668539E+02  0.19649334957E+02 -0.16436802850E+02  0.31886054351E+02  0.00000000000E+00 0. -1.
         11    1    3    3    0    0 -0.88241418019E+01  0.13269061320E+01 -0.12753251938E+01  0.90140231326E+01  0.51100000000E-03 0. -1.
        -11    1    3    3    0    0 -0.61494277348E+00 -0.73525723891E+01  0.29169771577E+02  0.30088437139E+02  0.51100000000E-03 0.  1.
         12    1    3    3    0    0 -0.95465839632E+01 -0.13623668700E+02 -0.11457643533E+02  0.20199485378E+02  0.00000000000E+00 0. -1.
</event>
<event>
 7    1  0.3220798E-013  0.5930195E+02  0.7816164E-02  0.1266605E+00
        -11   -1    0    0    0    0  0.00000000000E+00  0.00000000000E+00  0.45593999997E+02  0.45594000000E+02  0.51100000000E-03 0. -1.
         11   -1    0    0    0    0 -0.00000000000E+00 -0.00000000000E+00 -0.45593999997E+02  0.45594000000E+02  0.51100000000E-03 0.  1.
    9900012    2    1    2    0    0 -0.80372425901E+01 -0.14812219015E+02 -0.27068822911E+02  0.59301948592E+02  0.50000008325E+02 0.  0.
         12    1    1    2    0    0  0.80372425901E+01  0.14812219015E+02  0.27068822911E+02  0.31886051408E+02  0.00000000000E+00 0. -1.
         11    1    3    3    0    0 -0.39617478656E+01 -0.25373673542E+02 -0.31987718659E+02  0.41021127489E+02  0.51100000000E-03 0. -1.
        -11    1    3    3    0    0  0.23007123649E+01 -0.21783580055E+01 -0.11718327143E+00  0.31705288465E+01  0.51100000000E-03 0.  1.
         12    1    3    3    0    0 -0.63762070893E+01  0.12739812532E+02  0.50360790200E+01  0.15110292257E+02  0.00000000000E+00 0. -1.
</event>
<event>
 7    1  0.3220798E-013  0.5930194E+02  0.7816164E-02  0.1266605E+00
        -11   -1    0    0    0    0  0.00000000000E+00  0.00000000000E+00  0.45593999997E+02  0.45594000000E+02  0.51100000000E-03 0. -1.
         11   -1    0    0    0    0 -0.00000000000E+00 -0.00000000000E+00 -0.45593999997E+02  0.45594000000E+02  0.51100000000E-03 0.  1.
    9900012    2    1    2    0    0  0.67963047425E+01 -0.24930882445E+02 -0.18681061495E+02  0.59301941663E+02  0.49999995688E+02 0.  0.
         12    1    1    2    0    0 -0.67963047425E+01  0.24930882445E+02  0.18681061495E+02  0.31886058337E+02  0.00000000000E+00 0. -1.
         11    1    3    3    0    0  0.13605334749E+02 -0.16136335575E+02 -0.94486631109E+01  0.23124958254E+02  0.51100000000E-03 0. -1.
        -11    1    3    3    0    0  0.13542418411E+01 -0.17684884431E+02 -0.14595000756E+02  0.22969613746E+02  0.51100000000E-03 0.  1.
         12    1    3    3    0    0 -0.81632718474E+01  0.88903375613E+01  0.53626023717E+01  0.13207369663E+02  0.00000000000E+00 0. -1.
</event>
<event>
 7    1  0.3220798E-013  0.5930194E+02  0.7816164E-02  0.1266605E+00
        -11   -1    0    0    0    0  0.00000000000E+00  0.00000000000E+00  0.45593999997E+02  0.45594000000E+02  0.51100000000E-03 0.  1.
         11   -1    0    0    0    0 -0.00000000000E+00 -0.00000000000E+00 -0.45593999997E+02  0.45594000000E+02  0.51100000000E-03 0. -1.
    9900012    2    1    2    0    0  0.19820367115E+02  0.22510455391E+02  0.10823744272E+02  0.59301937300E+02  0.49999987730E+02 0.  0.
         12    1    1    2    0    0 -0.19820367115E+02 -0.22510455391E+02 -0.10823744272E+02  0.31886062700E+02  0.00000000000E+00 0. -1.
         11    1    3    3    0    0  0.10500174965E+02  0.11659424303E+02 -0.32973806279E+01  0.16033357996E+02  0.51100000000E-03 0. -1.
        -11    1    3    3    0    0  0.11524218548E+02  0.58455965573E+01  0.26639216951E+02  0.29607878889E+02  0.51100000000E-03 0.  1.
         12    1    3    3    0    0 -0.22040263984E+01  0.50054345308E+01 -0.12518092052E+02  0.13660700415E+02  0.00000000000E+00 0. -1.
</event>
<event>
 7    1  0.3220798E-013  0.5930195E+02  0.7816164E-02  0.1266605E+00
        -11   -1    0    0    0    0  0.00000000000E+00  0.00000000000E+00  0.45593999997E+02  0.45594000000E+02  0.51100000000E-03 0. -1.
         11   -1    0    0    0    0 -0.00000000000E+00 -0.00000000000E+00 -0.45593999997E+02  0.45594000000E+02  0.51100000000E-03 0.  1.
    9900012    2    1    2    0    0 -0.20063138825E+02  0.80109030099E+01 -0.23452418787E+02  0.59301952056E+02  0.50000014642E+02 0.  0.
         12    1    1    2    0    0  0.20063138825E+02 -0.80109030099E+01  0.23452418787E+02  0.31886047944E+02  0.00000000000E+00 0. -1.
         11    1    3    3    0    0 -0.35904779397E+02  0.15784150926E+01 -0.14897308218E+02  0.38904683139E+02  0.51100000000E-03 0. -1.
        -11    1    3    3    0    0  0.32159878606E+01 -0.15581968097E+01 -0.17362315014E+01  0.39730410651E+01  0.51100000000E-03 0.  1.
        -12    1    3    3    0    0  0.12625652712E+02  0.79906847270E+01 -0.68188790668E+01  0.16424227852E+02  0.00000000000E+00 0.  1.
</event>
<event>
 7    1  0.3220798E-013  0.5930194E+02  0.7816164E-02  0.1266605E+00
        -11   -1    0    0    0    0  0.00000000000E+00  0.00000000000E+00  0.45593999997E+02  0.45594000000E+02  0.51100000000E-03 0.  1.
         11   -1    0    0    0    0 -0.00000000000E+00 -0.00000000000E+00 -0.45593999997E+02  0.45594000000E+02  0.51100000000E-03 0. -1.
    9900012    2    1    2    0    0  0.23064430816E+00 -0.26714156531E+02 -0.17407518240E+02  0.59301936474E+02  0.49999986223E+02 0.  0.
         12    1    1    2    0    0 -0.23064430816E+00  0.26714156531E+02  0.17407518240E+02  0.31886063526E+02  0.00000000000E+00 0. -1.
         11    1    3    3    0    0  0.84519398279E+01  0.20412874974E+01 -0.41808435994E+01  0.96478803353E+01  0.51100000000E-03 0. -1.
        -11    1    3    3    0    0  0.12142565659E+02 -0.35123686703E+00  0.36840402646E+00  0.12153229608E+02  0.51100000000E-03 0.  1.
         12    1    3    3    0    0 -0.20363861178E+02 -0.28404207161E+02 -0.13595078667E+02  0.37500826531E+02  0.00000000000E+00 0. -1.
</event>
<event>
 7    1  0.3220798E-013  0.5930196E+02  0.7816164E-02  0.1266605E+00
        -11   -1    0    0    0    0  0.00000000000E+00  0.00000000000E+00  0.45593999997E+02  0.45594000000E+02  0.51100000000E-03 0.  1.
         11   -1    0    0    0    0 -0.00000000000E+00 -0.00000000000E+00 -0.45593999997E+02  0.45594000000E+02  0.51100000000E-03 0. -1.
    9900012    2    1    2    0    0  0.14271584550E+02  0.50730961950E+01  0.28058956606E+02  0.59301961105E+02  0.50000031145E+02 0.  0.
         12    1    1    2    0    0 -0.14271584550E+02 -0.50730961950E+01 -0.28058956606E+02  0.31886038895E+02  0.00000000000E+00 0. -1.
         11    1    3    3    0    0 -0.64053502414E+01 -0.31551908009E+01  0.67662471626E+01  0.98369630289E+01  0.51100000000E-03 0. -1.
        -11    1    3    3    0    0 -0.34934883309E+01 -0.11391212846E+02  0.12154751089E+02  0.17020639386E+02  0.51100000000E-03 0.  1.
        -12    1    3    3    0    0  0.24170423122E+02  0.19619499842E+02  0.91379583542E+01  0.32444358690E+02  0.00000000000E+00 0.  1.
</event>
<event>
 7    1  0.3220798E-013  0.5930195E+02  0.7816164E-02  0.1266605E+00
        -11   -1    0    0    0    0  0.00000000000E+00  0.00000000000E+00  0.45593999997E+02  0.45594000000E+02  0.51100000000E-03 0.  1.
         11   -1    0    0    0    0 -0.00000000000E+00 -0.00000000000E+00 -0.45593999997E+02  0.45594000000E+02  0.51100000000E-03 0. -1.
    9900012    2    1    2    0    0  0.29794209702E+01 -0.16061137781E+02  0.27383992793E+02  0.59301950426E+02  0.50000011670E+02 0.  0.
         12    1    1    2    0    0 -0.29794209702E+01  0.16061137781E+02 -0.27383992793E+02  0.31886049574E+02  0.00000000000E+00 0. -1.
         11    1    3    3    0    0  0.10339606506E+02 -0.14155770475E+02  0.10171716340E+02  0.20267143706E+02  0.51100000000E-03 0. -1.
        -11    1    3    3    0    0  0.75062086407E+00 -0.40638025749E+01  0.26324116344E+02  0.26646519934E+02  0.51100000000E-03 0.  1.
        -12    1    3    3    0    0 -0.81108064002E+01  0.21584352689E+01 -0.91118398918E+01  0.12388286786E+02  0.00000000000E+00 0.  1.
</event>
<event>
 7    1  0.3220798E-013  0.5930193E+02  0.7816164E-02  0.1266605E+00
        -11   -1    0    0    0    0  0.00000000000E+00  0.00000000000E+00  0.45593999997E+02  0.45594000000E+02  0.51100000000E-03 0. -1.
         11   -1    0    0    0    0 -0.00000000000E+00 -0.00000000000E+00 -0.45593999997E+02  0.45594000000E+02  0.51100000000E-03 0.  1.
    9900012    2    1    2    0    0  0.16120817414E+02 -0.44493862000E+01 -0.27148549547E+02  0.59301928838E+02  0.49999972297E+02 0.  0.
         12    1    1    2    0    0 -0.16120817414E+02  0.44493862000E+01  0.27148549547E+02  0.31886071162E+02  0.00000000000E+00 0. -1.
         11    1    3    3    0    0  0.62992006757E+01 -0.12828036314E+02 -0.22670042691E+02  0.26798680578E+02  0.51100000000E-03 0. -1.
        -11    1    3    3    0    0 -0.43053462202E+01 -0.81837149861E+01 -0.54119292960E+01  0.10714391071E+02  0.51100000000E-03 0.  1.
         12    1    3    3    0    0  0.14126962959E+02  0.16562365100E+02  0.93342244024E+00  0.21788857189E+02  0.00000000000E+00 0. -1.
</event>
<event>
 7    1  0.3220798E-013  0.5930154E+02  0.7816164E-02  0.1266606E+00
        -11   -1    0    0    0    0  0.00000000000E+00  0.00000000000E+00  0.45593999997E+02  0.45594000000E+02  0.51100000000E-03 0. -1.
         11   -1    0    0    0    0 -0.00000000000E+00 -0.00000000000E+00 -0.45593999997E+02  0.45594000000E+02  0.51100000000E-03 0.  1.
    9900012    2    1    2    0    0 -0.90060429018E+01  0.10112768398E+02 -0.28868139662E+02  0.59301539222E+02  0.49999261726E+02 0.  0.
         12    1    1    2    0    0  0.90060429018E+01 -0.10112768398E+02  0.28868139662E+02  0.31886460778E+02  0.00000000000E+00 0. -1.
         11    1    3    3    0    0  0.31296023194E+01  0.30611217287E+00 -0.32713104188E+01  0.45375750635E+01  0.51100000000E-03 0. -1.
        -11    1    3    3    0    0 -0.80885944458E+01 -0.14970533431E+02 -0.24247303375E+02  0.29622186829E+02  0.51100000000E-03 0.  1.
         12    1    3    3    0    0 -0.40470507754E+01  0.24777189656E+02 -0.13495258681E+01  0.25141777329E+02  0.00000000000E+00 0. -1.
</event>
<event>
 7    1  0.3220798E-013  0.5930195E+02  0.7816164E-02  0.1266605E+00
        -11   -1    0    0    0    0  0.00000000000E+00  0.00000000000E+00  0.45593999997E+02  0.45594000000E+02  0.51100000000E-03 0. -1.
         11   -1    0    0    0    0 -0.00000000000E+00 -0.00000000000E+00 -0.45593999997E+02  0.45594000000E+02  0.51100000000E-03 0.  1.
    9900012    2    1    2    0    0  0.28102126518E+02  0.32595477342E+01  0.14709380809E+02  0.59301952110E+02  0.50000014740E+02 0.  0.
         12    1    1    2    0    0 -0.28102126518E+02 -0.32595477342E+01 -0.14709380809E+02  0.31886047890E+02  0.00000000000E+00 0. -1.
         11    1    3    3    0    0 -0.85842820964E+01 -0.73047775565E+01  0.11058478459E+02  0.15790491454E+02  0.51100000000E-03 0. -1.
        -11    1    3    3    0    0  0.96900608856E+01 -0.62500333944E+01  0.35016079056E+00  0.11536152315E+02  0.51100000000E-03 0.  1.
         12    1    3    3    0    0  0.26996347728E+02  0.16814358685E+02  0.33007415593E+01  0.31975308341E+02  0.00000000000E+00 0. -1.
</event>
<event>
 7    1  0.3220798E-013  0.5930192E+02  0.7816164E-02  0.1266605E+00
        -11   -1    0    0    0    0  0.00000000000E+00  0.00000000000E+00  0.45593999997E+02  0.45594000000E+02  0.51100000000E-03 0. -1.
         11   -1    0    0    0    0 -0.00000000000E+00 -0.00000000000E+00 -0.45593999997E+02  0.45594000000E+02  0.51100000000E-03 0.  1.
    9900012    2    1    2    0    0 -0.24654335562E+02  0.17823842240E+02 -0.95496731050E+01  0.59301923562E+02  0.49999962675E+02 0.  0.
         12    1    1    2    0    0  0.24654335562E+02 -0.17823842240E+02  0.95496731050E+01  0.31886076438E+02  0.00000000000E+00 0. -1.
         11    1    3    3    0    0 -0.37413098872E+01  0.53928281099E+01  0.42231180628E+01  0.78047883462E+01  0.51100000000E-03 0. -1.
        -11    1    3    3    0    0 -0.26475229326E+02  0.23215890522E+02 -0.31208721656E+01  0.35350462287E+02  0.51100000000E-03 0.  1.
         12    1    3    3    0    0  0.55622036517E+01 -0.10784876391E+02 -0.10651919002E+02  0.16146672929E+02  0.00000000000E+00 0. -1.
</event>
<event>
 7    1  0.3220798E-013  0.5930193E+02  0.7816164E-02  0.1266605E+00
        -11   -1    0    0    0    0  0.00000000000E+00  0.00000000000E+00  0.45593999997E+02  0.45594000000E+02  0.51100000000E-03 0.  1.
         11   -1    0    0    0    0 -0.00000000000E+00 -0.00000000000E+00 -0.45593999997E+02  0.45594000000E+02  0.51100000000E-03 0. -1.
    9900012    2    1    2    0    0  0.14011556468E+01 -0.31567032978E+02 -0.42755870489E+01  0.59301930114E+02  0.49999974625E+02 0.  0.
         12    1    1    2    0    0 -0.14011556468E+01  0.31567032978E+02  0.42755870489E+01  0.31886069886E+02  0.00000000000E+00 0. -1.
         11    1    3    3    0    0  0.79652529128E+01 -0.24174723119E+02 -0.12979029626E+02  0.28571274073E+02  0.51100000000E-03 0. -1.
        -11    1    3    3    0    0 -0.11529254994E+02 -0.10432579254E+02 -0.45951212852E+01  0.16213499638E+02  0.51100000000E-03 0.  1.
        -12    1    3    3    0    0  0.49651577279E+01  0.30402693958E+01  0.13298563862E+02  0.14517156404E+02  0.00000000000E+00 0.  1.
</event>
<event>
 7    1  0.3220798E-013  0.5930195E+02  0.7816164E-02  0.1266605E+00
        -11   -1    0    0    0    0  0.00000000000E+00  0.00000000000E+00  0.45593999997E+02  0.45594000000E+02  0.51100000000E-03 0. -1.
         11   -1    0    0    0    0 -0.00000000000E+00 -0.00000000000E+00 -0.45593999997E+02  0.45594000000E+02  0.51100000000E-03 0.  1.
    9900012    2    1    2    0    0  0.49191708244E+01 -0.84664197790E+01 -0.30345370589E+02  0.59301952555E+02  0.50000015552E+02 0.  0.
         12    1    1    2    0    0 -0.49191708244E+01  0.84664197790E+01  0.30345370589E+02  0.31886047445E+02  0.00000000000E+00 0. -1.
         11    1    3    3    0    0 -0.86810135678E+00  0.11147041601E+02 -0.11393508240E+02  0.15963150275E+02  0.51100000000E-03 0. -1.
        -11    1    3    3    0    0 -0.18762554843E+01 -0.32440511599E+01 -0.24223151428E+02  0.24511329380E+02  0.51100000000E-03 0.  1.
         12    1    3    3    0    0  0.76635276655E+01 -0.16369410221E+02  0.52712890797E+01  0.18827472900E+02  0.00000000000E+00 0. -1.
</event>
<event>
 7    1  0.3220798E-013  0.5930192E+02  0.7816164E-02  0.1266605E+00
        -11   -1    0    0    0    0  0.00000000000E+00  0.00000000000E+00  0.45593999997E+02  0.45594000000E+02  0.51100000000E-03 0. -1.
         11   -1    0    0    0    0 -0.00000000000E+00 -0.00000000000E+00 -0.45593999997E+02  0.45594000000E+02  0.51100000000E-03 0.  1.
    9900012    2    1    2    0    0  0.59628088367E+01  0.17269925573E+02 -0.26132678606E+02  0.59301916678E+02  0.49999950120E+02 0.  0.
         12    1    1    2    0    0 -0.59628088367E+01 -0.17269925573E+02  0.26132678606E+02  0.31886083322E+02  0.00000000000E+00 0. -1.
         11    1    3    3    0    0 -0.65357995738E+01  0.22755573540E+02 -0.21519720725E+00  0.23676551972E+02  0.51100000000E-03 0. -1.
        -11    1    3    3    0    0 -0.37621679152E+01  0.40395558395E+01 -0.71044290287E+01  0.89969345272E+01  0.51100000000E-03 0.  1.
        -12    1    3    3    0    0  0.16260776326E+02 -0.95252038067E+01 -0.18813052370E+02  0.26628430178E+02  0.00000000000E+00 0.  1.
</event>
<event>
 7    1  0.3220798E-013  0.5930197E+02  0.7816164E-02  0.1266605E+00
        -11   -1    0    0    0    0  0.00000000000E+00  0.00000000000E+00  0.45593999997E+02  0.45594000000E+02  0.51100000000E-03 0.  1.
         11   -1    0    0    0    0 -0.00000000000E+00 -0.00000000000E+00 -0.45593999997E+02  0.45594000000E+02  0.51100000000E-03 0. -1.
    9900012    2    1    2    0    0 -0.29507965341E+01  0.29144114468E+02  0.12594921927E+02  0.59301973802E+02  0.50000054302E+02 0.  0.
         12    1    1    2    0    0  0.29507965341E+01 -0.29144114468E+02 -0.12594921927E+02  0.31886026198E+02  0.00000000000E+00 0. -1.
         11    1    3    3    0    0 -0.11623402980E+02  0.66839365770E+01  0.81020915367E+01  0.15665962866E+02  0.51100000000E-03 0.  1.
        -11    1    3    3    0    0  0.89938563279E+01  0.19293183627E+02 -0.13603355328E+02  0.25261980575E+02  0.51100000000E-03 0. -1.
         12    1    3    3    0    0 -0.32124988214E+00  0.31669942640E+01  0.18096185718E+02  0.18374030361E+02  0.00000000000E+00 0. -1.
</event>
<event>
 7    1  0.3220798E-013  0.5930197E+02  0.7816164E-02  0.1266605E+00
        -11   -1    0    0    0    0  0.00000000000E+00  0.00000000000E+00  0.45593999997E+02  0.45594000000E+02  0.51100000000E-03 0. -1.
         11   -1    0    0    0    0 -0.00000000000E+00 -0.00000000000E+00 -0.45593999997E+02  0.45594000000E+02  0.51100000000E-03 0.  1.
    9900012    2    1    2    0    0  0.22563390867E+02  0.11169253079E+02 -0.19566816733E+02  0.59301966399E+02  0.50000040799E+02 0.  0.
         12    1    1    2    0    0 -0.22563390867E+02 -0.11169253079E+02  0.19566816733E+02  0.31886033601E+02  0.00000000000E+00 0. -1.
         11    1    3    3    0    0  0.23659938574E+02 -0.68413046936E+01 -0.87465079072E+01  0.26136134835E+02  0.51100000000E-03 0.  1.
        -11    1    3    3    0    0  0.10166022495E+02  0.30344968115E+01  0.15364883469E+01  0.10719933813E+02  0.51100000000E-03 0. -1.
        -12    1    3    3    0    0 -0.11262570202E+02  0.14976060961E+02 -0.12356797173E+02  0.22445897751E+02  0.00000000000E+00 0.  1.
</event>
<event>
 7    1  0.3220798E-013  0.5930193E+02  0.7816164E-02  0.1266605E+00
        -11   -1    0    0    0    0  0.00000000000E+00  0.00000000000E+00  0.45593999997E+02  0.45594000000E+02  0.51100000000E-03 0. -1.
         11   -1    0    0    0    0 -0.00000000000E+00 -0.00000000000E+00 -0.45593999997E+02  0.45594000000E+02  0.51100000000E-03 0.  1.
    9900012    2    1    2    0    0  0.64299741077E+00  0.24078774312E+02 -0.20893072842E+02  0.59301932339E+02  0.49999978683E+02 0.  0.
         12    1    1    2    0    0 -0.64299741077E+00 -0.24078774312E+02  0.20893072842E+02  0.31886067661E+02  0.00000000000E+00 0. -1.
         11    1    3    3    0    0  0.70332487890E+01 -0.21079313897E+01  0.71959103731E+01  0.10280617181E+02  0.51100000000E-03 0. -1.
        -11    1    3    3    0    0  0.11488803457E+02  0.11986981974E+02 -0.16534634860E+02  0.23432338593E+02  0.51100000000E-03 0.  1.
        -12    1    3    3    0    0 -0.17879054835E+02  0.14199723727E+02 -0.11554348355E+02  0.25588976565E+02  0.00000000000E+00 0.  1.
</event>
<event>
 7    1  0.3220798E-013  0.5930196E+02  0.7816164E-02  0.1266605E+00
        -11   -1    0    0    0    0  0.00000000000E+00  0.00000000000E+00  0.45593999997E+02  0.45594000000E+02  0.51100000000E-03 0. -1.
         11   -1    0    0    0    0 -0.00000000000E+00 -0.00000000000E+00 -0.45593999997E+02  0.45594000000E+02  0.51100000000E-03 0.  1.
    9900012    2    1    2    0    0 -0.24632441172E+02 -0.17192260464E+02 -0.10695268284E+02  0.59301956946E+02  0.50000023561E+02 0.  0.
         12    1    1    2    0    0  0.24632441172E+02  0.17192260464E+02  0.10695268284E+02  0.31886043054E+02  0.00000000000E+00 0. -1.
         11    1    3    3    0    0 -0.11346253299E+02 -0.54071633865E+01 -0.22725592807E+01  0.12772603719E+02  0.51100000000E-03 0.  1.
        -11    1    3    3    0    0 -0.58828504914E+00  0.13973522005E+02  0.49686451252E+01  0.14842265028E+02  0.51100000000E-03 0. -1.
         12    1    3    3    0    0 -0.12697902823E+02 -0.25758619083E+02 -0.13391354129E+02  0.31687088199E+02  0.00000000000E+00 0. -1.
</event>
<event>
 7    1  0.3220798E-013  0.5930228E+02  0.7816164E-02  0.1266604E+00
        -11   -1    0    0    0    0  0.00000000000E+00  0.00000000000E+00  0.45593999997E+02  0.45594000000E+02  0.51100000000E-03 0. -1.
         11   -1    0    0    0    0 -0.00000000000E+00 -0.00000000000E+00 -0.45593999997E+02  0.45594000000E+02  0.51100000000E-03 0.  1.
    9900012    2    1    2    0    0 -0.30275778486E+01 -0.33334546437E+01 -0.31566139910E+02  0.59302276920E+02  0.50000607113E+02 0.  0.
         12    1    1    2    0    0  0.30275778486E+01  0.33334546437E+01  0.31566139910E+02  0.31885723080E+02  0.00000000000E+00 0. -1.
         11    1    3    3    0    0 -0.85165677384E+01  0.13932928572E+02 -0.64601410655E+01  0.17561089018E+02  0.51100000000E-03 0. -1.
        -11    1    3    3    0    0 -0.23231270366E+01  0.56517858668E+01 -0.13648855316E+02  0.14954292173E+02  0.51100000000E-03 0.  1.
        -12    1    3    3    0    0  0.78121169264E+01 -0.22918169083E+02 -0.11457143529E+02  0.26786895729E+02  0.00000000000E+00 0.  1.
</event>
<event>
 7    1  0.3220798E-013  0.5930194E+02  0.7816164E-02  0.1266605E+00
        -11   -1    0    0    0    0  0.00000000000E+00  0.00000000000E+00  0.45593999997E+02  0.45594000000E+02  0.51100000000E-03 0.  1.
         11   -1    0    0    0    0 -0.00000000000E+00 -0.00000000000E+00 -0.45593999997E+02  0.45594000000E+02  0.51100000000E-03 0. -1.
    9900012    2    1    2    0    0  0.49183412998E+01  0.31453950991E+02 -0.17831119528E+01  0.59301943450E+02  0.49999998946E+02 0.  0.
         12    1    1    2    0    0 -0.49183412998E+01 -0.31453950991E+02  0.17831119528E+01  0.31886056550E+02  0.00000000000E+00 0. -1.
         11    1    3    3    0    0 -0.10706819042E+02  0.32983023495E+01 -0.10050462260E+02  0.15050799457E+02  0.51100000000E-03 0. -1.
        -11    1    3    3    0    0  0.21529306361E+02  0.89886369831E+01  0.58304323816E+01  0.24047880764E+02  0.51100000000E-03 0.  1.
         12    1    3    3    0    0 -0.59041460192E+01  0.19167011658E+02  0.24369179258E+01  0.20203263229E+02  0.00000000000E+00 0. -1.
</event>
<event>
 7    1  0.3220798E-013  0.5930192E+02  0.7816164E-02  0.1266605E+00
        -11   -1    0    0    0    0  0.00000000000E+00  0.00000000000E+00  0.45593999997E+02  0.45594000000E+02  0.51100000000E-03 0.  1.
         11   -1    0    0    0    0 -0.00000000000E+00 -0.00000000000E+00 -0.45593999997E+02  0.45594000000E+02  0.51100000000E-03 0. -1.
    9900012    2    1    2    0    0  0.46739686706E+01  0.22303014636E+02  0.22303626745E+02  0.59301918225E+02  0.49999952942E+02 0.  0.
         12    1    1    2    0    0 -0.46739686706E+01 -0.22303014636E+02 -0.22303626745E+02  0.31886081775E+02  0.00000000000E+00 0. -1.
         11    1    3    3    0    0  0.89627227236E+00  0.11821844959E+02 -0.38752957283E+01  0.12473060549E+02  0.51100000000E-03 0. -1.
        -11    1    3    3    0    0  0.19613445995E+02  0.10373374146E+02  0.19862895770E+02  0.29779670643E+02  0.51100000000E-03 0.  1.
         12    1    3    3    0    0 -0.15835749597E+02  0.10779553128E+00  0.63160267040E+01  0.17049187033E+02  0.00000000000E+00 0. -1.
</event>
<event>
 7    1  0.3220798E-013  0.5930203E+02  0.7816164E-02  0.1266604E+00
        -11   -1    0    0    0    0  0.00000000000E+00  0.00000000000E+00  0.45593999997E+02  0.45594000000E+02  0.51100000000E-03 0.  1.
         11   -1    0    0    0    0 -0.00000000000E+00 -0.00000000000E+00 -0.45593999997E+02  0.45594000000E+02  0.51100000000E-03 0. -1.
    9900012    2    1    2    0    0 -0.23717423692E+02  0.40894683370E+01  0.20915899578E+02  0.59302034545E+02  0.50000165081E+02 0.  0.
         12    1    1    2    0    0  0.23717423692E+02 -0.40894683370E+01 -0.20915899578E+02  0.31885965455E+02  0.00000000000E+00 0. -1.
         11    1    3    3    0    0 -0.25922723801E+02  0.41131222826E+01  0.46171360954E+00  0.26251067862E+02  0.51100000000E-03 0. -1.
        -11    1    3    3    0    0  0.41782693576E+01 -0.87974751565E+01 -0.99780884592E+00  0.97902567233E+01  0.51100000000E-03 0.  1.
        -12    1    3    3    0    0 -0.19729692487E+01  0.87738212109E+01  0.21451994814E+02  0.23260709959E+02  0.00000000000E+00 0.  1.
</event>
<event>
 7    1  0.3220798E-013  0.5930195E+02  0.7816164E-02  0.1266605E+00
        -11   -1    0    0    0    0  0.00000000000E+00  0.00000000000E+00  0.45593999997E+02  0.45594000000E+02  0.51100000000E-03 0.  1.
         11   -1    0    0    0    0 -0.00000000000E+00 -0.00000000000E+00 -0.45593999997E+02  0.45594000000E+02  0.51100000000E-03 0. -1.
    9900012    2    1    2    0    0  0.20386871555E+02  0.21571472696E+02 -0.11651917438E+02  0.59301950604E+02  0.50000011994E+02 0.  0.
         12    1    1    2    0    0 -0.20386871555E+02 -0.21571472696E+02  0.11651917438E+02  0.31886049396E+02  0.00000000000E+00 0. -1.
         11    1    3    3    0    0 -0.82065932717E+01 -0.48222299386E+01  0.10347911599E+01  0.95745949112E+01  0.51100000000E-03 0. -1.
        -11    1    3    3    0    0  0.12569320719E+02  0.14948132729E+02  0.80555016198E+01  0.21126419527E+02  0.51100000000E-03 0.  1.
         12    1    3    3    0    0  0.16024144108E+02  0.11445569906E+02 -0.20742210218E+02  0.28600936166E+02  0.00000000000E+00 0. -1.
</event>
<event>
 7    1  0.3220798E-013  0.5930195E+02  0.7816164E-02  0.1266605E+00
        -11   -1    0    0    0    0  0.00000000000E+00  0.00000000000E+00  0.45593999997E+02  0.45594000000E+02  0.51100000000E-03 0.  1.
         11   -1    0    0    0    0 -0.00000000000E+00 -0.00000000000E+00 -0.45593999997E+02  0.45594000000E+02  0.51100000000E-03 0. -1.
    9900012    2    1    2    0    0  0.26938732634E+02  0.17307825667E+01  0.16971417128E+02  0.59301954094E+02  0.50000018358E+02 0.  0.
         12    1    1    2    0    0 -0.26938732634E+02 -0.17307825667E+01 -0.16971417128E+02  0.31886045906E+02  0.00000000000E+00 0. -1.
         11    1    3    3    0    0  0.44693611877E+01  0.10256849973E+02  0.12974349445E+02  0.17132189136E+02  0.51100000000E-03 0. -1.
        -11    1    3    3    0    0 -0.92696886196E+01 -0.10109373174E+01  0.16429285210E+01  0.94682805065E+01  0.51100000000E-03 0.  1.
         12    1    3    3    0    0  0.31739060066E+02 -0.75151300893E+01  0.23541391620E+01  0.32701484451E+02  0.00000000000E+00 0. -1.
</event>
<event>
 7    1  0.3220798E-013  0.5930196E+02  0.7816164E-02  0.1266605E+00
        -11   -1    0    0    0    0  0.00000000000E+00  0.00000000000E+00  0.45593999997E+02  0.45594000000E+02  0.51100000000E-03 0. -1.
         11   -1    0    0    0    0 -0.00000000000E+00 -0.00000000000E+00 -0.45593999997E+02  0.45594000000E+02  0.51100000000E-03 0.  1.
    9900012    2    1    2    0    0  0.88550656918E+01 -0.29452479115E+02  0.84177578933E+01  0.59301962893E+02  0.50000034406E+02 0.  0.
         12    1    1    2    0    0 -0.88550656918E+01  0.29452479115E+02 -0.84177578933E+01  0.31886037107E+02  0.00000000000E+00 0. -1.
         11    1    3    3    0    0  0.11780846402E+02 -0.91774507226E+01  0.12274612883E+02  0.19330806124E+02  0.51100000000E-03 0. -1.
        -11    1    3    3    0    0  0.37717428616E+01  0.76812891895E+01  0.49740572149E+01  0.98979539939E+01  0.51100000000E-03 0.  1.
        -12    1    3    3    0    0 -0.66975235722E+01 -0.27956317582E+02 -0.88309122047E+01  0.30073202775E+02  0.00000000000E+00 0.  1.
</event>
<event>
 7    1  0.3220798E-013  0.5930195E+02  0.7816164E-02  0.1266605E+00
        -11   -1    0    0    0    0  0.00000000000E+00  0.00000000000E+00  0.45593999997E+02  0.45594000000E+02  0.51100000000E-03 0.  1.
         11   -1    0    0    0    0 -0.00000000000E+00 -0.00000000000E+00 -0.45593999997E+02  0.45594000000E+02  0.51100000000E-03 0. -1.
    9900012    2    1    2    0    0  0.24093878832E+02  0.13370320610E+02  0.16044931089E+02  0.59301948440E+02  0.50000008047E+02 0.  0.
         12    1    1    2    0    0 -0.24093878832E+02 -0.13370320610E+02 -0.16044931089E+02  0.31886051560E+02  0.00000000000E+00 0. -1.
         11    1    3    3    0    0  0.14713071418E+02  0.38786439910E+01  0.16869009199E+01  0.15308951132E+02  0.51100000000E-03 0. -1.
        -11    1    3    3    0    0  0.18974480916E+02  0.15765969036E+02  0.19483881948E+02  0.31435940605E+02  0.51100000000E-03 0.  1.
        -12    1    3    3    0    0 -0.95936735022E+01 -0.62742924170E+01 -0.51258517789E+01  0.12557056704E+02  0.00000000000E+00 0.  1.
</event>
<event>
 7    1  0.3220798E-013  0.5930185E+02  0.7816164E-02  0.1266605E+00
        -11   -1    0    0    0    0  0.00000000000E+00  0.00000000000E+00  0.45593999997E+02  0.45594000000E+02  0.51100000000E-03 0.  1.
         11   -1    0    0    0    0 -0.00000000000E+00 -0.00000000000E+00 -0.45593999997E+02  0.45594000000E+02  0.51100000000E-03 0. -1.
    9900012    2    1    2    0    0 -0.13454856621E+02 -0.26656322234E+02  0.11186322286E+02  0.59301851157E+02  0.49999830627E+02 0.  0.
         12    1    1    2    0    0  0.13454856621E+02  0.26656322234E+02 -0.11186322286E+02  0.31886148843E+02  0.00000000000E+00 0. -1.
         11    1    3    3    0    0  0.34859827696E+01 -0.77211833012E+01  0.14766884740E+02  0.17024383473E+02  0.51100000000E-03 0. -1.
        -11    1    3    3    0    0 -0.13364876041E+01  0.55347291285E-01  0.12716272296E+02  0.12786432020E+02  0.51100000000E-03 0.  1.
         12    1    3    3    0    0 -0.15604351787E+02 -0.18990486224E+02 -0.16296834750E+02  0.29491035665E+02  0.00000000000E+00 0. -1.
</event>
<event>
 7    1  0.3220798E-013  0.5930195E+02  0.7816164E-02  0.1266605E+00
        -11   -1    0    0    0    0  0.00000000000E+00  0.00000000000E+00  0.45593999997E+02  0.45594000000E+02  0.51100000000E-03 0.  1.
         11   -1    0    0    0    0 -0.00000000000E+00 -0.00000000000E+00 -0.45593999997E+02  0.45594000000E+02  0.51100000000E-03 0. -1.
    9900012    2    1    2    0    0  0.31044090866E+02 -0.71117904710E+01  0.15514037958E+01  0.59301952971E+02  0.50000016310E+02 0.  0.
         12    1    1    2    0    0 -0.31044090866E+02  0.71117904710E+01 -0.15514037958E+01  0.31886047029E+02  0.00000000000E+00 0. -1.
         11    1    3    3    0    0  0.20153807153E+02  0.14791607496E+01 -0.11460360784E+02  0.23231524463E+02  0.51100000000E-03 0. -1.
        -11    1    3    3    0    0  0.11871629889E+02  0.38126883206E+01 -0.56112988673E+01  0.13673290156E+02  0.51100000000E-03 0.  1.
        -12    1    3    3    0    0 -0.98134617619E+00 -0.12403639541E+02  0.18623063447E+02  0.22397138352E+02  0.00000000000E+00 0.  1.
</event>
<event>
 7    1  0.3220798E-013  0.5930218E+02  0.7816164E-02  0.1266604E+00
        -11   -1    0    0    0    0  0.00000000000E+00  0.00000000000E+00  0.45593999997E+02  0.45594000000E+02  0.51100000000E-03 0.  1.
         11   -1    0    0    0    0 -0.00000000000E+00 -0.00000000000E+00 -0.45593999997E+02  0.45594000000E+02  0.51100000000E-03 0. -1.
    9900012    2    1    2    0    0 -0.32810606390E+01  0.29214658667E+02  0.12346810880E+02  0.59302182168E+02  0.50000434308E+02 0.  0.
         12    1    1    2    0    0  0.32810606390E+01 -0.29214658667E+02 -0.12346810880E+02  0.31885817832E+02  0.00000000000E+00 0. -1.
         11    1    3    3    0    0 -0.12229582067E+02 -0.42081282560E+01 -0.21088871329E+01  0.13104137750E+02  0.51100000000E-03 0. -1.
        -11    1    3    3    0    0 -0.15530032368E+00  0.17311736862E+02  0.20405179993E+02  0.26759890175E+02  0.51100000000E-03 0.  1.
         12    1    3    3    0    0  0.91038217520E+01  0.16111050061E+02 -0.59494819800E+01  0.19438154243E+02  0.00000000000E+00 0. -1.
</event>
<event>
 7    1  0.3220798E-013  0.5930210E+02  0.7816164E-02  0.1266604E+00
        -11   -1    0    0    0    0  0.00000000000E+00  0.00000000000E+00  0.45593999997E+02  0.45594000000E+02  0.51100000000E-03 0.  1.
         11   -1    0    0    0    0 -0.00000000000E+00 -0.00000000000E+00 -0.45593999997E+02  0.45594000000E+02  0.51100000000E-03 0. -1.
    9900012    2    1    2    0    0 -0.16895445275E+01 -0.17716018674E+02  0.26457489485E+02  0.59302099852E+02  0.50000284186E+02 0.  0.
         12    1    1    2    0    0  0.16895445275E+01  0.17716018674E+02 -0.26457489485E+02  0.31885900148E+02  0.00000000000E+00 0. -1.
         11    1    3    3    0    0  0.65923112610E+01 -0.68961801524E+01 -0.42897348977E+01  0.10460291306E+02  0.51100000000E-03 0. -1.
        -11    1    3    3    0    0  0.43366255966E+01 -0.20239536117E+02  0.10552708922E+02  0.23233699870E+02  0.51100000000E-03 0.  1.
         12    1    3    3    0    0 -0.12618481385E+02  0.94196975957E+01  0.20194515461E+02  0.25608108676E+02  0.00000000000E+00 0. -1.
</event>
<event>
 7    1  0.3220798E-013  0.5930194E+02  0.7816164E-02  0.1266605E+00
        -11   -1    0    0    0    0  0.00000000000E+00  0.00000000000E+00  0.45593999997E+02  0.45594000000E+02  0.51100000000E-03 0.  1.
         11   -1    0    0    0    0 -0.00000000000E+00 -0.00000000000E+00 -0.45593999997E+02  0.45594000000E+02  0.51100000000E-03 0. -1.
    9900012    2    1    2    0    0 -0.18456412609E+01  0.26853439279E+02  0.17094070096E+02  0.59301939954E+02  0.49999992571E+02 0.  0.
         12    1    1    2    0    0  0.18456412609E+01 -0.26853439279E+02 -0.17094070096E+02  0.31886060046E+02  0.00000000000E+00 0. -1.
         11    1    3    3    0    0  0.27850005560E+01  0.85925315675E+01  0.12658676054E+01  0.91208688123E+01  0.51100000000E-03 0. -1.
        -11    1    3    3    0    0  0.63022943457E+01  0.68447121244E+01 -0.13774521199E+02  0.16622467705E+02  0.51100000000E-03 0.  1.
        -12    1    3    3    0    0 -0.10932936163E+02  0.11416195587E+02  0.29602723689E+02  0.33558603437E+02  0.00000000000E+00 0.  1.
</event>
<event>
 7    1  0.3220798E-013  0.5930191E+02  0.7816164E-02  0.1266605E+00
        -11   -1    0    0    0    0  0.00000000000E+00  0.00000000000E+00  0.45593999997E+02  0.45594000000E+02  0.51100000000E-03 0.  1.
         11   -1    0    0    0    0 -0.00000000000E+00 -0.00000000000E+00 -0.45593999997E+02  0.45594000000E+02  0.51100000000E-03 0. -1.
    9900012    2    1    2    0    0  0.29461518181E+01  0.25710321068E+02  0.18628526785E+02  0.59301914789E+02  0.49999946675E+02 0.  0.
         12    1    1    2    0    0 -0.29461518181E+01 -0.25710321068E+02 -0.18628526785E+02  0.31886085211E+02  0.00000000000E+00 0. -1.
         11    1    3    3    0    0 -0.47930590689E+01  0.46544692037E+00  0.97460105383E+01  0.10870822312E+02  0.51100000000E-03 0. -1.
        -11    1    3    3    0    0  0.13193470910E+02  0.76544320741E+01  0.21315296432E+02  0.26210682312E+02  0.51100000000E-03 0.  1.
         12    1    3    3    0    0 -0.54542600227E+01  0.17590442073E+02 -0.12432780185E+02  0.22220410164E+02  0.00000000000E+00 0. -1.
</event>
<event>
 7    1  0.3220798E-013  0.5930190E+02  0.7816164E-02  0.1266605E+00
        -11   -1    0    0    0    0  0.00000000000E+00  0.00000000000E+00  0.45593999997E+02  0.45594000000E+02  0.51100000000E-03 0. -1.
         11   -1    0    0    0    0 -0.00000000000E+00 -0.00000000000E+00 -0.45593999997E+02  0.45594000000E+02  0.51100000000E-03 0.  1.
    9900012    2    1    2    0    0  0.50668791154E+01 -0.31378426115E+02  0.25385742439E+01  0.59301901954E+02  0.49999923267E+02 0.  0.
         12    1    1    2    0    0 -0.50668791154E+01  0.31378426115E+02 -0.25385742439E+01  0.31886098046E+02  0.00000000000E+00 0. -1.
         11    1    3    3    0    0  0.18918119877E+01 -0.17009526931E+02 -0.82736322733E+01  0.19009364804E+02  0.51100000000E-03 0. -1.
        -11    1    3    3    0    0  0.96104693796E+01 -0.23996933306E+02  0.23638747836E+01  0.25957693157E+02  0.51100000000E-03 0.  1.
         12    1    3    3    0    0 -0.64354022519E+01  0.96280341219E+01  0.84483317335E+01  0.14334843992E+02  0.00000000000E+00 0. -1.
</event>
<event>
 7    1  0.3220798E-013  0.5930196E+02  0.7816164E-02  0.1266605E+00
        -11   -1    0    0    0    0  0.00000000000E+00  0.00000000000E+00  0.45593999997E+02  0.45594000000E+02  0.51100000000E-03 0. -1.
         11   -1    0    0    0    0 -0.00000000000E+00 -0.00000000000E+00 -0.45593999997E+02  0.45594000000E+02  0.51100000000E-03 0.  1.
    9900012    2    1    2    0    0 -0.15452929593E+02 -0.20856559847E+02  0.18518382890E+02  0.59301958751E+02  0.50000026853E+02 0.  0.
         12    1    1    2    0    0  0.15452929593E+02  0.20856559847E+02 -0.18518382890E+02  0.31886041249E+02  0.00000000000E+00 0. -1.
         11    1    3    3    0    0  0.71028598521E+01 -0.18268570168E+01  0.14447234620E+02  0.16202179269E+02  0.51100000000E-03 0. -1.
        -11    1    3    3    0    0  0.58654749859E+01 -0.40381138757E-01  0.65941993883E+01  0.88254684454E+01  0.51100000000E-03 0.  1.
        -12    1    3    3    0    0 -0.28421264431E+02 -0.18989321691E+02 -0.25230511182E+01  0.34274311038E+02  0.00000000000E+00 0.  1.
</event>
<event>
 7    1  0.3220798E-013  0.5930178E+02  0.7816164E-02  0.1266605E+00
        -11   -1    0    0    0    0  0.00000000000E+00  0.00000000000E+00  0.45593999997E+02  0.45594000000E+02  0.51100000000E-03 0. -1.
         11   -1    0    0    0    0 -0.00000000000E+00 -0.00000000000E+00 -0.45593999997E+02  0.45594000000E+02  0.51100000000E-03 0.  1.
    9900012    2    1    2    0    0 -0.27824581109E+02  0.82469714246E+00 -0.15551318758E+02  0.59301781121E+02  0.49999702897E+02 0.  0.
         12    1    1    2    0    0  0.27824581109E+02 -0.82469714246E+00  0.15551318758E+02  0.31886218879E+02  0.00000000000E+00 0. -1.
         11    1    3    3    0    0  0.36399137506E+00  0.86421026061E+01 -0.13229005100E+02  0.15805853453E+02  0.51100000000E-03 0.  1.
        -11    1    3    3    0    0  0.27231560929E+01 -0.51779213435E+01  0.87752276640E+01  0.10546614118E+02  0.51100000000E-03 0. -1.
        -12    1    3    3    0    0 -0.30911728577E+02 -0.26394841201E+01 -0.11097541322E+02  0.32949313550E+02  0.00000000000E+00 0.  1.
</event>
<event>
 7    1  0.3220798E-013  0.5930194E+02  0.7816164E-02  0.1266605E+00
        -11   -1    0    0    0    0  0.00000000000E+00  0.00000000000E+00  0.45593999997E+02  0.45594000000E+02  0.51100000000E-03 0.  1.
         11   -1    0    0    0    0 -0.00000000000E+00 -0.00000000000E+00 -0.45593999997E+02  0.45594000000E+02  0.51100000000E-03 0. -1.
    9900012    2    1    2    0    0  0.31403371400E+02  0.10930613408E+01  0.54179828568E+01  0.59301936326E+02  0.49999985954E+02 0.  0.
         12    1    1    2    0    0 -0.31403371400E+02 -0.10930613408E+01 -0.54179828568E+01  0.31886063674E+02  0.00000000000E+00 0. -1.
         11    1    3    3    0    0  0.99362835158E+01 -0.55640638486E+01 -0.12985372054E+02  0.17271607460E+02  0.51100000000E-03 0. -1.
        -11    1    3    3    0    0  0.20665310436E+02  0.89045495538E+01 -0.95797159187E+00  0.22522516911E+02  0.51100000000E-03 0.  1.
        -12    1    3    3    0    0  0.80177744812E+00 -0.22474243644E+01  0.19361326502E+02  0.19507811955E+02  0.00000000000E+00 0.  1.
</event>
<event>
 7    1  0.3220798E-013  0.5930195E+02  0.7816164E-02  0.1266605E+00
        -11   -1    0    0    0    0  0.00000000000E+00  0.00000000000E+00  0.45593999997E+02  0.45594000000E+02  0.51100000000E-03 0. -1.
         11   -1    0    0    0    0 -0.00000000000E+00 -0.00000000000E+00 -0.45593999997E+02  0.45594000000E+02  0.51100000000E-03 0.  1.
    9900012    2    1    2    0    0  0.19907001784E+02 -0.13545120204E+02  0.20903623199E+02  0.59301945615E+02  0.50000002895E+02 0.  0.
         12    1    1    2    0    0 -0.19907001784E+02  0.13545120204E+02 -0.20903623199E+02  0.31886054385E+02  0.00000000000E+00 0. -1.
         11    1    3    3    0    0  0.57929600574E+01  0.13724975761E+02 -0.31022877069E+00  0.14900657302E+02  0.51100000000E-03 0. -1.
        -11    1    3    3    0    0 -0.57440196148E+01 -0.69279365924E+01  0.10958284648E+02  0.14180058866E+02  0.51100000000E-03 0.  1.
        -12    1    3    3    0    0  0.19858061341E+02 -0.20342159373E+02  0.10255567322E+02  0.30221229447E+02  0.00000000000E+00 0.  1.
</event>
<event>
 7    1  0.3220798E-013  0.5930189E+02  0.7816164E-02  0.1266605E+00
        -11   -1    0    0    0    0  0.00000000000E+00  0.00000000000E+00  0.45593999997E+02  0.45594000000E+02  0.51100000000E-03 0.  1.
         11   -1    0    0    0    0 -0.00000000000E+00 -0.00000000000E+00 -0.45593999997E+02  0.45594000000E+02  0.51100000000E-03 0. -1.
    9900012    2    1    2    0    0  0.22420672190E+02  0.84638480599E+01  0.21033319223E+02  0.59301893575E+02  0.49999907986E+02 0.  0.
         12    1    1    2    0    0 -0.22420672190E+02 -0.84638480599E+01 -0.21033319223E+02  0.31886106425E+02  0.00000000000E+00 0. -1.
         11    1    3    3    0    0  0.71128066346E+01 -0.27823061500E+01 -0.12200907888E+02  0.14394283563E+02  0.51100000000E-03 0. -1.
        -11    1    3    3    0    0  0.10232538294E+02  0.16090841659E+02  0.11967016658E+02  0.22512874388E+02  0.51100000000E-03 0.  1.
        -12    1    3    3    0    0  0.50753272610E+01 -0.48446874488E+01  0.21267210452E+02  0.22394735625E+02  0.00000000000E+00 0.  1.
</event>
<event>
 7    1  0.3220798E-013  0.5930188E+02  0.7816164E-02  0.1266605E+00
        -11   -1    0    0    0    0  0.00000000000E+00  0.00000000000E+00  0.45593999997E+02  0.45594000000E+02  0.51100000000E-03 0.  1.
         11   -1    0    0    0    0 -0.00000000000E+00 -0.00000000000E+00 -0.45593999997E+02  0.45594000000E+02  0.51100000000E-03 0. -1.
    9900012    2    1    2    0    0  0.21359058836E+02  0.13206312441E+01  0.23638344570E+02  0.59301877701E+02  0.49999879036E+02 0.  0.
         12    1    1    2    0    0 -0.21359058836E+02 -0.13206312441E+01 -0.23638344570E+02  0.31886122299E+02  0.00000000000E+00 0. -1.
         11    1    3    3    0    0 -0.83437713970E+01  0.61963908369E+01 -0.79797943925E+01  0.13103087397E+02  0.51100000000E-03 0. -1.
        -11    1    3    3    0    0  0.13292441279E+02 -0.95522413544E+01  0.12667158786E+02  0.20697613921E+02  0.51100000000E-03 0.  1.
        -12    1    3    3    0    0  0.16410388954E+02  0.46764817615E+01  0.18950980176E+02  0.25501176383E+02  0.00000000000E+00 0.  1.
</event>
<event>
 7    1  0.3220798E-013  0.5930194E+02  0.7816164E-02  0.1266605E+00
        -11   -1    0    0    0    0  0.00000000000E+00  0.00000000000E+00  0.45593999997E+02  0.45594000000E+02  0.51100000000E-03 0. -1.
         11   -1    0    0    0    0 -0.00000000000E+00 -0.00000000000E+00 -0.45593999997E+02  0.45594000000E+02  0.51100000000E-03 0.  1.
    9900012    2    1    2    0    0  0.59510375643E+01 -0.28251101031E+02 -0.13534440109E+02  0.59301943069E+02  0.49999998251E+02 0.  0.
         12    1    1    2    0    0 -0.59510375643E+01  0.28251101031E+02  0.13534440109E+02  0.31886056931E+02  0.00000000000E+00 0. -1.
         11    1    3    3    0    0 -0.43414250593E+00 -0.33993181146E+01  0.10808655605E+02  0.11338909984E+02  0.51100000000E-03 0. -1.
        -11    1    3    3    0    0  0.88609040799E+01 -0.24815506449E+02 -0.30494449370E+01  0.26525913671E+02  0.51100000000E-03 0.  1.
        -12    1    3    3    0    0 -0.24757240097E+01 -0.36276467768E-01 -0.21293650777E+02  0.21437119414E+02  0.00000000000E+00 0.  1.
</event>
<event>
 7    1  0.3220798E-013  0.5930193E+02  0.7816164E-02  0.1266605E+00
        -11   -1    0    0    0    0  0.00000000000E+00  0.00000000000E+00  0.45593999997E+02  0.45594000000E+02  0.51100000000E-03 0.  1.
         11   -1    0    0    0    0 -0.00000000000E+00 -0.00000000000E+00 -0.45593999997E+02  0.45594000000E+02  0.51100000000E-03 0. -1.
    9900012    2    1    2    0    0  0.62147271905E+01 -0.39238597217E+01  0.31027433894E+02  0.59301934655E+02  0.49999982906E+02 0.  0.
         12    1    1    2    0    0 -0.62147271905E+01  0.39238597217E+01 -0.31027433894E+02  0.31886065345E+02  0.00000000000E+00 0. -1.
         11    1    3    3    0    0  0.84206660712E+00 -0.70465359679E+01 -0.82100746748E+01  0.10852099877E+02  0.51100000000E-03 0. -1.
        -11    1    3    3    0    0  0.10582013658E+02  0.66230358301E+01  0.46880781112E+01  0.13334980064E+02  0.51100000000E-03 0.  1.
        -12    1    3    3    0    0 -0.52093530744E+01 -0.35003595838E+01  0.34549430457E+02  0.35114854714E+02  0.00000000000E+00 0.  1.
</event>
<event>
 7    1  0.3220798E-013  0.5930199E+02  0.7816164E-02  0.1266605E+00
        -11   -1    0    0    0    0  0.00000000000E+00  0.00000000000E+00  0.45593999997E+02  0.45594000000E+02  0.51100000000E-03 0.  1.
         11   -1    0    0    0    0 -0.00000000000E+00 -0.00000000000E+00 -0.45593999997E+02  0.45594000000E+02  0.51100000000E-03 0. -1.
    9900012    2    1    2    0    0  0.79465171074E+01  0.24351408712E+02  0.18988927572E+02  0.59301990361E+02  0.50000084501E+02 0.  0.
         12    1    1    2    0    0 -0.79465171074E+01 -0.24351408712E+02 -0.18988927572E+02  0.31886009639E+02  0.00000000000E+00 0. -1.
         11    1    3    3    0    0  0.79473534998E+01  0.19668922777E+02 -0.55698230475E+01  0.21932849334E+02  0.51100000000E-03 0. -1.
        -11    1    3    3    0    0 -0.16084455018E+01  0.15534960868E+02  0.20271844326E+02  0.25590423575E+02  0.51100000000E-03 0.  1.
        -12    1    3    3    0    0  0.16076091094E+01 -0.10852474934E+02  0.42869062929E+01  0.11778717452E+02  0.00000000000E+00 0.  1.
</event>
<event>
 7    1  0.3220798E-013  0.5930198E+02  0.7816164E-02  0.1266605E+00
        -11   -1    0    0    0    0  0.00000000000E+00  0.00000000000E+00  0.45593999997E+02  0.45594000000E+02  0.51100000000E-03 0.  1.
         11   -1    0    0    0    0 -0.00000000000E+00 -0.00000000000E+00 -0.45593999997E+02  0.45594000000E+02  0.51100000000E-03 0. -1.
    9900012    2    1    2    0    0  0.80051142478E+01  0.80649675545E+01  0.29792498098E+02  0.59301976436E+02  0.50000059106E+02 0.  0.
         12    1    1    2    0    0 -0.80051142478E+01 -0.80649675545E+01 -0.29792498098E+02  0.31886023564E+02  0.00000000000E+00 0. -1.
         11    1    3    3    0    0 -0.11793387472E+02 -0.18888268520E+01  0.63943604133E+01  0.13547675088E+02  0.51100000000E-03 0. -1.
        -11    1    3    3    0    0  0.87681293991E+01 -0.81735358107E+01  0.21287037608E+02  0.24429996954E+02  0.51100000000E-03 0.  1.
         12    1    3    3    0    0  0.11030372321E+02  0.18127330217E+02  0.21111000770E+01  0.21324304394E+02  0.00000000000E+00 0. -1.
</event>
<event>
 7    1  0.3220798E-013  0.5930193E+02  0.7816164E-02  0.1266605E+00
        -11   -1    0    0    0    0  0.00000000000E+00  0.00000000000E+00  0.45593999997E+02  0.45594000000E+02  0.51100000000E-03 0.  1.
         11   -1    0    0    0    0 -0.00000000000E+00 -0.00000000000E+00 -0.45593999997E+02  0.45594000000E+02  0.51100000000E-03 0. -1.
    9900012    2    1    2    0    0 -0.93766014744E+01  0.53002901120E+01  0.30011794523E+02  0.59301928731E+02  0.49999972102E+02 0.  0.
         12    1    1    2    0    0  0.93766014744E+01 -0.53002901120E+01 -0.30011794523E+02  0.31886071269E+02  0.00000000000E+00 0. -1.
         11    1    3    3    0    0  0.44578226441E+01  0.32839123758E+01 -0.48964926953E+01  0.73913398105E+01  0.51100000000E-03 0. -1.
        -11    1    3    3    0    0  0.12247584988E+02  0.14395385898E+01  0.11171725946E+02  0.16639803793E+02  0.51100000000E-03 0.  1.
         12    1    3    3    0    0 -0.26082009107E+02  0.57683914635E+00  0.23736561272E+02  0.35270785127E+02  0.00000000000E+00 0. -1.
</event>
<event>
 7    1  0.3220798E-013  0.5930191E+02  0.7816164E-02  0.1266605E+00
        -11   -1    0    0    0    0  0.00000000000E+00  0.00000000000E+00  0.45593999997E+02  0.45594000000E+02  0.51100000000E-03 0.  1.
         11   -1    0    0    0    0 -0.00000000000E+00 -0.00000000000E+00 -0.45593999997E+02  0.45594000000E+02  0.51100000000E-03 0. -1.
    9900012    2    1    2    0    0  0.29779184948E+01  0.22414809666E+02  0.22481799225E+02  0.59301906051E+02  0.49999930740E+02 0.  0.
         12    1    1    2    0    0 -0.29779184948E+01 -0.22414809666E+02 -0.22481799225E+02  0.31886093949E+02  0.00000000000E+00 0. -1.
         11    1    3    3    0    0 -0.13265907376E+01 -0.61931234977E+01  0.10325912180E+02  0.12113590890E+02  0.51100000000E-03 0. -1.
        -11    1    3    3    0    0  0.10355659142E+01 -0.17978024085E+01  0.16207838213E+02  0.16340089047E+02  0.51100000000E-03 0.  1.
         12    1    3    3    0    0  0.32689433182E+01  0.30405735572E+02 -0.40519511686E+01  0.30848226114E+02  0.00000000000E+00 0. -1.
</event>
<event>
 7    1  0.3220798E-013  0.5930190E+02  0.7816164E-02  0.1266605E+00
        -11   -1    0    0    0    0  0.00000000000E+00  0.00000000000E+00  0.45593999997E+02  0.45594000000E+02  0.51100000000E-03 0. -1.
         11   -1    0    0    0    0 -0.00000000000E+00 -0.00000000000E+00 -0.45593999997E+02  0.45594000000E+02  0.51100000000E-03 0.  1.
    9900012    2    1    2    0    0 -0.26602162225E+02 -0.30927997817E+01 -0.17305569008E+02  0.59301903277E+02  0.49999925681E+02 0.  0.
         12    1    1    2    0    0  0.26602162225E+02  0.30927997817E+01  0.17305569008E+02  0.31886096723E+02  0.00000000000E+00 0. -1.
         11    1    3    3    0    0 -0.12549638609E+01 -0.40932729021E+01 -0.14489160091E+02  0.15108460469E+02  0.51100000000E-03 0. -1.
        -11    1    3    3    0    0  0.36842283262E+01 -0.11229583828E+02 -0.44997765994E+01  0.12646148861E+02  0.51100000000E-03 0.  1.
        -12    1    3    3    0    0 -0.29031426690E+02  0.12230056949E+02  0.16833676822E+01  0.31547293947E+02  0.00000000000E+00 0.  1.
</event>
<event>
 7    1  0.3220798E-013  0.5930186E+02  0.7816164E-02  0.1266605E+00
        -11   -1    0    0    0    0  0.00000000000E+00  0.00000000000E+00  0.45593999997E+02  0.45594000000E+02  0.51100000000E-03 0. -1.
         11   -1    0    0    0    0 -0.00000000000E+00 -0.00000000000E+00 -0.45593999997E+02  0.45594000000E+02  0.51100000000E-03 0.  1.
    9900012    2    1    2    0    0 -0.12234877210E+02  0.16897170191E+02 -0.24114711847E+02  0.59301860248E+02  0.49999847206E+02 0.  0.
         12    1    1    2    0    0  0.12234877210E+02 -0.16897170191E+02  0.24114711847E+02  0.31886139752E+02  0.00000000000E+00 0. -1.
         11    1    3    3    0    0  0.44108095273E+01  0.84726313686E+01 -0.13056309986E+02  0.16177390201E+02  0.51100000000E-03 0. -1.
        -11    1    3    3    0    0 -0.81829881030E+01  0.99198221755E+01 -0.24210436975E+02  0.27413672229E+02  0.51100000000E-03 0.  1.
         12    1    3    3    0    0 -0.84626986339E+01 -0.14952833533E+01  0.13152035114E+02  0.15710797819E+02  0.00000000000E+00 0. -1.
</event>
<event>
 7    1  0.3220798E-013  0.5930201E+02  0.7816164E-02  0.1266605E+00
        -11   -1    0    0    0    0  0.00000000000E+00  0.00000000000E+00  0.45593999997E+02  0.45594000000E+02  0.51100000000E-03 0. -1.
         11   -1    0    0    0    0 -0.00000000000E+00 -0.00000000000E+00 -0.45593999997E+02  0.45594000000E+02  0.51100000000E-03 0.  1.
    9900012    2    1    2    0    0  0.16990118864E+02 -0.13983264215E+02 -0.23076406444E+02  0.59302010107E+02  0.50000120512E+02 0.  0.
         12    1    1    2    0    0 -0.16990118864E+02  0.13983264215E+02  0.23076406444E+02  0.31885989893E+02  0.00000000000E+00 0. -1.
         11    1    3    3    0    0 -0.82044202010E+00  0.10895285877E+02 -0.60609387172E+01  0.12494613153E+02  0.51100000000E-03 0. -1.
        -11    1    3    3    0    0  0.15741432789E+02  0.24476564719E+01 -0.87921535394E+01  0.18195760291E+02  0.51100000000E-03 0.  1.
         12    1    3    3    0    0  0.20691280944E+01 -0.27326206564E+02 -0.82233141870E+01  0.28611636662E+02  0.00000000000E+00 0. -1.
</event>
<event>
 7    1  0.3220798E-013  0.5930189E+02  0.7816164E-02  0.1266605E+00
        -11   -1    0    0    0    0  0.00000000000E+00  0.00000000000E+00  0.45593999997E+02  0.45594000000E+02  0.51100000000E-03 0. -1.
         11   -1    0    0    0    0 -0.00000000000E+00 -0.00000000000E+00 -0.45593999997E+02  0.45594000000E+02  0.51100000000E-03 0.  1.
    9900012    2    1    2    0    0 -0.15622030425E+02 -0.51488752492E+01 -0.27316020246E+02  0.59301894672E+02  0.49999909986E+02 0.  0.
         12    1    1    2    0    0  0.15622030425E+02  0.51488752492E+01  0.27316020246E+02  0.31886105328E+02  0.00000000000E+00 0. -1.
         11    1    3    3    0    0 -0.85766519275E+01 -0.15571157361E+02 -0.21879597300E+02  0.28191074441E+02  0.51100000000E-03 0. -1.
        -11    1    3    3    0    0 -0.12813726577E+02 -0.52355268091E+00 -0.11595950952E+02  0.17289643575E+02  0.51100000000E-03 0.  1.
         12    1    3    3    0    0  0.57683480795E+01  0.10945834793E+02  0.61595280067E+01  0.13821176656E+02  0.00000000000E+00 0. -1.
</event>
<event>
 7    1  0.3220798E-013  0.5930193E+02  0.7816164E-02  0.1266605E+00
        -11   -1    0    0    0    0  0.00000000000E+00  0.00000000000E+00  0.45593999997E+02  0.45594000000E+02  0.51100000000E-03 0.  1.
         11   -1    0    0    0    0 -0.00000000000E+00 -0.00000000000E+00 -0.45593999997E+02  0.45594000000E+02  0.51100000000E-03 0. -1.
    9900012    2    1    2    0    0 -0.25745198098E+01 -0.28565788264E+02 -0.13931579032E+02  0.59301932420E+02  0.49999978830E+02 0.  0.
         12    1    1    2    0    0  0.25745198098E+01  0.28565788264E+02  0.13931579032E+02  0.31886067580E+02  0.00000000000E+00 0. -1.
         11    1    3    3    0    0  0.95477761047E+01 -0.41234565958E+01 -0.48466634537E+01  0.11474017158E+02  0.51100000000E-03 0. -1.
        -11    1    3    3    0    0 -0.16279202349E+02 -0.22602815941E+02  0.89275914305E+01  0.29250668481E+02  0.51100000000E-03 0.  1.
         12    1    3    3    0    0  0.41569064349E+01 -0.18395157271E+01 -0.18012507009E+02  0.18577246781E+02  0.00000000000E+00 0. -1.
</event>
<event>
 7    1  0.3220798E-013  0.5930191E+02  0.7816164E-02  0.1266605E+00
        -11   -1    0    0    0    0  0.00000000000E+00  0.00000000000E+00  0.45593999997E+02  0.45594000000E+02  0.51100000000E-03 0.  1.
         11   -1    0    0    0    0 -0.00000000000E+00 -0.00000000000E+00 -0.45593999997E+02  0.45594000000E+02  0.51100000000E-03 0. -1.
    9900012    2    1    2    0    0  0.17167034599E+02 -0.95426093122E+01  0.25118809285E+02  0.59301905079E+02  0.49999928968E+02 0.  0.
         12    1    1    2    0    0 -0.17167034599E+02  0.95426093122E+01 -0.25118809285E+02  0.31886094921E+02  0.00000000000E+00 0. -1.
         11    1    3    3    0    0 -0.51470868128E+01 -0.19978910012E+02  0.99765467630E+01  0.22916824246E+02  0.51100000000E-03 0. -1.
        -11    1    3    3    0    0  0.91437826395E+01 -0.59183796725E+01  0.72982471950E+00  0.10916438214E+02  0.51100000000E-03 0.  1.
         12    1    3    3    0    0  0.13170338772E+02  0.16354680373E+02  0.14412437802E+02  0.25468642619E+02  0.00000000000E+00 0. -1.
</event>
<event>
 7    1  0.3220798E-013  0.5930195E+02  0.7816164E-02  0.1266605E+00
        -11   -1    0    0    0    0  0.00000000000E+00  0.00000000000E+00  0.45593999997E+02  0.45594000000E+02  0.51100000000E-03 0.  1.
         11   -1    0    0    0    0 -0.00000000000E+00 -0.00000000000E+00 -0.45593999997E+02  0.45594000000E+02  0.51100000000E-03 0. -1.
    9900012    2    1    2    0    0  0.22331263770E+02  0.64204165399E+01  0.21836049242E+02  0.59301950752E+02  0.50000012264E+02 0.  0.
         12    1    1    2    0    0 -0.22331263770E+02 -0.64204165399E+01 -0.21836049242E+02  0.31886049248E+02  0.00000000000E+00 0. -1.
         11    1    3    3    0    0  0.25538908139E+01 -0.31289084013E+01  0.15188447537E-01  0.40388930443E+01  0.51100000000E-03 0.  1.
        -11    1    3    3    0    0 -0.93547831613E-01  0.52705898303E+01 -0.13510226000E+02  0.14502209321E+02  0.51100000000E-03 0. -1.
        -12    1    3    3    0    0  0.19870920788E+02  0.42787351109E+01  0.35331086795E+02  0.40760848387E+02  0.00000000000E+00 0.  1.
</event>
<event>
 7    1  0.3220798E-013  0.5930197E+02  0.7816164E-02  0.1266605E+00
        -11   -1    0    0    0    0  0.00000000000E+00  0.00000000000E+00  0.45593999997E+02  0.45594000000E+02  0.51100000000E-03 0.  1.
         11   -1    0    0    0    0 -0.00000000000E+00 -0.00000000000E+00 -0.45593999997E+02  0.45594000000E+02  0.51100000000E-03 0. -1.
    9900012    2    1    2    0    0  0.20946510623E+02 -0.80318699851E+01  0.22659467374E+02  0.59301973211E+02  0.50000053223E+02 0.  0.
         12    1    1    2    0    0 -0.20946510623E+02  0.80318699851E+01 -0.22659467374E+02  0.31886026789E+02  0.00000000000E+00 0. -1.
         11    1    3    3    0    0  0.12634620922E+02 -0.11331085591E+02  0.22592730007E+02  0.28257009678E+02  0.51100000000E-03 0. -1.
        -11    1    3    3    0    0  0.17194020347E+02  0.38478382707E+01  0.77874074872E+01  0.19263538374E+02  0.51100000000E-03 0.  1.
         12    1    3    3    0    0 -0.88821306470E+01 -0.54862266494E+00 -0.77206701199E+01  0.11781425158E+02  0.00000000000E+00 0. -1.
</event>
<event>
 7    1  0.3220798E-013  0.5930195E+02  0.7816164E-02  0.1266605E+00
        -11   -1    0    0    0    0  0.00000000000E+00  0.00000000000E+00  0.45593999997E+02  0.45594000000E+02  0.51100000000E-03 0. -1.
         11   -1    0    0    0    0 -0.00000000000E+00 -0.00000000000E+00 -0.45593999997E+02  0.45594000000E+02  0.51100000000E-03 0.  1.
    9900012    2    1    2    0    0  0.19205027631E+02  0.78745350819E+01 -0.24204929046E+02  0.59301953221E+02  0.50000016766E+02 0.  0.
         12    1    1    2    0    0 -0.19205027631E+02 -0.78745350819E+01  0.24204929046E+02  0.31886046779E+02  0.00000000000E+00 0. -1.
         11    1    3    3    0    0  0.35986339340E+01  0.87329766544E+00  0.57555046152E+01  0.68438767260E+01  0.51100000000E-03 0. -1.
        -11    1    3    3    0    0  0.86874045616E+01  0.23517121514E+02 -0.15856282536E+02  0.29663912393E+02  0.51100000000E-03 0.  1.
         12    1    3    3    0    0  0.69189891350E+01 -0.16515884097E+02 -0.14104151125E+02  0.22794164102E+02  0.00000000000E+00 0. -1.
</event>
<event>
 7    1  0.3220798E-013  0.5930196E+02  0.7816164E-02  0.1266605E+00
        -11   -1    0    0    0    0  0.00000000000E+00  0.00000000000E+00  0.45593999997E+02  0.45594000000E+02  0.51100000000E-03 0.  1.
         11   -1    0    0    0    0 -0.00000000000E+00 -0.00000000000E+00 -0.45593999997E+02  0.45594000000E+02  0.51100000000E-03 0. -1.
    9900012    2    1    2    0    0 -0.17654956946E+02  0.26540882578E+02 -0.77694868920E+00  0.59301959135E+02  0.50000027551E+02 0.  0.
         12    1    1    2    0    0  0.17654956946E+02 -0.26540882578E+02  0.77694868920E+00  0.31886040865E+02  0.00000000000E+00 0. -1.
         11    1    3    3    0    0  0.95244405765E+01  0.39377634872E+01 -0.14850095972E+02  0.18076125144E+02  0.51100000000E-03 0. -1.
        -11    1    3    3    0    0 -0.27545177500E+01  0.96007208520E+01 -0.40602784497E+00  0.99963027057E+01  0.51100000000E-03 0.  1.
        -12    1    3    3    0    0 -0.24424879773E+02  0.13002398239E+02  0.14479175128E+02  0.31229531285E+02  0.00000000000E+00 0.  1.
</event>
<event>
 7    1  0.3220798E-013  0.5930190E+02  0.7816164E-02  0.1266605E+00
        -11   -1    0    0    0    0  0.00000000000E+00  0.00000000000E+00  0.45593999997E+02  0.45594000000E+02  0.51100000000E-03 0.  1.
         11   -1    0    0    0    0 -0.00000000000E+00 -0.00000000000E+00 -0.45593999997E+02  0.45594000000E+02  0.51100000000E-03 0. -1.
    9900012    2    1    2    0    0 -0.28248238412E+02  0.11231176724E+02  0.96239678143E+01  0.59301904904E+02  0.49999928647E+02 0.  0.
         12    1    1    2    0    0  0.28248238412E+02 -0.11231176724E+02 -0.96239678143E+01  0.31886095096E+02  0.00000000000E+00 0. -1.
         11    1    3    3    0    0 -0.58979564410E+01 -0.12349782663E+02  0.93477031652E+00  0.13717755567E+02  0.51100000000E-03 0. -1.
        -11    1    3    3    0    0  0.22113608917E+01 -0.47747223118E+01  0.59899304174E+01  0.79729139476E+01  0.51100000000E-03 0.  1.
         12    1    3    3    0    0 -0.24561642863E+02  0.28355681698E+02  0.26992670804E+01  0.37611235389E+02  0.00000000000E+00 0. -1.
</event>
<event>
 7    1  0.3220798E-013  0.5930193E+02  0.7816164E-02  0.1266605E+00
        -11   -1    0    0    0    0  0.00000000000E+00  0.00000000000E+00  0.45593999997E+02  0.45594000000E+02  0.51100000000E-03 0. -1.
         11   -1    0    0    0    0 -0.00000000000E+00 -0.00000000000E+00 -0.45593999997E+02  0.45594000000E+02  0.51100000000E-03 0.  1.
    9900012    2    1    2    0    0  0.19758661644E+02  0.19928707495E+02 -0.15138133775E+02  0.59301934288E+02  0.49999982238E+02 0.  0.
         12    1    1    2    0    0 -0.19758661644E+02 -0.19928707495E+02  0.15138133775E+02  0.31886065712E+02  0.00000000000E+00 0. -1.
         11    1    3    3    0    0  0.37779980372E+00  0.15404845064E+02 -0.40307760648E+01  0.15927935839E+02  0.51100000000E-03 0. -1.
        -11    1    3    3    0    0 -0.35001828674E+01  0.75019725321E+01 -0.17561012277E+02  0.19414428254E+02  0.51100000000E-03 0.  1.
        -12    1    3    3    0    0  0.22881044708E+02 -0.29781101011E+01  0.64536545670E+01  0.23959570196E+02  0.00000000000E+00 0.  1.
</event>
<event>
 7    1  0.3220798E-013  0.5930194E+02  0.7816164E-02  0.1266605E+00
        -11   -1    0    0    0    0  0.00000000000E+00  0.00000000000E+00  0.45593999997E+02  0.45594000000E+02  0.51100000000E-03 0.  1.
         11   -1    0    0    0    0 -0.00000000000E+00 -0.00000000000E+00 -0.45593999997E+02  0.45594000000E+02  0.51100000000E-03 0. -1.
    9900012    2    1    2    0    0  0.64456247000E+01  0.13933208468E+02  0.27947104868E+02  0.59301936485E+02  0.49999986244E+02 0.  0.
         12    1    1    2    0    0 -0.64456247000E+01 -0.13933208468E+02 -0.27947104868E+02  0.31886063515E+02  0.00000000000E+00 0. -1.
         11    1    3    3    0    0 -0.14783287212E+02  0.14379802915E+02  0.58577286356E+01  0.21439153381E+02  0.51100000000E-03 0. -1.
        -11    1    3    3    0    0  0.94797737181E+01  0.74675766515E+01  0.20256419903E+02  0.23578663201E+02  0.51100000000E-03 0.  1.
        -12    1    3    3    0    0  0.11749138194E+02 -0.79141710991E+01  0.18329563290E+01  0.14284119902E+02  0.00000000000E+00 0.  1.
</event>
<event>
 7    1  0.3220798E-013  0.5930207E+02  0.7816164E-02  0.1266604E+00
        -11   -1    0    0    0    0  0.00000000000E+00  0.00000000000E+00  0.45593999997E+02  0.45594000000E+02  0.51100000000E-03 0. -1.
         11   -1    0    0    0    0 -0.00000000000E+00 -0.00000000000E+00 -0.45593999997E+02  0.45594000000E+02  0.51100000000E-03 0.  1.
    9900012    2    1    2    0    0  0.99931183798E+01 -0.91397091193E+01 -0.28867207701E+02  0.59302072411E+02  0.50000234140E+02 0.  0.
         12    1    1    2    0    0 -0.99931183798E+01  0.91397091193E+01  0.28867207701E+02  0.31885927589E+02  0.00000000000E+00 0. -1.
         11    1    3    3    0    0  0.11240327348E+02 -0.16082680738E+02 -0.61130284341E+01  0.20551561875E+02  0.51100000000E-03 0. -1.
        -11    1    3    3    0    0  0.12920560088E+02 -0.16421930002E+01 -0.37794083602E+01  0.13561769747E+02  0.51100000000E-03 0.  1.
        -12    1    3    3    0    0 -0.14167769057E+02  0.85851646191E+01 -0.18974770907E+02  0.25188740789E+02  0.00000000000E+00 0.  1.
</event>
<event>
 7    1  0.3220798E-013  0.5930194E+02  0.7816164E-02  0.1266605E+00
        -11   -1    0    0    0    0  0.00000000000E+00  0.00000000000E+00  0.45593999997E+02  0.45594000000E+02  0.51100000000E-03 0. -1.
         11   -1    0    0    0    0 -0.00000000000E+00 -0.00000000000E+00 -0.45593999997E+02  0.45594000000E+02  0.51100000000E-03 0.  1.
    9900012    2    1    2    0    0  0.10485426316E+02  0.29462645012E+02 -0.62233030310E+01  0.59301935383E+02  0.49999984235E+02 0.  0.
         12    1    1    2    0    0 -0.10485426316E+02 -0.29462645012E+02  0.62233030310E+01  0.31886064617E+02  0.00000000000E+00 0. -1.
         11    1    3    3    0    0 -0.10337443936E+02  0.59392707558E+01  0.10092082617E+02  0.15620109348E+02  0.51100000000E-03 0. -1.
        -11    1    3    3    0    0  0.16751919483E+00  0.94016392997E+01  0.51443898876E+01  0.10718378225E+02  0.51100000000E-03 0.  1.
        -12    1    3    3    0    0  0.20655351057E+02  0.14121734956E+02 -0.21459775536E+02  0.32963447810E+02  0.00000000000E+00 0.  1.
</event>
<event>
 7    1  0.3220798E-013  0.5930196E+02  0.7816164E-02  0.1266605E+00
        -11   -1    0    0    0    0  0.00000000000E+00  0.00000000000E+00  0.45593999997E+02  0.45594000000E+02  0.51100000000E-03 0.  1.
         11   -1    0    0    0    0 -0.00000000000E+00 -0.00000000000E+00 -0.45593999997E+02  0.45594000000E+02  0.51100000000E-03 0. -1.
    9900012    2    1    2    0    0 -0.12520214907E+02 -0.28359268771E+02  0.74643104352E+01  0.59301955454E+02  0.50000020839E+02 0.  0.
         12    1    1    2    0    0  0.12520214907E+02  0.28359268771E+02 -0.74643104352E+01  0.31886044546E+02  0.00000000000E+00 0. -1.
         11    1    3    3    0    0 -0.10712721182E+02 -0.19683439497E+01 -0.12943653618E+02  0.16916706011E+02  0.51100000000E-03 0. -1.
        -11    1    3    3    0    0 -0.70594733422E+01  0.25993730949E+01  0.58078004388E+01  0.95038650324E+01  0.51100000000E-03 0.  1.
        -12    1    3    3    0    0  0.52519796174E+01 -0.28990297916E+02  0.14600163615E+02  0.32881384410E+02  0.00000000000E+00 0.  1.
</event>
<event>
 7    1  0.3220798E-013  0.5930195E+02  0.7816164E-02  0.1266605E+00
        -11   -1    0    0    0    0  0.00000000000E+00  0.00000000000E+00  0.45593999997E+02  0.45594000000E+02  0.51100000000E-03 0. -1.
         11   -1    0    0    0    0 -0.00000000000E+00 -0.00000000000E+00 -0.45593999997E+02  0.45594000000E+02  0.51100000000E-03 0.  1.
    9900012    2    1    2    0    0  0.14859541336E+02  0.24193008808E+02 -0.14512502080E+02  0.59301947242E+02  0.50000005861E+02 0.  0.
         12    1    1    2    0    0 -0.14859541336E+02 -0.24193008808E+02  0.14512502080E+02  0.31886052758E+02  0.00000000000E+00 0. -1.
         11    1    3    3    0    0 -0.38754614973E+01  0.91231464730E+01 -0.11038737785E+02  0.14835927188E+02  0.51100000000E-03 0. -1.
        -11    1    3    3    0    0  0.28266946560E+02  0.55407970763E+01 -0.85760119410E+01  0.30054428644E+02  0.51100000000E-03 0.  1.
         12    1    3    3    0    0 -0.95319437262E+01  0.95290652583E+01  0.51022476464E+01  0.14411591409E+02  0.00000000000E+00 0. -1.
</event>
<event>
 7    1  0.3220798E-013  0.5930194E+02  0.7816164E-02  0.1266605E+00
        -11   -1    0    0    0    0  0.00000000000E+00  0.00000000000E+00  0.45593999997E+02  0.45594000000E+02  0.51100000000E-03 0. -1.
         11   -1    0    0    0    0 -0.00000000000E+00 -0.00000000000E+00 -0.45593999997E+02  0.45594000000E+02  0.51100000000E-03 0.  1.
    9900012    2    1    2    0    0 -0.15617375751E+01 -0.26536922556E+02 -0.17608900167E+02  0.59301942732E+02  0.49999997636E+02 0.  0.
         12    1    1    2    0    0  0.15617375751E+01  0.26536922556E+02  0.17608900167E+02  0.31886057268E+02  0.00000000000E+00 0. -1.
         11    1    3    3    0    0  0.13561672808E+02 -0.15904216615E+02 -0.14306668031E+02  0.25328715441E+02  0.51100000000E-03 0. -1.
        -11    1    3    3    0    0 -0.28368155611E+00 -0.41875092900E+01 -0.13974646662E+02  0.14591314501E+02  0.51100000000E-03 0.  1.
         12    1    3    3    0    0 -0.14839728827E+02 -0.64451966512E+01  0.10672414526E+02  0.19381912789E+02  0.00000000000E+00 0. -1.
</event>
<event>
 7    1  0.3220798E-013  0.5930194E+02  0.7816164E-02  0.1266605E+00
        -11   -1    0    0    0    0  0.00000000000E+00  0.00000000000E+00  0.45593999997E+02  0.45594000000E+02  0.51100000000E-03 0.  1.
         11   -1    0    0    0    0 -0.00000000000E+00 -0.00000000000E+00 -0.45593999997E+02  0.45594000000E+02  0.51100000000E-03 0. -1.
    9900012    2    1    2    0    0  0.27035836833E+02  0.24387826539E+01 -0.16728310426E+02  0.59301944995E+02  0.50000001764E+02 0.  0.
         12    1    1    2    0    0 -0.27035836833E+02 -0.24387826539E+01  0.16728310426E+02  0.31886055005E+02  0.00000000000E+00 0. -1.
         11    1    3    3    0    0 -0.12678210134E+02 -0.40372677641E+01 -0.15868234478E+01  0.13399796719E+02  0.51100000000E-03 0. -1.
        -11    1    3    3    0    0  0.15112218784E+01  0.91241539544E+00  0.28164968898E+01  0.33239958501E+01  0.51100000000E-03 0.  1.
         12    1    3    3    0    0  0.38202825088E+02  0.55636350225E+01 -0.17957983868E+02  0.42578152426E+02  0.00000000000E+00 0. -1.
</event>
<event>
 7    1  0.3220798E-013  0.5930195E+02  0.7816164E-02  0.1266605E+00
        -11   -1    0    0    0    0  0.00000000000E+00  0.00000000000E+00  0.45593999997E+02  0.45594000000E+02  0.51100000000E-03 0. -1.
         11   -1    0    0    0    0 -0.00000000000E+00 -0.00000000000E+00 -0.45593999997E+02  0.45594000000E+02  0.51100000000E-03 0.  1.
    9900012    2    1    2    0    0  0.14439728170E+02 -0.22305564549E+02  0.17626009280E+02  0.59301950345E+02  0.50000011520E+02 0.  0.
         12    1    1    2    0    0 -0.14439728170E+02  0.22305564549E+02 -0.17626009280E+02  0.31886049655E+02  0.00000000000E+00 0. -1.
         11    1    3    3    0    0 -0.38240047271E+01 -0.25725876225E+02  0.48843392758E+01  0.26463191231E+02  0.51100000000E-03 0. -1.
        -11    1    3    3    0    0 -0.32730219104E+01 -0.18256036053E+01 -0.36797692543E+01  0.52522569411E+01  0.51100000000E-03 0.  1.
        -12    1    3    3    0    0  0.21536754808E+02  0.52459152812E+01  0.16421439259E+02  0.27586502172E+02  0.00000000000E+00 0.  1.
</event>
<event>
 7    1  0.3220798E-013  0.5930194E+02  0.7816164E-02  0.1266605E+00
        -11   -1    0    0    0    0  0.00000000000E+00  0.00000000000E+00  0.45593999997E+02  0.45594000000E+02  0.51100000000E-03 0.  1.
         11   -1    0    0    0    0 -0.00000000000E+00 -0.00000000000E+00 -0.45593999997E+02  0.45594000000E+02  0.51100000000E-03 0. -1.
    9900012    2    1    2    0    0 -0.18593373260E+02  0.18118389225E+02  0.18513009877E+02  0.59301935771E+02  0.49999984942E+02 0.  0.
         12    1    1    2    0    0  0.18593373260E+02 -0.18118389225E+02 -0.18513009877E+02  0.31886064229E+02  0.00000000000E+00 0. -1.
         11    1    3    3    0    0 -0.15830316341E+02 -0.67924457781E-01 -0.41496138502E+01  0.16365293293E+02  0.51100000000E-03 0. -1.
        -11    1    3    3    0    0  0.22926761350E+01  0.87758491994E+01 -0.69688336285E+01  0.11438379930E+02  0.51100000000E-03 0.  1.
        -12    1    3    3    0    0 -0.50557330540E+01  0.94104644839E+01  0.29631457356E+02  0.31498262548E+02  0.00000000000E+00 0.  1.
</event>
<event>
 7    1  0.3220798E-013  0.5930185E+02  0.7816164E-02  0.1266605E+00
        -11   -1    0    0    0    0  0.00000000000E+00  0.00000000000E+00  0.45593999997E+02  0.45594000000E+02  0.51100000000E-03 0.  1.
         11   -1    0    0    0    0 -0.00000000000E+00 -0.00000000000E+00 -0.45593999997E+02  0.45594000000E+02  0.51100000000E-03 0. -1.
    9900012    2    1    2    0    0  0.16650614221E+02 -0.21370096804E+02  0.16816735304E+02  0.59301849752E+02  0.49999828064E+02 0.  0.
         12    1    1    2    0    0 -0.16650614221E+02  0.21370096804E+02 -0.16816735304E+02  0.31886150248E+02  0.00000000000E+00 0. -1.
         11    1    3    3    0    0  0.15141749199E+02 -0.17819195255E+02 -0.45880071996E+01  0.23829521579E+02  0.51100000000E-03 0. -1.
        -11    1    3    3    0    0  0.39653307832E+01  0.84665352859E+01 -0.15204906431E+01  0.94719565045E+01  0.51100000000E-03 0.  1.
        -12    1    3    3    0    0 -0.24564657608E+01 -0.12017436834E+02  0.22925233146E+02  0.26000371669E+02  0.00000000000E+00 0.  1.
</event>
<event>
 7    1  0.3220798E-013  0.5930193E+02  0.7816164E-02  0.1266605E+00
        -11   -1    0    0    0    0  0.00000000000E+00  0.00000000000E+00  0.45593999997E+02  0.45594000000E+02  0.51100000000E-03 0. -1.
         11   -1    0    0    0    0 -0.00000000000E+00 -0.00000000000E+00 -0.45593999997E+02  0.45594000000E+02  0.51100000000E-03 0.  1.
    9900012    2    1    2    0    0  0.16333402492E+02  0.13142846884E+02 -0.24025129441E+02  0.59301932418E+02  0.49999978826E+02 0.  0.
         12    1    1    2    0    0 -0.16333402492E+02 -0.13142846884E+02  0.24025129441E+02  0.31886067582E+02  0.00000000000E+00 0. -1.
         11    1    3    3    0    0  0.60387047271E+01 -0.14448470783E+02 -0.14297901940E+02  0.21205052768E+02  0.51100000000E-03 0. -1.
        -11    1    3    3    0    0  0.22326162358E+01 -0.38055973084E+01 -0.13989945209E+01  0.46286425721E+01  0.51100000000E-03 0.  1.
         12    1    3    3    0    0  0.80620815293E+01  0.31396914975E+02 -0.83282329805E+01  0.33468237078E+02  0.00000000000E+00 0. -1.
</event>
<event>
 7    1  0.3220798E-013  0.5930196E+02  0.7816164E-02  0.1266605E+00
        -11   -1    0    0    0    0  0.00000000000E+00  0.00000000000E+00  0.45593999997E+02  0.45594000000E+02  0.51100000000E-03 0.  1.
         11   -1    0    0    0    0 -0.00000000000E+00 -0.00000000000E+00 -0.45593999997E+02  0.45594000000E+02  0.51100000000E-03 0. -1.
    9900012    2    1    2    0    0 -0.21777503699E+02  0.23205399259E+02  0.19922869431E+01  0.59301961843E+02  0.50000032491E+02 0.  0.
         12    1    1    2    0    0  0.21777503699E+02 -0.23205399259E+02 -0.19922869431E+01  0.31886038157E+02  0.00000000000E+00 0. -1.
         11    1    3    3    0    0  0.75730835051E+01 -0.27520647677E+01 -0.66076972080E+01  0.10420514235E+02  0.51100000000E-03 0. -1.
        -11    1    3    3    0    0 -0.32335098709E+01  0.16459953674E+02  0.12362033407E+02  0.20837598980E+02  0.51100000000E-03 0.  1.
         12    1    3    3    0    0 -0.26117077333E+02  0.94975103526E+01 -0.37620492556E+01  0.28043848629E+02  0.00000000000E+00 0. -1.
</event>
<event>
 7    1  0.3220798E-013  0.5930196E+02  0.7816164E-02  0.1266605E+00
        -11   -1    0    0    0    0  0.00000000000E+00  0.00000000000E+00  0.45593999997E+02  0.45594000000E+02  0.51100000000E-03 0.  1.
         11   -1    0    0    0    0 -0.00000000000E+00 -0.00000000000E+00 -0.45593999997E+02  0.45594000000E+02  0.51100000000E-03 0. -1.
    9900012    2    1    2    0    0  0.12284138706E+02 -0.11467645924E+02  0.27098203531E+02  0.59301959146E+02  0.50000027571E+02 0.  0.
         12    1    1    2    0    0 -0.12284138706E+02  0.11467645924E+02 -0.27098203531E+02  0.31886040854E+02  0.00000000000E+00 0. -1.
         11    1    3    3    0    0 -0.53713846971E+01  0.11511029152E+02  0.11928960597E+02  0.17425718547E+02  0.51100000000E-03 0. -1.
        -11    1    3    3    0    0  0.12114872049E+02  0.18227592368E+01  0.10290024506E+02  0.15999286878E+02  0.51100000000E-03 0.  1.
        -12    1    3    3    0    0  0.55406513540E+01 -0.24801434312E+02  0.48792184269E+01  0.25876953720E+02  0.00000000000E+00 0.  1.
</event>
<event>
 7    1  0.3220798E-013  0.5930196E+02  0.7816164E-02  0.1266605E+00
        -11   -1    0    0    0    0  0.00000000000E+00  0.00000000000E+00  0.45593999997E+02  0.45594000000E+02  0.51100000000E-03 0.  1.
         11   -1    0    0    0    0 -0.00000000000E+00 -0.00000000000E+00 -0.45593999997E+02  0.45594000000E+02  0.51100000000E-03 0. -1.
    9900012    2    1    2    0    0  0.21001496246E+02 -0.94460148468E+01  0.22055145467E+02  0.59301961007E+02  0.50000030967E+02 0.  0.
         12    1    1    2    0    0 -0.21001496246E+02  0.94460148468E+01 -0.22055145467E+02  0.31886038993E+02  0.00000000000E+00 0. -1.
         11    1    3    3    0    0  0.84192356426E+00  0.42749749071E+01  0.12793679094E+02  0.13515268061E+02  0.51100000000E-03 0.  1.
        -11    1    3    3    0    0  0.14994285865E+02  0.91081304347E+01  0.13324896623E+02  0.22030422576E+02  0.51100000000E-03 0. -1.
        -12    1    3    3    0    0  0.51652868166E+01 -0.22829120189E+02 -0.40634302498E+01  0.23756270370E+02  0.00000000000E+00 0.  1.
</event>
<event>
 7    1  0.3220798E-013  0.5930193E+02  0.7816164E-02  0.1266605E+00
        -11   -1    0    0    0    0  0.00000000000E+00  0.00000000000E+00  0.45593999997E+02  0.45594000000E+02  0.51100000000E-03 0.  1.
         11   -1    0    0    0    0 -0.00000000000E+00 -0.00000000000E+00 -0.45593999997E+02  0.45594000000E+02  0.51100000000E-03 0. -1.
    9900012    2    1    2    0    0 -0.88158287739E+00 -0.30390086959E+02  0.96118021052E+01  0.59301932298E+02  0.49999978608E+02 0.  0.
         12    1    1    2    0    0  0.88158287739E+00  0.30390086959E+02 -0.96118021052E+01  0.31886067702E+02  0.00000000000E+00 0. -1.
         11    1    3    3    0    0 -0.74660336070E+01 -0.17010652048E+01  0.51140039569E+00  0.76744257947E+01  0.51100000000E-03 0. -1.
        -11    1    3    3    0    0  0.86896016119E+01  0.93233865579E+01  0.25442175793E+01  0.12996451686E+02  0.51100000000E-03 0.  1.
        -12    1    3    3    0    0 -0.21051508823E+01 -0.38012408312E+02  0.65561841302E+01  0.38631054817E+02  0.00000000000E+00 0.  1.
</event>
<event>
 7    1  0.3220798E-013  0.5930196E+02  0.7816164E-02  0.1266605E+00
        -11   -1    0    0    0    0  0.00000000000E+00  0.00000000000E+00  0.45593999997E+02  0.45594000000E+02  0.51100000000E-03 0. -1.
         11   -1    0    0    0    0 -0.00000000000E+00 -0.00000000000E+00 -0.45593999997E+02  0.45594000000E+02  0.51100000000E-03 0.  1.
    9900012    2    1    2    0    0 -0.11682315399E+02  0.27777377229E+02 -0.10424025316E+02  0.59301961008E+02  0.50000030968E+02 0.  0.
         12    1    1    2    0    0  0.11682315399E+02 -0.27777377229E+02  0.10424025316E+02  0.31886038992E+02  0.00000000000E+00 0. -1.
         11    1    3    3    0    0  0.51052470560E+01  0.11792801911E+01  0.40271878291E+01  0.66085165767E+01  0.51100000000E-03 0.  1.
        -11    1    3    3    0    0 -0.37006406165E+01 -0.82559679888E+01  0.53646338396E+01  0.10518319490E+02  0.51100000000E-03 0. -1.
        -12    1    3    3    0    0 -0.13086921839E+02  0.34854065027E+02 -0.19815846984E+02  0.42175124941E+02  0.00000000000E+00 0.  1.
</event>
<event>
 7    1  0.3220798E-013  0.5930197E+02  0.7816164E-02  0.1266605E+00
        -11   -1    0    0    0    0  0.00000000000E+00  0.00000000000E+00  0.45593999997E+02  0.45594000000E+02  0.51100000000E-03 0.  1.
         11   -1    0    0    0    0 -0.00000000000E+00 -0.00000000000E+00 -0.45593999997E+02  0.45594000000E+02  0.51100000000E-03 0. -1.
    9900012    2    1    2    0    0  0.13818050798E+01 -0.30213208187E+02 -0.10098089764E+02  0.59301972479E+02  0.50000051888E+02 0.  0.
         12    1    1    2    0    0 -0.13818050798E+01  0.30213208187E+02  0.10098089764E+02  0.31886027521E+02  0.00000000000E+00 0. -1.
         11    1    3    3    0    0 -0.10940403119E+01  0.83393202601E+00 -0.63556287398E+01  0.65027981491E+01  0.51100000000E-03 0. -1.
        -11    1    3    3    0    0  0.19052100394E+01 -0.41584579903E+02 -0.78345855115E-01  0.41628274638E+02  0.51100000000E-03 0.  1.
         12    1    3    3    0    0  0.57063535227E+00  0.10537439691E+02 -0.36641151691E+01  0.11170899691E+02  0.00000000000E+00 0. -1.
</event>
<event>
 7    1  0.3220798E-013  0.5930206E+02  0.7816164E-02  0.1266604E+00
        -11   -1    0    0    0    0  0.00000000000E+00  0.00000000000E+00  0.45593999997E+02  0.45594000000E+02  0.51100000000E-03 0. -1.
         11   -1    0    0    0    0 -0.00000000000E+00 -0.00000000000E+00 -0.45593999997E+02  0.45594000000E+02  0.51100000000E-03 0.  1.
    9900012    2    1    2    0    0  0.44740837187E+01  0.30930421750E+02  0.63249391848E+01  0.59302058420E+02  0.50000208623E+02 0.  0.
         12    1    1    2    0    0 -0.44740837187E+01 -0.30930421750E+02 -0.63249391848E+01  0.31885941580E+02  0.00000000000E+00 0. -1.
         11    1    3    3    0    0 -0.98115120822E+01  0.22988188000E+01  0.34009528425E+01  0.10635639036E+02  0.51100000000E-03 0. -1.
        -11    1    3    3    0    0  0.68647894170E+00  0.29641679476E+02 -0.85359389429E+01  0.30853892289E+02  0.51100000000E-03 0.  1.
         12    1    3    3    0    0  0.13599116859E+02 -0.10100765257E+01  0.11459925285E+02  0.17812527094E+02  0.00000000000E+00 0. -1.
</event>
<event>
 7    1  0.3220798E-013  0.5930186E+02  0.7816164E-02  0.1266605E+00
        -11   -1    0    0    0    0  0.00000000000E+00  0.00000000000E+00  0.45593999997E+02  0.45594000000E+02  0.51100000000E-03 0. -1.
         11   -1    0    0    0    0 -0.00000000000E+00 -0.00000000000E+00 -0.45593999997E+02  0.45594000000E+02  0.51100000000E-03 0.  1.
    9900012    2    1    2    0    0  0.31653010993E+02  0.33582547829E+01 -0.18801938099E+01  0.59301857103E+02  0.49999841469E+02 0.  0.
         12    1    1    2    0    0 -0.31653010993E+02 -0.33582547829E+01  0.18801938099E+01  0.31886142897E+02  0.00000000000E+00 0. -1.
         11    1    3    3    0    0  0.71953336947E+01 -0.15229508141E+01  0.10546278249E+02  0.12857534419E+02  0.51100000000E-03 0. -1.
        -11    1    3    3    0    0  0.12400423897E+02 -0.13723795656E+02  0.39101680178E+01  0.18905091754E+02  0.51100000000E-03 0.  1.
        -12    1    3    3    0    0  0.12057253401E+02  0.18605001253E+02 -0.16336640077E+02  0.27539230930E+02  0.00000000000E+00 0.  1.
</event>
<event>
 7    1  0.3220798E-013  0.5930195E+02  0.7816164E-02  0.1266605E+00
        -11   -1    0    0    0    0  0.00000000000E+00  0.00000000000E+00  0.45593999997E+02  0.45594000000E+02  0.51100000000E-03 0.  1.
         11   -1    0    0    0    0 -0.00000000000E+00 -0.00000000000E+00 -0.45593999997E+02  0.45594000000E+02  0.51100000000E-03 0. -1.
    9900012    2    1    2    0    0  0.30121153717E+02  0.76298002244E+01  0.71569690040E+01  0.59301953552E+02  0.50000017371E+02 0.  0.
         12    1    1    2    0    0 -0.30121153717E+02 -0.76298002244E+01 -0.71569690040E+01  0.31886046448E+02  0.00000000000E+00 0. -1.
         11    1    3    3    0    0  0.12645061949E+01 -0.62929339746E+01  0.41978434029E+01  0.76695425823E+01  0.51100000000E-03 0. -1.
        -11    1    3    3    0    0  0.12932315944E+02 -0.13300115796E+02 -0.47830848755E+01  0.19157655834E+02  0.51100000000E-03 0.  1.
        -12    1    3    3    0    0  0.15924331578E+02  0.27222849995E+02  0.77422104766E+01  0.32474755136E+02  0.00000000000E+00 0.  1.
</event>
<event>
 7    1  0.3220798E-013  0.5930197E+02  0.7816164E-02  0.1266605E+00
        -11   -1    0    0    0    0  0.00000000000E+00  0.00000000000E+00  0.45593999997E+02  0.45594000000E+02  0.51100000000E-03 0.  1.
         11   -1    0    0    0    0 -0.00000000000E+00 -0.00000000000E+00 -0.45593999997E+02  0.45594000000E+02  0.51100000000E-03 0. -1.
    9900012    2    1    2    0    0 -0.21771568207E+02 -0.23291549202E+02 -0.47074904458E+00  0.59301967775E+02  0.50000043309E+02 0.  0.
         12    1    1    2    0    0  0.21771568207E+02  0.23291549202E+02  0.47074904458E+00  0.31886032225E+02  0.00000000000E+00 0. -1.
         11    1    3    3    0    0 -0.58671556600E+01  0.49015433026E+01 -0.32535644627E+01  0.83086896837E+01  0.51100000000E-03 0. -1.
        -11    1    3    3    0    0 -0.18718835129E+02 -0.26826630919E+02 -0.12779577666E+02  0.35119517659E+02  0.51100000000E-03 0.  1.
         12    1    3    3    0    0  0.28144225818E+01 -0.13664615857E+01  0.15562393084E+02  0.15873760432E+02  0.00000000000E+00 0. -1.
</event>
<event>
 7    1  0.3220798E-013  0.5930193E+02  0.7816164E-02  0.1266605E+00
        -11   -1    0    0    0    0  0.00000000000E+00  0.00000000000E+00  0.45593999997E+02  0.45594000000E+02  0.51100000000E-03 0.  1.
         11   -1    0    0    0    0 -0.00000000000E+00 -0.00000000000E+00 -0.45593999997E+02  0.45594000000E+02  0.51100000000E-03 0. -1.
    9900012    2    1    2    0    0  0.23344154956E+02 -0.43263338155E+01  0.21285084602E+02  0.59301928411E+02  0.49999971519E+02 0.  0.
         12    1    1    2    0    0 -0.23344154956E+02  0.43263338155E+01 -0.21285084602E+02  0.31886071589E+02  0.00000000000E+00 0. -1.
         11    1    3    3    0    0 -0.52526363171E+01  0.66747358548E+01 -0.10988608349E+01  0.85644487509E+01  0.51100000000E-03 0. -1.
        -11    1    3    3    0    0  0.80410992194E+01  0.80025168043E+01 -0.42337092091E+01  0.12108833378E+02  0.51100000000E-03 0.  1.
        -12    1    3    3    0    0  0.20555692053E+02 -0.19003586475E+02  0.26617654646E+02  0.38628646282E+02  0.00000000000E+00 0.  1.
</event>
<event>
 7    1  0.3220798E-013  0.5930194E+02  0.7816164E-02  0.1266605E+00
        -11   -1    0    0    0    0  0.00000000000E+00  0.00000000000E+00  0.45593999997E+02  0.45594000000E+02  0.51100000000E-03 0. -1.
         11   -1    0    0    0    0 -0.00000000000E+00 -0.00000000000E+00 -0.45593999997E+02  0.45594000000E+02  0.51100000000E-03 0.  1.
    9900012    2    1    2    0    0  0.53608668460E+00 -0.80291115307E+01 -0.30853956379E+02  0.59301942778E+02  0.49999997721E+02 0.  0.
         12    1    1    2    0    0 -0.53608668460E+00  0.80291115307E+01  0.30853956379E+02  0.31886057222E+02  0.00000000000E+00 0. -1.
         11    1    3    3    0    0 -0.86221803277E+01 -0.52870705841E+01 -0.12179836026E+02  0.15831724949E+02  0.51100000000E-03 0.  1.
        -11    1    3    3    0    0  0.10759785011E+01 -0.15124742574E+02  0.46445486203E+01  0.15858354259E+02  0.51100000000E-03 0. -1.
         12    1    3    3    0    0  0.80822885112E+01  0.12382701627E+02 -0.23318668973E+02  0.27611863571E+02  0.00000000000E+00 0. -1.
</event>
<event>
 7    1  0.3220798E-013  0.5930198E+02  0.7816164E-02  0.1266605E+00
        -11   -1    0    0    0    0  0.00000000000E+00  0.00000000000E+00  0.45593999997E+02  0.45594000000E+02  0.51100000000E-03 0.  1.
         11   -1    0    0    0    0 -0.00000000000E+00 -0.00000000000E+00 -0.45593999997E+02  0.45594000000E+02  0.51100000000E-03 0. -1.
    9900012    2    1    2    0    0  0.29672705581E+02  0.51303036800E+01  0.10484699047E+02  0.59301978197E+02  0.50000062317E+02 0.  0.
         12    1    1    2    0    0 -0.29672705581E+02 -0.51303036800E+01 -0.10484699047E+02  0.31886021803E+02  0.00000000000E+00 0. -1.
         11    1    3    3    0    0  0.11341886379E+02  0.16896941531E+02  0.94287087678E+01  0.22428677380E+02  0.51100000000E-03 0. -1.
        -11    1    3    3    0    0 -0.65934475961E+01 -0.30341342892E+00 -0.55857721172E+01  0.86467601631E+01  0.51100000000E-03 0.  1.
        -12    1    3    3    0    0  0.24924266798E+02 -0.11463224422E+02  0.66417623959E+01  0.28226540654E+02  0.00000000000E+00 0.  1.
</event>
<event>
 7    1  0.3220798E-013  0.5930195E+02  0.7816164E-02  0.1266605E+00
        -11   -1    0    0    0    0  0.00000000000E+00  0.00000000000E+00  0.45593999997E+02  0.45594000000E+02  0.51100000000E-03 0.  1.
         11   -1    0    0    0    0 -0.00000000000E+00 -0.00000000000E+00 -0.45593999997E+02  0.45594000000E+02  0.51100000000E-03 0. -1.
    9900012    2    1    2    0    0 -0.30903313829E+02 -0.63153651836E+01 -0.46713522810E+01  0.59301950148E+02  0.50000011162E+02 0.  0.
         12    1    1    2    0    0  0.30903313829E+02  0.63153651836E+01  0.46713522810E+01  0.31886049852E+02  0.00000000000E+00 0. -1.
         11    1    3    3    0    0 -0.23833582858E+01 -0.36110499635E+01 -0.89219143117E+01  0.99156761647E+01  0.51100000000E-03 0. -1.
        -11    1    3    3    0    0 -0.15092695239E+02  0.18466302534E+02 -0.57552355769E+00  0.23856341013E+02  0.51100000000E-03 0.  1.
         12    1    3    3    0    0 -0.13427260304E+02 -0.21170617755E+02  0.48260855884E+01  0.25529932971E+02  0.00000000000E+00 0. -1.
</event>
<event>
 7    1  0.3220798E-013  0.5930194E+02  0.7816164E-02  0.1266605E+00
        -11   -1    0    0    0    0  0.00000000000E+00  0.00000000000E+00  0.45593999997E+02  0.45594000000E+02  0.51100000000E-03 0.  1.
         11   -1    0    0    0    0 -0.00000000000E+00 -0.00000000000E+00 -0.45593999997E+02  0.45594000000E+02  0.51100000000E-03 0. -1.
    9900012    2    1    2    0    0  0.56211978357E+01 -0.27553497610E+02  0.15030888268E+02  0.59301941953E+02  0.49999996216E+02 0.  0.
         12    1    1    2    0    0 -0.56211978357E+01  0.27553497610E+02 -0.15030888268E+02  0.31886058047E+02  0.00000000000E+00 0. -1.
         11    1    3    3    0    0 -0.50727135982E+01 -0.31684095440E+02  0.12139184069E+02  0.34307056377E+02  0.51100000000E-03 0. -1.
        -11    1    3    3    0    0  0.18071020462E+01 -0.64301991826E+01 -0.56625959280E+01  0.87566016375E+01  0.51100000000E-03 0.  1.
         12    1    3    3    0    0  0.88868093877E+01  0.10560797012E+02  0.85543001261E+01  0.16238283939E+02  0.00000000000E+00 0. -1.
</event>
<event>
 7    1  0.3220798E-013  0.5930198E+02  0.7816164E-02  0.1266605E+00
        -11   -1    0    0    0    0  0.00000000000E+00  0.00000000000E+00  0.45593999997E+02  0.45594000000E+02  0.51100000000E-03 0.  1.
         11   -1    0    0    0    0 -0.00000000000E+00 -0.00000000000E+00 -0.45593999997E+02  0.45594000000E+02  0.51100000000E-03 0. -1.
    9900012    2    1    2    0    0  0.28587148138E+02 -0.87795661764E+01 -0.11064027074E+02  0.59301976165E+02  0.50000058611E+02 0.  0.
         12    1    1    2    0    0 -0.28587148138E+02  0.87795661764E+01  0.11064027074E+02  0.31886023835E+02  0.00000000000E+00 0. -1.
         11    1    3    3    0    0  0.23237044311E+02 -0.94059147113E+00 -0.14166843001E+02  0.27231312519E+02  0.51100000000E-03 0. -1.
        -11    1    3    3    0    0 -0.68071644252E+01 -0.92215060288E-01 -0.10326714323E+02  0.12368792184E+02  0.51100000000E-03 0.  1.
        -12    1    3    3    0    0  0.12157268252E+02 -0.77467596450E+01  0.13429530251E+02  0.19701871462E+02  0.00000000000E+00 0.  1.
</event>
<event>
 7    1  0.3220798E-013  0.5930194E+02  0.7816164E-02  0.1266605E+00
        -11   -1    0    0    0    0  0.00000000000E+00  0.00000000000E+00  0.45593999997E+02  0.45594000000E+02  0.51100000000E-03 0.  1.
         11   -1    0    0    0    0 -0.00000000000E+00 -0.00000000000E+00 -0.45593999997E+02  0.45594000000E+02  0.51100000000E-03 0. -1.
    9900012    2    1    2    0    0 -0.56619222676E+01 -0.26674398966E+02  0.16526943171E+02  0.59301940749E+02  0.49999994021E+02 0.  0.
         12    1    1    2    0    0  0.56619222676E+01  0.26674398966E+02 -0.16526943171E+02  0.31886059251E+02  0.00000000000E+00 0. -1.
         11    1    3    3    0    0  0.15236913974E+00 -0.18029059209E+02  0.21753650763E+02  0.28254053056E+02  0.51100000000E-03 0. -1.
        -11    1    3    3    0    0 -0.17464933397E+01 -0.18976911996E+02 -0.58272560646E+01  0.19928129400E+02  0.51100000000E-03 0.  1.
         12    1    3    3    0    0 -0.40677980677E+01  0.10331572238E+02  0.60054847293E+00  0.11119758293E+02  0.00000000000E+00 0. -1.
</event>
<event>
 7    1  0.3220798E-013  0.5930215E+02  0.7816164E-02  0.1266604E+00
        -11   -1    0    0    0    0  0.00000000000E+00  0.00000000000E+00  0.45593999997E+02  0.45594000000E+02  0.51100000000E-03 0.  1.
         11   -1    0    0    0    0 -0.00000000000E+00 -0.00000000000E+00 -0.45593999997E+02  0.45594000000E+02  0.51100000000E-03 0. -1.
    9900012    2    1    2    0    0  0.26237084890E+02  0.16211207816E+02  0.80944015293E+01  0.59302153320E+02  0.50000381698E+02 0.  0.
         12    1    1    2    0    0 -0.26237084890E+02 -0.16211207816E+02 -0.80944015293E+01  0.31885846680E+02  0.00000000000E+00 0. -1.
         11    1    3    3    0    0 -0.36152486588E+01 -0.10738595924E+01 -0.65123233521E+01  0.75255267585E+01  0.51100000000E-03 0. -1.
        -11    1    3    3    0    0  0.32977902640E+02  0.67230827760E+01  0.20374751436E+02  0.39343009555E+02  0.51100000000E-03 0.  1.
         12    1    3    3    0    0 -0.31255690916E+01  0.10561984633E+02 -0.57680265545E+01  0.12433617006E+02  0.00000000000E+00 0. -1.
</event>
<event>
 7    1  0.3220798E-013  0.5930196E+02  0.7816164E-02  0.1266605E+00
        -11   -1    0    0    0    0  0.00000000000E+00  0.00000000000E+00  0.45593999997E+02  0.45594000000E+02  0.51100000000E-03 0. -1.
         11   -1    0    0    0    0 -0.00000000000E+00 -0.00000000000E+00 -0.45593999997E+02  0.45594000000E+02  0.51100000000E-03 0.  1.
    9900012    2    1    2    0    0 -0.88568086337E+01 -0.22173980584E+02 -0.21132705395E+02  0.59301957420E+02  0.50000024424E+02 0.  0.
         12    1    1    2    0    0  0.88568086337E+01  0.22173980584E+02  0.21132705395E+02  0.31886042580E+02  0.00000000000E+00 0. -1.
         11    1    3    3    0    0  0.65404538241E+01 -0.80141107443E+01  0.12060331033E+02  0.15888835455E+02  0.51100000000E-03 0. -1.
        -11    1    3    3    0    0  0.14216168086E+01  0.33567659099E+01 -0.34890038933E+01  0.50459905026E+01  0.51100000000E-03 0.  1.
        -12    1    3    3    0    0 -0.16818879266E+02 -0.17516635749E+02 -0.29704032535E+02  0.38367131462E+02  0.00000000000E+00 0.  1.
</event>
<event>
 7    1  0.3220798E-013  0.5930191E+02  0.7816164E-02  0.1266605E+00
        -11   -1    0    0    0    0  0.00000000000E+00  0.00000000000E+00  0.45593999997E+02  0.45594000000E+02  0.51100000000E-03 0.  1.
         11   -1    0    0    0    0 -0.00000000000E+00 -0.00000000000E+00 -0.45593999997E+02  0.45594000000E+02  0.51100000000E-03 0. -1.
    9900012    2    1    2    0    0 -0.24961164032E+02  0.16539357385E+02  0.10959602219E+02  0.59301906898E+02  0.49999932283E+02 0.  0.
         12    1    1    2    0    0  0.24961164032E+02 -0.16539357385E+02 -0.10959602219E+02  0.31886093102E+02  0.00000000000E+00 0. -1.
         11    1    3    3    0    0 -0.10346977761E+02  0.18309280623E+02  0.18128397771E+02  0.27765599430E+02  0.51100000000E-03 0. -1.
        -11    1    3    3    0    0 -0.10938336071E+02  0.11811543763E+02 -0.87365587908E+00  0.16122128796E+02  0.51100000000E-03 0.  1.
         12    1    3    3    0    0 -0.36758502010E+01 -0.13581467001E+02 -0.62951396731E+01  0.15414178671E+02  0.00000000000E+00 0. -1.
</event>
<event>
 7    1  0.3220798E-013  0.5930198E+02  0.7816164E-02  0.1266605E+00
        -11   -1    0    0    0    0  0.00000000000E+00  0.00000000000E+00  0.45593999997E+02  0.45594000000E+02  0.51100000000E-03 0. -1.
         11   -1    0    0    0    0 -0.00000000000E+00 -0.00000000000E+00 -0.45593999997E+02  0.45594000000E+02  0.51100000000E-03 0.  1.
    9900012    2    1    2    0    0  0.38144326176E+01  0.13454493345E+02 -0.28655632621E+02  0.59301975345E+02  0.50000057115E+02 0.  0.
         12    1    1    2    0    0 -0.38144326176E+01 -0.13454493345E+02  0.28655632621E+02  0.31886024655E+02  0.00000000000E+00 0. -1.
         11    1    3    3    0    0  0.28833389749E+01 -0.28776452069E+01  0.12833904189E+02  0.13464901878E+02  0.51100000000E-03 0. -1.
        -11    1    3    3    0    0 -0.24168101542E+01 -0.36314287577E+00 -0.57870497836E+01  0.62819415413E+01  0.51100000000E-03 0.  1.
        -12    1    3    3    0    0  0.33479037969E+01  0.16695281428E+02 -0.35702487027E+02  0.39555131926E+02  0.00000000000E+00 0.  1.
</event>
<event>
 7    1  0.3220798E-013  0.5930194E+02  0.7816164E-02  0.1266605E+00
        -11   -1    0    0    0    0  0.00000000000E+00  0.00000000000E+00  0.45593999997E+02  0.45594000000E+02  0.51100000000E-03 0. -1.
         11   -1    0    0    0    0 -0.00000000000E+00 -0.00000000000E+00 -0.45593999997E+02  0.45594000000E+02  0.51100000000E-03 0.  1.
    9900012    2    1    2    0    0 -0.30676894893E+02  0.18174763888E+01  0.85056438106E+01  0.59301936001E+02  0.49999985361E+02 0.  0.
         12    1    1    2    0    0  0.30676894893E+02 -0.18174763888E+01 -0.85056438106E+01  0.31886063999E+02  0.00000000000E+00 0. -1.
         11    1    3    3    0    0 -0.16180653386E+02  0.83920875059E+01  0.23453404931E+01  0.18377739225E+02  0.51100000000E-03 0. -1.
        -11    1    3    3    0    0 -0.27118648385E+02 -0.60715563547E+01  0.50270867777E+01  0.28241042625E+02  0.51100000000E-03 0.  1.
         12    1    3    3    0    0  0.12622406879E+02 -0.50305476238E+00  0.11332165398E+01  0.12683154151E+02  0.00000000000E+00 0. -1.
</event>
<event>
 7    1  0.3220798E-013  0.5930194E+02  0.7816164E-02  0.1266605E+00
        -11   -1    0    0    0    0  0.00000000000E+00  0.00000000000E+00  0.45593999997E+02  0.45594000000E+02  0.51100000000E-03 0. -1.
         11   -1    0    0    0    0 -0.00000000000E+00 -0.00000000000E+00 -0.45593999997E+02  0.45594000000E+02  0.51100000000E-03 0.  1.
    9900012    2    1    2    0    0 -0.31425531170E+02 -0.42563747690E+01 -0.33226303846E+01  0.59301943358E+02  0.49999998779E+02 0.  0.
         12    1    1    2    0    0  0.31425531170E+02  0.42563747690E+01  0.33226303846E+01  0.31886056642E+02  0.00000000000E+00 0. -1.
         11    1    3    3    0    0 -0.11354846104E+02 -0.37843023913E+01 -0.62078325598E+01  0.13482976674E+02  0.51100000000E-03 0. -1.
        -11    1    3    3    0    0 -0.70812424766E+01 -0.19986187695E+02 -0.35756318620E+01  0.21502949497E+02  0.51100000000E-03 0.  1.
         12    1    3    3    0    0 -0.12989442589E+02  0.19514115317E+02  0.64608340372E+01  0.24316017187E+02  0.00000000000E+00 0. -1.
</event>
<event>
 7    1  0.3220798E-013  0.5930193E+02  0.7816164E-02  0.1266605E+00
        -11   -1    0    0    0    0  0.00000000000E+00  0.00000000000E+00  0.45593999997E+02  0.45594000000E+02  0.51100000000E-03 0.  1.
         11   -1    0    0    0    0 -0.00000000000E+00 -0.00000000000E+00 -0.45593999997E+02  0.45594000000E+02  0.51100000000E-03 0. -1.
    9900012    2    1    2    0    0  0.25588908927E+01  0.31459760453E+02  0.45229553445E+01  0.59301928191E+02  0.49999971118E+02 0.  0.
         12    1    1    2    0    0 -0.25588908927E+01 -0.31459760453E+02 -0.45229553445E+01  0.31886071809E+02  0.00000000000E+00 0. -1.
         11    1    3    3    0    0 -0.10863239608E+02  0.11229152461E+02 -0.14060260267E+02  0.21018914311E+02  0.51100000000E-03 0. -1.
        -11    1    3    3    0    0  0.37325566474E-01  0.19399091620E+02  0.71985223099E+01  0.20691661909E+02  0.51100000000E-03 0.  1.
        -12    1    3    3    0    0  0.13384804934E+02  0.83151637280E+00  0.11384693302E+02  0.17591351971E+02  0.00000000000E+00 0.  1.
</event>
<event>
 7    1  0.3220798E-013  0.5930194E+02  0.7816164E-02  0.1266605E+00
        -11   -1    0    0    0    0  0.00000000000E+00  0.00000000000E+00  0.45593999997E+02  0.45594000000E+02  0.51100000000E-03 0. -1.
         11   -1    0    0    0    0 -0.00000000000E+00 -0.00000000000E+00 -0.45593999997E+02  0.45594000000E+02  0.51100000000E-03 0.  1.
    9900012    2    1    2    0    0 -0.25187824661E+02  0.16192708741E+02 -0.10958581991E+02  0.59301939617E+02  0.49999991955E+02 0.  0.
         12    1    1    2    0    0  0.25187824661E+02 -0.16192708741E+02  0.10958581991E+02  0.31886060383E+02  0.00000000000E+00 0. -1.
         11    1    3    3    0    0 -0.20720973232E+02  0.24671740849E+02 -0.16079813959E+02  0.36008526010E+02  0.51100000000E-03 0. -1.
        -11    1    3    3    0    0  0.27411349026E+01  0.47554336011E+01 -0.29146219989E+01  0.62147398132E+01  0.51100000000E-03 0.  1.
        -12    1    3    3    0    0 -0.72079863321E+01 -0.13234465709E+02  0.80358539662E+01  0.17078673794E+02  0.00000000000E+00 0.  1.
</event>
<event>
 7    1  0.3220798E-013  0.5930194E+02  0.7816164E-02  0.1266605E+00
        -11   -1    0    0    0    0  0.00000000000E+00  0.00000000000E+00  0.45593999997E+02  0.45594000000E+02  0.51100000000E-03 0. -1.
         11   -1    0    0    0    0 -0.00000000000E+00 -0.00000000000E+00 -0.45593999997E+02  0.45594000000E+02  0.51100000000E-03 0.  1.
    9900012    2    1    2    0    0  0.29019995671E+02 -0.99718150019E+01  0.86673871161E+01  0.59301939682E+02  0.49999992075E+02 0.  0.
         12    1    1    2    0    0 -0.29019995671E+02  0.99718150019E+01 -0.86673871161E+01  0.31886060318E+02  0.00000000000E+00 0. -1.
         11    1    3    3    0    0 -0.49225349781E+01 -0.11187544339E+02  0.13318789164E+02  0.18077130414E+02  0.51100000000E-03 0. -1.
        -11    1    3    3    0    0  0.33732791261E+00  0.20199846630E+01 -0.72268920115E+01  0.75114643424E+01  0.51100000000E-03 0.  1.
         12    1    3    3    0    0  0.33605202736E+02 -0.80425532602E+00  0.25754899640E+01  0.33713344926E+02  0.00000000000E+00 0. -1.
</event>
<event>
 7    1  0.3220798E-013  0.5930193E+02  0.7816164E-02  0.1266605E+00
        -11   -1    0    0    0    0  0.00000000000E+00  0.00000000000E+00  0.45593999997E+02  0.45594000000E+02  0.51100000000E-03 0. -1.
         11   -1    0    0    0    0 -0.00000000000E+00 -0.00000000000E+00 -0.45593999997E+02  0.45594000000E+02  0.51100000000E-03 0.  1.
    9900012    2    1    2    0    0  0.45432894699E+01  0.78497406276E+01 -0.30568968327E+02  0.59301925740E+02  0.49999966648E+02 0.  0.
         12    1    1    2    0    0 -0.45432894699E+01 -0.78497406276E+01  0.30568968327E+02  0.31886074260E+02  0.00000000000E+00 0. -1.
         11    1    3    3    0    0  0.58232942893E+01  0.11771999808E+02 -0.19247465775E+00  0.13134983160E+02  0.51100000000E-03 0. -1.
        -11    1    3    3    0    0 -0.15710858506E+02  0.63681302311E+01 -0.16504744948E+02  0.23659897796E+02  0.51100000000E-03 0.  1.
        -12    1    3    3    0    0  0.14430853687E+02 -0.10290389411E+02 -0.13871748721E+02  0.22507044785E+02  0.00000000000E+00 0.  1.
</event>
<event>
 7    1  0.3220798E-013  0.5930195E+02  0.7816164E-02  0.1266605E+00
        -11   -1    0    0    0    0  0.00000000000E+00  0.00000000000E+00  0.45593999997E+02  0.45594000000E+02  0.51100000000E-03 0. -1.
         11   -1    0    0    0    0 -0.00000000000E+00 -0.00000000000E+00 -0.45593999997E+02  0.45594000000E+02  0.51100000000E-03 0.  1.
    9900012    2    1    2    0    0  0.21575855424E+02 -0.85417902551E+01 -0.21868705417E+02  0.59301952978E+02  0.50000016324E+02 0.  0.
         12    1    1    2    0    0 -0.21575855424E+02  0.85417902551E+01  0.21868705417E+02  0.31886047022E+02  0.00000000000E+00 0. -1.
         11    1    3    3    0    0  0.19210286275E+01 -0.15688686572E+02 -0.23302773745E+02  0.28157494594E+02  0.51100000000E-03 0. -1.
        -11    1    3    3    0    0 -0.27817365572E+01 -0.35976713660E+01  0.41030988390E+01  0.61250892137E+01  0.51100000000E-03 0.  1.
        -12    1    3    3    0    0  0.22436563354E+02  0.10744567683E+02 -0.26690305115E+01  0.25019369170E+02  0.00000000000E+00 0.  1.
</event>
<event>
 7    1  0.3220798E-013  0.5930196E+02  0.7816164E-02  0.1266605E+00
        -11   -1    0    0    0    0  0.00000000000E+00  0.00000000000E+00  0.45593999997E+02  0.45594000000E+02  0.51100000000E-03 0. -1.
         11   -1    0    0    0    0 -0.00000000000E+00 -0.00000000000E+00 -0.45593999997E+02  0.45594000000E+02  0.51100000000E-03 0.  1.
    9900012    2    1    2    0    0  0.31486353793E+02 -0.48574446694E+01 -0.13169511317E+01  0.59301959101E+02  0.50000027490E+02 0.  0.
         12    1    1    2    0    0 -0.31486353793E+02  0.48574446694E+01  0.13169511317E+01  0.31886040899E+02  0.00000000000E+00 0. -1.
         11    1    3    3    0    0 -0.84991667313E+01 -0.36211571089E+01  0.46512773139E-01  0.92385484592E+01  0.51100000000E-03 0. -1.
        -11    1    3    3    0    0  0.39936042646E+02  0.17385887077E+01  0.75375378045E+01  0.40678307110E+02  0.51100000000E-03 0.  1.
         12    1    3    3    0    0  0.49477878428E-01 -0.29748762682E+01 -0.89010017094E+01  0.93851035318E+01  0.00000000000E+00 0. -1.
</event>
<event>
 7    1  0.3220798E-013  0.5930196E+02  0.7816164E-02  0.1266605E+00
        -11   -1    0    0    0    0  0.00000000000E+00  0.00000000000E+00  0.45593999997E+02  0.45594000000E+02  0.51100000000E-03 0.  1.
         11   -1    0    0    0    0 -0.00000000000E+00 -0.00000000000E+00 -0.45593999997E+02  0.45594000000E+02  0.51100000000E-03 0. -1.
    9900012    2    1    2    0    0 -0.19205184384E+02  0.22202127015E+01  0.25356482237E+02  0.59301958492E+02  0.50000026379E+02 0.  0.
         12    1    1    2    0    0  0.19205184384E+02 -0.22202127015E+01 -0.25356482237E+02  0.31886041508E+02  0.00000000000E+00 0. -1.
         11    1    3    3    0    0 -0.18850661150E+02 -0.12720800844E+02  0.20921399334E+01  0.22837321420E+02  0.51100000000E-03 0. -1.
        -11    1    3    3    0    0 -0.82165919601E+01  0.28435843663E+01  0.19802706637E+02  0.21627425781E+02  0.51100000000E-03 0.  1.
        -12    1    3    3    0    0  0.78620687262E+01  0.12097429179E+02  0.34616356656E+01  0.14837211290E+02  0.00000000000E+00 0.  1.
</event>
<event>
 7    1  0.3220798E-013  0.5930194E+02  0.7816164E-02  0.1266605E+00
        -11   -1    0    0    0    0  0.00000000000E+00  0.00000000000E+00  0.45593999997E+02  0.45594000000E+02  0.51100000000E-03 0.  1.
         11   -1    0    0    0    0 -0.00000000000E+00 -0.00000000000E+00 -0.45593999997E+02  0.45594000000E+02  0.51100000000E-03 0. -1.
    9900012    2    1    2    0    0  0.81683315620E-01 -0.10848537226E+02  0.29983720801E+02  0.59301938073E+02  0.49999989141E+02 0.  0.
         12    1    1    2    0    0 -0.81683315620E-01  0.10848537226E+02 -0.29983720801E+02  0.31886061927E+02  0.00000000000E+00 0. -1.
         11    1    3    3    0    0  0.17927245423E+01 -0.20740402655E+02  0.51816198964E+01  0.21452910026E+02  0.51100000000E-03 0. -1.
        -11    1    3    3    0    0 -0.53553721966E+01  0.48812469084E+01 -0.40759270102E+01  0.83138296830E+01  0.51100000000E-03 0.  1.
         12    1    3    3    0    0  0.36443309700E+01  0.50106185203E+01  0.28878027915E+02  0.29535198364E+02  0.00000000000E+00 0. -1.
</event>
<event>
 7    1  0.3220798E-013  0.5930195E+02  0.7816164E-02  0.1266605E+00
        -11   -1    0    0    0    0  0.00000000000E+00  0.00000000000E+00  0.45593999997E+02  0.45594000000E+02  0.51100000000E-03 0.  1.
         11   -1    0    0    0    0 -0.00000000000E+00 -0.00000000000E+00 -0.45593999997E+02  0.45594000000E+02  0.51100000000E-03 0. -1.
    9900012    2    1    2    0    0 -0.13087234495E+02  0.27602104161E+02  0.91415668071E+01  0.59301951256E+02  0.50000013183E+02 0.  0.
         12    1    1    2    0    0  0.13087234495E+02 -0.27602104161E+02 -0.91415668071E+01  0.31886048744E+02  0.00000000000E+00 0. -1.
         11    1    3    3    0    0 -0.60192747050E+01  0.97101987379E+01 -0.15251853598E+02  0.19056197573E+02  0.51100000000E-03 0. -1.
        -11    1    3    3    0    0 -0.11914046515E+02  0.97334122040E+00  0.25991799396E+01  0.12233054979E+02  0.51100000000E-03 0.  1.
        -12    1    3    3    0    0  0.48460867252E+01  0.16918564202E+02  0.21794240466E+02  0.28012698704E+02  0.00000000000E+00 0.  1.
</event>
<event>
 7    1  0.3220798E-013  0.5930194E+02  0.7816164E-02  0.1266605E+00
        -11   -1    0    0    0    0  0.00000000000E+00  0.00000000000E+00  0.45593999997E+02  0.45594000000E+02  0.51100000000E-03 0.  1.
         11   -1    0    0    0    0 -0.00000000000E+00 -0.00000000000E+00 -0.45593999997E+02  0.45594000000E+02  0.51100000000E-03 0. -1.
    9900012    2    1    2    0    0 -0.16416786492E+02 -0.21926867491E+02  0.16322445555E+02  0.59301943085E+02  0.49999998281E+02 0.  0.
         12    1    1    2    0    0  0.16416786492E+02  0.21926867491E+02 -0.16322445555E+02  0.31886056915E+02  0.00000000000E+00 0. -1.
         11    1    3    3    0    0 -0.98747568111E+01 -0.16662595808E+02  0.13723198863E+02  0.23737714895E+02  0.51100000000E-03 0. -1.
        -11    1    3    3    0    0 -0.80571635054E+01  0.31403942276E+01  0.16856292624E+02  0.18945040537E+02  0.51100000000E-03 0.  1.
         12    1    3    3    0    0  0.15151338242E+01 -0.84046659106E+01 -0.14257045931E+02  0.16619187654E+02  0.00000000000E+00 0. -1.
</event>
<event>
 7    1  0.3220798E-013  0.5930201E+02  0.7816164E-02  0.1266605E+00
        -11   -1    0    0    0    0  0.00000000000E+00  0.00000000000E+00  0.45593999997E+02  0.45594000000E+02  0.51100000000E-03 0.  1.
         11   -1    0    0    0    0 -0.00000000000E+00 -0.00000000000E+00 -0.45593999997E+02  0.45594000000E+02  0.51100000000E-03 0. -1.
    9900012    2    1    2    0    0 -0.93013295516E+01 -0.52957514578E+01  0.30035923300E+02  0.59302009293E+02  0.50000119027E+02 0.  0.
         12    1    1    2    0    0  0.93013295516E+01  0.52957514578E+01 -0.30035923300E+02  0.31885990707E+02  0.00000000000E+00 0. -1.
         11    1    3    3    0    0 -0.85445779754E+01 -0.27464669387E+01 -0.51276340587E+01  0.10336610892E+02  0.51100000000E-03 0. -1.
        -11    1    3    3    0    0  0.54690268963E+00  0.15586630775E+02  0.13045501521E+02  0.20332911048E+02  0.51100000000E-03 0.  1.
        -12    1    3    3    0    0 -0.13036542659E+01 -0.18135915295E+02  0.22118055837E+02  0.28632487353E+02  0.00000000000E+00 0.  1.
</event>
<event>
 7    1  0.3220798E-013  0.5930194E+02  0.7816164E-02  0.1266605E+00
        -11   -1    0    0    0    0  0.00000000000E+00  0.00000000000E+00  0.45593999997E+02  0.45594000000E+02  0.51100000000E-03 0.  1.
         11   -1    0    0    0    0 -0.00000000000E+00 -0.00000000000E+00 -0.45593999997E+02  0.45594000000E+02  0.51100000000E-03 0. -1.
    9900012    2    1    2    0    0  0.17685435533E+02 -0.81770032844E+01  0.25240500458E+02  0.59301939157E+02  0.49999991117E+02 0.  0.
         12    1    1    2    0    0 -0.17685435533E+02  0.81770032844E+01 -0.25240500458E+02  0.31886060843E+02  0.00000000000E+00 0. -1.
         11    1    3    3    0    0  0.12377533120E+02  0.62463421187E+01  0.95383995648E+01  0.16828582308E+02  0.51100000000E-03 0. -1.
        -11    1    3    3    0    0  0.19940088530E+01  0.96039240111E+01  0.15349721478E+02  0.18216074699E+02  0.51100000000E-03 0.  1.
         12    1    3    3    0    0  0.33138935601E+01 -0.24027269414E+02  0.35237941531E+00  0.24257282150E+02  0.00000000000E+00 0. -1.
</event>
<event>
 7    1  0.3220798E-013  0.5930195E+02  0.7816164E-02  0.1266605E+00
        -11   -1    0    0    0    0  0.00000000000E+00  0.00000000000E+00  0.45593999997E+02  0.45594000000E+02  0.51100000000E-03 0.  1.
         11   -1    0    0    0    0 -0.00000000000E+00 -0.00000000000E+00 -0.45593999997E+02  0.45594000000E+02  0.51100000000E-03 0. -1.
    9900012    2    1    2    0    0  0.13317664601E+01  0.24859241739E+02  0.19923976604E+02  0.59301947477E+02  0.50000006291E+02 0.  0.
         12    1    1    2    0    0 -0.13317664601E+01 -0.24859241739E+02 -0.19923976604E+02  0.31886052523E+02  0.00000000000E+00 0. -1.
         11    1    3    3    0    0 -0.16015738094E+01 -0.36118484762E+01 -0.21816893085E+01  0.45133420635E+01  0.51100000000E-03 0. -1.
        -11    1    3    3    0    0  0.59430543421E+01 -0.72876468208E+01  0.15751790053E+02  0.18345260457E+02  0.51100000000E-03 0.  1.
        -12    1    3    3    0    0 -0.30097140726E+01  0.35758737036E+02  0.63538758598E+01  0.36443344957E+02  0.00000000000E+00 0.  1.
</event>
<event>
 7    1  0.3220798E-013  0.5930197E+02  0.7816164E-02  0.1266605E+00
        -11   -1    0    0    0    0  0.00000000000E+00  0.00000000000E+00  0.45593999997E+02  0.45594000000E+02  0.51100000000E-03 0. -1.
         11   -1    0    0    0    0 -0.00000000000E+00 -0.00000000000E+00 -0.45593999997E+02  0.45594000000E+02  0.51100000000E-03 0.  1.
    9900012    2    1    2    0    0 -0.28562906255E+02 -0.12754347874E+02 -0.61810907713E+01  0.59301970355E+02  0.50000048014E+02 0.  0.
         12    1    1    2    0    0  0.28562906255E+02  0.12754347874E+02  0.61810907713E+01  0.31886029645E+02  0.00000000000E+00 0. -1.
         11    1    3    3    0    0 -0.16343867596E+02 -0.13401353722E+02  0.30132842025E+01  0.21349430239E+02  0.51100000000E-03 0. -1.
        -11    1    3    3    0    0 -0.23290629751E+02 -0.39743805114E+01 -0.14479370851E+01  0.23671621337E+02  0.51100000000E-03 0.  1.
         12    1    3    3    0    0  0.11071591092E+02  0.46213863597E+01 -0.77464378887E+01  0.14280918779E+02  0.00000000000E+00 0. -1.
</event>
<event>
 7    1  0.3220798E-013  0.5930194E+02  0.7816164E-02  0.1266605E+00
        -11   -1    0    0    0    0  0.00000000000E+00  0.00000000000E+00  0.45593999997E+02  0.45594000000E+02  0.51100000000E-03 0. -1.
         11   -1    0    0    0    0 -0.00000000000E+00 -0.00000000000E+00 -0.45593999997E+02  0.45594000000E+02  0.51100000000E-03 0.  1.
    9900012    2    1    2    0    0  0.27541472706E+02  0.12163743903E+02 -0.10499130814E+02  0.59301935138E+02  0.49999983787E+02 0.  0.
         12    1    1    2    0    0 -0.27541472706E+02 -0.12163743903E+02  0.10499130814E+02  0.31886064862E+02  0.00000000000E+00 0. -1.
         11    1    3    3    0    0 -0.61295683662E+00  0.12169239710E+02  0.20366259963E+01  0.12353702154E+02  0.51100000000E-03 0. -1.
        -11    1    3    3    0    0 -0.31642224863E+01  0.82874666833E+01 -0.11512816575E+02  0.14534075606E+02  0.51100000000E-03 0.  1.
         12    1    3    3    0    0  0.31318652029E+02 -0.82929624906E+01 -0.10229402346E+01  0.32414157378E+02  0.00000000000E+00 0. -1.
</event>
<event>
 7    1  0.3220798E-013  0.5930195E+02  0.7816164E-02  0.1266605E+00
        -11   -1    0    0    0    0  0.00000000000E+00  0.00000000000E+00  0.45593999997E+02  0.45594000000E+02  0.51100000000E-03 0.  1.
         11   -1    0    0    0    0 -0.00000000000E+00 -0.00000000000E+00 -0.45593999997E+02  0.45594000000E+02  0.51100000000E-03 0. -1.
    9900012    2    1    2    0    0 -0.27995069405E+01  0.16537057450E+02  0.27118423756E+02  0.59301946384E+02  0.50000004297E+02 0.  0.
         12    1    1    2    0    0  0.27995069405E+01 -0.16537057450E+02 -0.27118423756E+02  0.31886053616E+02  0.00000000000E+00 0. -1.
         11    1    3    3    0    0  0.21746223504E+01  0.33128156152E+01 -0.71229739385E+01  0.81511034626E+01  0.51100000000E-03 0. -1.
        -11    1    3    3    0    0 -0.14507731831E+02  0.15315145695E+02  0.70207467494E+01  0.22233282612E+02  0.51100000000E-03 0.  1.
        -12    1    3    3    0    0  0.95336025397E+01 -0.20909038604E+01  0.27220650945E+02  0.28917560309E+02  0.00000000000E+00 0.  1.
</event>
<event>
 7    1  0.3220798E-013  0.5930194E+02  0.7816164E-02  0.1266605E+00
        -11   -1    0    0    0    0  0.00000000000E+00  0.00000000000E+00  0.45593999997E+02  0.45594000000E+02  0.51100000000E-03 0.  1.
         11   -1    0    0    0    0 -0.00000000000E+00 -0.00000000000E+00 -0.45593999997E+02  0.45594000000E+02  0.51100000000E-03 0. -1.
    9900012    2    1    2    0    0 -0.13111872188E+02 -0.29015284438E+02  0.17067923315E+01  0.59301936221E+02  0.49999985762E+02 0.  0.
         12    1    1    2    0    0  0.13111872188E+02  0.29015284438E+02 -0.17067923315E+01  0.31886063779E+02  0.00000000000E+00 0. -1.
         11    1    3    3    0    0 -0.72069193693E+01 -0.76570249663E+01 -0.11501309492E+02  0.15583640089E+02  0.51100000000E-03 0. -1.
        -11    1    3    3    0    0 -0.42263528234E+01 -0.22236248100E+02 -0.67898643719E+01  0.23630807142E+02  0.51100000000E-03 0.  1.
         12    1    3    3    0    0 -0.16785999954E+01  0.87798862826E+00  0.19997966195E+02  0.20087488990E+02  0.00000000000E+00 0. -1.
</event>
<event>
 7    1  0.3220798E-013  0.5930194E+02  0.7816164E-02  0.1266605E+00
        -11   -1    0    0    0    0  0.00000000000E+00  0.00000000000E+00  0.45593999997E+02  0.45594000000E+02  0.51100000000E-03 0. -1.
         11   -1    0    0    0    0 -0.00000000000E+00 -0.00000000000E+00 -0.45593999997E+02  0.45594000000E+02  0.51100000000E-03 0.  1.
    9900012    2    1    2    0    0 -0.20975050856E+01  0.30462210667E+02 -0.91855818166E+01  0.59301941611E+02  0.49999995593E+02 0.  0.
         12    1    1    2    0    0  0.20975050856E+01 -0.30462210667E+02  0.91855818166E+01  0.31886058389E+02  0.00000000000E+00 0. -1.
         11    1    3    3    0    0 -0.12379793036E+02  0.59521629310E+01  0.10439437954E+02  0.17253097815E+02  0.51100000000E-03 0. -1.
        -11    1    3    3    0    0 -0.46432888360E+01  0.14088739228E+02  0.58944841665E+00  0.14845880033E+02  0.51100000000E-03 0.  1.
        -12    1    3    3    0    0  0.14925576786E+02  0.10421308508E+02 -0.20214468187E+02  0.27202963763E+02  0.00000000000E+00 0.  1.
</event>
<event>
 7    1  0.3220798E-013  0.5930195E+02  0.7816164E-02  0.1266605E+00
        -11   -1    0    0    0    0  0.00000000000E+00  0.00000000000E+00  0.45593999997E+02  0.45594000000E+02  0.51100000000E-03 0. -1.
         11   -1    0    0    0    0 -0.00000000000E+00 -0.00000000000E+00 -0.45593999997E+02  0.45594000000E+02  0.51100000000E-03 0.  1.
    9900012    2    1    2    0    0  0.22390989351E+02 -0.10624973502E+02 -0.20061749506E+02  0.59301948829E+02  0.50000008757E+02 0.  0.
         12    1    1    2    0    0 -0.22390989351E+02  0.10624973502E+02  0.20061749506E+02  0.31886051171E+02  0.00000000000E+00 0. -1.
         11    1    3    3    0    0  0.36872699107E+01  0.10077431260E+02 -0.96409416901E+01  0.14425613926E+02  0.51100000000E-03 0. -1.
        -11    1    3    3    0    0  0.19083333108E+02  0.17814708684E+01 -0.11520775503E+02  0.22362368153E+02  0.51100000000E-03 0.  1.
        -12    1    3    3    0    0 -0.37961366737E+00 -0.22483875631E+02  0.10999676874E+01  0.22513966751E+02  0.00000000000E+00 0.  1.
</event>
<event>
 7    1  0.3220798E-013  0.5930196E+02  0.7816164E-02  0.1266605E+00
        -11   -1    0    0    0    0  0.00000000000E+00  0.00000000000E+00  0.45593999997E+02  0.45594000000E+02  0.51100000000E-03 0. -1.
         11   -1    0    0    0    0 -0.00000000000E+00 -0.00000000000E+00 -0.45593999997E+02  0.45594000000E+02  0.51100000000E-03 0.  1.
    9900012    2    1    2    0    0 -0.22620352973E+02 -0.12046876365E+02 -0.18971340991E+02  0.59301962652E+02  0.50000033965E+02 0.  0.
         12    1    1    2    0    0  0.22620352973E+02  0.12046876365E+02  0.18971340991E+02  0.31886037348E+02  0.00000000000E+00 0. -1.
         11    1    3    3    0    0 -0.72639130247E+01 -0.11427848970E+02 -0.69297855875E+01  0.15211248899E+02  0.51100000000E-03 0. -1.
        -11    1    3    3    0    0  0.58396155292E+01 -0.15215163547E+02 -0.18163688040E+01  0.16398216585E+02  0.51100000000E-03 0.  1.
         12    1    3    3    0    0 -0.21196055478E+02  0.14596136152E+02 -0.10225186599E+02  0.27692497167E+02  0.00000000000E+00 0. -1.
</event>
<event>
 7    1  0.3220798E-013  0.5930195E+02  0.7816164E-02  0.1266605E+00
        -11   -1    0    0    0    0  0.00000000000E+00  0.00000000000E+00  0.45593999997E+02  0.45594000000E+02  0.51100000000E-03 0. -1.
         11   -1    0    0    0    0 -0.00000000000E+00 -0.00000000000E+00 -0.45593999997E+02  0.45594000000E+02  0.51100000000E-03 0.  1.
    9900012    2    1    2    0    0 -0.13360676004E+02 -0.25735008482E+02 -0.13263544522E+02  0.59301953865E+02  0.50000017940E+02 0.  0.
         12    1    1    2    0    0  0.13360676004E+02  0.25735008482E+02  0.13263544522E+02  0.31886046135E+02  0.00000000000E+00 0. -1.
         11    1    3    3    0    0 -0.42434878077E+01 -0.15304920353E+02 -0.11019104761E+02  0.19330505574E+02  0.51100000000E-03 0. -1.
        -11    1    3    3    0    0  0.19285611088E+01 -0.51725709593E+01 -0.18682461649E+02  0.19480996170E+02  0.51100000000E-03 0.  1.
         12    1    3    3    0    0 -0.11045749305E+02 -0.52575171701E+01  0.16438021887E+02  0.20490452120E+02  0.00000000000E+00 0. -1.
</event>
<event>
 7    1  0.3220798E-013  0.5930195E+02  0.7816164E-02  0.1266605E+00
        -11   -1    0    0    0    0  0.00000000000E+00  0.00000000000E+00  0.45593999997E+02  0.45594000000E+02  0.51100000000E-03 0.  1.
         11   -1    0    0    0    0 -0.00000000000E+00 -0.00000000000E+00 -0.45593999997E+02  0.45594000000E+02  0.51100000000E-03 0. -1.
    9900012    2    1    2    0    0 -0.62420557448E+01 -0.22782603828E+02  0.21417518234E+02  0.59301946867E+02  0.50000005178E+02 0.  0.
         12    1    1    2    0    0  0.62420557448E+01  0.22782603828E+02 -0.21417518234E+02  0.31886053133E+02  0.00000000000E+00 0. -1.
         11    1    3    3    0    0 -0.81899732587E+01 -0.33849380538E+02  0.31462570789E+01  0.34967916132E+02  0.51100000000E-03 0. -1.
        -11    1    3    3    0    0 -0.32227046176E+01 -0.45241660787E+00  0.23517600022E+01  0.40151315306E+01  0.51100000000E-03 0.  1.
        -12    1    3    3    0    0  0.51706221315E+01  0.11519193318E+02  0.15919501153E+02  0.20318899204E+02  0.00000000000E+00 0.  1.
</event>
<event>
 7    1  0.3220798E-013  0.5930194E+02  0.7816164E-02  0.1266605E+00
        -11   -1    0    0    0    0  0.00000000000E+00  0.00000000000E+00  0.45593999997E+02  0.45594000000E+02  0.51100000000E-03 0.  1.
         11   -1    0    0    0    0 -0.00000000000E+00 -0.00000000000E+00 -0.45593999997E+02  0.45594000000E+02  0.51100000000E-03 0. -1.
    9900012    2    1    2    0    0 -0.22552946884E+02  0.20050448034E+02 -0.10298772228E+02  0.59301943660E+02  0.49999999329E+02 0.  0.
         12    1    1    2    0    0  0.22552946884E+02 -0.20050448034E+02  0.10298772228E+02  0.31886056340E+02  0.00000000000E+00 0. -1.
         11    1    3    3    0    0 -0.23845518487E+01  0.17319057044E+02  0.88592741750E+01  0.19599044966E+02  0.51100000000E-03 0. -1.
        -11    1    3    3    0    0  0.28880965512E+01 -0.41304190148E+01  0.39062296146E+01  0.63765267184E+01  0.51100000000E-03 0.  1.
         12    1    3    3    0    0 -0.23056491586E+02  0.68618100044E+01 -0.23064276018E+02  0.33326371975E+02  0.00000000000E+00 0. -1.
</event>
<event>
 7    1  0.3220798E-013  0.5930196E+02  0.7816164E-02  0.1266605E+00
        -11   -1    0    0    0    0  0.00000000000E+00  0.00000000000E+00  0.45593999997E+02  0.45594000000E+02  0.51100000000E-03 0. -1.
         11   -1    0    0    0    0 -0.00000000000E+00 -0.00000000000E+00 -0.45593999997E+02  0.45594000000E+02  0.51100000000E-03 0.  1.
    9900012    2    1    2    0    0  0.34004352441E+01  0.26404758380E+02 -0.17548367465E+02  0.59301961901E+02  0.50000032597E+02 0.  0.
         12    1    1    2    0    0 -0.34004352441E+01 -0.26404758380E+02  0.17548367465E+02  0.31886038099E+02  0.00000000000E+00 0. -1.
         11    1    3    3    0    0  0.83308732882E+01  0.77402451175E+01 -0.25479586552E+02  0.27902046078E+02  0.51100000000E-03 0. -1.
        -11    1    3    3    0    0 -0.94303749187E+01  0.19702030415E+02 -0.43142249758E+00  0.21846924251E+02  0.51100000000E-03 0.  1.
        -12    1    3    3    0    0  0.44999368746E+01 -0.10375171524E+01  0.83626415845E+01  0.95529915727E+01  0.00000000000E+00 0.  1.
</event>
<event>
 7    1  0.3220798E-013  0.5930194E+02  0.7816164E-02  0.1266605E+00
        -11   -1    0    0    0    0  0.00000000000E+00  0.00000000000E+00  0.45593999997E+02  0.45594000000E+02  0.51100000000E-03 0.  1.
         11   -1    0    0    0    0 -0.00000000000E+00 -0.00000000000E+00 -0.45593999997E+02  0.45594000000E+02  0.51100000000E-03 0. -1.
    9900012    2    1    2    0    0  0.92024617094E+01  0.14889776916E+01  0.30492921361E+02  0.59301943342E+02  0.49999998749E+02 0.  0.
         12    1    1    2    0    0 -0.92024617094E+01 -0.14889776916E+01 -0.30492921361E+02  0.31886056658E+02  0.00000000000E+00 0. -1.
         11    1    3    3    0    0  0.10112832966E+02  0.14927607730E+02  0.16729640719E+02  0.24596417259E+02  0.51100000000E-03 0.  1.
        -11    1    3    3    0    0  0.12556170799E+02 -0.91464397080E-02  0.32297013286E+01  0.12964894127E+02  0.51100000000E-03 0. -1.
         12    1    3    3    0    0 -0.13466542056E+02 -0.13429483599E+02  0.10533579313E+02  0.21740631955E+02  0.00000000000E+00 0. -1.
</event>
<event>
 7    1  0.3220798E-013  0.5930193E+02  0.7816164E-02  0.1266605E+00
        -11   -1    0    0    0    0  0.00000000000E+00  0.00000000000E+00  0.45593999997E+02  0.45594000000E+02  0.51100000000E-03 0.  1.
         11   -1    0    0    0    0 -0.00000000000E+00 -0.00000000000E+00 -0.45593999997E+02  0.45594000000E+02  0.51100000000E-03 0. -1.
    9900012    2    1    2    0    0 -0.19542423973E+00  0.15917653951E+02  0.27628095407E+02  0.59301928531E+02  0.49999971737E+02 0.  0.
         12    1    1    2    0    0  0.19542423973E+00 -0.15917653951E+02 -0.27628095407E+02  0.31886071469E+02  0.00000000000E+00 0. -1.
         11    1    3    3    0    0  0.12432857160E+02 -0.52189266116E+01 -0.31875513029E+01  0.13855454367E+02  0.51100000000E-03 0. -1.
        -11    1    3    3    0    0 -0.10869515268E+02  0.42605992706E+00  0.41628291635E+01  0.11647190053E+02  0.51100000000E-03 0.  1.
        -12    1    3    3    0    0 -0.17587661318E+01  0.20710520635E+02  0.26652817546E+02  0.33799284111E+02  0.00000000000E+00 0.  1.
</event>
<event>
 7    1  0.3220798E-013  0.5930194E+02  0.7816164E-02  0.1266605E+00
        -11   -1    0    0    0    0  0.00000000000E+00  0.00000000000E+00  0.45593999997E+02  0.45594000000E+02  0.51100000000E-03 0. -1.
         11   -1    0    0    0    0 -0.00000000000E+00 -0.00000000000E+00 -0.45593999997E+02  0.45594000000E+02  0.51100000000E-03 0.  1.
    9900012    2    1    2    0    0  0.23699630988E+02 -0.21320053550E+02 -0.70962514972E+00  0.59301940974E+02  0.49999994432E+02 0.  0.
         12    1    1    2    0    0 -0.23699630988E+02  0.21320053550E+02  0.70962514972E+00  0.31886059026E+02  0.00000000000E+00 0. -1.
         11    1    3    3    0    0  0.12727539658E+02 -0.69485504091E+01  0.17434797591E+02  0.22676965975E+02  0.51100000000E-03 0. -1.
        -11    1    3    3    0    0  0.16646570607E+02 -0.69466198882E+01 -0.22374061071E+01  0.18176078432E+02  0.51100000000E-03 0.  1.
        -12    1    3    3    0    0 -0.56744792767E+01 -0.74248832523E+01 -0.15907016633E+02  0.18448896567E+02  0.00000000000E+00 0.  1.
</event>
<event>
 7    1  0.3220798E-013  0.5930194E+02  0.7816164E-02  0.1266605E+00
        -11   -1    0    0    0    0  0.00000000000E+00  0.00000000000E+00  0.45593999997E+02  0.45594000000E+02  0.51100000000E-03 0.  1.
         11   -1    0    0    0    0 -0.00000000000E+00 -0.00000000000E+00 -0.45593999997E+02  0.45594000000E+02  0.51100000000E-03 0. -1.
    9900012    2    1    2    0    0  0.17503585027E+02 -0.26393723337E+02  0.37036197139E+01  0.59301938478E+02  0.49999989879E+02 0.  0.
         12    1    1    2    0    0 -0.17503585027E+02  0.26393723337E+02 -0.37036197139E+01  0.31886061522E+02  0.00000000000E+00 0. -1.
         11    1    3    3    0    0  0.25019073570E+02 -0.12338046640E+02  0.51590584606E+00  0.27900673761E+02  0.51100000000E-03 0. -1.
        -11    1    3    3    0    0 -0.33438710187E+01 -0.92923188912E+01  0.15023218459E+02  0.17978480383E+02  0.51100000000E-03 0.  1.
         12    1    3    3    0    0 -0.41716175245E+01 -0.47633578053E+01 -0.11835504591E+02  0.13422784334E+02  0.00000000000E+00 0. -1.
</event>
<event>
 7    1  0.3220798E-013  0.5930194E+02  0.7816164E-02  0.1266605E+00
        -11   -1    0    0    0    0  0.00000000000E+00  0.00000000000E+00  0.45593999997E+02  0.45594000000E+02  0.51100000000E-03 0.  1.
         11   -1    0    0    0    0 -0.00000000000E+00 -0.00000000000E+00 -0.45593999997E+02  0.45594000000E+02  0.51100000000E-03 0. -1.
    9900012    2    1    2    0    0 -0.19875927968E+01  0.28567411274E+01  0.31695572485E+02  0.59301940191E+02  0.49999993003E+02 0.  0.
         12    1    1    2    0    0  0.19875927968E+01 -0.28567411274E+01 -0.31695572485E+02  0.31886059809E+02  0.00000000000E+00 0. -1.
         11    1    3    3    0    0 -0.94747183709E+01  0.67790004990E+01  0.11187463991E+02  0.16151918982E+02  0.51100000000E-03 0. -1.
        -11    1    3    3    0    0 -0.99503490968E+01 -0.12040068076E+02  0.84325432575E+00  0.15642370810E+02  0.51100000000E-03 0.  1.
         12    1    3    3    0    0  0.17437474671E+02  0.81178087048E+01  0.19664854168E+02  0.27507650400E+02  0.00000000000E+00 0. -1.
</event>
<event>
 7    1  0.3220798E-013  0.5930155E+02  0.7816164E-02  0.1266606E+00
        -11   -1    0    0    0    0  0.00000000000E+00  0.00000000000E+00  0.45593999997E+02  0.45594000000E+02  0.51100000000E-03 0. -1.
         11   -1    0    0    0    0 -0.00000000000E+00 -0.00000000000E+00 -0.45593999997E+02  0.45594000000E+02  0.51100000000E-03 0.  1.
    9900012    2    1    2    0    0  0.37059867865E+01  0.31686689957E-01 -0.31670334368E+02  0.59301554273E+02  0.49999289176E+02 0.  0.
         12    1    1    2    0    0 -0.37059867865E+01 -0.31686689957E-01  0.31670334368E+02  0.31886445727E+02  0.00000000000E+00 0. -1.
         11    1    3    3    0    0 -0.66118672724E+01  0.10693812427E+02 -0.48605998279E+01  0.13479608451E+02  0.51100000000E-03 0. -1.
        -11    1    3    3    0    0  0.92851784537E+01  0.11536555420E+02 -0.12606056243E+02  0.19447861171E+02  0.51100000000E-03 0.  1.
        -12    1    3    3    0    0  0.10326756052E+01 -0.22198681157E+02 -0.14203678298E+02  0.26374084651E+02  0.00000000000E+00 0.  1.
</event>
<event>
 7    1  0.3220798E-013  0.5930194E+02  0.7816164E-02  0.1266605E+00
        -11   -1    0    0    0    0  0.00000000000E+00  0.00000000000E+00  0.45593999997E+02  0.45594000000E+02  0.51100000000E-03 0.  1.
         11   -1    0    0    0    0 -0.00000000000E+00 -0.00000000000E+00 -0.45593999997E+02  0.45594000000E+02  0.51100000000E-03 0. -1.
    9900012    2    1    2    0    0  0.47051393103E+01 -0.28942482011E+01  0.31403911145E+02  0.59301942800E+02  0.49999997761E+02 0.  0.
         12    1    1    2    0    0 -0.47051393103E+01  0.28942482011E+01 -0.31403911145E+02  0.31886057200E+02  0.00000000000E+00 0. -1.
         11    1    3    3    0    0  0.86367509640E+01  0.33737680056E+01  0.85436843447E+01  0.12608343278E+02  0.51100000000E-03 0. -1.
        -11    1    3    3    0    0 -0.90694294666E+00  0.15383783134E+02  0.49539625375E+00  0.15418454745E+02  0.51100000000E-03 0.  1.
         12    1    3    3    0    0 -0.30246687070E+01 -0.21651799341E+02  0.22364830546E+02  0.31275144777E+02  0.00000000000E+00 0. -1.
</event>
<event>
 7    1  0.3220798E-013  0.5930189E+02  0.7816164E-02  0.1266605E+00
        -11   -1    0    0    0    0  0.00000000000E+00  0.00000000000E+00  0.45593999997E+02  0.45594000000E+02  0.51100000000E-03 0.  1.
         11   -1    0    0    0    0 -0.00000000000E+00 -0.00000000000E+00 -0.45593999997E+02  0.45594000000E+02  0.51100000000E-03 0. -1.
    9900012    2    1    2    0    0 -0.10345483874E+02  0.12668621002E+01  0.30134531422E+02  0.59301890796E+02  0.49999902917E+02 0.  0.
         12    1    1    2    0    0  0.10345483874E+02 -0.12668621002E+01 -0.30134531422E+02  0.31886109204E+02  0.00000000000E+00 0. -1.
         11    1    3    3    0    0 -0.65529041310E+01  0.20063626586E+02  0.14195356789E+02  0.25436151812E+02  0.51100000000E-03 0. -1.
        -11    1    3    3    0    0 -0.81457432786E+01  0.18254886314E+01  0.19607887471E+01  0.85749772639E+01  0.51100000000E-03 0.  1.
        -12    1    3    3    0    0  0.43531635357E+01 -0.20622253118E+02  0.13978385886E+02  0.25290761720E+02  0.00000000000E+00 0.  1.
</event>
<event>
 7    1  0.3220798E-013  0.5930193E+02  0.7816164E-02  0.1266605E+00
        -11   -1    0    0    0    0  0.00000000000E+00  0.00000000000E+00  0.45593999997E+02  0.45594000000E+02  0.51100000000E-03 0.  1.
         11   -1    0    0    0    0 -0.00000000000E+00 -0.00000000000E+00 -0.45593999997E+02  0.45594000000E+02  0.51100000000E-03 0. -1.
    9900012    2    1    2    0    0  0.25326369769E+02 -0.12335993002E+02  0.14937194036E+02  0.59301929457E+02  0.49999973426E+02 0.  0.
         12    1    1    2    0    0 -0.25326369769E+02  0.12335993002E+02 -0.14937194036E+02  0.31886070543E+02  0.00000000000E+00 0. -1.
         11    1    3    3    0    0 -0.25506562071E+01 -0.66344545028E+00  0.24620503165E+02  0.24761162802E+02  0.51100000000E-03 0.  1.
        -11    1    3    3    0    0 -0.10507383853E+01 -0.25727200610E+01 -0.29051981031E+00  0.27941620726E+01  0.51100000000E-03 0. -1.
        -12    1    3    3    0    0  0.28927764361E+02 -0.90998274905E+01 -0.93927893190E+01  0.31746604582E+02  0.00000000000E+00 0.  1.
</event>
<event>
 7    1  0.3220798E-013  0.5930183E+02  0.7816164E-02  0.1266605E+00
        -11   -1    0    0    0    0  0.00000000000E+00  0.00000000000E+00  0.45593999997E+02  0.45594000000E+02  0.51100000000E-03 0.  1.
         11   -1    0    0    0    0 -0.00000000000E+00 -0.00000000000E+00 -0.45593999997E+02  0.45594000000E+02  0.51100000000E-03 0. -1.
    9900012    2    1    2    0    0 -0.32874827574E+00 -0.34450216030E+01  0.31697812511E+02  0.59301834234E+02  0.49999799762E+02 0.  0.
         12    1    1    2    0    0  0.32874827574E+00  0.34450216030E+01 -0.31697812511E+02  0.31886165766E+02  0.00000000000E+00 0. -1.
         11    1    3    3    0    0  0.81565312964E+01  0.73025485536E+01 -0.41111641771E+00  0.10955602911E+02  0.51100000000E-03 0. -1.
        -11    1    3    3    0    0 -0.40681223529E+01  0.12155552725E+02  0.11494682205E+02  0.17217282038E+02  0.51100000000E-03 0.  1.
        -12    1    3    3    0    0 -0.44171572192E+01 -0.22903122881E+02  0.20614246724E+02  0.31128949285E+02  0.00000000000E+00 0.  1.
</event>
<event>
 7    1  0.3220798E-013  0.5930189E+02  0.7816164E-02  0.1266605E+00
        -11   -1    0    0    0    0  0.00000000000E+00  0.00000000000E+00  0.45593999997E+02  0.45594000000E+02  0.51100000000E-03 0.  1.
         11   -1    0    0    0    0 -0.00000000000E+00 -0.00000000000E+00 -0.45593999997E+02  0.45594000000E+02  0.51100000000E-03 0. -1.
    9900012    2    1    2    0    0  0.33641102454E+01  0.21376272031E+02  0.23419264345E+02  0.59301887253E+02  0.49999896456E+02 0.  0.
         12    1    1    2    0    0 -0.33641102454E+01 -0.21376272031E+02 -0.23419264345E+02  0.31886112747E+02  0.00000000000E+00 0. -1.
         11    1    3    3    0    0  0.68730061194E+01  0.39363436767E+01 -0.62312503102E+01  0.10077772341E+02  0.51100000000E-03 0. -1.
        -11    1    3    3    0    0  0.34054333037E+01 -0.94543756583E+01  0.14350765149E+02  0.17519322353E+02  0.51100000000E-03 0.  1.
         12    1    3    3    0    0 -0.69143291778E+01  0.26894304012E+02  0.15299749506E+02  0.31704792559E+02  0.00000000000E+00 0. -1.
</event>
<event>
 7    1  0.3220798E-013  0.5930191E+02  0.7816164E-02  0.1266605E+00
        -11   -1    0    0    0    0  0.00000000000E+00  0.00000000000E+00  0.45593999997E+02  0.45594000000E+02  0.51100000000E-03 0.  1.
         11   -1    0    0    0    0 -0.00000000000E+00 -0.00000000000E+00 -0.45593999997E+02  0.45594000000E+02  0.51100000000E-03 0. -1.
    9900012    2    1    2    0    0  0.10431685087E+02 -0.16067757935E+01  0.30088556424E+02  0.59301905697E+02  0.49999930094E+02 0.  0.
         12    1    1    2    0    0 -0.10431685087E+02  0.16067757935E+01 -0.30088556424E+02  0.31886094303E+02  0.00000000000E+00 0. -1.
         11    1    3    3    0    0  0.58144696514E+01 -0.62223862979E+00 -0.77892611692E+01  0.97400117075E+01  0.51100000000E-03 0. -1.
        -11    1    3    3    0    0 -0.10782683806E+02  0.85761294683E+01  0.17865424733E+02  0.22560799363E+02  0.51100000000E-03 0.  1.
         12    1    3    3    0    0  0.15399899241E+02 -0.95606666321E+01  0.20012392860E+02  0.27001094627E+02  0.00000000000E+00 0. -1.
</event>
<event>
 7    1  0.3220798E-013  0.5930193E+02  0.7816164E-02  0.1266605E+00
        -11   -1    0    0    0    0  0.00000000000E+00  0.00000000000E+00  0.45593999997E+02  0.45594000000E+02  0.51100000000E-03 0. -1.
         11   -1    0    0    0    0 -0.00000000000E+00 -0.00000000000E+00 -0.45593999997E+02  0.45594000000E+02  0.51100000000E-03 0.  1.
    9900012    2    1    2    0    0 -0.17221085311E+02 -0.24975222616E+02  0.98180564589E+01  0.59301925349E+02  0.49999965935E+02 0.  0.
         12    1    1    2    0    0  0.17221085311E+02  0.24975222616E+02 -0.98180564589E+01  0.31886074651E+02  0.00000000000E+00 0. -1.
         11    1    3    3    0    0 -0.52910432268E+01 -0.10531801171E+02  0.35156840791E+01  0.12299349948E+02  0.51100000000E-03 0.  1.
        -11    1    3    3    0    0 -0.37963104060E+01  0.14749922698E+02  0.68318122796E+01  0.16692688567E+02  0.51100000000E-03 0. -1.
         12    1    3    3    0    0 -0.81337316777E+01 -0.29193344144E+02 -0.52943989983E+00  0.30309886834E+02  0.00000000000E+00 0. -1.
</event>
<event>
 7    1  0.3220798E-013  0.5930204E+02  0.7816164E-02  0.1266604E+00
        -11   -1    0    0    0    0  0.00000000000E+00  0.00000000000E+00  0.45593999997E+02  0.45594000000E+02  0.51100000000E-03 0.  1.
         11   -1    0    0    0    0 -0.00000000000E+00 -0.00000000000E+00 -0.45593999997E+02  0.45594000000E+02  0.51100000000E-03 0. -1.
    9900012    2    1    2    0    0 -0.31658140449E+02  0.14073262537E+01  0.35349884704E+01  0.59302038084E+02  0.50000171535E+02 0.  0.
         12    1    1    2    0    0  0.31658140449E+02 -0.14073262537E+01 -0.35349884704E+01  0.31885961916E+02  0.00000000000E+00 0. -1.
         11    1    3    3    0    0  0.16130001774E+01 -0.59563492042E+00 -0.28824282310E+01  0.33563288424E+01  0.51100000000E-03 0. -1.
        -11    1    3    3    0    0 -0.69020623486E+01  0.19992834039E+02 -0.55304107190E+01  0.21861777617E+02  0.51100000000E-03 0.  1.
        -12    1    3    3    0    0 -0.26369078277E+02 -0.17989872865E+02  0.11947827420E+02  0.34083931624E+02  0.00000000000E+00 0.  1.
</event>
<event>
 7    1  0.3220798E-013  0.5930193E+02  0.7816164E-02  0.1266605E+00
        -11   -1    0    0    0    0  0.00000000000E+00  0.00000000000E+00  0.45593999997E+02  0.45594000000E+02  0.51100000000E-03 0.  1.
         11   -1    0    0    0    0 -0.00000000000E+00 -0.00000000000E+00 -0.45593999997E+02  0.45594000000E+02  0.51100000000E-03 0. -1.
    9900012    2    1    2    0    0 -0.16077249803E+01  0.21709677057E+02  0.23298634537E+02  0.59301933626E+02  0.49999981029E+02 0.  0.
         12    1    1    2    0    0  0.16077249803E+01 -0.21709677057E+02 -0.23298634537E+02  0.31886066374E+02  0.00000000000E+00 0. -1.
         11    1    3    3    0    0  0.72940483163E+01  0.53756008577E+01  0.10192089133E+02  0.13637408353E+02  0.51100000000E-03 0. -1.
        -11    1    3    3    0    0 -0.38889460866E+01  0.18245552450E+02  0.25826445053E+02  0.31859525266E+02  0.51100000000E-03 0.  1.
         12    1    3    3    0    0 -0.50128272100E+01 -0.19114762507E+01 -0.12719899649E+02  0.13805000006E+02  0.00000000000E+00 0. -1.
</event>
<event>
 7    1  0.3220798E-013  0.5930196E+02  0.7816164E-02  0.1266605E+00
        -11   -1    0    0    0    0  0.00000000000E+00  0.00000000000E+00  0.45593999997E+02  0.45594000000E+02  0.51100000000E-03 0.  1.
         11   -1    0    0    0    0 -0.00000000000E+00 -0.00000000000E+00 -0.45593999997E+02  0.45594000000E+02  0.51100000000E-03 0. -1.
    9900012    2    1    2    0    0  0.15957366130E+02 -0.15313564035E+02  0.22969045926E+02  0.59301955278E+02  0.50000020519E+02 0.  0.
         12    1    1    2    0    0 -0.15957366130E+02  0.15313564035E+02 -0.22969045926E+02  0.31886044722E+02  0.00000000000E+00 0. -1.
         11    1    3    3    0    0 -0.11964585970E+01 -0.14167413443E+02  0.63202573947E+01  0.15559330661E+02  0.51100000000E-03 0. -1.
        -11    1    3    3    0    0  0.59632769227E+01 -0.48939336828E+00  0.27498615832E+02  0.28142033517E+02  0.51100000000E-03 0.  1.
        -12    1    3    3    0    0  0.11190547804E+02 -0.65675722381E+00 -0.10849827301E+02  0.15600591100E+02  0.00000000000E+00 0.  1.
</event>
<event>
 7    1  0.3220798E-013  0.5930194E+02  0.7816164E-02  0.1266605E+00
        -11   -1    0    0    0    0  0.00000000000E+00  0.00000000000E+00  0.45593999997E+02  0.45594000000E+02  0.51100000000E-03 0.  1.
         11   -1    0    0    0    0 -0.00000000000E+00 -0.00000000000E+00 -0.45593999997E+02  0.45594000000E+02  0.51100000000E-03 0. -1.
    9900012    2    1    2    0    0  0.25133320561E+02 -0.10209372345E+02 -0.16757261864E+02  0.59301938605E+02  0.49999990111E+02 0.  0.
         12    1    1    2    0    0 -0.25133320561E+02  0.10209372345E+02  0.16757261864E+02  0.31886061395E+02  0.00000000000E+00 0. -1.
         11    1    3    3    0    0 -0.65640357159E+01 -0.13238916744E+01  0.54728258400E+01  0.86481834498E+01  0.51100000000E-03 0. -1.
        -11    1    3    3    0    0  0.11460359225E+02  0.61022531019E+01  0.46771086420E+01  0.13800459123E+02  0.51100000000E-03 0.  1.
         12    1    3    3    0    0  0.20236997052E+02 -0.14987733772E+02 -0.26907196346E+02  0.36853296033E+02  0.00000000000E+00 0. -1.
</event>
<event>
 7    1  0.3220798E-013  0.5930185E+02  0.7816164E-02  0.1266605E+00
        -11   -1    0    0    0    0  0.00000000000E+00  0.00000000000E+00  0.45593999997E+02  0.45594000000E+02  0.51100000000E-03 0.  1.
         11   -1    0    0    0    0 -0.00000000000E+00 -0.00000000000E+00 -0.45593999997E+02  0.45594000000E+02  0.51100000000E-03 0. -1.
    9900012    2    1    2    0    0  0.23261202413E+02 -0.45149276010E+01  0.21336791733E+02  0.59301846415E+02  0.49999821978E+02 0.  0.
         12    1    1    2    0    0 -0.23261202413E+02  0.45149276010E+01 -0.21336791733E+02  0.31886153585E+02  0.00000000000E+00 0. -1.
         11    1    3    3    0    0  0.58353019405E+01  0.13380079577E+01  0.19342927746E+02  0.20248206540E+02  0.51100000000E-03 0. -1.
        -11    1    3    3    0    0  0.18597033051E+02  0.65083900480E+01  0.12032475522E+02  0.23086559872E+02  0.51100000000E-03 0.  1.
         12    1    3    3    0    0 -0.11711325778E+01 -0.12361325607E+02 -0.10038611535E+02  0.15967080003E+02  0.00000000000E+00 0. -1.
</event>
<event>
 7    1  0.3220798E-013  0.5930195E+02  0.7816164E-02  0.1266605E+00
        -11   -1    0    0    0    0  0.00000000000E+00  0.00000000000E+00  0.45593999997E+02  0.45594000000E+02  0.51100000000E-03 0.  1.
         11   -1    0    0    0    0 -0.00000000000E+00 -0.00000000000E+00 -0.45593999997E+02  0.45594000000E+02  0.51100000000E-03 0. -1.
    9900012    2    1    2    0    0  0.10526881409E+02 -0.87228855484E+01  0.28806533456E+02  0.59301947653E+02  0.50000006612E+02 0.  0.
         12    1    1    2    0    0 -0.10526881409E+02  0.87228855484E+01 -0.28806533456E+02  0.31886052347E+02  0.00000000000E+00 0. -1.
         11    1    3    3    0    0 -0.68006535763E+01 -0.16236147406E+01  0.39196112006E+01  0.80155078513E+01  0.51100000000E-03 0. -1.
        -11    1    3    3    0    0  0.13328757617E+02  0.11495684703E+02  0.26914165173E+02  0.32158650992E+02  0.51100000000E-03 0.  1.
         12    1    3    3    0    0  0.39987773686E+01 -0.18594955511E+02 -0.20272429166E+01  0.19127788810E+02  0.00000000000E+00 0. -1.
</event>
<event>
 7    1  0.3220798E-013  0.5930193E+02  0.7816164E-02  0.1266605E+00
        -11   -1    0    0    0    0  0.00000000000E+00  0.00000000000E+00  0.45593999997E+02  0.45594000000E+02  0.51100000000E-03 0. -1.
         11   -1    0    0    0    0 -0.00000000000E+00 -0.00000000000E+00 -0.45593999997E+02  0.45594000000E+02  0.51100000000E-03 0.  1.
    9900012    2    1    2    0    0 -0.42558462892E+01 -0.30635768562E+02  0.77497495862E+01  0.59301934679E+02  0.49999982950E+02 0.  0.
         12    1    1    2    0    0  0.42558462892E+01  0.30635768562E+02 -0.77497495862E+01  0.31886065321E+02  0.00000000000E+00 0. -1.
         11    1    3    3    0    0 -0.14741713301E+02 -0.30623440474E+02  0.94321277320E+01  0.35271493466E+02  0.51100000000E-03 0. -1.
        -11    1    3    3    0    0  0.73755296611E+01 -0.88610550222E+01  0.49461520532E+01  0.12545164578E+02  0.51100000000E-03 0.  1.
        -12    1    3    3    0    0  0.31103373508E+01  0.88487269343E+01 -0.66285301990E+01  0.11485276635E+02  0.00000000000E+00 0.  1.
</event>
<event>
 7    1  0.3220798E-013  0.5930194E+02  0.7816164E-02  0.1266605E+00
        -11   -1    0    0    0    0  0.00000000000E+00  0.00000000000E+00  0.45593999997E+02  0.45594000000E+02  0.51100000000E-03 0.  1.
         11   -1    0    0    0    0 -0.00000000000E+00 -0.00000000000E+00 -0.45593999997E+02  0.45594000000E+02  0.51100000000E-03 0. -1.
    9900012    2    1    2    0    0  0.15780900662E+02 -0.23776408920E+02  0.14225558552E+02  0.59301937795E+02  0.49999988633E+02 0.  0.
         12    1    1    2    0    0 -0.15780900662E+02  0.23776408920E+02 -0.14225558552E+02  0.31886062205E+02  0.00000000000E+00 0. -1.
         11    1    3    3    0    0 -0.19827146943E+01 -0.24429755073E+02  0.48562898620E+01  0.24986549221E+02  0.51100000000E-03 0. -1.
        -11    1    3    3    0    0  0.10630420389E+02 -0.89519193796E+01  0.15544692397E+02  0.20851382693E+02  0.51100000000E-03 0.  1.
        -12    1    3    3    0    0  0.71331949677E+01  0.96052655329E+01 -0.61754237076E+01  0.13464005881E+02  0.00000000000E+00 0.  1.
</event>
<event>
 7    1  0.3220798E-013  0.5930194E+02  0.7816164E-02  0.1266605E+00
        -11   -1    0    0    0    0  0.00000000000E+00  0.00000000000E+00  0.45593999997E+02  0.45594000000E+02  0.51100000000E-03 0. -1.
         11   -1    0    0    0    0 -0.00000000000E+00 -0.00000000000E+00 -0.45593999997E+02  0.45594000000E+02  0.51100000000E-03 0.  1.
    9900012    2    1    2    0    0 -0.20641564346E+02  0.23170115895E+02 -0.73343347917E+01  0.59301938530E+02  0.49999989973E+02 0.  0.
         12    1    1    2    0    0  0.20641564346E+02 -0.23170115895E+02  0.73343347917E+01  0.31886061470E+02  0.00000000000E+00 0. -1.
         11    1    3    3    0    0 -0.87277753590E+01 -0.89129413347E+01  0.66206065997E+01  0.14122571223E+02  0.51100000000E-03 0. -1.
        -11    1    3    3    0    0 -0.99915142221E+01  0.77328564675E+01  0.56679656680E+01  0.13847500160E+02  0.51100000000E-03 0.  1.
         12    1    3    3    0    0 -0.19222747649E+01  0.24350200762E+02 -0.19622907059E+02  0.31331867147E+02  0.00000000000E+00 0. -1.
</event>
<event>
 7    1  0.3708919E-013  0.5930191E+02  0.7816164E-02  0.1266605E+00
        -11   -1    0    0    0    0  0.00000000000E+00  0.00000000000E+00  0.45593999997E+02  0.45594000000E+02  0.51100000000E-03 0. -1.
         11   -1    0    0    0    0 -0.00000000000E+00 -0.00000000000E+00 -0.45593999997E+02  0.45594000000E+02  0.51100000000E-03 0.  1.
    9900012    2    1    2    0    0 -0.12251806687E+02  0.54968366600E+01 -0.28920598426E+02  0.59301905951E+02  0.49999930557E+02 0.  0.
         12    1    1    2    0    0  0.12251806687E+02 -0.54968366600E+01  0.28920598426E+02  0.31886094049E+02  0.00000000000E+00 0. -1.
         11    1    3    3    0    0  0.71363192749E+01  0.27123331650E+01  0.61432185332E+01  0.97991294613E+01  0.51100000000E-03 0. -1.
        -11    1    3    3    0    0 -0.20478618756E+00 -0.11179089547E+02 -0.12282549698E+02  0.16609485478E+02  0.51100000000E-03 0.  1.
        -12    1    3    3    0    0 -0.19183339774E+02  0.13963593043E+02 -0.22781267262E+02  0.32893291012E+02  0.00000000000E+00 0.  1.
</event>
<event>
 7    1  0.3220798E-013  0.5930201E+02  0.7816164E-02  0.1266605E+00
        -11   -1    0    0    0    0  0.00000000000E+00  0.00000000000E+00  0.45593999997E+02  0.45594000000E+02  0.51100000000E-03 0.  1.
         11   -1    0    0    0    0 -0.00000000000E+00 -0.00000000000E+00 -0.45593999997E+02  0.45594000000E+02  0.51100000000E-03 0. -1.
    9900012    2    1    2    0    0 -0.13067166744E+02  0.19957110005E+02  0.21158430307E+02  0.59302011548E+02  0.50000123141E+02 0.  0.
         12    1    1    2    0    0  0.13067166744E+02 -0.19957110005E+02 -0.21158430307E+02  0.31885988452E+02  0.00000000000E+00 0. -1.
         11    1    3    3    0    0  0.43742782328E+01  0.14592946605E+02  0.17631780880E+01  0.15336140254E+02  0.51100000000E-03 0. -1.
        -11    1    3    3    0    0 -0.13411229639E+02  0.14816140622E+02  0.25201482985E+02  0.32163548440E+02  0.51100000000E-03 0.  1.
         12    1    3    3    0    0 -0.40302153377E+01 -0.94519772210E+01 -0.58062307654E+01  0.11802322854E+02  0.00000000000E+00 0. -1.
</event>
<event>
 7    1  0.3220798E-013  0.5930196E+02  0.7816164E-02  0.1266605E+00
        -11   -1    0    0    0    0  0.00000000000E+00  0.00000000000E+00  0.45593999997E+02  0.45594000000E+02  0.51100000000E-03 0.  1.
         11   -1    0    0    0    0 -0.00000000000E+00 -0.00000000000E+00 -0.45593999997E+02  0.45594000000E+02  0.51100000000E-03 0. -1.
    9900012    2    1    2    0    0  0.23693558094E+02 -0.10299058156E+02  0.18688611938E+02  0.59301960574E+02  0.50000030177E+02 0.  0.
         12    1    1    2    0    0 -0.23693558094E+02  0.10299058156E+02 -0.18688611938E+02  0.31886039426E+02  0.00000000000E+00 0. -1.
         11    1    3    3    0    0 -0.87395259400E+00  0.52788908411E+01  0.17181012003E+02  0.17994934159E+02  0.51100000000E-03 0. -1.
        -11    1    3    3    0    0  0.15577559035E+02 -0.20018538499E+00  0.12845732727E+02  0.20191910985E+02  0.51100000000E-03 0.  1.
         12    1    3    3    0    0  0.89899516531E+01 -0.15377763613E+02 -0.11338132792E+02  0.21115115431E+02  0.00000000000E+00 0. -1.
</event>
<event>
 7    1  0.3220798E-013  0.5930193E+02  0.7816164E-02  0.1266605E+00
        -11   -1    0    0    0    0  0.00000000000E+00  0.00000000000E+00  0.45593999997E+02  0.45594000000E+02  0.51100000000E-03 0. -1.
         11   -1    0    0    0    0 -0.00000000000E+00 -0.00000000000E+00 -0.45593999997E+02  0.45594000000E+02  0.51100000000E-03 0.  1.
    9900012    2    1    2    0    0 -0.19411653376E+01 -0.32365367569E+01 -0.31661939202E+02  0.59301926440E+02  0.49999967925E+02 0.  0.
         12    1    1    2    0    0  0.19411653376E+01  0.32365367569E+01  0.31661939202E+02  0.31886073560E+02  0.00000000000E+00 0. -1.
         11    1    3    3    0    0 -0.14845446053E+02  0.49693966184E+01 -0.72873171992E+01  0.17268096695E+02  0.51100000000E-03 0. -1.
        -11    1    3    3    0    0 -0.46404688545E+01 -0.26875805839E+01  0.50290456147E+01  0.73517576565E+01  0.51100000000E-03 0.  1.
        -12    1    3    3    0    0  0.17544749570E+02 -0.55183527913E+01 -0.29403667617E+02  0.34682072088E+02  0.00000000000E+00 0.  1.
</event>
<event>
 7    1  0.3220798E-013  0.5930194E+02  0.7816164E-02  0.1266605E+00
        -11   -1    0    0    0    0  0.00000000000E+00  0.00000000000E+00  0.45593999997E+02  0.45594000000E+02  0.51100000000E-03 0.  1.
         11   -1    0    0    0    0 -0.00000000000E+00 -0.00000000000E+00 -0.45593999997E+02  0.45594000000E+02  0.51100000000E-03 0. -1.
    9900012    2    1    2    0    0 -0.18519268417E+01 -0.15052826774E+02  0.28048238996E+02  0.59301938191E+02  0.49999989356E+02 0.  0.
         12    1    1    2    0    0  0.18519268417E+01  0.15052826774E+02 -0.28048238996E+02  0.31886061809E+02  0.00000000000E+00 0. -1.
         11    1    3    3    0    0 -0.14137106087E+01 -0.99914549062E+01 -0.18517306772E+01  0.10259466633E+02  0.51100000000E-03 0.  1.
        -11    1    3    3    0    0 -0.41576897031E+01  0.85151523191E+01 -0.54929300638E+01  0.10952921237E+02  0.51100000000E-03 0. -1.
        -12    1    3    3    0    0  0.37194734700E+01 -0.13576524187E+02  0.35392899737E+02  0.38089550321E+02  0.00000000000E+00 0.  1.
</event>
<event>
 7    1  0.3220798E-013  0.5930203E+02  0.7816164E-02  0.1266604E+00
        -11   -1    0    0    0    0  0.00000000000E+00  0.00000000000E+00  0.45593999997E+02  0.45594000000E+02  0.51100000000E-03 0.  1.
         11   -1    0    0    0    0 -0.00000000000E+00 -0.00000000000E+00 -0.45593999997E+02  0.45594000000E+02  0.51100000000E-03 0. -1.
    9900012    2    1    2    0    0 -0.26079118512E+02  0.14958979162E+02 -0.10621847669E+02  0.59302029295E+02  0.50000155506E+02 0.  0.
         12    1    1    2    0    0  0.26079118512E+02 -0.14958979162E+02  0.10621847669E+02  0.31885970705E+02  0.00000000000E+00 0. -1.
         11    1    3    3    0    0  0.87148836812E+01  0.11219900083E+02 -0.40163363661E+01  0.14763682248E+02  0.51100000000E-03 0. -1.
        -11    1    3    3    0    0 -0.19216927118E+02  0.15348622232E+02 -0.44229682057E+01  0.24988660233E+02  0.51100000000E-03 0.  1.
         12    1    3    3    0    0 -0.15577075076E+02 -0.11609543153E+02 -0.21825430969E+01  0.19549686813E+02  0.00000000000E+00 0. -1.
</event>
<event>
 7    1  0.3220798E-013  0.5930193E+02  0.7816164E-02  0.1266605E+00
        -11   -1    0    0    0    0  0.00000000000E+00  0.00000000000E+00  0.45593999997E+02  0.45594000000E+02  0.51100000000E-03 0. -1.
         11   -1    0    0    0    0 -0.00000000000E+00 -0.00000000000E+00 -0.45593999997E+02  0.45594000000E+02  0.51100000000E-03 0.  1.
    9900012    2    1    2    0    0  0.42238421345E+01  0.80800699197E+00 -0.31594743066E+02  0.59301929262E+02  0.49999973071E+02 0.  0.
         12    1    1    2    0    0 -0.42238421345E+01 -0.80800699197E+00  0.31594743066E+02  0.31886070738E+02  0.00000000000E+00 0. -1.
         11    1    3    3    0    0  0.85462027413E+01  0.16307491248E+02 -0.77146300598E+01  0.19962148415E+02  0.51100000000E-03 0. -1.
        -11    1    3    3    0    0  0.16808921303E+01  0.46344601789E+01 -0.16259668951E+02  0.16990598994E+02  0.51100000000E-03 0.  1.
         12    1    3    3    0    0 -0.60032527371E+01 -0.20133944435E+02 -0.76204440552E+01  0.22349181854E+02  0.00000000000E+00 0. -1.
</event>
<event>
 7    1  0.3220798E-013  0.5930193E+02  0.7816164E-02  0.1266605E+00
        -11   -1    0    0    0    0  0.00000000000E+00  0.00000000000E+00  0.45593999997E+02  0.45594000000E+02  0.51100000000E-03 0.  1.
         11   -1    0    0    0    0 -0.00000000000E+00 -0.00000000000E+00 -0.45593999997E+02  0.45594000000E+02  0.51100000000E-03 0. -1.
    9900012    2    1    2    0    0  0.59196097864E+01 -0.22896636132E+02  0.21387463195E+02  0.59301932382E+02  0.49999978761E+02 0.  0.
         12    1    1    2    0    0 -0.59196097864E+01  0.22896636132E+02 -0.21387463195E+02  0.31886067618E+02  0.00000000000E+00 0. -1.
         11    1    3    3    0    0 -0.41940882003E+01  0.64320773286E+01 -0.62728259182E+00  0.77042506647E+01  0.51100000000E-03 0. -1.
        -11    1    3    3    0    0 -0.10747937655E+02 -0.11495355809E+01  0.94363085577E+01  0.14348641585E+02  0.51100000000E-03 0.  1.
        -12    1    3    3    0    0  0.20861635642E+02 -0.28179177880E+02  0.12578437229E+02  0.37249040132E+02  0.00000000000E+00 0.  1.
</event>
<event>
 7    1  0.3220798E-013  0.5930172E+02  0.7816164E-02  0.1266606E+00
        -11   -1    0    0    0    0  0.00000000000E+00  0.00000000000E+00  0.45593999997E+02  0.45594000000E+02  0.51100000000E-03 0.  1.
         11   -1    0    0    0    0 -0.00000000000E+00 -0.00000000000E+00 -0.45593999997E+02  0.45594000000E+02  0.51100000000E-03 0. -1.
    9900012    2    1    2    0    0 -0.24307878389E+02 -0.40723447926E+01  0.20230615160E+02  0.59301721860E+02  0.49999594818E+02 0.  0.
         12    1    1    2    0    0  0.24307878389E+02  0.40723447926E+01 -0.20230615160E+02  0.31886278140E+02  0.00000000000E+00 0. -1.
         11    1    3    3    0    0 -0.63088975035E+01  0.18067084893E+02  0.43804489954E+01  0.19631863842E+02  0.51100000000E-03 0. -1.
        -11    1    3    3    0    0 -0.13306236333E+02 -0.16952520757E+01  0.58137859475E-01  0.13413917594E+02  0.51100000000E-03 0.  1.
         12    1    3    3    0    0 -0.46927445527E+01 -0.20444177610E+02  0.15792028305E+02  0.26255940424E+02  0.00000000000E+00 0. -1.
</event>
<event>
 7    1  0.3220798E-013  0.5930192E+02  0.7816164E-02  0.1266605E+00
        -11   -1    0    0    0    0  0.00000000000E+00  0.00000000000E+00  0.45593999997E+02  0.45594000000E+02  0.51100000000E-03 0. -1.
         11   -1    0    0    0    0 -0.00000000000E+00 -0.00000000000E+00 -0.45593999997E+02  0.45594000000E+02  0.51100000000E-03 0.  1.
    9900012    2    1    2    0    0  0.19530130744E+02 -0.17010381379E+02 -0.18599551258E+02  0.59301915441E+02  0.49999947864E+02 0.  0.
         12    1    1    2    0    0 -0.19530130744E+02  0.17010381379E+02  0.18599551258E+02  0.31886084559E+02  0.00000000000E+00 0. -1.
         11    1    3    3    0    0  0.45419624983E+01 -0.15917374324E+01 -0.40941811184E+01  0.63186526001E+01  0.51100000000E-03 0. -1.
        -11    1    3    3    0    0 -0.85956131680E+01 -0.15926097821E+02 -0.21761253751E+02  0.28303309393E+02  0.51100000000E-03 0.  1.
         12    1    3    3    0    0  0.23583781413E+02  0.50745387449E+00  0.72558836107E+01  0.24679953447E+02  0.00000000000E+00 0. -1.
</event>
<event>
 7    1  0.3220798E-013  0.5930194E+02  0.7816164E-02  0.1266605E+00
        -11   -1    0    0    0    0  0.00000000000E+00  0.00000000000E+00  0.45593999997E+02  0.45594000000E+02  0.51100000000E-03 0.  1.
         11   -1    0    0    0    0 -0.00000000000E+00 -0.00000000000E+00 -0.45593999997E+02  0.45594000000E+02  0.51100000000E-03 0. -1.
    9900012    2    1    2    0    0  0.16534319930E+02 -0.24781056597E+02  0.11368224152E+02  0.59301936869E+02  0.49999986944E+02 0.  0.
         12    1    1    2    0    0 -0.16534319930E+02  0.24781056597E+02 -0.11368224152E+02  0.31886063131E+02  0.00000000000E+00 0. -1.
         11    1    3    3    0    0  0.37364028474E+01  0.54357491754E+01 -0.14635001772E+02  0.16052767751E+02  0.51100000000E-03 0. -1.
        -11    1    3    3    0    0  0.10639696796E+02 -0.11687063541E+02  0.10300629956E+02  0.18865141926E+02  0.51100000000E-03 0.  1.
        -12    1    3    3    0    0  0.21582202866E+01 -0.18529742231E+02  0.15702595968E+02  0.24384027192E+02  0.00000000000E+00 0.  1.
</event>
<event>
 7    1  0.3220798E-013  0.5930193E+02  0.7816164E-02  0.1266605E+00
        -11   -1    0    0    0    0  0.00000000000E+00  0.00000000000E+00  0.45593999997E+02  0.45594000000E+02  0.51100000000E-03 0. -1.
         11   -1    0    0    0    0 -0.00000000000E+00 -0.00000000000E+00 -0.45593999997E+02  0.45594000000E+02  0.51100000000E-03 0.  1.
    9900012    2    1    2    0    0 -0.10507254937E+02 -0.29880716979E+02 -0.36689974769E+01  0.59301934141E+02  0.49999981969E+02 0.  0.
         12    1    1    2    0    0  0.10507254937E+02  0.29880716979E+02  0.36689974769E+01  0.31886065859E+02  0.00000000000E+00 0. -1.
         11    1    3    3    0    0  0.49418696496E+01  0.50426387761E+01 -0.29539062911E+01  0.76534857482E+01  0.51100000000E-03 0. -1.
        -11    1    3    3    0    0  0.58673659413E+01 -0.24160925296E+02 -0.88958401821E+01  0.26406670882E+02  0.51100000000E-03 0.  1.
        -12    1    3    3    0    0 -0.21316490527E+02 -0.10762430459E+02  0.81807489963E+01  0.25241777511E+02  0.00000000000E+00 0.  1.
</event>
<event>
 7    1  0.3220798E-013  0.5930193E+02  0.7816164E-02  0.1266605E+00
        -11   -1    0    0    0    0  0.00000000000E+00  0.00000000000E+00  0.45593999997E+02  0.45594000000E+02  0.51100000000E-03 0. -1.
         11   -1    0    0    0    0 -0.00000000000E+00 -0.00000000000E+00 -0.45593999997E+02  0.45594000000E+02  0.51100000000E-03 0.  1.
    9900012    2    1    2    0    0  0.93631635025E+00  0.29136619776E+02 -0.12919073117E+02  0.59301925446E+02  0.49999966111E+02 0.  0.
         12    1    1    2    0    0 -0.93631635025E+00 -0.29136619776E+02  0.12919073117E+02  0.31886074554E+02  0.00000000000E+00 0. -1.
         11    1    3    3    0    0 -0.68067616276E+01  0.11414662809E+02  0.26919755047E+01  0.13559987584E+02  0.51100000000E-03 0. -1.
        -11    1    3    3    0    0 -0.14316032130E+02  0.84705323960E+01 -0.14044189386E+02  0.21770116003E+02  0.51100000000E-03 0.  1.
        -12    1    3    3    0    0  0.22059110108E+02  0.92514245709E+01 -0.15668592359E+01  0.23971821859E+02  0.00000000000E+00 0.  1.
</event>
<event>
 7    1  0.3220798E-013  0.5930194E+02  0.7816164E-02  0.1266605E+00
        -11   -1    0    0    0    0  0.00000000000E+00  0.00000000000E+00  0.45593999997E+02  0.45594000000E+02  0.51100000000E-03 0. -1.
         11   -1    0    0    0    0 -0.00000000000E+00 -0.00000000000E+00 -0.45593999997E+02  0.45594000000E+02  0.51100000000E-03 0.  1.
    9900012    2    1    2    0    0  0.31103711091E+02 -0.10790679490E+01  0.69365261804E+01  0.59301943068E+02  0.49999998249E+02 0.  0.
         12    1    1    2    0    0 -0.31103711091E+02  0.10790679490E+01 -0.69365261804E+01  0.31886056932E+02  0.00000000000E+00 0. -1.
         11    1    3    3    0    0 -0.38985663536E+00 -0.31064531782E+01  0.71489425894E+01  0.78044487282E+01  0.51100000000E-03 0. -1.
        -11    1    3    3    0    0  0.15786383190E+02 -0.16944908426E+02 -0.96925929314E+01  0.25105500867E+02  0.51100000000E-03 0.  1.
        -12    1    3    3    0    0  0.15707184536E+02  0.18972293655E+02  0.94801765224E+01  0.26391993473E+02  0.00000000000E+00 0.  1.
</event>
<event>
 7    1  0.3220798E-013  0.5930196E+02  0.7816164E-02  0.1266605E+00
        -11   -1    0    0    0    0  0.00000000000E+00  0.00000000000E+00  0.45593999997E+02  0.45594000000E+02  0.51100000000E-03 0.  1.
         11   -1    0    0    0    0 -0.00000000000E+00 -0.00000000000E+00 -0.45593999997E+02  0.45594000000E+02  0.51100000000E-03 0. -1.
    9900012    2    1    2    0    0  0.17352118588E+02 -0.24605907530E+02  0.10496334196E+02  0.59301957028E+02  0.50000023709E+02 0.  0.
         12    1    1    2    0    0 -0.17352118588E+02  0.24605907530E+02 -0.10496334196E+02  0.31886042972E+02  0.00000000000E+00 0. -1.
         11    1    3    3    0    0  0.20943751284E+02 -0.94394745209E+01 -0.14803231316E+01  0.23020333489E+02  0.51100000000E-03 0.  1.
        -11    1    3    3    0    0 -0.13486403000E+02 -0.18816477582E+02  0.51434836615E+01  0.23714938729E+02  0.51100000000E-03 0. -1.
         12    1    3    3    0    0  0.98947703044E+01  0.36500445728E+01  0.68331736665E+01  0.12566684810E+02  0.00000000000E+00 0. -1.
</event>
<event>
 7    1  0.3220798E-013  0.5930195E+02  0.7816164E-02  0.1266605E+00
        -11   -1    0    0    0    0  0.00000000000E+00  0.00000000000E+00  0.45593999997E+02  0.45594000000E+02  0.51100000000E-03 0.  1.
         11   -1    0    0    0    0 -0.00000000000E+00 -0.00000000000E+00 -0.45593999997E+02  0.45594000000E+02  0.51100000000E-03 0. -1.
    9900012    2    1    2    0    0 -0.10478702287E+02  0.23724699369E+02  0.18548744638E+02  0.59301945220E+02  0.50000002175E+02 0.  0.
         12    1    1    2    0    0  0.10478702287E+02 -0.23724699369E+02 -0.18548744638E+02  0.31886054780E+02  0.00000000000E+00 0. -1.
         11    1    3    3    0    0 -0.90121262683E+00 -0.89286319524E+01 -0.70687282866E+00  0.90017954985E+01  0.51100000000E-03 0. -1.
        -11    1    3    3    0    0 -0.15329311386E+02  0.12219927076E+02  0.21331357344E+02  0.28971386085E+02  0.51100000000E-03 0.  1.
        -12    1    3    3    0    0  0.57518217255E+01  0.20433404245E+02 -0.20757398780E+01  0.21328763636E+02  0.00000000000E+00 0.  1.
</event>
<event>
 7    1  0.3220798E-013  0.5930194E+02  0.7816164E-02  0.1266605E+00
        -11   -1    0    0    0    0  0.00000000000E+00  0.00000000000E+00  0.45593999997E+02  0.45594000000E+02  0.51100000000E-03 0.  1.
         11   -1    0    0    0    0 -0.00000000000E+00 -0.00000000000E+00 -0.45593999997E+02  0.45594000000E+02  0.51100000000E-03 0. -1.
    9900012    2    1    2    0    0 -0.30554862040E+02  0.57661019537E+01  0.70620909643E+01  0.59301942627E+02  0.49999997446E+02 0.  0.
         12    1    1    2    0    0  0.30554862040E+02 -0.57661019537E+01 -0.70620909643E+01  0.31886057373E+02  0.00000000000E+00 0. -1.
         11    1    3    3    0    0 -0.79577600854E+01 -0.14054525326E+02 -0.85445926288E+01  0.18271991987E+02  0.51100000000E-03 0. -1.
        -11    1    3    3    0    0 -0.23033329005E+02  0.56457424927E+01  0.87514231556E+01  0.25278371405E+02  0.51100000000E-03 0.  1.
        -12    1    3    3    0    0  0.43622705132E+00  0.14174884787E+02  0.68552604375E+01  0.15751579236E+02  0.00000000000E+00 0.  1.
</event>
<event>
 7    1  0.3220798E-013  0.5930196E+02  0.7816164E-02  0.1266605E+00
        -11   -1    0    0    0    0  0.00000000000E+00  0.00000000000E+00  0.45593999997E+02  0.45594000000E+02  0.51100000000E-03 0.  1.
         11   -1    0    0    0    0 -0.00000000000E+00 -0.00000000000E+00 -0.45593999997E+02  0.45594000000E+02  0.51100000000E-03 0. -1.
    9900012    2    1    2    0    0 -0.19476460433E+02  0.24519164179E+02  0.60164661605E+01  0.59301956218E+02  0.50000022232E+02 0.  0.
         12    1    1    2    0    0  0.19476460433E+02 -0.24519164179E+02 -0.60164661605E+01  0.31886043782E+02  0.00000000000E+00 0. -1.
         11    1    3    3    0    0 -0.14661364074E+02  0.18467204907E+02  0.32211009932E+01  0.23798503009E+02  0.51100000000E-03 0. -1.
        -11    1    3    3    0    0 -0.92671368104E+00 -0.12058429205E+02  0.99355287262E+01  0.15651812817E+02  0.51100000000E-03 0.  1.
         12    1    3    3    0    0 -0.38883826775E+01  0.18110388476E+02 -0.71401635589E+01  0.19851640392E+02  0.00000000000E+00 0. -1.
</event>
<event>
 7    1  0.3220798E-013  0.5930182E+02  0.7816164E-02  0.1266605E+00
        -11   -1    0    0    0    0  0.00000000000E+00  0.00000000000E+00  0.45593999997E+02  0.45594000000E+02  0.51100000000E-03 0.  1.
         11   -1    0    0    0    0 -0.00000000000E+00 -0.00000000000E+00 -0.45593999997E+02  0.45594000000E+02  0.51100000000E-03 0. -1.
    9900012    2    1    2    0    0 -0.10637796436E+02 -0.29452435701E+02  0.60099479628E+01  0.59301824998E+02  0.49999782918E+02 0.  0.
         12    1    1    2    0    0  0.10637796436E+02  0.29452435701E+02 -0.60099479628E+01  0.31886175002E+02  0.00000000000E+00 0. -1.
         11    1    3    3    0    0 -0.15306186024E+02 -0.25645589646E+02 -0.50287167471E+01  0.30286359823E+02  0.51100000000E-03 0. -1.
        -11    1    3    3    0    0 -0.67996206562E+01 -0.33759389725E+01 -0.51486674955E+01  0.91728175745E+01  0.51100000000E-03 0.  1.
        -12    1    3    3    0    0  0.11468010245E+02 -0.43090708212E+00  0.16187332205E+02  0.19842647601E+02  0.00000000000E+00 0.  1.
</event>
<event>
 7    1  0.3220798E-013  0.5930195E+02  0.7816164E-02  0.1266605E+00
        -11   -1    0    0    0    0  0.00000000000E+00  0.00000000000E+00  0.45593999997E+02  0.45594000000E+02  0.51100000000E-03 0. -1.
         11   -1    0    0    0    0 -0.00000000000E+00 -0.00000000000E+00 -0.45593999997E+02  0.45594000000E+02  0.51100000000E-03 0.  1.
    9900012    2    1    2    0    0  0.23384604093E+02 -0.20392613232E+02  0.73499535091E+01  0.59301949765E+02  0.50000010463E+02 0.  0.
         12    1    1    2    0    0 -0.23384604093E+02  0.20392613232E+02 -0.73499535091E+01  0.31886050235E+02  0.00000000000E+00 0. -1.
         11    1    3    3    0    0  0.12900454605E+02 -0.16668208529E+02  0.71297600340E+01  0.22250491747E+02  0.51100000000E-03 0.  1.
        -11    1    3    3    0    0  0.14563316364E+02 -0.82565997368E+01 -0.13843141232E+02  0.21723125515E+02  0.51100000000E-03 0. -1.
         12    1    3    3    0    0 -0.40791668757E+01  0.45321950336E+01  0.14063334707E+02  0.15328332502E+02  0.00000000000E+00 0. -1.
</event>
<event>
 7    1  0.3220798E-013  0.5930192E+02  0.7816164E-02  0.1266605E+00
        -11   -1    0    0    0    0  0.00000000000E+00  0.00000000000E+00  0.45593999997E+02  0.45594000000E+02  0.51100000000E-03 0.  1.
         11   -1    0    0    0    0 -0.00000000000E+00 -0.00000000000E+00 -0.45593999997E+02  0.45594000000E+02  0.51100000000E-03 0. -1.
    9900012    2    1    2    0    0 -0.16638091949E+02 -0.21054843076E+02  0.17221777346E+02  0.59301919407E+02  0.49999955097E+02 0.  0.
         12    1    1    2    0    0  0.16638091949E+02  0.21054843076E+02 -0.17221777346E+02  0.31886080593E+02  0.00000000000E+00 0. -1.
         11    1    3    3    0    0 -0.18211835216E+02  0.16182855834E+01  0.17314304764E+02  0.25180844702E+02  0.51100000000E-03 0. -1.
        -11    1    3    3    0    0  0.67713183097E+01  0.32447292736E+01 -0.14707693362E+01  0.76512863240E+01  0.51100000000E-03 0.  1.
        -12    1    3    3    0    0 -0.51975750432E+01 -0.25917857933E+02  0.13782419179E+01  0.26469788381E+02  0.00000000000E+00 0.  1.
</event>
<event>
 7    1  0.3220798E-013  0.5930197E+02  0.7816164E-02  0.1266605E+00
        -11   -1    0    0    0    0  0.00000000000E+00  0.00000000000E+00  0.45593999997E+02  0.45594000000E+02  0.51100000000E-03 0. -1.
         11   -1    0    0    0    0 -0.00000000000E+00 -0.00000000000E+00 -0.45593999997E+02  0.45594000000E+02  0.51100000000E-03 0.  1.
    9900012    2    1    2    0    0  0.19461077763E+02  0.24101032863E+02 -0.75581657831E+01  0.59301965396E+02  0.50000038971E+02 0.  0.
         12    1    1    2    0    0 -0.19461077763E+02 -0.24101032863E+02  0.75581657831E+01  0.31886034604E+02  0.00000000000E+00 0. -1.
         11    1    3    3    0    0  0.63161424551E+01  0.93570831391E+01 -0.11394229281E+02  0.16039860397E+02  0.51100000000E-03 0. -1.
        -11    1    3    3    0    0  0.14889831587E+02 -0.63928199120E+01 -0.89358230047E+01  0.18504706540E+02  0.51100000000E-03 0.  1.
         12    1    3    3    0    0 -0.17448962790E+01  0.21136769635E+02  0.12771886502E+02  0.24757398459E+02  0.00000000000E+00 0. -1.
</event>
<event>
 7    1  0.3220798E-013  0.5930194E+02  0.7816164E-02  0.1266605E+00
        -11   -1    0    0    0    0  0.00000000000E+00  0.00000000000E+00  0.45593999997E+02  0.45594000000E+02  0.51100000000E-03 0.  1.
         11   -1    0    0    0    0 -0.00000000000E+00 -0.00000000000E+00 -0.45593999997E+02  0.45594000000E+02  0.51100000000E-03 0. -1.
    9900012    2    1    2    0    0 -0.10393983722E+01  0.27363738084E+02  0.16336049666E+02  0.59301936750E+02  0.49999986727E+02 0.  0.
         12    1    1    2    0    0  0.10393983722E+01 -0.27363738084E+02 -0.16336049666E+02  0.31886063250E+02  0.00000000000E+00 0. -1.
         11    1    3    3    0    0 -0.91007457616E+01  0.67891007807E+01  0.66482095254E+01  0.13157285168E+02  0.51100000000E-03 0. -1.
        -11    1    3    3    0    0  0.71655776013E+01  0.32149877084E+02  0.38900752885E+01  0.33167646659E+02  0.51100000000E-03 0.  1.
        -12    1    3    3    0    0  0.89576978803E+00 -0.11575239781E+02  0.57977648524E+01  0.12977004923E+02  0.00000000000E+00 0.  1.
</event>
<event>
 7    1  0.3220798E-013  0.5930195E+02  0.7816164E-02  0.1266605E+00
        -11   -1    0    0    0    0  0.00000000000E+00  0.00000000000E+00  0.45593999997E+02  0.45594000000E+02  0.51100000000E-03 0.  1.
         11   -1    0    0    0    0 -0.00000000000E+00 -0.00000000000E+00 -0.45593999997E+02  0.45594000000E+02  0.51100000000E-03 0. -1.
    9900012    2    1    2    0    0 -0.29706642776E+02  0.11382645001E+02  0.21611757910E+01  0.59301954258E+02  0.50000018658E+02 0.  0.
         12    1    1    2    0    0  0.29706642776E+02 -0.11382645001E+02 -0.21611757910E+01  0.31886045742E+02  0.00000000000E+00 0. -1.
         11    1    3    3    0    0 -0.26376178980E+02  0.28894799520E+02  0.14007570111E+01  0.39148108222E+02  0.51100000000E-03 0.  1.
        -11    1    3    3    0    0 -0.29827897895E+01 -0.35312305566E+01 -0.31960412152E+01  0.56197245380E+01  0.51100000000E-03 0. -1.
        -12    1    3    3    0    0 -0.34767400658E+00 -0.13980923962E+02  0.39564599951E+01  0.14534121498E+02  0.00000000000E+00 0.  1.
</event>
<event>
 7    1  0.3220798E-013  0.5930194E+02  0.7816164E-02  0.1266605E+00
        -11   -1    0    0    0    0  0.00000000000E+00  0.00000000000E+00  0.45593999997E+02  0.45594000000E+02  0.51100000000E-03 0. -1.
         11   -1    0    0    0    0 -0.00000000000E+00 -0.00000000000E+00 -0.45593999997E+02  0.45594000000E+02  0.51100000000E-03 0.  1.
    9900012    2    1    2    0    0 -0.42284961826E+01 -0.65507454439E+00 -0.31597646553E+02  0.59301943952E+02  0.49999999862E+02 0.  0.
         12    1    1    2    0    0  0.42284961826E+01  0.65507454439E+00  0.31597646553E+02  0.31886056048E+02  0.00000000000E+00 0. -1.
         11    1    3    3    0    0  0.17848992649E+01  0.37729176678E+01  0.63682516149E+01  0.76141579972E+01  0.51100000000E-03 0. -1.
        -11    1    3    3    0    0 -0.14306076699E+02 -0.66523656056E+00 -0.18488327633E+01  0.14440379255E+02  0.51100000000E-03 0.  1.
        -12    1    3    3    0    0  0.82926812512E+01 -0.37627556516E+01 -0.36117065404E+02  0.37247406700E+02  0.00000000000E+00 0.  1.
</event>
<event>
 7    1  0.3220798E-013  0.5930215E+02  0.7816164E-02  0.1266604E+00
        -11   -1    0    0    0    0  0.00000000000E+00  0.00000000000E+00  0.45593999997E+02  0.45594000000E+02  0.51100000000E-03 0. -1.
         11   -1    0    0    0    0 -0.00000000000E+00 -0.00000000000E+00 -0.45593999997E+02  0.45594000000E+02  0.51100000000E-03 0.  1.
    9900012    2    1    2    0    0  0.27724616612E+02 -0.13990538809E+02  0.72330938956E+01  0.59302153771E+02  0.50000382519E+02 0.  0.
         12    1    1    2    0    0 -0.27724616612E+02  0.13990538809E+02 -0.72330938956E+01  0.31885846229E+02  0.00000000000E+00 0. -1.
         11    1    3    3    0    0  0.14921757423E+00  0.89536376628E+01 -0.63294751807E-01  0.89551046766E+01  0.51100000000E-03 0. -1.
        -11    1    3    3    0    0  0.28983669741E+02 -0.42251725187E+01 -0.20798420717E+01  0.29363769134E+02  0.51100000000E-03 0.  1.
         12    1    3    3    0    0 -0.14082707027E+01 -0.18719003954E+02  0.93762307191E+01  0.20983279960E+02  0.00000000000E+00 0. -1.
</event>
<event>
 7    1  0.3220798E-013  0.5930194E+02  0.7816164E-02  0.1266605E+00
        -11   -1    0    0    0    0  0.00000000000E+00  0.00000000000E+00  0.45593999997E+02  0.45594000000E+02  0.51100000000E-03 0.  1.
         11   -1    0    0    0    0 -0.00000000000E+00 -0.00000000000E+00 -0.45593999997E+02  0.45594000000E+02  0.51100000000E-03 0. -1.
    9900012    2    1    2    0    0  0.22720913872E+02 -0.30380341595E+01  0.22164189135E+02  0.59301939429E+02  0.49999991613E+02 0.  0.
         12    1    1    2    0    0 -0.22720913872E+02  0.30380341595E+01 -0.22164189135E+02  0.31886060571E+02  0.00000000000E+00 0. -1.
         11    1    3    3    0    0  0.97632683207E+01  0.12657539225E+02 -0.38523997478E+01  0.16443104683E+02  0.51100000000E-03 0. -1.
        -11    1    3    3    0    0 -0.63613987041E+01 -0.54882340726E+00 -0.87785395929E+00  0.64450933617E+01  0.51100000000E-03 0.  1.
        -12    1    3    3    0    0  0.19319044255E+02 -0.15146749977E+02  0.26894442842E+02  0.36413741384E+02  0.00000000000E+00 0.  1.
</event>
<event>
 7    1  0.3220798E-013  0.5930193E+02  0.7816164E-02  0.1266605E+00
        -11   -1    0    0    0    0  0.00000000000E+00  0.00000000000E+00  0.45593999997E+02  0.45594000000E+02  0.51100000000E-03 0. -1.
         11   -1    0    0    0    0 -0.00000000000E+00 -0.00000000000E+00 -0.45593999997E+02  0.45594000000E+02  0.51100000000E-03 0.  1.
    9900012    2    1    2    0    0  0.28556114753E+02  0.14139282696E+02  0.11621052386E+01  0.59301929475E+02  0.49999973459E+02 0.  0.
         12    1    1    2    0    0 -0.28556114753E+02 -0.14139282696E+02 -0.11621052386E+01  0.31886070525E+02  0.00000000000E+00 0. -1.
         11    1    3    3    0    0  0.66014659411E+01  0.10665285402E+02  0.55834734661E+01  0.13729633698E+02  0.51100000000E-03 0. -1.
        -11    1    3    3    0    0  0.30809006270E+02  0.37885411330E+01 -0.12612998779E+02  0.33505755472E+02  0.51100000000E-03 0.  1.
         12    1    3    3    0    0 -0.88543574584E+01 -0.31454383950E+00  0.81916305517E+01  0.12066540305E+02  0.00000000000E+00 0. -1.
</event>
<event>
 7    1  0.3220798E-013  0.5930193E+02  0.7816164E-02  0.1266605E+00
        -11   -1    0    0    0    0  0.00000000000E+00  0.00000000000E+00  0.45593999997E+02  0.45594000000E+02  0.51100000000E-03 0. -1.
         11   -1    0    0    0    0 -0.00000000000E+00 -0.00000000000E+00 -0.45593999997E+02  0.45594000000E+02  0.51100000000E-03 0.  1.
    9900012    2    1    2    0    0  0.19770321735E+02 -0.10119397246E+02  0.22879108978E+02  0.59301930162E+02  0.49999974712E+02 0.  0.
         12    1    1    2    0    0 -0.19770321735E+02  0.10119397246E+02 -0.22879108978E+02  0.31886069838E+02  0.00000000000E+00 0. -1.
         11    1    3    3    0    0 -0.38091353802E+01 -0.13281300482E+02  0.19841651817E+01  0.13958487259E+02  0.51100000000E-03 0. -1.
        -11    1    3    3    0    0  0.15398526395E+02  0.36719069344E+01 -0.62262204624E+01  0.17010683031E+02  0.51100000000E-03 0.  1.
        -12    1    3    3    0    0  0.81809307199E+01 -0.51000369869E+00  0.27121164258E+02  0.28332759872E+02  0.00000000000E+00 0.  1.
</event>
<event>
 7    1  0.3220798E-013  0.5930193E+02  0.7816164E-02  0.1266605E+00
        -11   -1    0    0    0    0  0.00000000000E+00  0.00000000000E+00  0.45593999997E+02  0.45594000000E+02  0.51100000000E-03 0.  1.
         11   -1    0    0    0    0 -0.00000000000E+00 -0.00000000000E+00 -0.45593999997E+02  0.45594000000E+02  0.51100000000E-03 0. -1.
    9900012    2    1    2    0    0  0.19114183995E+02 -0.27244933461E+01  0.25376101502E+02  0.59301930609E+02  0.49999975527E+02 0.  0.
         12    1    1    2    0    0 -0.19114183995E+02  0.27244933461E+01 -0.25376101502E+02  0.31886069391E+02  0.00000000000E+00 0. -1.
         11    1    3    3    0    0  0.52578376145E+01  0.60875358730E+01  0.31861849234E+01  0.86518624592E+01  0.51100000000E-03 0. -1.
        -11    1    3    3    0    0 -0.90004788892E+01  0.98586082662E+01  0.15372696501E+02  0.20359778367E+02  0.51100000000E-03 0.  1.
         12    1    3    3    0    0  0.22856825270E+02 -0.18670637485E+02  0.68172200778E+01  0.30290289783E+02  0.00000000000E+00 0. -1.
</event>
<event>
 7    1  0.3220798E-013  0.5930192E+02  0.7816164E-02  0.1266605E+00
        -11   -1    0    0    0    0  0.00000000000E+00  0.00000000000E+00  0.45593999997E+02  0.45594000000E+02  0.51100000000E-03 0.  1.
         11   -1    0    0    0    0 -0.00000000000E+00 -0.00000000000E+00 -0.45593999997E+02  0.45594000000E+02  0.51100000000E-03 0. -1.
    9900012    2    1    2    0    0  0.22772915028E+02  0.59903010490E+01  0.21499600126E+02  0.59301918850E+02  0.49999954082E+02 0.  0.
         12    1    1    2    0    0 -0.22772915028E+02 -0.59903010490E+01 -0.21499600126E+02  0.31886081150E+02  0.00000000000E+00 0. -1.
         11    1    3    3    0    0 -0.11799111848E+01  0.90126842152E+01 -0.60253929074E+01  0.10905321046E+02  0.51100000000E-03 0. -1.
        -11    1    3    3    0    0  0.10540558051E+02  0.11788927388E+02  0.19386262347E+01  0.15932370976E+02  0.51100000000E-03 0.  1.
        -12    1    3    3    0    0  0.13412268162E+02 -0.14811310554E+02  0.25586366798E+02  0.32464226828E+02  0.00000000000E+00 0.  1.
</event>
<event>
 7    1  0.3220798E-013  0.5930194E+02  0.7816164E-02  0.1266605E+00
        -11   -1    0    0    0    0  0.00000000000E+00  0.00000000000E+00  0.45593999997E+02  0.45594000000E+02  0.51100000000E-03 0.  1.
         11   -1    0    0    0    0 -0.00000000000E+00 -0.00000000000E+00 -0.45593999997E+02  0.45594000000E+02  0.51100000000E-03 0. -1.
    9900012    2    1    2    0    0  0.29351630505E+01 -0.24712559646E+02  0.19934761745E+02  0.59301944862E+02  0.50000001522E+02 0.  0.
         12    1    1    2    0    0 -0.29351630505E+01  0.24712559646E+02 -0.19934761745E+02  0.31886055138E+02  0.00000000000E+00 0. -1.
         11    1    3    3    0    0 -0.31192366914E+01  0.19581910301E+01  0.10934836945E+01  0.38418558664E+01  0.51100000000E-03 0. -1.
        -11    1    3    3    0    0  0.17320634877E+02  0.52371833220E+01  0.90586015285E+01  0.20235877634E+02  0.51100000000E-03 0.  1.
        -12    1    3    3    0    0 -0.11266235135E+02 -0.31907933998E+02  0.97826765224E+01  0.35224211362E+02  0.00000000000E+00 0.  1.
</event>
<event>
 7    1  0.3220798E-013  0.5930188E+02  0.7816164E-02  0.1266605E+00
        -11   -1    0    0    0    0  0.00000000000E+00  0.00000000000E+00  0.45593999997E+02  0.45594000000E+02  0.51100000000E-03 0. -1.
         11   -1    0    0    0    0 -0.00000000000E+00 -0.00000000000E+00 -0.45593999997E+02  0.45594000000E+02  0.51100000000E-03 0.  1.
    9900012    2    1    2    0    0  0.29741216942E+02  0.19367840791E+01  0.11332861636E+02  0.59301876519E+02  0.49999876880E+02 0.  0.
         12    1    1    2    0    0 -0.29741216942E+02 -0.19367840791E+01 -0.11332861636E+02  0.31886123481E+02  0.00000000000E+00 0. -1.
         11    1    3    3    0    0  0.16892414445E+02  0.35250332747E+01  0.54003000673E+01  0.18081558739E+02  0.51100000000E-03 0. -1.
        -11    1    3    3    0    0  0.13062648881E+02  0.16451904053E+02 -0.27712795535E+01  0.21189099400E+02  0.51100000000E-03 0.  1.
         12    1    3    3    0    0 -0.21384638295E+00 -0.18040153249E+02  0.87038411226E+01  0.20031218380E+02  0.00000000000E+00 0. -1.
</event>
<event>
 7    1  0.3220798E-013  0.5930193E+02  0.7816164E-02  0.1266605E+00
        -11   -1    0    0    0    0  0.00000000000E+00  0.00000000000E+00  0.45593999997E+02  0.45594000000E+02  0.51100000000E-03 0. -1.
         11   -1    0    0    0    0 -0.00000000000E+00 -0.00000000000E+00 -0.45593999997E+02  0.45594000000E+02  0.51100000000E-03 0.  1.
    9900012    2    1    2    0    0 -0.14739488538E+02 -0.66713533617E+01 -0.27476574014E+02  0.59301927843E+02  0.49999970483E+02 0.  0.
         12    1    1    2    0    0  0.14739488538E+02  0.66713533617E+01  0.27476574014E+02  0.31886072157E+02  0.00000000000E+00 0. -1.
         11    1    3    3    0    0 -0.18367715713E+02 -0.12024539009E+02 -0.18908225778E+02  0.28973842017E+02  0.51100000000E-03 0.  1.
        -11    1    3    3    0    0  0.23374767111E+01 -0.88472549486E+01  0.51845404098E+01  0.10517470087E+02  0.51100000000E-03 0. -1.
         12    1    3    3    0    0  0.12907504642E+01  0.14200440595E+02 -0.13752888646E+02  0.19810615739E+02  0.00000000000E+00 0. -1.
</event>
<event>
 7    1  0.3220798E-013  0.5930193E+02  0.7816164E-02  0.1266605E+00
        -11   -1    0    0    0    0  0.00000000000E+00  0.00000000000E+00  0.45593999997E+02  0.45594000000E+02  0.51100000000E-03 0.  1.
         11   -1    0    0    0    0 -0.00000000000E+00 -0.00000000000E+00 -0.45593999997E+02  0.45594000000E+02  0.51100000000E-03 0. -1.
    9900012    2    1    2    0    0  0.98364341642E+01 -0.19231028431E+02  0.23454922328E+02  0.59301932933E+02  0.49999979766E+02 0.  0.
         12    1    1    2    0    0 -0.98364341642E+01  0.19231028431E+02 -0.23454922328E+02  0.31886067067E+02  0.00000000000E+00 0. -1.
         11    1    3    3    0    0  0.11168336298E-01  0.11194174524E+02  0.17958850411E+01  0.11337322054E+02  0.51100000000E-03 0. -1.
        -11    1    3    3    0    0  0.19489352433E+02 -0.23439252853E+02  0.18386175592E+02  0.35598945009E+02  0.51100000000E-03 0.  1.
         12    1    3    3    0    0 -0.96640866054E+01 -0.69859501018E+01  0.32728616954E+01  0.12365665870E+02  0.00000000000E+00 0. -1.
</event>
<event>
 7    1  0.3220798E-013  0.5930185E+02  0.7816164E-02  0.1266605E+00
        -11   -1    0    0    0    0  0.00000000000E+00  0.00000000000E+00  0.45593999997E+02  0.45594000000E+02  0.51100000000E-03 0.  1.
         11   -1    0    0    0    0 -0.00000000000E+00 -0.00000000000E+00 -0.45593999997E+02  0.45594000000E+02  0.51100000000E-03 0. -1.
    9900012    2    1    2    0    0  0.95851182255E+00  0.17856636313E+02  0.26399784261E+02  0.59301846040E+02  0.49999821294E+02 0.  0.
         12    1    1    2    0    0 -0.95851182255E+00 -0.17856636313E+02 -0.26399784261E+02  0.31886153960E+02  0.00000000000E+00 0. -1.
         11    1    3    3    0    0 -0.66935193888E+01  0.55586905504E+01 -0.11960262654E+02  0.14790203699E+02  0.51100000000E-03 0. -1.
        -11    1    3    3    0    0 -0.93471484097E+00  0.65917217130E+01  0.23586975717E+01  0.70631396328E+01  0.51100000000E-03 0.  1.
        -12    1    3    3    0    0  0.85867460523E+01  0.57062240495E+01  0.36001349342E+02  0.37448502709E+02  0.00000000000E+00 0.  1.
</event>
<event>
 7    1  0.3220798E-013  0.5930200E+02  0.7816164E-02  0.1266605E+00
        -11   -1    0    0    0    0  0.00000000000E+00  0.00000000000E+00  0.45593999997E+02  0.45594000000E+02  0.51100000000E-03 0.  1.
         11   -1    0    0    0    0 -0.00000000000E+00 -0.00000000000E+00 -0.45593999997E+02  0.45594000000E+02  0.51100000000E-03 0. -1.
    9900012    2    1    2    0    0 -0.12834770590E+02  0.12057764458E+01  0.29163880040E+02  0.59301997869E+02  0.50000098193E+02 0.  0.
         12    1    1    2    0    0  0.12834770590E+02 -0.12057764458E+01 -0.29163880040E+02  0.31886002131E+02  0.00000000000E+00 0. -1.
         11    1    3    3    0    0 -0.45253764843E+01  0.89499512485E+01  0.46452262876E+01  0.11052546639E+02  0.51100000000E-03 0. -1.
        -11    1    3    3    0    0 -0.21443916079E+02 -0.25589192906E+01  0.26284367681E+02  0.34018488934E+02  0.51100000000E-03 0.  1.
         12    1    3    3    0    0  0.13134521973E+02 -0.51852555121E+01 -0.17657139288E+01  0.14230962296E+02  0.00000000000E+00 0. -1.
</event>
<event>
 7    1  0.3220798E-013  0.5930191E+02  0.7816164E-02  0.1266605E+00
        -11   -1    0    0    0    0  0.00000000000E+00  0.00000000000E+00  0.45593999997E+02  0.45594000000E+02  0.51100000000E-03 0.  1.
         11   -1    0    0    0    0 -0.00000000000E+00 -0.00000000000E+00 -0.45593999997E+02  0.45594000000E+02  0.51100000000E-03 0. -1.
    9900012    2    1    2    0    0  0.18565320121E+02  0.30098357873E+01  0.25748636945E+02  0.59301913266E+02  0.49999943899E+02 0.  0.
         12    1    1    2    0    0 -0.18565320121E+02 -0.30098357873E+01 -0.25748636945E+02  0.31886086734E+02  0.00000000000E+00 0. -1.
         11    1    3    3    0    0  0.27824811896E+02  0.28855940106E+01  0.27616325856E+02  0.39309137155E+02  0.51100000000E-03 0. -1.
        -11    1    3    3    0    0  0.16104027508E+01  0.50924976381E+01  0.40055017235E+01  0.66761496038E+01  0.51100000000E-03 0.  1.
         12    1    3    3    0    0 -0.10869894526E+02 -0.49682558613E+01 -0.58731906340E+01  0.13316626507E+02  0.00000000000E+00 0. -1.
</event>
<event>
 7    1  0.3220798E-013  0.5930189E+02  0.7816164E-02  0.1266605E+00
        -11   -1    0    0    0    0  0.00000000000E+00  0.00000000000E+00  0.45593999997E+02  0.45594000000E+02  0.51100000000E-03 0.  1.
         11   -1    0    0    0    0 -0.00000000000E+00 -0.00000000000E+00 -0.45593999997E+02  0.45594000000E+02  0.51100000000E-03 0. -1.
    9900012    2    1    2    0    0  0.18586351637E+02 -0.62053743680E+00  0.25901471715E+02  0.59301893764E+02  0.49999908331E+02 0.  0.
         12    1    1    2    0    0 -0.18586351637E+02  0.62053743680E+00 -0.25901471715E+02  0.31886106236E+02  0.00000000000E+00 0. -1.
         11    1    3    3    0    0  0.26153480312E+01 -0.15414116393E+02 -0.27752324090E+01  0.15878820633E+02  0.51100000000E-03 0. -1.
        -11    1    3    3    0    0 -0.59099286502E+01  0.69360085292E+01  0.10565158915E+02  0.13951991046E+02  0.51100000000E-03 0.  1.
         12    1    3    3    0    0  0.21880932256E+02  0.78575704274E+01  0.18111545209E+02  0.29471082085E+02  0.00000000000E+00 0. -1.
</event>
<event>
 7    1  0.3220798E-013  0.5930195E+02  0.7816164E-02  0.1266605E+00
        -11   -1    0    0    0    0  0.00000000000E+00  0.00000000000E+00  0.45593999997E+02  0.45594000000E+02  0.51100000000E-03 0.  1.
         11   -1    0    0    0    0 -0.00000000000E+00 -0.00000000000E+00 -0.45593999997E+02  0.45594000000E+02  0.51100000000E-03 0. -1.
    9900012    2    1    2    0    0  0.71437608447E+01 -0.95946025568E+01  0.29557236402E+02  0.59301953820E+02  0.50000017859E+02 0.  0.
         12    1    1    2    0    0 -0.71437608447E+01  0.95946025568E+01 -0.29557236402E+02  0.31886046180E+02  0.00000000000E+00 0. -1.
         11    1    3    3    0    0  0.49440000058E+01  0.56769029317E+01  0.16334230388E+01  0.77031444254E+01  0.51100000000E-03 0. -1.
        -11    1    3    3    0    0  0.17747208200E+02 -0.11807561146E+02  0.23166676250E+01  0.21441754785E+02  0.51100000000E-03 0.  1.
         12    1    3    3    0    0 -0.15547447361E+02 -0.34639443422E+01  0.25607145739E+02  0.30157054610E+02  0.00000000000E+00 0. -1.
</event>
<event>
 7    1  0.3220798E-013  0.5930193E+02  0.7816164E-02  0.1266605E+00
        -11   -1    0    0    0    0  0.00000000000E+00  0.00000000000E+00  0.45593999997E+02  0.45594000000E+02  0.51100000000E-03 0. -1.
         11   -1    0    0    0    0 -0.00000000000E+00 -0.00000000000E+00 -0.45593999997E+02  0.45594000000E+02  0.51100000000E-03 0.  1.
    9900012    2    1    2    0    0 -0.44981367790E+01  0.55314368748E+01 -0.31078795140E+02  0.59301928814E+02  0.49999972253E+02 0.  0.
         12    1    1    2    0    0  0.44981367790E+01 -0.55314368748E+01  0.31078795140E+02  0.31886071186E+02  0.00000000000E+00 0. -1.
         11    1    3    3    0    0  0.16502709133E+02  0.72606114034E+01 -0.39079076188E+01  0.18447970862E+02  0.51100000000E-03 0. -1.
        -11    1    3    3    0    0  0.44818690227E+01  0.17010260894E+01 -0.44604522922E+01  0.65479977554E+01  0.51100000000E-03 0.  1.
         12    1    3    3    0    0 -0.25482714935E+02 -0.34302006179E+01 -0.22710435229E+02  0.34305960197E+02  0.00000000000E+00 0. -1.
</event>
<event>
 7    1  0.3220798E-013  0.5930199E+02  0.7816164E-02  0.1266605E+00
        -11   -1    0    0    0    0  0.00000000000E+00  0.00000000000E+00  0.45593999997E+02  0.45594000000E+02  0.51100000000E-03 0.  1.
         11   -1    0    0    0    0 -0.00000000000E+00 -0.00000000000E+00 -0.45593999997E+02  0.45594000000E+02  0.51100000000E-03 0. -1.
    9900012    2    1    2    0    0 -0.12065376603E+02  0.28266271031E+02 -0.84948179342E+01  0.59301994883E+02  0.50000092748E+02 0.  0.
         12    1    1    2    0    0  0.12065376603E+02 -0.28266271031E+02  0.84948179342E+01  0.31886005117E+02  0.00000000000E+00 0. -1.
         11    1    3    3    0    0 -0.11237924567E+02  0.50223862391E+01 -0.11697428723E+02  0.16980728815E+02  0.51100000000E-03 0. -1.
        -11    1    3    3    0    0 -0.15858034012E+02  0.19810927111E+02  0.72304796241E+01  0.26386168945E+02  0.51100000000E-03 0.  1.
        -12    1    3    3    0    0  0.15030581976E+02  0.34329576811E+01 -0.40278688350E+01  0.15935097123E+02  0.00000000000E+00 0.  1.
</event>
<event>
 7    1  0.3220798E-013  0.5930194E+02  0.7816164E-02  0.1266605E+00
        -11   -1    0    0    0    0  0.00000000000E+00  0.00000000000E+00  0.45593999997E+02  0.45594000000E+02  0.51100000000E-03 0. -1.
         11   -1    0    0    0    0 -0.00000000000E+00 -0.00000000000E+00 -0.45593999997E+02  0.45594000000E+02  0.51100000000E-03 0.  1.
    9900012    2    1    2    0    0 -0.28049935458E+02 -0.11843021283E+02 -0.94691611454E+01  0.59301936506E+02  0.49999986283E+02 0.  0.
         12    1    1    2    0    0  0.28049935458E+02  0.11843021283E+02  0.94691611454E+01  0.31886063494E+02  0.00000000000E+00 0. -1.
         11    1    3    3    0    0 -0.54732430290E+01  0.87172853414E+00  0.73517622358E+01  0.92067751208E+01  0.51100000000E-03 0. -1.
        -11    1    3    3    0    0  0.90862282207E+01  0.52313293225E+01 -0.62063151184E+01  0.12183788301E+02  0.51100000000E-03 0.  1.
         12    1    3    3    0    0 -0.31662920650E+02 -0.17946079139E+02 -0.10614608263E+02  0.37911373084E+02  0.00000000000E+00 0. -1.
</event>
<event>
 7    1  0.3220798E-013  0.5930192E+02  0.7816164E-02  0.1266605E+00
        -11   -1    0    0    0    0  0.00000000000E+00  0.00000000000E+00  0.45593999997E+02  0.45594000000E+02  0.51100000000E-03 0.  1.
         11   -1    0    0    0    0 -0.00000000000E+00 -0.00000000000E+00 -0.45593999997E+02  0.45594000000E+02  0.51100000000E-03 0. -1.
    9900012    2    1    2    0    0 -0.19480030495E+02  0.12862201344E+02  0.21721284681E+02  0.59301921224E+02  0.49999958411E+02 0.  0.
         12    1    1    2    0    0  0.19480030495E+02 -0.12862201344E+02 -0.21721284681E+02  0.31886078776E+02  0.00000000000E+00 0. -1.
         11    1    3    3    0    0 -0.24265438558E+02  0.59669034511E+01  0.71890342198E+01  0.26001877980E+02  0.51100000000E-03 0. -1.
        -11    1    3    3    0    0 -0.51021190412E+01  0.11106717542E+02  0.18218251697E+02  0.21938447721E+02  0.51100000000E-03 0.  1.
         12    1    3    3    0    0  0.98875271048E+01 -0.42114196488E+01 -0.36860012353E+01  0.11361595522E+02  0.00000000000E+00 0. -1.
</event>
<event>
 7    1  0.3220798E-013  0.5930197E+02  0.7816164E-02  0.1266605E+00
        -11   -1    0    0    0    0  0.00000000000E+00  0.00000000000E+00  0.45593999997E+02  0.45594000000E+02  0.51100000000E-03 0. -1.
         11   -1    0    0    0    0 -0.00000000000E+00 -0.00000000000E+00 -0.45593999997E+02  0.45594000000E+02  0.51100000000E-03 0.  1.
    9900012    2    1    2    0    0  0.12818316614E+02 -0.24065172424E+02 -0.16531090732E+02  0.59301972882E+02  0.50000052623E+02 0.  0.
         12    1    1    2    0    0 -0.12818316614E+02  0.24065172424E+02  0.16531090732E+02  0.31886027118E+02  0.00000000000E+00 0. -1.
         11    1    3    3    0    0 -0.40356527473E+01 -0.53345711384E+01  0.11530235661E+02  0.13330059151E+02  0.51100000000E-03 0. -1.
        -11    1    3    3    0    0  0.12570378464E+02 -0.20325001954E+02 -0.77061147653E+01  0.25109845164E+02  0.51100000000E-03 0.  1.
         12    1    3    3    0    0  0.42835908974E+01  0.15944006680E+01 -0.20355211627E+02  0.20862068566E+02  0.00000000000E+00 0. -1.
</event>
<event>
 7    1  0.3220798E-013  0.5930186E+02  0.7816164E-02  0.1266605E+00
        -11   -1    0    0    0    0  0.00000000000E+00  0.00000000000E+00  0.45593999997E+02  0.45594000000E+02  0.51100000000E-03 0.  1.
         11   -1    0    0    0    0 -0.00000000000E+00 -0.00000000000E+00 -0.45593999997E+02  0.45594000000E+02  0.51100000000E-03 0. -1.
    9900012    2    1    2    0    0  0.23325256930E+02 -0.44586437977E+00  0.21736137972E+02  0.59301857244E+02  0.49999841727E+02 0.  0.
         12    1    1    2    0    0 -0.23325256930E+02  0.44586437977E+00 -0.21736137972E+02  0.31886142756E+02  0.00000000000E+00 0. -1.
         11    1    3    3    0    0  0.27853626922E+02 -0.19550764991E+01  0.58144234544E+01  0.28521121598E+02  0.51100000000E-03 0.  1.
        -11    1    3    3    0    0 -0.13803057637E+01  0.84409962720E+01 -0.40085817700E+01  0.94458662988E+01  0.51100000000E-03 0. -1.
        -12    1    3    3    0    0 -0.31480642288E+01 -0.69317841527E+01  0.19930296288E+02  0.21334869347E+02  0.00000000000E+00 0.  1.
</event>
<event>
 7    1  0.3220798E-013  0.5930195E+02  0.7816164E-02  0.1266605E+00
        -11   -1    0    0    0    0  0.00000000000E+00  0.00000000000E+00  0.45593999997E+02  0.45594000000E+02  0.51100000000E-03 0.  1.
         11   -1    0    0    0    0 -0.00000000000E+00 -0.00000000000E+00 -0.45593999997E+02  0.45594000000E+02  0.51100000000E-03 0. -1.
    9900012    2    1    2    0    0 -0.15071010695E+02  0.23719723401E+01  0.27999255175E+02  0.59301954361E+02  0.50000018846E+02 0.  0.
         12    1    1    2    0    0  0.15071010695E+02 -0.23719723401E+01 -0.27999255175E+02  0.31886045639E+02  0.00000000000E+00 0. -1.
         11    1    3    3    0    0 -0.36045496697E+01 -0.21567938924E+02  0.10426588539E+02  0.24225658228E+02  0.51100000000E-03 0.  1.
        -11    1    3    3    0    0 -0.60464602951E+01  0.10399599731E+02 -0.26818090987E+00  0.12032592319E+02  0.51100000000E-03 0. -1.
        -12    1    3    3    0    0 -0.54200007298E+01  0.13540311533E+02  0.17840847545E+02  0.23043703814E+02  0.00000000000E+00 0.  1.
</event>
<event>
 7    1  0.3220798E-013  0.5930193E+02  0.7816164E-02  0.1266605E+00
        -11   -1    0    0    0    0  0.00000000000E+00  0.00000000000E+00  0.45593999997E+02  0.45594000000E+02  0.51100000000E-03 0.  1.
         11   -1    0    0    0    0 -0.00000000000E+00 -0.00000000000E+00 -0.45593999997E+02  0.45594000000E+02  0.51100000000E-03 0. -1.
    9900012    2    1    2    0    0  0.10999347878E+02 -0.11525653502E+02  0.27620553893E+02  0.59301931887E+02  0.49999977858E+02 0.  0.
         12    1    1    2    0    0 -0.10999347878E+02  0.11525653502E+02 -0.27620553893E+02  0.31886068113E+02  0.00000000000E+00 0. -1.
         11    1    3    3    0    0 -0.42377227860E+01 -0.23427689018E+01  0.24430479032E+02  0.24905725578E+02  0.51100000000E-03 0. -1.
        -11    1    3    3    0    0  0.59318349255E+01 -0.32970835833E+01  0.16074313267E+02  0.17448236960E+02  0.51100000000E-03 0.  1.
        -12    1    3    3    0    0  0.93052357380E+01 -0.58858010170E+01 -0.12884238406E+02  0.16947969349E+02  0.00000000000E+00 0.  1.
</event>
<event>
 7    1  0.3220798E-013  0.5930196E+02  0.7816164E-02  0.1266605E+00
        -11   -1    0    0    0    0  0.00000000000E+00  0.00000000000E+00  0.45593999997E+02  0.45594000000E+02  0.51100000000E-03 0.  1.
         11   -1    0    0    0    0 -0.00000000000E+00 -0.00000000000E+00 -0.45593999997E+02  0.45594000000E+02  0.51100000000E-03 0. -1.
    9900012    2    1    2    0    0 -0.15911710081E+02 -0.26678687071E+02 -0.71961531888E+01  0.59301961013E+02  0.50000030978E+02 0.  0.
         12    1    1    2    0    0  0.15911710081E+02  0.26678687071E+02  0.71961531888E+01  0.31886038987E+02  0.00000000000E+00 0. -1.
         11    1    3    3    0    0 -0.93780437772E+01  0.28212142829E+01 -0.64620053554E+01  0.11733050268E+02  0.51100000000E-03 0. -1.
        -11    1    3    3    0    0 -0.17180398645E+02 -0.27314648479E+02  0.84310023383E+01  0.33351730387E+02  0.51100000000E-03 0.  1.
        -12    1    3    3    0    0  0.10646732341E+02 -0.21852528746E+01 -0.91651501716E+01  0.14217180358E+02  0.00000000000E+00 0.  1.
</event>
<event>
 7    1  0.3220798E-013  0.5930195E+02  0.7816164E-02  0.1266605E+00
        -11   -1    0    0    0    0  0.00000000000E+00  0.00000000000E+00  0.45593999997E+02  0.45594000000E+02  0.51100000000E-03 0.  1.
         11   -1    0    0    0    0 -0.00000000000E+00 -0.00000000000E+00 -0.45593999997E+02  0.45594000000E+02  0.51100000000E-03 0. -1.
    9900012    2    1    2    0    0  0.73600272128E+00 -0.18327707635E+02  0.26082052874E+02  0.59301952122E+02  0.50000014762E+02 0.  0.
         12    1    1    2    0    0 -0.73600272128E+00  0.18327707635E+02 -0.26082052874E+02  0.31886047878E+02  0.00000000000E+00 0. -1.
         11    1    3    3    0    0 -0.32713298329E+01 -0.97894318016E+00 -0.80643287343E+01  0.87574726276E+01  0.51100000000E-03 0. -1.
        -11    1    3    3    0    0  0.56945742122E+01  0.61271852322E+01  0.23054921093E+02  0.24525496146E+02  0.51100000000E-03 0.  1.
         12    1    3    3    0    0 -0.16872416579E+01 -0.23475949687E+02  0.11091460516E+02  0.26018983348E+02  0.00000000000E+00 0. -1.
</event>
<event>
 7    1  0.3220798E-013  0.5930194E+02  0.7816164E-02  0.1266605E+00
        -11   -1    0    0    0    0  0.00000000000E+00  0.00000000000E+00  0.45593999997E+02  0.45594000000E+02  0.51100000000E-03 0.  1.
         11   -1    0    0    0    0 -0.00000000000E+00 -0.00000000000E+00 -0.45593999997E+02  0.45594000000E+02  0.51100000000E-03 0. -1.
    9900012    2    1    2    0    0 -0.73645624626E+01 -0.15091419710E+02  0.27105959652E+02  0.59301940698E+02  0.49999993928E+02 0.  0.
         12    1    1    2    0    0  0.73645624626E+01  0.15091419710E+02 -0.27105959652E+02  0.31886059302E+02  0.00000000000E+00 0. -1.
         11    1    3    3    0    0  0.10537464819E+02 -0.12663800939E+02  0.32665617811E+01  0.16795250673E+02  0.51100000000E-03 0. -1.
        -11    1    3    3    0    0  0.68785381284E+01  0.21568568112E+01 -0.81098387888E+00  0.72542410493E+01  0.51100000000E-03 0.  1.
        -12    1    3    3    0    0 -0.24780565410E+02 -0.45844755823E+01  0.24650381750E+02  0.35252448976E+02  0.00000000000E+00 0.  1.
</event>
<event>
 7    1  0.3220798E-013  0.5930195E+02  0.7816164E-02  0.1266605E+00
        -11   -1    0    0    0    0  0.00000000000E+00  0.00000000000E+00  0.45593999997E+02  0.45594000000E+02  0.51100000000E-03 0.  1.
         11   -1    0    0    0    0 -0.00000000000E+00 -0.00000000000E+00 -0.45593999997E+02  0.45594000000E+02  0.51100000000E-03 0. -1.
    9900012    2    1    2    0    0 -0.68690260463E+01 -0.30082181012E+02 -0.80373719451E+01  0.59301945352E+02  0.50000002415E+02 0.  0.
         12    1    1    2    0    0  0.68690260463E+01  0.30082181012E+02  0.80373719451E+01  0.31886054648E+02  0.00000000000E+00 0. -1.
         11    1    3    3    0    0 -0.38108493498E+01  0.13887298795E+01 -0.10445531663E+02  0.11205368152E+02  0.51100000000E-03 0. -1.
        -11    1    3    3    0    0 -0.13218425088E+02  0.28267318034E+00  0.60858493555E+01  0.14554869583E+02  0.51100000000E-03 0.  1.
         12    1    3    3    0    0  0.10160248392E+02 -0.31753584071E+02 -0.36776896376E+01  0.33541707617E+02  0.00000000000E+00 0. -1.
</event>
<event>
 7    1  0.3220798E-013  0.5930192E+02  0.7816164E-02  0.1266605E+00
        -11   -1    0    0    0    0  0.00000000000E+00  0.00000000000E+00  0.45593999997E+02  0.45594000000E+02  0.51100000000E-03 0.  1.
         11   -1    0    0    0    0 -0.00000000000E+00 -0.00000000000E+00 -0.45593999997E+02  0.45594000000E+02  0.51100000000E-03 0. -1.
    9900012    2    1    2    0    0  0.56711160878E+01 -0.30520102503E+02  0.72858600152E+01  0.59301921993E+02  0.49999959815E+02 0.  0.
         12    1    1    2    0    0 -0.56711160878E+01  0.30520102503E+02 -0.72858600152E+01  0.31886078007E+02  0.00000000000E+00 0. -1.
         11    1    3    3    0    0 -0.14207942240E+01  0.50396598360E+01 -0.13791556455E+02  0.14752079759E+02  0.51100000000E-03 0. -1.
        -11    1    3    3    0    0  0.73327701697E+01 -0.63814463123E+01  0.27887632875E+01  0.10112842149E+02  0.51100000000E-03 0.  1.
        -12    1    3    3    0    0 -0.24085985785E+00 -0.29178316027E+02  0.18288653183E+02  0.34437000085E+02  0.00000000000E+00 0.  1.
</event>
<event>
 7    1  0.3220798E-013  0.5930197E+02  0.7816164E-02  0.1266605E+00
        -11   -1    0    0    0    0  0.00000000000E+00  0.00000000000E+00  0.45593999997E+02  0.45594000000E+02  0.51100000000E-03 0. -1.
         11   -1    0    0    0    0 -0.00000000000E+00 -0.00000000000E+00 -0.45593999997E+02  0.45594000000E+02  0.51100000000E-03 0.  1.
    9900012    2    1    2    0    0  0.46490273246E+01 -0.95708384059E+01 -0.30058355865E+02  0.59301966065E+02  0.50000040190E+02 0.  0.
         12    1    1    2    0    0 -0.46490273246E+01  0.95708384059E+01  0.30058355865E+02  0.31886033935E+02  0.00000000000E+00 0. -1.
         11    1    3    3    0    0  0.97578219644E+01 -0.85947851063E+01 -0.50333794923E+01  0.13943469076E+02  0.51100000000E-03 0.  1.
        -11    1    3    3    0    0  0.10562808069E+02  0.11132318882E+02 -0.28165429021E+01  0.15602382901E+02  0.51100000000E-03 0. -1.
        -12    1    3    3    0    0 -0.15671602709E+02 -0.12108372182E+02 -0.22208433470E+02  0.29756114087E+02  0.00000000000E+00 0.  1.
</event>
<event>
 7    1  0.3220798E-013  0.5930192E+02  0.7816164E-02  0.1266605E+00
        -11   -1    0    0    0    0  0.00000000000E+00  0.00000000000E+00  0.45593999997E+02  0.45594000000E+02  0.51100000000E-03 0.  1.
         11   -1    0    0    0    0 -0.00000000000E+00 -0.00000000000E+00 -0.45593999997E+02  0.45594000000E+02  0.51100000000E-03 0. -1.
    9900012    2    1    2    0    0 -0.23681021171E+02 -0.20152905352E+02  0.70563195604E+01  0.59301921477E+02  0.49999958873E+02 0.  0.
         12    1    1    2    0    0  0.23681021171E+02  0.20152905352E+02 -0.70563195604E+01  0.31886078523E+02  0.00000000000E+00 0. -1.
         11    1    3    3    0    0 -0.50883096027E+01  0.56432002884E+01 -0.10238297543E+01  0.76671266935E+01  0.51100000000E-03 0. -1.
        -11    1    3    3    0    0  0.10533223700E+02 -0.64868841300E+01 -0.62570012221E+01  0.13862847175E+02  0.51100000000E-03 0.  1.
        -12    1    3    3    0    0 -0.29125935269E+02 -0.19309221511E+02  0.14337150537E+02  0.37771947609E+02  0.00000000000E+00 0.  1.
</event>
<event>
 7    1  0.3220798E-013  0.5930198E+02  0.7816164E-02  0.1266605E+00
        -11   -1    0    0    0    0  0.00000000000E+00  0.00000000000E+00  0.45593999997E+02  0.45594000000E+02  0.51100000000E-03 0. -1.
         11   -1    0    0    0    0 -0.00000000000E+00 -0.00000000000E+00 -0.45593999997E+02  0.45594000000E+02  0.51100000000E-03 0.  1.
    9900012    2    1    2    0    0 -0.24655476763E+02  0.17670178478E+02  0.98280580497E+01  0.59301976935E+02  0.50000060015E+02 0.  0.
         12    1    1    2    0    0  0.24655476763E+02 -0.17670178478E+02 -0.98280580497E+01  0.31886023065E+02  0.00000000000E+00 0. -1.
         11    1    3    3    0    0 -0.51515479727E+00 -0.86021134788E+01 -0.35195354781E-01  0.86175970978E+01  0.51100000000E-03 0. -1.
        -11    1    3    3    0    0  0.54368112184E+01  0.64638454040E+01  0.12392507639E+02  0.14997148378E+02  0.51100000000E-03 0.  1.
        -12    1    3    3    0    0 -0.29577133185E+02  0.19808446552E+02 -0.25292542346E+01  0.35687231459E+02  0.00000000000E+00 0.  1.
</event>
<event>
 7    1  0.3220798E-013  0.5930195E+02  0.7816164E-02  0.1266605E+00
        -11   -1    0    0    0    0  0.00000000000E+00  0.00000000000E+00  0.45593999997E+02  0.45594000000E+02  0.51100000000E-03 0.  1.
         11   -1    0    0    0    0 -0.00000000000E+00 -0.00000000000E+00 -0.45593999997E+02  0.45594000000E+02  0.51100000000E-03 0. -1.
    9900012    2    1    2    0    0  0.28334363070E+02 -0.35145893811E+01 -0.14196181055E+02  0.59301952493E+02  0.50000015438E+02 0.  0.
         12    1    1    2    0    0 -0.28334363070E+02  0.35145893811E+01  0.14196181055E+02  0.31886047507E+02  0.00000000000E+00 0. -1.
         11    1    3    3    0    0 -0.11673516799E+02  0.95994222327E+01 -0.25235977189E+01  0.15322808077E+02  0.51100000000E-03 0.  1.
        -11    1    3    3    0    0  0.11380535390E+02 -0.16504100581E+01 -0.42614753432E+01  0.12263792704E+02  0.51100000000E-03 0. -1.
        -12    1    3    3    0    0  0.28627344479E+02 -0.11463601556E+02 -0.74111079924E+01  0.31715351712E+02  0.00000000000E+00 0.  1.
</event>
<event>
 7    1  0.3220798E-013  0.5930194E+02  0.7816164E-02  0.1266605E+00
        -11   -1    0    0    0    0  0.00000000000E+00  0.00000000000E+00  0.45593999997E+02  0.45594000000E+02  0.51100000000E-03 0.  1.
         11   -1    0    0    0    0 -0.00000000000E+00 -0.00000000000E+00 -0.45593999997E+02  0.45594000000E+02  0.51100000000E-03 0. -1.
    9900012    2    1    2    0    0  0.29190133286E+02  0.85146250687E+01 -0.95998920561E+01  0.59301942721E+02  0.49999997617E+02 0.  0.
         12    1    1    2    0    0 -0.29190133286E+02 -0.85146250687E+01  0.95998920561E+01  0.31886057279E+02  0.00000000000E+00 0. -1.
         11    1    3    3    0    0  0.67766726671E+01  0.60358871381E+01  0.96980954017E+01  0.13281877904E+02  0.51100000000E-03 0. -1.
        -11    1    3    3    0    0  0.18496842045E+02 -0.77480657778E+01  0.38427020144E+01  0.20418913976E+02  0.51100000000E-03 0.  1.
         12    1    3    3    0    0  0.39166185741E+01  0.10226803708E+02 -0.23140689472E+02  0.25601150841E+02  0.00000000000E+00 0. -1.
</event>
<event>
 7    1  0.3220798E-013  0.5930196E+02  0.7816164E-02  0.1266605E+00
        -11   -1    0    0    0    0  0.00000000000E+00  0.00000000000E+00  0.45593999997E+02  0.45594000000E+02  0.51100000000E-03 0. -1.
         11   -1    0    0    0    0 -0.00000000000E+00 -0.00000000000E+00 -0.45593999997E+02  0.45594000000E+02  0.51100000000E-03 0.  1.
    9900012    2    1    2    0    0  0.26583301914E+02  0.55675000392E+01 -0.16704814286E+02  0.59301955754E+02  0.50000021385E+02 0.  0.
         12    1    1    2    0    0 -0.26583301914E+02 -0.55675000392E+01  0.16704814286E+02  0.31886044246E+02  0.00000000000E+00 0. -1.
         11    1    3    3    0    0  0.20311758905E+02 -0.16111389493E+02 -0.73148215776E+01  0.26937910761E+02  0.51100000000E-03 0.  1.
        -11    1    3    3    0    0  0.98913361043E+01  0.94255154420E+01  0.36146069679E+01  0.14133090783E+02  0.51100000000E-03 0. -1.
        -12    1    3    3    0    0 -0.36197930952E+01  0.12253374090E+02 -0.13004599676E+02  0.18230954210E+02  0.00000000000E+00 0.  1.
</event>
<event>
 7    1  0.3220798E-013  0.5930159E+02  0.7816164E-02  0.1266606E+00
        -11   -1    0    0    0    0  0.00000000000E+00  0.00000000000E+00  0.45593999997E+02  0.45594000000E+02  0.51100000000E-03 0. -1.
         11   -1    0    0    0    0 -0.00000000000E+00 -0.00000000000E+00 -0.45593999997E+02  0.45594000000E+02  0.51100000000E-03 0.  1.
    9900012    2    1    2    0    0 -0.23498891566E+02  0.17407404760E+02  0.12709345139E+02  0.59301590682E+02  0.49999355578E+02 0.  0.
         12    1    1    2    0    0  0.23498891566E+02 -0.17407404760E+02 -0.12709345139E+02  0.31886409318E+02  0.00000000000E+00 0. -1.
         11    1    3    3    0    0  0.79479348936E+01  0.77516726210E+01  0.27160220660E+01  0.11429561392E+02  0.51100000000E-03 0. -1.
        -11    1    3    3    0    0 -0.64896552095E+01 -0.11950963948E+02  0.49815770659E+01  0.14482999495E+02  0.51100000000E-03 0.  1.
         12    1    3    3    0    0 -0.24957171250E+02  0.21606696088E+02  0.50117460075E+01  0.33389029795E+02  0.00000000000E+00 0. -1.
</event>
<event>
 7    1  0.3220798E-013  0.5930197E+02  0.7816164E-02  0.1266605E+00
        -11   -1    0    0    0    0  0.00000000000E+00  0.00000000000E+00  0.45593999997E+02  0.45594000000E+02  0.51100000000E-03 0. -1.
         11   -1    0    0    0    0 -0.00000000000E+00 -0.00000000000E+00 -0.45593999997E+02  0.45594000000E+02  0.51100000000E-03 0.  1.
    9900012    2    1    2    0    0 -0.14791252136E+02  0.21892658842E+02 -0.17850749612E+02  0.59301969946E+02  0.50000047268E+02 0.  0.
         12    1    1    2    0    0  0.14791252136E+02 -0.21892658842E+02  0.17850749612E+02  0.31886030054E+02  0.00000000000E+00 0. -1.
         11    1    3    3    0    0 -0.55247600577E+01 -0.13612097987E+02 -0.14502210538E+02  0.20642826746E+02  0.51100000000E-03 0. -1.
        -11    1    3    3    0    0 -0.35862280591E+01  0.31040745431E+01 -0.32756840391E+01  0.57642359985E+01  0.51100000000E-03 0.  1.
         12    1    3    3    0    0 -0.56802640191E+01  0.32400682286E+02 -0.72855034856E-01  0.32894907201E+02  0.00000000000E+00 0. -1.
</event>
<event>
 7    1  0.3220798E-013  0.5930196E+02  0.7816164E-02  0.1266605E+00
        -11   -1    0    0    0    0  0.00000000000E+00  0.00000000000E+00  0.45593999997E+02  0.45594000000E+02  0.51100000000E-03 0.  1.
         11   -1    0    0    0    0 -0.00000000000E+00 -0.00000000000E+00 -0.45593999997E+02  0.45594000000E+02  0.51100000000E-03 0. -1.
    9900012    2    1    2    0    0 -0.12427950961E+02  0.28743105456E+02 -0.60083072311E+01  0.59301955527E+02  0.50000020971E+02 0.  0.
         12    1    1    2    0    0  0.12427950961E+02 -0.28743105456E+02  0.60083072311E+01  0.31886044473E+02  0.00000000000E+00 0. -1.
         11    1    3    3    0    0  0.52595597231E+01  0.74093980188E+00  0.72223741701E+01  0.89651909732E+01  0.51100000000E-03 0. -1.
        -11    1    3    3    0    0  0.90626098829E+01  0.16394309923E+02 -0.92966720662E+01  0.20912494053E+02  0.51100000000E-03 0.  1.
        -12    1    3    3    0    0 -0.26750120567E+02  0.11607855731E+02 -0.39340093350E+01  0.29424270501E+02  0.00000000000E+00 0.  1.
</event>
<event>
 7    1  0.3220798E-013  0.5930195E+02  0.7816164E-02  0.1266605E+00
        -11   -1    0    0    0    0  0.00000000000E+00  0.00000000000E+00  0.45593999997E+02  0.45594000000E+02  0.51100000000E-03 0.  1.
         11   -1    0    0    0    0 -0.00000000000E+00 -0.00000000000E+00 -0.45593999997E+02  0.45594000000E+02  0.51100000000E-03 0. -1.
    9900012    2    1    2    0    0  0.29108595019E+02 -0.12272973797E+02 -0.43340481874E+01  0.59301950331E+02  0.50000011495E+02 0.  0.
         12    1    1    2    0    0 -0.29108595019E+02  0.12272973797E+02  0.43340481874E+01  0.31886049669E+02  0.00000000000E+00 0. -1.
         11    1    3    3    0    0 -0.24923280035E+01  0.14364928189E+02 -0.35760771553E+01  0.15011701730E+02  0.51100000000E-03 0.  1.
        -11    1    3    3    0    0  0.72076061965E+01 -0.10664517311E+01  0.44959884534E+01  0.85615897363E+01  0.51100000000E-03 0. -1.
         12    1    3    3    0    0  0.24393316826E+02 -0.25571450256E+02 -0.52539594855E+01  0.35728658864E+02  0.00000000000E+00 0. -1.
</event>
<event>
 7    1  0.3220798E-013  0.5930197E+02  0.7816164E-02  0.1266605E+00
        -11   -1    0    0    0    0  0.00000000000E+00  0.00000000000E+00  0.45593999997E+02  0.45594000000E+02  0.51100000000E-03 0.  1.
         11   -1    0    0    0    0 -0.00000000000E+00 -0.00000000000E+00 -0.45593999997E+02  0.45594000000E+02  0.51100000000E-03 0. -1.
    9900012    2    1    2    0    0 -0.20143028463E+02 -0.23042840987E+02 -0.89445230995E+01  0.59301974693E+02  0.50000055926E+02 0.  0.
         12    1    1    2    0    0  0.20143028463E+02  0.23042840987E+02  0.89445230995E+01  0.31886025307E+02  0.00000000000E+00 0. -1.
         11    1    3    3    0    0 -0.93767091723E+01 -0.47065223413E+01 -0.10889843565E+02  0.15121597818E+02  0.51100000000E-03 0. -1.
        -11    1    3    3    0    0 -0.84858559366E+01 -0.28363956423E+02 -0.71436785705E+01  0.30455802710E+02  0.51100000000E-03 0.  1.
        -12    1    3    3    0    0 -0.22804633543E+01  0.10027637778E+02  0.90889990359E+01  0.13724574164E+02  0.00000000000E+00 0.  1.
</event>
<event>
 7    1  0.3220798E-013  0.5930190E+02  0.7816164E-02  0.1266605E+00
        -11   -1    0    0    0    0  0.00000000000E+00  0.00000000000E+00  0.45593999997E+02  0.45594000000E+02  0.51100000000E-03 0. -1.
         11   -1    0    0    0    0 -0.00000000000E+00 -0.00000000000E+00 -0.45593999997E+02  0.45594000000E+02  0.51100000000E-03 0.  1.
    9900012    2    1    2    0    0 -0.23875562366E+02  0.14938478677E+02 -0.14950682852E+02  0.59301897366E+02  0.49999914899E+02 0.  0.
         12    1    1    2    0    0  0.23875562366E+02 -0.14938478677E+02  0.14950682852E+02  0.31886102634E+02  0.00000000000E+00 0. -1.
         11    1    3    3    0    0 -0.54355949851E+01 -0.52770592481E+01  0.66653813440E+01  0.10090607309E+02  0.51100000000E-03 0. -1.
        -11    1    3    3    0    0  0.26056875608E+01  0.17146565771E+02  0.19667721272E+01  0.17454584448E+02  0.51100000000E-03 0.  1.
        -12    1    3    3    0    0 -0.21045654941E+02  0.30689721543E+01 -0.23582836324E+02  0.31756705608E+02  0.00000000000E+00 0.  1.
</event>
<event>
 7    1  0.3220798E-013  0.5930203E+02  0.7816164E-02  0.1266604E+00
        -11   -1    0    0    0    0  0.00000000000E+00  0.00000000000E+00  0.45593999997E+02  0.45594000000E+02  0.51100000000E-03 0. -1.
         11   -1    0    0    0    0 -0.00000000000E+00 -0.00000000000E+00 -0.45593999997E+02  0.45594000000E+02  0.51100000000E-03 0.  1.
    9900012    2    1    2    0    0 -0.20006829844E+02 -0.11974444549E+02 -0.21749818991E+02  0.59302028338E+02  0.50000153762E+02 0.  0.
         12    1    1    2    0    0  0.20006829844E+02  0.11974444549E+02  0.21749818991E+02  0.31885971662E+02  0.00000000000E+00 0. -1.
         11    1    3    3    0    0 -0.28909490929E+02 -0.36077577389E+01 -0.72256452691E+00  0.29142695164E+02  0.51100000000E-03 0. -1.
        -11    1    3    3    0    0 -0.30039167960E+01 -0.55148934941E+01 -0.55378064815E+00  0.63043032633E+01  0.51100000000E-03 0.  1.
         12    1    3    3    0    0  0.11906577881E+02 -0.28517933158E+01 -0.20473473816E+02  0.23855029911E+02  0.00000000000E+00 0. -1.
</event>
<event>
 7    1  0.3220798E-013  0.5930195E+02  0.7816164E-02  0.1266605E+00
        -11   -1    0    0    0    0  0.00000000000E+00  0.00000000000E+00  0.45593999997E+02  0.45594000000E+02  0.51100000000E-03 0. -1.
         11   -1    0    0    0    0 -0.00000000000E+00 -0.00000000000E+00 -0.45593999997E+02  0.45594000000E+02  0.51100000000E-03 0.  1.
    9900012    2    1    2    0    0 -0.25741875947E+02  0.18531416990E+02  0.32653871467E+01  0.59301947467E+02  0.50000006273E+02 0.  0.
         12    1    1    2    0    0  0.25741875947E+02 -0.18531416990E+02 -0.32653871467E+01  0.31886052533E+02  0.00000000000E+00 0. -1.
         11    1    3    3    0    0 -0.19811593839E+02  0.68947375425E+01 -0.40067272862E+01  0.21356275893E+02  0.51100000000E-03 0.  1.
        -11    1    3    3    0    0  0.99390054717E+00 -0.22542432188E+01 -0.12538916785E+02  0.12778649584E+02  0.51100000000E-03 0. -1.
         12    1    3    3    0    0 -0.69241826551E+01  0.13890922666E+02  0.19811031218E+02  0.25167021990E+02  0.00000000000E+00 0. -1.
</event>
<event>
 7    1  0.3220798E-013  0.5930194E+02  0.7816164E-02  0.1266605E+00
        -11   -1    0    0    0    0  0.00000000000E+00  0.00000000000E+00  0.45593999997E+02  0.45594000000E+02  0.51100000000E-03 0. -1.
         11   -1    0    0    0    0 -0.00000000000E+00 -0.00000000000E+00 -0.45593999997E+02  0.45594000000E+02  0.51100000000E-03 0.  1.
    9900012    2    1    2    0    0 -0.31290814796E+02 -0.55001781490E+01 -0.27117281471E+01  0.59301944744E+02  0.50000001306E+02 0.  0.
         12    1    1    2    0    0  0.31290814796E+02  0.55001781490E+01  0.27117281471E+01  0.31886055256E+02  0.00000000000E+00 0. -1.
         11    1    3    3    0    0  0.43268003455E+01  0.11390518062E+02 -0.98954262479E-01  0.12185027500E+02  0.51100000000E-03 0. -1.
        -11    1    3    3    0    0 -0.68318840139E+01 -0.19049238442E+01 -0.11462207306E+02  0.13479078998E+02  0.51100000000E-03 0.  1.
         12    1    3    3    0    0 -0.28785731128E+02 -0.14985772367E+02  0.88494334218E+01  0.33637838246E+02  0.00000000000E+00 0. -1.
</event>
<event>
 7    1  0.3220798E-013  0.5930195E+02  0.7816164E-02  0.1266605E+00
        -11   -1    0    0    0    0  0.00000000000E+00  0.00000000000E+00  0.45593999997E+02  0.45594000000E+02  0.51100000000E-03 0.  1.
         11   -1    0    0    0    0 -0.00000000000E+00 -0.00000000000E+00 -0.45593999997E+02  0.45594000000E+02  0.51100000000E-03 0. -1.
    9900012    2    1    2    0    0  0.16224407789E+02 -0.36649156785E+01  0.27203996867E+02  0.59301945672E+02  0.50000002999E+02 0.  0.
         12    1    1    2    0    0 -0.16224407789E+02  0.36649156785E+01 -0.27203996867E+02  0.31886054328E+02  0.00000000000E+00 0. -1.
         11    1    3    3    0    0  0.13029978525E+02  0.27178913464E+01 -0.11089275725E+01  0.13356533770E+02  0.51100000000E-03 0. -1.
        -11    1    3    3    0    0  0.14036712923E+02  0.94688544592E+01  0.12084940804E+02  0.20802266919E+02  0.51100000000E-03 0.  1.
        -12    1    3    3    0    0 -0.10842283659E+02 -0.15851661484E+02  0.16227983636E+02  0.25143144983E+02  0.00000000000E+00 0.  1.
</event>
<event>
 7    1  0.3220798E-013  0.5930195E+02  0.7816164E-02  0.1266605E+00
        -11   -1    0    0    0    0  0.00000000000E+00  0.00000000000E+00  0.45593999997E+02  0.45594000000E+02  0.51100000000E-03 0. -1.
         11   -1    0    0    0    0 -0.00000000000E+00 -0.00000000000E+00 -0.45593999997E+02  0.45594000000E+02  0.51100000000E-03 0.  1.
    9900012    2    1    2    0    0  0.27139333984E+02 -0.41289855993E+01 -0.16221231869E+02  0.59301947650E+02  0.50000006606E+02 0.  0.
         12    1    1    2    0    0 -0.27139333984E+02  0.41289855993E+01  0.16221231869E+02  0.31886052350E+02  0.00000000000E+00 0. -1.
         11    1    3    3    0    0  0.14683130764E+01 -0.98601834801E+01 -0.15084002747E+02  0.18080550343E+02  0.51100000000E-03 0. -1.
        -11    1    3    3    0    0  0.63054475287E+01  0.29931646474E+01 -0.15471334308E+02  0.16972916328E+02  0.51100000000E-03 0.  1.
         12    1    3    3    0    0  0.19365573378E+02  0.27380332334E+01  0.14334105187E+02  0.24248480979E+02  0.00000000000E+00 0. -1.
</event>
<event>
 7    1  0.3369721E-013  0.5930192E+02  0.7816164E-02  0.1266605E+00
        -11   -1    0    0    0    0  0.00000000000E+00  0.00000000000E+00  0.45593999997E+02  0.45594000000E+02  0.51100000000E-03 0. -1.
         11   -1    0    0    0    0 -0.00000000000E+00 -0.00000000000E+00 -0.45593999997E+02  0.45594000000E+02  0.51100000000E-03 0.  1.
    9900012    2    1    2    0    0 -0.21955610902E+02  0.15611456037E+02 -0.17057415715E+02  0.59301924033E+02  0.49999963535E+02 0.  0.
         12    1    1    2    0    0  0.21955610902E+02 -0.15611456037E+02  0.17057415715E+02  0.31886075967E+02  0.00000000000E+00 0. -1.
         11    1    3    3    0    0 -0.30984922969E+01  0.16479985292E+02 -0.11568288652E+02  0.20371938355E+02  0.51100000000E-03 0. -1.
        -11    1    3    3    0    0 -0.61627540510E+01 -0.41791435492E+01 -0.18812106525E+02  0.20232155853E+02  0.51100000000E-03 0.  1.
         12    1    3    3    0    0 -0.12694364554E+02  0.33106142948E+01  0.13322979462E+02  0.18697829825E+02  0.00000000000E+00 0. -1.
</event>
<event>
 7    1  0.3220798E-013  0.5930196E+02  0.7816164E-02  0.1266605E+00
        -11   -1    0    0    0    0  0.00000000000E+00  0.00000000000E+00  0.45593999997E+02  0.45594000000E+02  0.51100000000E-03 0.  1.
         11   -1    0    0    0    0 -0.00000000000E+00 -0.00000000000E+00 -0.45593999997E+02  0.45594000000E+02  0.51100000000E-03 0. -1.
    9900012    2    1    2    0    0 -0.11610622135E+02 -0.60256516717E+01  0.29079275511E+02  0.59301964049E+02  0.50000036514E+02 0.  0.
         12    1    1    2    0    0  0.11610622135E+02  0.60256516717E+01 -0.29079275511E+02  0.31886035951E+02  0.00000000000E+00 0. -1.
         11    1    3    3    0    0 -0.65467126653E-01 -0.20956773680E+01  0.15993230701E+02  0.16130083016E+02  0.51100000000E-03 0. -1.
        -11    1    3    3    0    0  0.75057833001E+01 -0.12819930462E+02  0.16131097402E+02  0.21929425520E+02  0.51100000000E-03 0.  1.
         12    1    3    3    0    0 -0.19050938308E+02  0.88899561580E+01 -0.30450525920E+01  0.21242455513E+02  0.00000000000E+00 0. -1.
</event>
<event>
 7    1  0.3220798E-013  0.5930195E+02  0.7816164E-02  0.1266605E+00
        -11   -1    0    0    0    0  0.00000000000E+00  0.00000000000E+00  0.45593999997E+02  0.45594000000E+02  0.51100000000E-03 0.  1.
         11   -1    0    0    0    0 -0.00000000000E+00 -0.00000000000E+00 -0.45593999997E+02  0.45594000000E+02  0.51100000000E-03 0. -1.
    9900012    2    1    2    0    0 -0.16548712271E+02 -0.16830129547E+02  0.21438441887E+02  0.59301954009E+02  0.50000018203E+02 0.  0.
         12    1    1    2    0    0  0.16548712271E+02  0.16830129547E+02 -0.21438441887E+02  0.31886045991E+02  0.00000000000E+00 0. -1.
         11    1    3    3    0    0 -0.13803416762E+02 -0.14096818263E+02  0.11316253066E+02  0.22744497866E+02  0.51100000000E-03 0. -1.
        -11    1    3    3    0    0 -0.74803300122E+01  0.11683099490E+02  0.15178584766E+02  0.20563063647E+02  0.51100000000E-03 0.  1.
         12    1    3    3    0    0  0.47350345034E+01 -0.14416410774E+02 -0.50563959447E+01  0.15994392496E+02  0.00000000000E+00 0. -1.
</event>
<event>
 7    1  0.3220798E-013  0.5930193E+02  0.7816164E-02  0.1266605E+00
        -11   -1    0    0    0    0  0.00000000000E+00  0.00000000000E+00  0.45593999997E+02  0.45594000000E+02  0.51100000000E-03 0.  1.
         11   -1    0    0    0    0 -0.00000000000E+00 -0.00000000000E+00 -0.45593999997E+02  0.45594000000E+02  0.51100000000E-03 0. -1.
    9900012    2    1    2    0    0  0.20966651451E+02  0.21692599881E+02  0.10322402056E+02  0.59301931774E+02  0.49999977653E+02 0.  0.
         12    1    1    2    0    0 -0.20966651451E+02 -0.21692599881E+02 -0.10322402056E+02  0.31886068226E+02  0.00000000000E+00 0. -1.
         11    1    3    3    0    0  0.29072657248E+01  0.18236677279E+02 -0.30435748995E+01  0.18716087748E+02  0.51100000000E-03 0. -1.
        -11    1    3    3    0    0  0.23485818848E+02  0.13173527603E+02  0.72542744516E+01  0.27888169796E+02  0.51100000000E-03 0.  1.
         12    1    3    3    0    0 -0.54264331216E+01 -0.97176050006E+01  0.61117025036E+01  0.12697674230E+02  0.00000000000E+00 0. -1.
</event>
<event>
 7    1  0.3220798E-013  0.5930196E+02  0.7816164E-02  0.1266605E+00
        -11   -1    0    0    0    0  0.00000000000E+00  0.00000000000E+00  0.45593999997E+02  0.45594000000E+02  0.51100000000E-03 0.  1.
         11   -1    0    0    0    0 -0.00000000000E+00 -0.00000000000E+00 -0.45593999997E+02  0.45594000000E+02  0.51100000000E-03 0. -1.
    9900012    2    1    2    0    0 -0.85875042478E+01  0.19388037090E+01  0.30646621429E+02  0.59301959261E+02  0.50000027781E+02 0.  0.
         12    1    1    2    0    0  0.85875042478E+01 -0.19388037090E+01 -0.30646621429E+02  0.31886040739E+02  0.00000000000E+00 0. -1.
         11    1    3    3    0    0  0.82534015808E+01 -0.26287474590E+01 -0.25833125784E+01  0.90389410329E+01  0.51100000000E-03 0. -1.
        -11    1    3    3    0    0  0.85652640649E+01  0.27079229680E+01  0.19160533618E+02  0.21161820435E+02  0.51100000000E-03 0.  1.
        -12    1    3    3    0    0 -0.25406169893E+02  0.18596282000E+01  0.14069400389E+02  0.29101197793E+02  0.00000000000E+00 0.  1.
</event>
<event>
 7    1  0.3220798E-013  0.5930193E+02  0.7816164E-02  0.1266605E+00
        -11   -1    0    0    0    0  0.00000000000E+00  0.00000000000E+00  0.45593999997E+02  0.45594000000E+02  0.51100000000E-03 0.  1.
         11   -1    0    0    0    0 -0.00000000000E+00 -0.00000000000E+00 -0.45593999997E+02  0.45594000000E+02  0.51100000000E-03 0. -1.
    9900012    2    1    2    0    0 -0.21377204063E+02 -0.20938234758E+02  0.11014837396E+02  0.59301934529E+02  0.49999982677E+02 0.  0.
         12    1    1    2    0    0  0.21377204063E+02  0.20938234758E+02 -0.11014837396E+02  0.31886065471E+02  0.00000000000E+00 0. -1.
         11    1    3    3    0    0 -0.19740884085E+02  0.20470456037E+01  0.49153085133E+01  0.20446348285E+02  0.51100000000E-03 0. -1.
        -11    1    3    3    0    0 -0.62114727718E+01 -0.90381355690E+01  0.17237084199E+02  0.20430060218E+02  0.51100000000E-03 0.  1.
        -12    1    3    3    0    0  0.45751527932E+01 -0.13947144793E+02 -0.11137555316E+02  0.18425526027E+02  0.00000000000E+00 0.  1.
</event>
<event>
 7    1  0.3220798E-013  0.5930180E+02  0.7816164E-02  0.1266605E+00
        -11   -1    0    0    0    0  0.00000000000E+00  0.00000000000E+00  0.45593999997E+02  0.45594000000E+02  0.51100000000E-03 0.  1.
         11   -1    0    0    0    0 -0.00000000000E+00 -0.00000000000E+00 -0.45593999997E+02  0.45594000000E+02  0.51100000000E-03 0. -1.
    9900012    2    1    2    0    0 -0.79664626541E+01  0.21468443814E+02  0.22189441631E+02  0.59301797233E+02  0.49999732280E+02 0.  0.
         12    1    1    2    0    0  0.79664626541E+01 -0.21468443814E+02 -0.22189441631E+02  0.31886202767E+02  0.00000000000E+00 0. -1.
         11    1    3    3    0    0  0.61115236128E+01  0.12077935583E+01 -0.39861323037E+01  0.73958594601E+01  0.51100000000E-03 0. -1.
        -11    1    3    3    0    0 -0.21299203270E+02 -0.36851827164E+00  0.59273472549E+01  0.22111655556E+02  0.51100000000E-03 0.  1.
        -12    1    3    3    0    0  0.72212170033E+01  0.20629168528E+02  0.20248226680E+02  0.29794282217E+02  0.00000000000E+00 0.  1.
</event>
<event>
 7    1  0.3220798E-013  0.5930223E+02  0.7816164E-02  0.1266604E+00
        -11   -1    0    0    0    0  0.00000000000E+00  0.00000000000E+00  0.45593999997E+02  0.45594000000E+02  0.51100000000E-03 0.  1.
         11   -1    0    0    0    0 -0.00000000000E+00 -0.00000000000E+00 -0.45593999997E+02  0.45594000000E+02  0.51100000000E-03 0. -1.
    9900012    2    1    2    0    0 -0.58382069401E+00  0.13486175755E+02  0.28887450867E+02  0.59302225732E+02  0.50000513758E+02 0.  0.
         12    1    1    2    0    0  0.58382069401E+00 -0.13486175755E+02 -0.28887450867E+02  0.31885774268E+02  0.00000000000E+00 0. -1.
         11    1    3    3    0    0 -0.17607745239E+02  0.15789491084E+02  0.53105233443E+01  0.24239273495E+02  0.51100000000E-03 0. -1.
        -11    1    3    3    0    0  0.49286556317E+01  0.84048296929E+01  0.77768871121E+01  0.12466466296E+02  0.51100000000E-03 0.  1.
         12    1    3    3    0    0  0.12095268913E+02 -0.10708145022E+02  0.15800040410E+02  0.22596485941E+02  0.00000000000E+00 0. -1.
</event>
<event>
 7    1  0.3220798E-013  0.5930195E+02  0.7816164E-02  0.1266605E+00
        -11   -1    0    0    0    0  0.00000000000E+00  0.00000000000E+00  0.45593999997E+02  0.45594000000E+02  0.51100000000E-03 0.  1.
         11   -1    0    0    0    0 -0.00000000000E+00 -0.00000000000E+00 -0.45593999997E+02  0.45594000000E+02  0.51100000000E-03 0. -1.
    9900012    2    1    2    0    0  0.32431496385E+01  0.23165995191E+02  0.21668849936E+02  0.59301946461E+02  0.50000004437E+02 0.  0.
         12    1    1    2    0    0 -0.32431496385E+01 -0.23165995191E+02 -0.21668849936E+02  0.31886053539E+02  0.00000000000E+00 0. -1.
         11    1    3    3    0    0  0.12480687305E+02  0.12172006025E+02  0.29649936257E+01  0.17683791271E+02  0.51100000000E-03 0. -1.
        -11    1    3    3    0    0 -0.16399336882E+02  0.17312905055E+02  0.21022012838E+02  0.31789934816E+02  0.51100000000E-03 0.  1.
         12    1    3    3    0    0  0.71617992153E+01 -0.63189158892E+01 -0.23181565272E+01  0.98282203730E+01  0.00000000000E+00 0. -1.
</event>
<event>
 7    1  0.3220798E-013  0.5930193E+02  0.7816164E-02  0.1266605E+00
        -11   -1    0    0    0    0  0.00000000000E+00  0.00000000000E+00  0.45593999997E+02  0.45594000000E+02  0.51100000000E-03 0.  1.
         11   -1    0    0    0    0 -0.00000000000E+00 -0.00000000000E+00 -0.45593999997E+02  0.45594000000E+02  0.51100000000E-03 0. -1.
    9900012    2    1    2    0    0 -0.14326184041E+02 -0.50722158168E+01  0.28031308450E+02  0.59301934455E+02  0.49999982542E+02 0.  0.
         12    1    1    2    0    0  0.14326184041E+02  0.50722158168E+01 -0.28031308450E+02  0.31886065545E+02  0.00000000000E+00 0. -1.
         11    1    3    3    0    0  0.12561612116E+02  0.41982476851E+01  0.88592300610E+01  0.15934407429E+02  0.51100000000E-03 0. -1.
        -11    1    3    3    0    0 -0.94923451682E+01 -0.64739067798E+01  0.22660241688E+02  0.25406743975E+02  0.51100000000E-03 0.  1.
        -12    1    3    3    0    0 -0.17395450989E+02 -0.27965567220E+01 -0.34881632986E+01  0.17960783051E+02  0.00000000000E+00 0.  1.
</event>
<event>
 7    1  0.3220798E-013  0.5930196E+02  0.7816164E-02  0.1266605E+00
        -11   -1    0    0    0    0  0.00000000000E+00  0.00000000000E+00  0.45593999997E+02  0.45594000000E+02  0.51100000000E-03 0.  1.
         11   -1    0    0    0    0 -0.00000000000E+00 -0.00000000000E+00 -0.45593999997E+02  0.45594000000E+02  0.51100000000E-03 0. -1.
    9900012    2    1    2    0    0  0.27665037902E+02  0.10271587787E+02  0.12077227512E+02  0.59301964465E+02  0.50000037272E+02 0.  0.
         12    1    1    2    0    0 -0.27665037902E+02 -0.10271587787E+02 -0.12077227512E+02  0.31886035535E+02  0.00000000000E+00 0. -1.
         11    1    3    3    0    0 -0.10871701805E+02  0.97917518979E+01  0.13415413330E+02  0.19850582370E+02  0.51100000000E-03 0.  1.
        -11    1    3    3    0    0  0.45671788601E+01 -0.19236715860E+01  0.17535025863E+01  0.52568437957E+01  0.51100000000E-03 0. -1.
        -12    1    3    3    0    0  0.33969560847E+02  0.24035074750E+01 -0.30916884035E+01  0.34194538299E+02  0.00000000000E+00 0.  1.
</event>
<event>
 7    1  0.3647205E-013  0.5930196E+02  0.7816164E-02  0.1266605E+00
        -11   -1    0    0    0    0  0.00000000000E+00  0.00000000000E+00  0.45593999997E+02  0.45594000000E+02  0.51100000000E-03 0. -1.
         11   -1    0    0    0    0 -0.00000000000E+00 -0.00000000000E+00 -0.45593999997E+02  0.45594000000E+02  0.51100000000E-03 0.  1.
    9900012    2    1    2    0    0 -0.53499892476E+00  0.19119106693E+02 -0.25512605711E+02  0.59301960504E+02  0.50000030049E+02 0.  0.
         12    1    1    2    0    0  0.53499892476E+00 -0.19119106693E+02  0.25512605711E+02  0.31886039496E+02  0.00000000000E+00 0. -1.
         11    1    3    3    0    0  0.24915282627E+01  0.79058668256E+01 -0.20648460299E+01  0.85424839910E+01  0.51100000000E-03 0. -1.
        -11    1    3    3    0    0  0.53382328524E+01  0.20629398234E+02 -0.29814631185E+02  0.36646705642E+02  0.51100000000E-03 0.  1.
         12    1    3    3    0    0 -0.83647600399E+01 -0.94161583666E+01  0.63668715036E+01  0.14112770871E+02  0.00000000000E+00 0. -1.
</event>
<event>
 7    1  0.3220798E-013  0.5930194E+02  0.7816164E-02  0.1266605E+00
        -11   -1    0    0    0    0  0.00000000000E+00  0.00000000000E+00  0.45593999997E+02  0.45594000000E+02  0.51100000000E-03 0.  1.
         11   -1    0    0    0    0 -0.00000000000E+00 -0.00000000000E+00 -0.45593999997E+02  0.45594000000E+02  0.51100000000E-03 0. -1.
    9900012    2    1    2    0    0 -0.37296359140E+00 -0.11735442184E+02  0.29645588709E+02  0.59301942937E+02  0.49999998011E+02 0.  0.
         12    1    1    2    0    0  0.37296359140E+00  0.11735442184E+02 -0.29645588709E+02  0.31886057063E+02  0.00000000000E+00 0. -1.
         11    1    3    3    0    0  0.13305676998E+02  0.66879635481E+01  0.10906265277E+02  0.18458508048E+02  0.51100000000E-03 0. -1.
        -11    1    3    3    0    0 -0.23674558271E+01 -0.64393241437E+01  0.22851342353E+02  0.23859035817E+02  0.51100000000E-03 0.  1.
         12    1    3    3    0    0 -0.11311184763E+02 -0.11984081589E+02 -0.41120189202E+01  0.16984399073E+02  0.00000000000E+00 0. -1.
</event>
<event>
 7    1  0.3220798E-013  0.5930191E+02  0.7816164E-02  0.1266605E+00
        -11   -1    0    0    0    0  0.00000000000E+00  0.00000000000E+00  0.45593999997E+02  0.45594000000E+02  0.51100000000E-03 0. -1.
         11   -1    0    0    0    0 -0.00000000000E+00 -0.00000000000E+00 -0.45593999997E+02  0.45594000000E+02  0.51100000000E-03 0.  1.
    9900012    2    1    2    0    0 -0.13866479063E+02 -0.27721489273E+02 -0.74807911873E+01  0.59301914541E+02  0.49999946224E+02 0.  0.
         12    1    1    2    0    0  0.13866479063E+02  0.27721489273E+02  0.74807911873E+01  0.31886085459E+02  0.00000000000E+00 0. -1.
         11    1    3    3    0    0 -0.21820838151E+02 -0.13851961840E+02  0.47353383002E+01  0.26276401076E+02  0.51100000000E-03 0. -1.
        -11    1    3    3    0    0 -0.76616732640E+01  0.14285044793E+01 -0.71696526898E+01  0.10589890566E+02  0.51100000000E-03 0.  1.
        -12    1    3    3    0    0  0.15616032352E+02 -0.15298031912E+02 -0.50464767977E+01  0.22435622899E+02  0.00000000000E+00 0.  1.
</event>
<event>
 7    1  0.3220798E-013  0.5930196E+02  0.7816164E-02  0.1266605E+00
        -11   -1    0    0    0    0  0.00000000000E+00  0.00000000000E+00  0.45593999997E+02  0.45594000000E+02  0.51100000000E-03 0.  1.
         11   -1    0    0    0    0 -0.00000000000E+00 -0.00000000000E+00 -0.45593999997E+02  0.45594000000E+02  0.51100000000E-03 0. -1.
    9900012    2    1    2    0    0  0.10771542745E+02 -0.17048203165E+02  0.24699228696E+02  0.59301964460E+02  0.50000037264E+02 0.  0.
         12    1    1    2    0    0 -0.10771542745E+02  0.17048203165E+02 -0.24699228696E+02  0.31886035540E+02  0.00000000000E+00 0. -1.
         11    1    3    3    0    0  0.19828142501E+02  0.37156571843E+01 -0.37163808035E+01  0.20512747985E+02  0.51100000000E-03 0. -1.
        -11    1    3    3    0    0 -0.83835741759E+01 -0.89654861198E+01  0.64973490067E+01  0.13888117284E+02  0.51100000000E-03 0.  1.
        -12    1    3    3    0    0 -0.67302557993E+00 -0.11798374230E+02  0.21918260493E+02  0.24901099191E+02  0.00000000000E+00 0.  1.
</event>
<event>
 7    1  0.3220798E-013  0.5930194E+02  0.7816164E-02  0.1266605E+00
        -11   -1    0    0    0    0  0.00000000000E+00  0.00000000000E+00  0.45593999997E+02  0.45594000000E+02  0.51100000000E-03 0. -1.
         11   -1    0    0    0    0 -0.00000000000E+00 -0.00000000000E+00 -0.45593999997E+02  0.45594000000E+02  0.51100000000E-03 0.  1.
    9900012    2    1    2    0    0 -0.21514654011E+02  0.22894104504E+02 -0.54498000918E+01  0.59301942243E+02  0.49999996745E+02 0.  0.
         12    1    1    2    0    0  0.21514654011E+02 -0.22894104504E+02  0.54498000918E+01  0.31886057757E+02  0.00000000000E+00 0. -1.
         11    1    3    3    0    0 -0.14338643161E+02  0.30739880833E+01  0.17857716685E+02  0.23107231247E+02  0.51100000000E-03 0. -1.
        -11    1    3    3    0    0  0.44835747305E+01  0.54644883802E-01 -0.21144190557E+01  0.49574385151E+01  0.51100000000E-03 0.  1.
        -12    1    3    3    0    0 -0.11659585580E+02  0.19765471537E+02 -0.21193097721E+02  0.31237272481E+02  0.00000000000E+00 0.  1.
</event>
<event>
 7    1  0.3220798E-013  0.5930194E+02  0.7816164E-02  0.1266605E+00
        -11   -1    0    0    0    0  0.00000000000E+00  0.00000000000E+00  0.45593999997E+02  0.45594000000E+02  0.51100000000E-03 0.  1.
         11   -1    0    0    0    0 -0.00000000000E+00 -0.00000000000E+00 -0.45593999997E+02  0.45594000000E+02  0.51100000000E-03 0. -1.
    9900012    2    1    2    0    0 -0.12467684785E+02  0.28623012127E+02  0.64807876576E+01  0.59301943553E+02  0.49999999133E+02 0.  0.
         12    1    1    2    0    0  0.12467684785E+02 -0.28623012127E+02 -0.64807876576E+01  0.31886056447E+02  0.00000000000E+00 0. -1.
         11    1    3    3    0    0 -0.21717654253E+01 -0.97684904759E+01  0.38123225607E+01  0.10708584164E+02  0.51100000000E-03 0. -1.
        -11    1    3    3    0    0 -0.64876163206E+01  0.33412852904E+01 -0.88798550040E+01  0.11493701670E+02  0.51100000000E-03 0.  1.
        -12    1    3    3    0    0 -0.38083030389E+01  0.35050217312E+02  0.11548320101E+02  0.37099657719E+02  0.00000000000E+00 0.  1.
</event>
<event>
 7    1  0.3220798E-013  0.5930194E+02  0.7816164E-02  0.1266605E+00
        -11   -1    0    0    0    0  0.00000000000E+00  0.00000000000E+00  0.45593999997E+02  0.45594000000E+02  0.51100000000E-03 0.  1.
         11   -1    0    0    0    0 -0.00000000000E+00 -0.00000000000E+00 -0.45593999997E+02  0.45594000000E+02  0.51100000000E-03 0. -1.
    9900012    2    1    2    0    0 -0.30145782777E+02 -0.29561531643E+01  0.99606039234E+01  0.59301942055E+02  0.49999996401E+02 0.  0.
         12    1    1    2    0    0  0.30145782777E+02  0.29561531643E+01 -0.99606039234E+01  0.31886057945E+02  0.00000000000E+00 0. -1.
         11    1    3    3    0    0  0.39424362638E+00  0.71323248187E+01 -0.64873582812E+01  0.96494198316E+01  0.51100000000E-03 0. -1.
        -11    1    3    3    0    0 -0.11440825893E+02  0.10398891217E+01 -0.99668274369E+01  0.15208928822E+02  0.51100000000E-03 0.  1.
        -12    1    3    3    0    0 -0.19099200511E+02 -0.11128367105E+02  0.26414789642E+02  0.34443593401E+02  0.00000000000E+00 0.  1.
</event>
